
     Program PWSCF v.7.2 starts on 21Jun2024 at 18: 1:19 

     This program is part of the open-source Quantum ESPRESSO suite
     for quantum simulation of materials; please cite
         "P. Giannozzi et al., J. Phys.:Condens. Matter 21 395502 (2009);
         "P. Giannozzi et al., J. Phys.:Condens. Matter 29 465901 (2017);
         "P. Giannozzi et al., J. Chem. Phys. 152 154105 (2020);
          URL http://www.quantum-espresso.org", 
     in publications or presentations arising from this work. More details at
     http://www.quantum-espresso.org/quote

     Parallel version (MPI & OpenMP), running on      48 processor cores
     Number of MPI processes:                48
     Threads/MPI process:                     1

     MPI processes distributed on     1 nodes
     180142 MiB available memory on the printing compute node when the environment starts
 
     Reading input from espresso.pwi
Warning: card &CELL ignored
Warning: card / ignored
Warning: card &FCP ignored
Warning: card / ignored
Warning: card &RISM ignored
Warning: card / ignored

     Current dimensions of program PWSCF are:
     Max number of different atomic species (ntypx) = 10
     Max number of k-points (npk) =  40000
     Max angular momentum in pseudopotentials (lmaxx) =  4
     file O.pbe-n-kjpaw_psl.0.1.UPF: wavefunction(s)  2P renormalized
     signal trapping enabled: kill the code with -SIGUSR1 to stop cleanly the simulation 
 
     K-points division:     npool     =       2
     R & G space division:  proc/nbgrp/npool/nimage =      24
     Subspace diagonalization in iterative solution of the eigenvalue problem:
     one sub-group per band group will be used
     scalapack distributed-memory algorithm (size of sub-group:  3*  3 procs)

 
     Parallelization info
     --------------------
     sticks:   dense  smooth     PW     G-vecs:    dense   smooth      PW
     Min         350     175     47                61430    21716    3036
     Max         351     177     48                61449    21727    3041
     Sum        8421    4205   1137              1474595   521381   72913
 
     Using Slab Decomposition
 


     bravais-lattice index     =            0
     lattice parameter (alat)  =      14.8599  a.u.
     unit-cell volume          =    8305.1283 (a.u.)^3
     number of atoms/cell      =           49
     number of atomic types    =            4
     number of electrons       =       425.00
     number of Kohn-Sham states=          256
     kinetic-energy cutoff     =      60.0000  Ry
     charge density cutoff     =     480.0000  Ry
     scf convergence threshold =      1.0E-08
     mixing beta               =       0.1500
     number of iterations used =            8  local-TF  mixing
     Exchange-correlation= PBE
                           (   1   4   3   4   0   0   0)

     celldm(1)=  14.859904  celldm(2)=   0.000000  celldm(3)=   0.000000
     celldm(4)=   0.000000  celldm(5)=   0.000000  celldm(6)=   0.000000

     crystal axes: (cart. coord. in units of alat)
               a(1) = (   1.000000   0.000000   0.000000 )  
               a(2) = (   0.000000   1.000000   0.000000 )  
               a(3) = (   0.000000   0.000000   2.531036 )  

     reciprocal axes: (cart. coord. in units 2 pi/alat)
               b(1) = (  1.000000  0.000000  0.000000 )  
               b(2) = (  0.000000  1.000000  0.000000 )  
               b(3) = (  0.000000  0.000000  0.395095 )  


     PseudoPot. # 1 for Sr read from file:
     /bsuhome/zayahcortright/q-e/pseudo/Sr_pbe_v1.uspp.F.UPF
     MD5 check sum: 6b418c05fbe9db5448babca5e47b7a5b
     Pseudo is Ultrasoft + core correction, Zval = 10.0
     Generated by new atomic code, or converted to UPF format
     Using radial grid of  883 points,  6 beta functions with: 
                l(1) =   0
                l(2) =   0
                l(3) =   1
                l(4) =   1
                l(5) =   2
                l(6) =   2
     Q(r) pseudized with  6 coefficients,  rinner =    1.400   1.400   1.400
                                                       1.400   1.400

     PseudoPot. # 2 for O  read from file:
     /bsuhome/zayahcortright/q-e/pseudo/O.pbe-n-kjpaw_psl.0.1.UPF
     MD5 check sum: 0234752ac141de4415c5fc33072bef88
     Pseudo is Projector augmented-wave + core cor, Zval =  6.0
     Generated using "atomic" code by A. Dal Corso  v.5.0.99 svn rev. 10869
     Shape of augmentation charge: BESSEL
     Using radial grid of 1095 points,  4 beta functions with: 
                l(1) =   0
                l(2) =   0
                l(3) =   1
                l(4) =   1
     Q(r) pseudized with 0 coefficients 


     PseudoPot. # 3 for Co read from file:
     /bsuhome/zayahcortright/q-e/pseudo/Co_pbe_v1.2.uspp.F.UPF
     MD5 check sum: 5f91765df6ddd3222702df6e7b74a16d
     Pseudo is Ultrasoft + core correction, Zval = 17.0
     Generated by new atomic code, or converted to UPF format
     Using radial grid of  863 points,  6 beta functions with: 
                l(1) =   0
                l(2) =   0
                l(3) =   1
                l(4) =   1
                l(5) =   2
                l(6) =   2
     Q(r) pseudized with  8 coefficients,  rinner =    1.200   1.200   1.200
                                                       1.200   1.200

     PseudoPot. # 4 for H  read from file:
     /bsuhome/zayahcortright/q-e/pseudo/H.pbe-rrkjus_psl.1.0.0.UPF
     MD5 check sum: f52b6d4d1c606e5624b1dc7b2218f220
     Pseudo is Ultrasoft, Zval =  1.0
     Generated using "atomic" code by A. Dal Corso  v.5.1
     Using radial grid of  929 points,  2 beta functions with: 
                l(1) =   0
                l(2) =   0
     Q(r) pseudized with 0 coefficients 


     atomic species   valence    mass     pseudopotential
        Sr            10.00    87.62000     Sr( 1.00)
        O              6.00    15.99900     O ( 1.00)
        Co            17.00    58.93319     Co( 1.00)
        H              1.00     1.00800     H ( 1.00)

     No symmetry found


                                    s                        frac. trans.

      isym =  1     identity                                     

 cryst.   s( 1) = (     1          0          0      )
                  (     0          1          0      )
                  (     0          0          1      )

 cart.    s( 1) = (  1.0000000  0.0000000  0.0000000 )
                  (  0.0000000  1.0000000  0.0000000 )
                  (  0.0000000  0.0000000  1.0000000 )


   Cartesian axes

     site n.     atom                  positions (alat units)
         1           Sr  tau(   1) = (   0.2508693   0.7491307   1.7574407  )
         2           O   tau(   2) = (   0.4985141   0.5014859   1.7715967  )
         3           Sr  tau(   3) = (   0.7482398   0.7454518   1.7648669  )
         4           Sr  tau(   4) = (   0.7441748   0.2558252   1.7667843  )
         5           Sr  tau(   5) = (   0.2508693   0.7491307   1.2696799  )
         6           Sr  tau(   6) = (   0.2508693   0.7491307   0.7632319  )
         7           Co  tau(   7) = (   0.4998914   0.5001086   1.0164559  )
         8           Co  tau(   8) = (   0.4936915   0.5063085   1.5135603  )
         9           O   tau(   9) = (   0.4988895   0.7610401   1.0164559  )
        10           O   tau(  10) = (   0.2389599   0.5011105   1.0164559  )
        11           O   tau(  11) = (   0.0070918   0.7374880   1.0164559  )
        12           O   tau(  12) = (   0.0088340   0.7405089   1.5135603  )
        13           O   tau(  13) = (   0.5066944   0.7415376   1.5135603  )
        14           O   tau(  14) = (   0.2584624   0.4933056   1.5135603  )
        15           O   tau(  15) = (   0.4985141   0.5014859   0.7773880  )
        16           O   tau(  16) = (   0.4985141   0.5014859   1.2555238  )
        17           Sr  tau(  17) = (   0.7482398   0.7454518   0.7706582  )
        18           Sr  tau(  18) = (   0.7482398   0.7454518   1.2622536  )
        19           Sr  tau(  19) = (   0.7441748   0.2558252   0.7725755  )
        20           Sr  tau(  20) = (   0.7441748   0.2558252   1.2603363  )
        21           O   tau(  21) = (   0.7322655   0.0078049   1.5135603  )
        22           O   tau(  22) = (   0.7558175   0.4996027   1.5135603  )
        23           O   tau(  23) = (   0.5003973   0.2441825   1.5135603  )
        24           O   tau(  24) = (   0.7527966   0.4978604   1.0164559  )
        25           O   tau(  25) = (   0.5021396   0.2472034   1.0164559  )
        26           O   tau(  26) = (   0.7517679   0.0000000   1.0164559  )
        27           O   tau(  27) = (   0.0114961   0.4948124   1.7455321  )
        28           O   tau(  28) = (   0.0048226   0.0077944   1.7715967  )
        29           Sr  tau(  29) = (   0.2545482   0.2517602   1.7648669  )
        30           O   tau(  30) = (   0.5048017   0.0015068   1.7786929  )
        31           Co  tau(  31) = (   0.0056869   0.5006215   1.0164559  )
        32           Co  tau(  32) = (   0.0065315   0.4997770   1.5135603  )
        33           Co  tau(  33) = (   0.0061999   0.0064171   1.0164559  )
        34           Co  tau(  34) = (   0.0000000   0.0126169   1.5135603  )
        35           O   tau(  35) = (   0.0114961   0.4948124   1.2815885  )
        36           O   tau(  36) = (   0.0114961   0.4948124   0.7513233  )
        37           O   tau(  37) = (   0.0051979   0.2673486   1.0164559  )
        38           O   tau(  38) = (   0.0130029   0.2478461   1.5135603  )
        39           O   tau(  39) = (   0.0048226   0.0077944   0.7773880  )
        40           O   tau(  40) = (   0.0048226   0.0077944   1.2555238  )
        41           Sr  tau(  41) = (   0.2545482   0.2517602   0.7706582  )
        42           Sr  tau(  42) = (   0.2545482   0.2517602   1.2622536  )
        43           Co  tau(  43) = (   0.4989925   0.0073160   1.5135603  )
        44           Co  tau(  44) = (   0.4998370   0.0064714   1.0164559  )
        45           O   tau(  45) = (   0.5048017   0.0015068   0.7844841  )
        46           O   tau(  46) = (   0.5048017   0.0015068   1.2484277  )
        47           O   tau(  47) = (   0.2621260   0.0059111   1.5135603  )
        48           O   tau(  48) = (   0.2591051   0.0041689   1.0164559  )
        49           H   tau(  49) = (   0.4264937   0.8529874   2.1602013  )

   Crystallographic axes

     site n.     atom                  positions (cryst. coord.)
         1           Sr  tau(   1) = (  0.2508693  0.7491307  0.6943562  )
         2           O   tau(   2) = (  0.4985141  0.5014859  0.6999492  )
         3           Sr  tau(   3) = (  0.7482398  0.7454518  0.6972903  )
         4           Sr  tau(   4) = (  0.7441748  0.2558252  0.6980478  )
         5           Sr  tau(   5) = (  0.2508693  0.7491307  0.5016443  )
         6           Sr  tau(   6) = (  0.2508693  0.7491307  0.3015492  )
         7           Co  tau(   7) = (  0.4998914  0.5001086  0.4015968  )
         8           Co  tau(   8) = (  0.4936915  0.5063085  0.5980003  )
         9           O   tau(   9) = (  0.4988895  0.7610401  0.4015968  )
        10           O   tau(  10) = (  0.2389599  0.5011105  0.4015968  )
        11           O   tau(  11) = (  0.0070918  0.7374880  0.4015968  )
        12           O   tau(  12) = (  0.0088340  0.7405089  0.5980003  )
        13           O   tau(  13) = (  0.5066944  0.7415376  0.5980003  )
        14           O   tau(  14) = (  0.2584624  0.4933056  0.5980003  )
        15           O   tau(  15) = (  0.4985141  0.5014859  0.3071422  )
        16           O   tau(  16) = (  0.4985141  0.5014859  0.4960513  )
        17           Sr  tau(  17) = (  0.7482398  0.7454518  0.3044833  )
        18           Sr  tau(  18) = (  0.7482398  0.7454518  0.4987103  )
        19           Sr  tau(  19) = (  0.7441748  0.2558252  0.3052408  )
        20           Sr  tau(  20) = (  0.7441748  0.2558252  0.4979527  )
        21           O   tau(  21) = (  0.7322655  0.0078049  0.5980003  )
        22           O   tau(  22) = (  0.7558175  0.4996027  0.5980003  )
        23           O   tau(  23) = (  0.5003973  0.2441825  0.5980003  )
        24           O   tau(  24) = (  0.7527966  0.4978604  0.4015968  )
        25           O   tau(  25) = (  0.5021396  0.2472034  0.4015968  )
        26           O   tau(  26) = (  0.7517679  0.0000000  0.4015968  )
        27           O   tau(  27) = (  0.0114961  0.4948124  0.6896512  )
        28           O   tau(  28) = (  0.0048226  0.0077944  0.6999492  )
        29           Sr  tau(  29) = (  0.2545482  0.2517602  0.6972903  )
        30           O   tau(  30) = (  0.5048017  0.0015068  0.7027529  )
        31           Co  tau(  31) = (  0.0056869  0.5006215  0.4015968  )
        32           Co  tau(  32) = (  0.0065315  0.4997770  0.5980003  )
        33           Co  tau(  33) = (  0.0061999  0.0064171  0.4015968  )
        34           Co  tau(  34) = (  0.0000000  0.0126169  0.5980003  )
        35           O   tau(  35) = (  0.0114961  0.4948124  0.5063494  )
        36           O   tau(  36) = (  0.0114961  0.4948124  0.2968442  )
        37           O   tau(  37) = (  0.0051979  0.2673486  0.4015968  )
        38           O   tau(  38) = (  0.0130029  0.2478461  0.5980003  )
        39           O   tau(  39) = (  0.0048226  0.0077944  0.3071422  )
        40           O   tau(  40) = (  0.0048226  0.0077944  0.4960513  )
        41           Sr  tau(  41) = (  0.2545482  0.2517602  0.3044833  )
        42           Sr  tau(  42) = (  0.2545482  0.2517602  0.4987103  )
        43           Co  tau(  43) = (  0.4989925  0.0073160  0.5980003  )
        44           Co  tau(  44) = (  0.4998370  0.0064714  0.4015968  )
        45           O   tau(  45) = (  0.5048017  0.0015068  0.3099459  )
        46           O   tau(  46) = (  0.5048017  0.0015068  0.4932477  )
        47           O   tau(  47) = (  0.2621260  0.0059111  0.5980003  )
        48           O   tau(  48) = (  0.2591051  0.0041689  0.4015968  )
        49           H   tau(  49) = (  0.4264937  0.8529874  0.8534850  )

     number of k points=    10  Gaussian smearing, width (Ry)=  0.0700
                       cart. coord. in units 2pi/alat
        k(    1) = (   0.0000000   0.0000000   0.0000000), wk =   0.1250000
        k(    2) = (   0.0000000   0.2500000   0.0000000), wk =   0.2500000
        k(    3) = (   0.0000000  -0.5000000   0.0000000), wk =   0.1250000
        k(    4) = (   0.2500000   0.2500000   0.0000000), wk =   0.2500000
        k(    5) = (   0.2500000  -0.5000000   0.0000000), wk =   0.2500000
        k(    6) = (  -0.5000000  -0.5000000   0.0000000), wk =   0.1250000
        k(    7) = (   0.2500000   0.0000000   0.0000000), wk =   0.2500000
        k(    8) = (  -0.5000000   0.0000000   0.0000000), wk =   0.1250000
        k(    9) = (  -0.2500000   0.2500000   0.0000000), wk =   0.2500000
        k(   10) = (  -0.5000000   0.2500000   0.0000000), wk =   0.2500000

                       cryst. coord.
        k(    1) = (   0.0000000   0.0000000   0.0000000), wk =   0.1250000
        k(    2) = (   0.0000000   0.2500000   0.0000000), wk =   0.2500000
        k(    3) = (   0.0000000  -0.5000000   0.0000000), wk =   0.1250000
        k(    4) = (   0.2500000   0.2500000   0.0000000), wk =   0.2500000
        k(    5) = (   0.2500000  -0.5000000   0.0000000), wk =   0.2500000
        k(    6) = (  -0.5000000  -0.5000000   0.0000000), wk =   0.1250000
        k(    7) = (   0.2500000   0.0000000   0.0000000), wk =   0.2500000
        k(    8) = (  -0.5000000   0.0000000   0.0000000), wk =   0.1250000
        k(    9) = (  -0.2500000   0.2500000   0.0000000), wk =   0.2500000
        k(   10) = (  -0.5000000   0.2500000   0.0000000), wk =   0.2500000

     Dense  grid:  1474595 G-vectors     FFT dimensions: ( 108, 108, 270)

     Smooth grid:   521381 G-vectors     FFT dimensions: (  75,  75, 192)

     Dynamical RAM for                 wfc:      10.61 MB

     Dynamical RAM for     wfc (w. buffer):      63.63 MB

     Dynamical RAM for           str. fact:       3.75 MB

     Dynamical RAM for           local pot:       0.00 MB

     Dynamical RAM for          nlocal pot:      24.28 MB

     Dynamical RAM for                qrad:       7.03 MB

     Dynamical RAM for          rho,v,vnew:       6.02 MB

     Dynamical RAM for               rhoin:       2.01 MB

     Dynamical RAM for            rho*nmix:      15.00 MB

     Dynamical RAM for           G-vectors:       3.68 MB

     Dynamical RAM for          h,s,v(r/c):       1.32 MB

     Dynamical RAM for          <psi|beta>:       2.29 MB

     Dynamical RAM for                 psi:      21.21 MB

     Dynamical RAM for                hpsi:      21.21 MB

     Dynamical RAM for                spsi:      21.21 MB

     Dynamical RAM for      wfcinit/wfcrot:      34.09 MB

     Dynamical RAM for           addusdens:     100.79 MB

     Estimated static dynamical RAM per process >     120.42 MB

     Estimated max dynamical RAM per process >     236.21 MB

     Estimated total dynamical RAM >      10.72 GB

     Check: negative core charge=   -0.000004

     Initial potential from superposition of free atoms

     starting charge     416.5961, renormalised to     425.0000

     negative rho (up, down):  7.826E-01 0.000E+00
     Starting wfcs are  373 randomized atomic wfcs
     Checking if some PAW data can be deallocated... 
       PAW data deallocated on   20 nodes for type:  2

     total cpu time spent up to now is        8.7 secs

     Self-consistent Calculation

     iteration #  1     ecut=    60.00 Ry     beta= 0.15
     Davidson diagonalization with overlap

---- Real-time Memory Report at c_bands before calling an iterative solver
             0 MiB given to the printing process from OS
             0 MiB allocation reported by mallinfo(arena+hblkhd)
        170480 MiB available memory on the node where the printing process lives
------------------
     ethr =  1.00E-02,  avg # of iterations =  2.0

     negative rho (up, down):  7.716E-01 0.000E+00

     total cpu time spent up to now is       23.4 secs

     total energy              =   -4404.73314778 Ry
     estimated scf accuracy    <      42.17608675 Ry

     iteration #  2     ecut=    60.00 Ry     beta= 0.15
     Davidson diagonalization with overlap

---- Real-time Memory Report at c_bands before calling an iterative solver
             0 MiB given to the printing process from OS
             0 MiB allocation reported by mallinfo(arena+hblkhd)
        170706 MiB available memory on the node where the printing process lives
------------------
     ethr =  9.92E-03,  avg # of iterations =  1.0

     negative rho (up, down):  7.531E-01 0.000E+00

     total cpu time spent up to now is       35.4 secs

     total energy              =   -4400.03790052 Ry
     estimated scf accuracy    <      26.54063704 Ry

     iteration #  3     ecut=    60.00 Ry     beta= 0.15
     Davidson diagonalization with overlap

---- Real-time Memory Report at c_bands before calling an iterative solver
             0 MiB given to the printing process from OS
             0 MiB allocation reported by mallinfo(arena+hblkhd)
        169959 MiB available memory on the node where the printing process lives
------------------
     ethr =  6.24E-03,  avg # of iterations =  2.0

     negative rho (up, down):  7.544E-01 0.000E+00

     total cpu time spent up to now is       49.2 secs

     total energy              =   -4402.39228682 Ry
     estimated scf accuracy    <      49.20888983 Ry

     iteration #  4     ecut=    60.00 Ry     beta= 0.15
     Davidson diagonalization with overlap

---- Real-time Memory Report at c_bands before calling an iterative solver
             0 MiB given to the printing process from OS
             0 MiB allocation reported by mallinfo(arena+hblkhd)
        169834 MiB available memory on the node where the printing process lives
------------------
     ethr =  6.24E-03,  avg # of iterations =  1.0

     negative rho (up, down):  7.410E-01 0.000E+00

     total cpu time spent up to now is       61.1 secs

     total energy              =   -4401.65884381 Ry
     estimated scf accuracy    <      29.51159679 Ry

     iteration #  5     ecut=    60.00 Ry     beta= 0.15
     Davidson diagonalization with overlap

---- Real-time Memory Report at c_bands before calling an iterative solver
             0 MiB given to the printing process from OS
             0 MiB allocation reported by mallinfo(arena+hblkhd)
        169813 MiB available memory on the node where the printing process lives
------------------
     ethr =  6.24E-03,  avg # of iterations =  1.0

     negative rho (up, down):  7.470E-01 0.000E+00

     total cpu time spent up to now is       73.4 secs

     total energy              =   -4399.90948350 Ry
     estimated scf accuracy    <      44.42925342 Ry

     iteration #  6     ecut=    60.00 Ry     beta= 0.15
     Davidson diagonalization with overlap

---- Real-time Memory Report at c_bands before calling an iterative solver
             0 MiB given to the printing process from OS
             0 MiB allocation reported by mallinfo(arena+hblkhd)
        169794 MiB available memory on the node where the printing process lives
------------------
     ethr =  6.24E-03,  avg # of iterations =  1.0

     negative rho (up, down):  7.421E-01 0.000E+00

     total cpu time spent up to now is       85.9 secs

     total energy              =   -4400.65949462 Ry
     estimated scf accuracy    <      11.80377213 Ry

     iteration #  7     ecut=    60.00 Ry     beta= 0.15
     Davidson diagonalization with overlap

---- Real-time Memory Report at c_bands before calling an iterative solver
             0 MiB given to the printing process from OS
             0 MiB allocation reported by mallinfo(arena+hblkhd)
        169772 MiB available memory on the node where the printing process lives
------------------
     ethr =  2.78E-03,  avg # of iterations =  1.1

     negative rho (up, down):  7.445E-01 0.000E+00

     total cpu time spent up to now is       98.5 secs

     total energy              =   -4400.79817004 Ry
     estimated scf accuracy    <       4.25344204 Ry

     iteration #  8     ecut=    60.00 Ry     beta= 0.15
     Davidson diagonalization with overlap

---- Real-time Memory Report at c_bands before calling an iterative solver
             0 MiB given to the printing process from OS
             0 MiB allocation reported by mallinfo(arena+hblkhd)
        169751 MiB available memory on the node where the printing process lives
------------------
     ethr =  1.00E-03,  avg # of iterations =  1.5

     negative rho (up, down):  7.536E-01 0.000E+00

     total cpu time spent up to now is      111.3 secs

     total energy              =   -4400.34971417 Ry
     estimated scf accuracy    <       3.77367215 Ry

     iteration #  9     ecut=    60.00 Ry     beta= 0.15
     Davidson diagonalization with overlap

---- Real-time Memory Report at c_bands before calling an iterative solver
             0 MiB given to the printing process from OS
             0 MiB allocation reported by mallinfo(arena+hblkhd)
        169731 MiB available memory on the node where the printing process lives
------------------
     ethr =  8.88E-04,  avg # of iterations =  3.6

     negative rho (up, down):  7.764E-01 0.000E+00

     total cpu time spent up to now is      126.3 secs

     total energy              =   -4399.90021018 Ry
     estimated scf accuracy    <      40.56973897 Ry

     iteration # 10     ecut=    60.00 Ry     beta= 0.15
     Davidson diagonalization with overlap

---- Real-time Memory Report at c_bands before calling an iterative solver
             0 MiB given to the printing process from OS
             0 MiB allocation reported by mallinfo(arena+hblkhd)
        169630 MiB available memory on the node where the printing process lives
------------------
     ethr =  8.88E-04,  avg # of iterations = 10.2

     negative rho (up, down):  7.788E-01 0.000E+00

     total cpu time spent up to now is      144.6 secs

     total energy              =   -4399.78794250 Ry
     estimated scf accuracy    <      12.18112023 Ry

     iteration # 11     ecut=    60.00 Ry     beta= 0.15
     Davidson diagonalization with overlap

---- Real-time Memory Report at c_bands before calling an iterative solver
             0 MiB given to the printing process from OS
             0 MiB allocation reported by mallinfo(arena+hblkhd)
        169260 MiB available memory on the node where the printing process lives
------------------
     ethr =  8.88E-04,  avg # of iterations =  1.1

     negative rho (up, down):  7.813E-01 0.000E+00

     total cpu time spent up to now is      156.5 secs

     total energy              =   -4400.12072862 Ry
     estimated scf accuracy    <       1.14729936 Ry

     iteration # 12     ecut=    60.00 Ry     beta= 0.15
     Davidson diagonalization with overlap

---- Real-time Memory Report at c_bands before calling an iterative solver
             0 MiB given to the printing process from OS
             0 MiB allocation reported by mallinfo(arena+hblkhd)
        169259 MiB available memory on the node where the printing process lives
------------------
     ethr =  2.70E-04,  avg # of iterations =  3.1

     negative rho (up, down):  7.904E-01 0.000E+00

     total cpu time spent up to now is      171.0 secs

     total energy              =   -4400.07878029 Ry
     estimated scf accuracy    <       0.72514617 Ry

     iteration # 13     ecut=    60.00 Ry     beta= 0.15
     Davidson diagonalization with overlap

---- Real-time Memory Report at c_bands before calling an iterative solver
             0 MiB given to the printing process from OS
             0 MiB allocation reported by mallinfo(arena+hblkhd)
        169218 MiB available memory on the node where the printing process lives
------------------
     ethr =  1.71E-04,  avg # of iterations =  4.6

     negative rho (up, down):  8.002E-01 0.000E+00

     total cpu time spent up to now is      185.2 secs

     total energy              =   -4400.08504281 Ry
     estimated scf accuracy    <       1.17331477 Ry

     iteration # 14     ecut=    60.00 Ry     beta= 0.15
     Davidson diagonalization with overlap

---- Real-time Memory Report at c_bands before calling an iterative solver
             0 MiB given to the printing process from OS
             0 MiB allocation reported by mallinfo(arena+hblkhd)
        169203 MiB available memory on the node where the printing process lives
------------------
     c_bands:  1 eigenvalues not converged
     ethr =  1.71E-04,  avg # of iterations =  8.2

     negative rho (up, down):  8.039E-01 0.000E+00

     total cpu time spent up to now is      200.3 secs

     total energy              =   -4400.02801425 Ry
     estimated scf accuracy    <       1.38519181 Ry

     iteration # 15     ecut=    60.00 Ry     beta= 0.15
     Davidson diagonalization with overlap

---- Real-time Memory Report at c_bands before calling an iterative solver
             0 MiB given to the printing process from OS
             0 MiB allocation reported by mallinfo(arena+hblkhd)
        169229 MiB available memory on the node where the printing process lives
------------------
     ethr =  1.71E-04,  avg # of iterations =  4.6

     negative rho (up, down):  8.061E-01 0.000E+00

     total cpu time spent up to now is      214.7 secs

     total energy              =   -4400.05038607 Ry
     estimated scf accuracy    <       0.38586629 Ry

     iteration # 16     ecut=    60.00 Ry     beta= 0.15
     Davidson diagonalization with overlap

---- Real-time Memory Report at c_bands before calling an iterative solver
             0 MiB given to the printing process from OS
             0 MiB allocation reported by mallinfo(arena+hblkhd)
        169239 MiB available memory on the node where the printing process lives
------------------
     ethr =  9.08E-05,  avg # of iterations =  3.2

     negative rho (up, down):  8.098E-01 0.000E+00

     total cpu time spent up to now is      228.6 secs

     total energy              =   -4400.01347432 Ry
     estimated scf accuracy    <       0.31677249 Ry

     iteration # 17     ecut=    60.00 Ry     beta= 0.15
     Davidson diagonalization with overlap

---- Real-time Memory Report at c_bands before calling an iterative solver
             0 MiB given to the printing process from OS
             0 MiB allocation reported by mallinfo(arena+hblkhd)
        169232 MiB available memory on the node where the printing process lives
------------------
     c_bands:  2 eigenvalues not converged
     ethr =  7.45E-05,  avg # of iterations = 11.1

     negative rho (up, down):  8.166E-01 0.000E+00

     total cpu time spent up to now is      245.8 secs

     total energy              =   -4399.94830354 Ry
     estimated scf accuracy    <       0.29030859 Ry

     iteration # 18     ecut=    60.00 Ry     beta= 0.15
     Davidson diagonalization with overlap

---- Real-time Memory Report at c_bands before calling an iterative solver
             0 MiB given to the printing process from OS
             0 MiB allocation reported by mallinfo(arena+hblkhd)
        169313 MiB available memory on the node where the printing process lives
------------------
     ethr =  6.83E-05,  avg # of iterations = 10.8

     negative rho (up, down):  8.245E-01 0.000E+00

     total cpu time spent up to now is      263.5 secs

     total energy              =   -4399.94503552 Ry
     estimated scf accuracy    <       0.11832751 Ry

     iteration # 19     ecut=    60.00 Ry     beta= 0.15
     Davidson diagonalization with overlap

---- Real-time Memory Report at c_bands before calling an iterative solver
             0 MiB given to the printing process from OS
             0 MiB allocation reported by mallinfo(arena+hblkhd)
        169179 MiB available memory on the node where the printing process lives
------------------
     ethr =  2.78E-05,  avg # of iterations =  6.4

     negative rho (up, down):  8.266E-01 0.000E+00

     total cpu time spent up to now is      278.8 secs

     total energy              =   -4399.93227446 Ry
     estimated scf accuracy    <       0.09884824 Ry

     iteration # 20     ecut=    60.00 Ry     beta= 0.15
     Davidson diagonalization with overlap

---- Real-time Memory Report at c_bands before calling an iterative solver
             0 MiB given to the printing process from OS
             0 MiB allocation reported by mallinfo(arena+hblkhd)
        169178 MiB available memory on the node where the printing process lives
------------------
     ethr =  2.33E-05,  avg # of iterations =  7.0

     negative rho (up, down):  8.146E-01 0.000E+00

     total cpu time spent up to now is      295.2 secs

     total energy              =   -4399.92087738 Ry
     estimated scf accuracy    <       0.08430761 Ry

     iteration # 21     ecut=    60.00 Ry     beta= 0.15
     Davidson diagonalization with overlap

---- Real-time Memory Report at c_bands before calling an iterative solver
             0 MiB given to the printing process from OS
             0 MiB allocation reported by mallinfo(arena+hblkhd)
        169138 MiB available memory on the node where the printing process lives
------------------
     ethr =  1.98E-05,  avg # of iterations = 10.5

     negative rho (up, down):  8.090E-01 0.000E+00

     total cpu time spent up to now is      313.1 secs

     total energy              =   -4399.91940593 Ry
     estimated scf accuracy    <       0.04219171 Ry

     iteration # 22     ecut=    60.00 Ry     beta= 0.15
     Davidson diagonalization with overlap

---- Real-time Memory Report at c_bands before calling an iterative solver
             0 MiB given to the printing process from OS
             0 MiB allocation reported by mallinfo(arena+hblkhd)
        169081 MiB available memory on the node where the printing process lives
------------------
     ethr =  9.93E-06,  avg # of iterations =  7.1

     negative rho (up, down):  8.017E-01 0.000E+00

     total cpu time spent up to now is      329.3 secs

     total energy              =   -4399.91613217 Ry
     estimated scf accuracy    <       0.02841229 Ry

     iteration # 23     ecut=    60.00 Ry     beta= 0.15
     Davidson diagonalization with overlap

---- Real-time Memory Report at c_bands before calling an iterative solver
             0 MiB given to the printing process from OS
             0 MiB allocation reported by mallinfo(arena+hblkhd)
        169063 MiB available memory on the node where the printing process lives
------------------
     ethr =  6.69E-06,  avg # of iterations = 10.3

     negative rho (up, down):  8.024E-01 0.000E+00

     total cpu time spent up to now is      347.1 secs

     total energy              =   -4399.91526003 Ry
     estimated scf accuracy    <       0.01775220 Ry

     iteration # 24     ecut=    60.00 Ry     beta= 0.15
     Davidson diagonalization with overlap

---- Real-time Memory Report at c_bands before calling an iterative solver
             0 MiB given to the printing process from OS
             0 MiB allocation reported by mallinfo(arena+hblkhd)
        169029 MiB available memory on the node where the printing process lives
------------------
     ethr =  4.18E-06,  avg # of iterations =  7.8

     negative rho (up, down):  7.985E-01 0.000E+00

     total cpu time spent up to now is      363.5 secs

     total energy              =   -4399.91478668 Ry
     estimated scf accuracy    <       0.01200529 Ry

     iteration # 25     ecut=    60.00 Ry     beta= 0.15
     Davidson diagonalization with overlap

---- Real-time Memory Report at c_bands before calling an iterative solver
             0 MiB given to the printing process from OS
             0 MiB allocation reported by mallinfo(arena+hblkhd)
        169026 MiB available memory on the node where the printing process lives
------------------
     ethr =  2.82E-06,  avg # of iterations =  2.8

     negative rho (up, down):  7.923E-01 0.000E+00

     total cpu time spent up to now is      377.7 secs

     total energy              =   -4399.91401940 Ry
     estimated scf accuracy    <       0.00915407 Ry

     iteration # 26     ecut=    60.00 Ry     beta= 0.15
     Davidson diagonalization with overlap

---- Real-time Memory Report at c_bands before calling an iterative solver
             0 MiB given to the printing process from OS
             0 MiB allocation reported by mallinfo(arena+hblkhd)
        169057 MiB available memory on the node where the printing process lives
------------------
     ethr =  2.15E-06,  avg # of iterations =  5.3

     negative rho (up, down):  7.965E-01 0.000E+00

     total cpu time spent up to now is      392.7 secs

     total energy              =   -4399.91330865 Ry
     estimated scf accuracy    <       0.00606259 Ry

     iteration # 27     ecut=    60.00 Ry     beta= 0.15
     Davidson diagonalization with overlap

---- Real-time Memory Report at c_bands before calling an iterative solver
             0 MiB given to the printing process from OS
             0 MiB allocation reported by mallinfo(arena+hblkhd)
        169083 MiB available memory on the node where the printing process lives
------------------
     c_bands:  1 eigenvalues not converged
     ethr =  1.43E-06,  avg # of iterations = 12.0

     negative rho (up, down):  7.949E-01 0.000E+00

     total cpu time spent up to now is      412.4 secs

     total energy              =   -4399.91338881 Ry
     estimated scf accuracy    <       0.00161970 Ry

     iteration # 28     ecut=    60.00 Ry     beta= 0.15
     Davidson diagonalization with overlap

---- Real-time Memory Report at c_bands before calling an iterative solver
             0 MiB given to the printing process from OS
             0 MiB allocation reported by mallinfo(arena+hblkhd)
        168986 MiB available memory on the node where the printing process lives
------------------
     ethr =  3.81E-07,  avg # of iterations =  6.1

     negative rho (up, down):  7.950E-01 0.000E+00

     total cpu time spent up to now is      427.6 secs

     total energy              =   -4399.91342770 Ry
     estimated scf accuracy    <       0.00077591 Ry

     iteration # 29     ecut=    60.00 Ry     beta= 0.15
     Davidson diagonalization with overlap

---- Real-time Memory Report at c_bands before calling an iterative solver
             0 MiB given to the printing process from OS
             0 MiB allocation reported by mallinfo(arena+hblkhd)
        168991 MiB available memory on the node where the printing process lives
------------------
     ethr =  1.83E-07,  avg # of iterations =  7.8

     negative rho (up, down):  7.965E-01 0.000E+00

     total cpu time spent up to now is      443.0 secs

     total energy              =   -4399.91330209 Ry
     estimated scf accuracy    <       0.00054142 Ry

     iteration # 30     ecut=    60.00 Ry     beta= 0.15
     Davidson diagonalization with overlap

---- Real-time Memory Report at c_bands before calling an iterative solver
             0 MiB given to the printing process from OS
             0 MiB allocation reported by mallinfo(arena+hblkhd)
        169031 MiB available memory on the node where the printing process lives
------------------
     ethr =  1.27E-07,  avg # of iterations =  5.2

     negative rho (up, down):  7.942E-01 0.000E+00

     total cpu time spent up to now is      458.6 secs

     total energy              =   -4399.91331929 Ry
     estimated scf accuracy    <       0.00011691 Ry

     iteration # 31     ecut=    60.00 Ry     beta= 0.15
     Davidson diagonalization with overlap

---- Real-time Memory Report at c_bands before calling an iterative solver
             0 MiB given to the printing process from OS
             0 MiB allocation reported by mallinfo(arena+hblkhd)
        169031 MiB available memory on the node where the printing process lives
------------------
     ethr =  2.75E-08,  avg # of iterations =  3.0

     negative rho (up, down):  7.937E-01 0.000E+00

     total cpu time spent up to now is      473.4 secs

     total energy              =   -4399.91332705 Ry
     estimated scf accuracy    <       0.00007314 Ry

     iteration # 32     ecut=    60.00 Ry     beta= 0.15
     Davidson diagonalization with overlap

---- Real-time Memory Report at c_bands before calling an iterative solver
             0 MiB given to the printing process from OS
             0 MiB allocation reported by mallinfo(arena+hblkhd)
        169031 MiB available memory on the node where the printing process lives
------------------
     ethr =  1.72E-08,  avg # of iterations =  1.8

     negative rho (up, down):  7.929E-01 0.000E+00

     total cpu time spent up to now is      486.5 secs

     total energy              =   -4399.91332908 Ry
     estimated scf accuracy    <       0.00006210 Ry

     iteration # 33     ecut=    60.00 Ry     beta= 0.15
     Davidson diagonalization with overlap

---- Real-time Memory Report at c_bands before calling an iterative solver
             0 MiB given to the printing process from OS
             0 MiB allocation reported by mallinfo(arena+hblkhd)
        169037 MiB available memory on the node where the printing process lives
------------------
     ethr =  1.46E-08,  avg # of iterations =  2.2

     negative rho (up, down):  7.925E-01 0.000E+00

     total cpu time spent up to now is      500.1 secs

     total energy              =   -4399.91333131 Ry
     estimated scf accuracy    <       0.00004117 Ry

     iteration # 34     ecut=    60.00 Ry     beta= 0.15
     Davidson diagonalization with overlap

---- Real-time Memory Report at c_bands before calling an iterative solver
             0 MiB given to the printing process from OS
             0 MiB allocation reported by mallinfo(arena+hblkhd)
        169073 MiB available memory on the node where the printing process lives
------------------
     ethr =  9.69E-09,  avg # of iterations =  2.2

     negative rho (up, down):  7.926E-01 0.000E+00

     total cpu time spent up to now is      513.8 secs

     total energy              =   -4399.91333508 Ry
     estimated scf accuracy    <       0.00001244 Ry

     iteration # 35     ecut=    60.00 Ry     beta= 0.15
     Davidson diagonalization with overlap

---- Real-time Memory Report at c_bands before calling an iterative solver
             0 MiB given to the printing process from OS
             0 MiB allocation reported by mallinfo(arena+hblkhd)
        169090 MiB available memory on the node where the printing process lives
------------------
     ethr =  2.93E-09,  avg # of iterations =  2.0

     negative rho (up, down):  7.925E-01 0.000E+00

     total cpu time spent up to now is      528.1 secs

     total energy              =   -4399.91333743 Ry
     estimated scf accuracy    <       0.00000673 Ry

     iteration # 36     ecut=    60.00 Ry     beta= 0.15
     Davidson diagonalization with overlap

---- Real-time Memory Report at c_bands before calling an iterative solver
             0 MiB given to the printing process from OS
             0 MiB allocation reported by mallinfo(arena+hblkhd)
        169077 MiB available memory on the node where the printing process lives
------------------
     ethr =  1.58E-09,  avg # of iterations =  2.3

     negative rho (up, down):  7.924E-01 0.000E+00

     total cpu time spent up to now is      541.8 secs

     total energy              =   -4399.91333868 Ry
     estimated scf accuracy    <       0.00000517 Ry

     iteration # 37     ecut=    60.00 Ry     beta= 0.15
     Davidson diagonalization with overlap

---- Real-time Memory Report at c_bands before calling an iterative solver
             0 MiB given to the printing process from OS
             0 MiB allocation reported by mallinfo(arena+hblkhd)
        169083 MiB available memory on the node where the printing process lives
------------------
     ethr =  1.22E-09,  avg # of iterations =  2.5

     negative rho (up, down):  7.924E-01 0.000E+00

     total cpu time spent up to now is      555.7 secs

     total energy              =   -4399.91333909 Ry
     estimated scf accuracy    <       0.00000325 Ry

     iteration # 38     ecut=    60.00 Ry     beta= 0.15
     Davidson diagonalization with overlap

---- Real-time Memory Report at c_bands before calling an iterative solver
             0 MiB given to the printing process from OS
             0 MiB allocation reported by mallinfo(arena+hblkhd)
        169085 MiB available memory on the node where the printing process lives
------------------
     ethr =  7.65E-10,  avg # of iterations =  2.2

     negative rho (up, down):  7.925E-01 0.000E+00

     total cpu time spent up to now is      569.5 secs

     total energy              =   -4399.91333883 Ry
     estimated scf accuracy    <       0.00000185 Ry

     iteration # 39     ecut=    60.00 Ry     beta= 0.15
     Davidson diagonalization with overlap

---- Real-time Memory Report at c_bands before calling an iterative solver
             0 MiB given to the printing process from OS
             0 MiB allocation reported by mallinfo(arena+hblkhd)
        169088 MiB available memory on the node where the printing process lives
------------------
     ethr =  4.34E-10,  avg # of iterations =  3.8

     negative rho (up, down):  7.925E-01 0.000E+00

     total cpu time spent up to now is      584.3 secs

     total energy              =   -4399.91333854 Ry
     estimated scf accuracy    <       0.00000073 Ry

     iteration # 40     ecut=    60.00 Ry     beta= 0.15
     Davidson diagonalization with overlap

---- Real-time Memory Report at c_bands before calling an iterative solver
             0 MiB given to the printing process from OS
             0 MiB allocation reported by mallinfo(arena+hblkhd)
        169061 MiB available memory on the node where the printing process lives
------------------
     ethr =  1.72E-10,  avg # of iterations =  2.5

     negative rho (up, down):  7.924E-01 0.000E+00

     total cpu time spent up to now is      598.3 secs

     total energy              =   -4399.91333858 Ry
     estimated scf accuracy    <       0.00000038 Ry

     iteration # 41     ecut=    60.00 Ry     beta= 0.15
     Davidson diagonalization with overlap

---- Real-time Memory Report at c_bands before calling an iterative solver
             0 MiB given to the printing process from OS
             0 MiB allocation reported by mallinfo(arena+hblkhd)
        169067 MiB available memory on the node where the printing process lives
------------------
     ethr =  8.92E-11,  avg # of iterations =  2.8

     negative rho (up, down):  7.924E-01 0.000E+00

     total cpu time spent up to now is      612.1 secs

     total energy              =   -4399.91333868 Ry
     estimated scf accuracy    <       0.00000032 Ry

     iteration # 42     ecut=    60.00 Ry     beta= 0.15
     Davidson diagonalization with overlap

---- Real-time Memory Report at c_bands before calling an iterative solver
             0 MiB given to the printing process from OS
             0 MiB allocation reported by mallinfo(arena+hblkhd)
        169068 MiB available memory on the node where the printing process lives
------------------
     ethr =  7.53E-11,  avg # of iterations =  2.0

     negative rho (up, down):  7.924E-01 0.000E+00

     total cpu time spent up to now is      625.7 secs

     total energy              =   -4399.91333895 Ry
     estimated scf accuracy    <       0.00000023 Ry

     iteration # 43     ecut=    60.00 Ry     beta= 0.15
     Davidson diagonalization with overlap

---- Real-time Memory Report at c_bands before calling an iterative solver
             0 MiB given to the printing process from OS
             0 MiB allocation reported by mallinfo(arena+hblkhd)
        169065 MiB available memory on the node where the printing process lives
------------------
     ethr =  5.46E-11,  avg # of iterations =  3.3

     negative rho (up, down):  7.924E-01 0.000E+00

     total cpu time spent up to now is      639.8 secs

     total energy              =   -4399.91333907 Ry
     estimated scf accuracy    <       0.00000019 Ry

     iteration # 44     ecut=    60.00 Ry     beta= 0.15
     Davidson diagonalization with overlap

---- Real-time Memory Report at c_bands before calling an iterative solver
             0 MiB given to the printing process from OS
             0 MiB allocation reported by mallinfo(arena+hblkhd)
        169062 MiB available memory on the node where the printing process lives
------------------
     ethr =  4.49E-11,  avg # of iterations =  3.2

     negative rho (up, down):  7.924E-01 0.000E+00

     total cpu time spent up to now is      653.8 secs

     total energy              =   -4399.91333923 Ry
     estimated scf accuracy    <       0.00000011 Ry

     iteration # 45     ecut=    60.00 Ry     beta= 0.15
     Davidson diagonalization with overlap

---- Real-time Memory Report at c_bands before calling an iterative solver
             0 MiB given to the printing process from OS
             0 MiB allocation reported by mallinfo(arena+hblkhd)
        169074 MiB available memory on the node where the printing process lives
------------------
     ethr =  2.70E-11,  avg # of iterations =  4.2

     negative rho (up, down):  7.924E-01 0.000E+00

     total cpu time spent up to now is      668.4 secs

     total energy              =   -4399.91333924 Ry
     estimated scf accuracy    <       0.00000004 Ry

     iteration # 46     ecut=    60.00 Ry     beta= 0.15
     Davidson diagonalization with overlap

---- Real-time Memory Report at c_bands before calling an iterative solver
             0 MiB given to the printing process from OS
             0 MiB allocation reported by mallinfo(arena+hblkhd)
        169037 MiB available memory on the node where the printing process lives
------------------
     ethr =  8.73E-12,  avg # of iterations =  3.3

     negative rho (up, down):  7.924E-01 0.000E+00

     total cpu time spent up to now is      682.2 secs

     total energy              =   -4399.91333922 Ry
     estimated scf accuracy    <       0.00000001 Ry

     iteration # 47     ecut=    60.00 Ry     beta= 0.15
     Davidson diagonalization with overlap

---- Real-time Memory Report at c_bands before calling an iterative solver
             0 MiB given to the printing process from OS
             0 MiB allocation reported by mallinfo(arena+hblkhd)
        169029 MiB available memory on the node where the printing process lives
------------------
     ethr =  3.34E-12,  avg # of iterations =  4.1

     negative rho (up, down):  7.924E-01 0.000E+00

     total cpu time spent up to now is      696.8 secs

     End of self-consistent calculation

          k = 0.0000 0.0000 0.0000 ( 65197 PWs)   bands (ev):

   -92.7074 -92.6521 -92.5608 -92.5097 -92.4555 -92.4136 -92.3960 -92.2728
   -56.0608 -56.0386 -55.9183 -55.9080 -55.8976 -55.8948 -55.8569 -55.8301
   -55.8145 -55.8131 -55.8033 -55.7630 -55.7424 -55.7067 -55.6870 -55.6555
   -55.6430 -55.6018 -55.5989 -55.5988 -55.5904 -55.5476 -55.5264 -55.4399
   -31.2836 -31.2639 -31.1232 -31.0918 -31.0728 -31.0360 -30.8262 -30.7687
   -29.8554 -29.8118 -29.7873 -29.6781 -15.0878 -15.0479 -14.9653 -14.8346
   -14.6470 -14.5219 -14.2264 -14.2096 -14.1763 -14.1338 -14.0915 -14.0827
   -14.0672 -14.0517 -14.0221 -13.9966 -13.9371 -13.7877 -13.6158 -13.5759
   -13.5445 -13.5193 -13.4981 -13.4466 -13.4109 -13.3281 -13.2569 -13.1511
   -13.1200 -13.1159 -13.0997 -13.0810 -13.0639 -13.0352 -13.0115 -12.9981
   -12.9690 -12.9358 -12.9303 -12.9176 -12.9088 -12.9000 -12.8168 -12.7949
   -12.7794 -12.7031 -12.6495 -12.6302 -12.3486 -12.2029 -12.0526 -11.9840
   -11.8691 -11.7945 -11.7839 -11.7611 -11.7437 -11.6798 -11.6627 -11.6274
   -11.5990 -11.4876 -11.4072 -11.4037  -2.9493  -2.7164  -2.4869  -2.3406
    -2.2769  -2.1343  -1.8276  -1.8137  -1.7932  -1.7105  -1.6908  -1.6225
    -1.6065  -1.5648  -1.5211  -1.3393  -1.1169  -1.0866  -0.9374  -0.9236
    -0.8783  -0.8614  -0.8153  -0.7990  -0.7409  -0.7145  -0.6430  -0.6314
    -0.5537  -0.4222  -0.4089  -0.3821  -0.3008  -0.2970  -0.2771  -0.2100
    -0.1360  -0.0919  -0.0418  -0.0139   0.0460   0.1207   0.1731   0.1915
     0.2044   0.4605   0.4760   0.6468   0.7155   0.7816   0.8215   0.9131
     0.9280   0.9418   1.0139   1.0406   1.0754   1.1339   1.2664   1.3240
     1.3435   1.3605   1.3739   1.4414   1.5152   1.6167   1.6269   1.6919
     1.7091   1.7495   1.7659   1.7725   1.8299   1.8811   1.8936   1.9311
     1.9658   2.0170   2.1479   2.2337   2.2766   2.2882   2.4458   2.4599
     2.4996   2.5063   2.6123   2.6488   2.6736   2.6931   2.7070   2.7765
     2.8026   2.9108   2.9311   2.9444   2.9528   3.0198   3.0223   3.0465
     3.0545   3.0626   3.0773   3.0832   3.0946   3.1011   3.1134   3.1221
     3.1310   3.1503   3.1713   3.1766   3.1887   3.2390   3.3309   3.4252
     4.1015   4.4267   4.7667   4.8638   5.0304   5.7738   5.9395   5.9941
     5.9975   6.3077   6.3550   6.4820   6.4909   6.7286   7.0053   7.0918
     7.1363   7.2842   7.3117   7.5750   7.6576   7.6749   7.7011   7.9194
     7.9590   8.1001   8.1133   8.1629   8.4670   8.6051   8.7441   8.8600

     occupation numbers 
     1.0000   1.0000   1.0000   1.0000   1.0000   1.0000   1.0000   1.0000
     1.0000   1.0000   1.0000   1.0000   1.0000   1.0000   1.0000   1.0000
     1.0000   1.0000   1.0000   1.0000   1.0000   1.0000   1.0000   1.0000
     1.0000   1.0000   1.0000   1.0000   1.0000   1.0000   1.0000   1.0000
     1.0000   1.0000   1.0000   1.0000   1.0000   1.0000   1.0000   1.0000
     1.0000   1.0000   1.0000   1.0000   1.0000   1.0000   1.0000   1.0000
     1.0000   1.0000   1.0000   1.0000   1.0000   1.0000   1.0000   1.0000
     1.0000   1.0000   1.0000   1.0000   1.0000   1.0000   1.0000   1.0000
     1.0000   1.0000   1.0000   1.0000   1.0000   1.0000   1.0000   1.0000
     1.0000   1.0000   1.0000   1.0000   1.0000   1.0000   1.0000   1.0000
     1.0000   1.0000   1.0000   1.0000   1.0000   1.0000   1.0000   1.0000
     1.0000   1.0000   1.0000   1.0000   1.0000   1.0000   1.0000   1.0000
     1.0000   1.0000   1.0000   1.0000   1.0000   1.0000   1.0000   1.0000
     1.0000   1.0000   1.0000   1.0000   1.0000   1.0000   1.0000   1.0000
     1.0000   1.0000   1.0000   1.0000   1.0000   1.0000   1.0000   1.0000
     1.0000   1.0000   1.0000   1.0000   1.0000   1.0000   1.0000   1.0000
     1.0000   1.0000   1.0000   1.0000   1.0000   1.0000   1.0000   1.0000
     1.0000   1.0000   1.0000   1.0000   1.0000   1.0000   1.0000   1.0000
     1.0000   1.0000   1.0000   1.0000   1.0000   1.0000   1.0000   1.0000
     1.0000   1.0000   1.0000   1.0000   0.9999   0.9999   0.9999   0.9998
     0.9998   0.9998   0.9997   0.9996   0.9996   0.9994   0.9989   0.9985
     0.9983   0.9982   0.9981   0.9974   0.9963   0.9943   0.9940   0.9922
     0.9916   0.9902   0.9895   0.9892   0.9866   0.9837   0.9829   0.9804
     0.9779   0.9735   0.9592   0.9467   0.9395   0.9374   0.9030   0.8994
     0.8886   0.8867   0.8535   0.8407   0.8316   0.8243   0.8189   0.7904
     0.7791   0.7285   0.7184   0.7118   0.7075   0.6724   0.6710   0.6580
     0.6536   0.6491   0.6410   0.6378   0.6314   0.6277   0.6208   0.6159
     0.6108   0.5998   0.5877   0.5846   0.5776   0.5482   0.4939   0.4383
     0.1231   0.0502   0.0159   0.0110   0.0056   0.0001   0.0001   0.0000
     0.0000   0.0000   0.0000   0.0000   0.0000   0.0000   0.0000   0.0000
     0.0000   0.0000   0.0000   0.0000   0.0000   0.0000   0.0000   0.0000
     0.0000   0.0000   0.0000   0.0000   0.0000   0.0000   0.0000   0.0000

          k = 0.0000 0.2500 0.0000 ( 65257 PWs)   bands (ev):

   -92.7074 -92.6521 -92.5608 -92.5097 -92.4555 -92.4136 -92.3960 -92.2728
   -56.0608 -56.0386 -55.9183 -55.9080 -55.8976 -55.8948 -55.8569 -55.8301
   -55.8145 -55.8131 -55.8033 -55.7630 -55.7424 -55.7067 -55.6870 -55.6555
   -55.6430 -55.6018 -55.5989 -55.5988 -55.5904 -55.5476 -55.5264 -55.4399
   -31.2834 -31.2637 -31.1234 -31.0901 -31.0745 -31.0361 -30.8256 -30.7693
   -29.8548 -29.8115 -29.7880 -29.6785 -15.0511 -15.0219 -14.9402 -14.8054
   -14.6861 -14.5131 -14.3728 -14.1927 -14.1600 -14.1376 -14.1104 -14.0525
   -14.0464 -14.0318 -14.0120 -13.9718 -13.8568 -13.8175 -13.6550 -13.6392
   -13.5855 -13.5521 -13.5113 -13.4630 -13.4255 -13.3494 -13.3140 -13.2645
   -13.2043 -13.1538 -13.1153 -13.1056 -13.0871 -13.0082 -12.9850 -12.9561
   -12.9389 -12.9081 -12.8731 -12.8517 -12.8456 -12.8100 -12.8040 -12.7850
   -12.7668 -12.6887 -12.5575 -12.5025 -12.4099 -12.2542 -12.1094 -12.0520
   -11.8346 -11.7913 -11.7639 -11.7360 -11.7192 -11.6716 -11.6604 -11.6379
   -11.6030 -11.5020 -11.4490 -11.4383  -2.8141  -2.5920  -2.4547  -2.2726
    -2.2291  -2.0651  -1.8466  -1.7609  -1.7479  -1.6918  -1.5881  -1.5724
    -1.5392  -1.5123  -1.4686  -1.2707  -1.1422  -1.1302  -1.0550  -1.0433
    -0.9389  -0.9085  -0.8529  -0.8276  -0.7853  -0.7224  -0.6958  -0.6635
    -0.6313  -0.6151  -0.5814  -0.5075  -0.4570  -0.3981  -0.2812  -0.2647
    -0.2195  -0.0985  -0.0643  -0.0040   0.0456   0.1002   0.1219   0.1521
     0.2118   0.5076   0.5957   0.6282   0.7151   0.7583   0.7790   0.9011
     0.9189   1.0136   1.0403   1.0678   1.1821   1.2728   1.2987   1.3213
     1.3373   1.3669   1.4268   1.4532   1.4810   1.5295   1.5632   1.5919
     1.6736   1.7057   1.7444   1.7952   1.8526   1.8963   1.9179   1.9435
     1.9661   2.0504   2.1861   2.2563   2.2721   2.3520   2.3985   2.4369
     2.4479   2.5064   2.5476   2.6297   2.6657   2.6833   2.7890   2.8619
     2.8934   2.9146   2.9356   2.9520   2.9600   2.9677   2.9815   3.0070
     3.0094   3.0283   3.0329   3.0424   3.0608   3.0740   3.0788   3.1013
     3.1119   3.1165   3.1518   3.1693   3.2295   3.6074   3.6475   3.8709
     4.2860   4.4292   4.7000   5.0207   5.0553   5.6301   5.7606   5.8927
     5.9903   6.0851   6.1052   6.1812   6.5982   6.8673   6.9159   7.1105
     7.2939   7.3289   7.4802   7.4953   7.6397   7.7498   7.8304   7.9646
     8.0054   8.1276   8.1827   8.3115   8.4055   8.5340   8.7516   8.8906

     occupation numbers 
     1.0000   1.0000   1.0000   1.0000   1.0000   1.0000   1.0000   1.0000
     1.0000   1.0000   1.0000   1.0000   1.0000   1.0000   1.0000   1.0000
     1.0000   1.0000   1.0000   1.0000   1.0000   1.0000   1.0000   1.0000
     1.0000   1.0000   1.0000   1.0000   1.0000   1.0000   1.0000   1.0000
     1.0000   1.0000   1.0000   1.0000   1.0000   1.0000   1.0000   1.0000
     1.0000   1.0000   1.0000   1.0000   1.0000   1.0000   1.0000   1.0000
     1.0000   1.0000   1.0000   1.0000   1.0000   1.0000   1.0000   1.0000
     1.0000   1.0000   1.0000   1.0000   1.0000   1.0000   1.0000   1.0000
     1.0000   1.0000   1.0000   1.0000   1.0000   1.0000   1.0000   1.0000
     1.0000   1.0000   1.0000   1.0000   1.0000   1.0000   1.0000   1.0000
     1.0000   1.0000   1.0000   1.0000   1.0000   1.0000   1.0000   1.0000
     1.0000   1.0000   1.0000   1.0000   1.0000   1.0000   1.0000   1.0000
     1.0000   1.0000   1.0000   1.0000   1.0000   1.0000   1.0000   1.0000
     1.0000   1.0000   1.0000   1.0000   1.0000   1.0000   1.0000   1.0000
     1.0000   1.0000   1.0000   1.0000   1.0000   1.0000   1.0000   1.0000
     1.0000   1.0000   1.0000   1.0000   1.0000   1.0000   1.0000   1.0000
     1.0000   1.0000   1.0000   1.0000   1.0000   1.0000   1.0000   1.0000
     1.0000   1.0000   1.0000   1.0000   1.0000   1.0000   1.0000   1.0000
     1.0000   1.0000   1.0000   1.0000   1.0000   1.0000   1.0000   1.0000
     1.0000   1.0000   1.0000   1.0000   0.9999   0.9999   0.9999   0.9998
     0.9998   0.9997   0.9996   0.9996   0.9993   0.9988   0.9987   0.9985
     0.9984   0.9981   0.9975   0.9972   0.9968   0.9961   0.9955   0.9949
     0.9928   0.9918   0.9904   0.9882   0.9854   0.9828   0.9814   0.9796
     0.9778   0.9703   0.9540   0.9430   0.9402   0.9248   0.9145   0.9052
     0.9025   0.8867   0.8745   0.8475   0.8346   0.8280   0.7850   0.7521
     0.7370   0.7267   0.7162   0.7079   0.7038   0.6998   0.6927   0.6792
     0.6779   0.6678   0.6654   0.6602   0.6501   0.6428   0.6402   0.6276
     0.6216   0.6190   0.5989   0.5888   0.5538   0.3350   0.3136   0.2069
     0.0758   0.0499   0.0203   0.0058   0.0050   0.0003   0.0001   0.0001
     0.0000   0.0000   0.0000   0.0000   0.0000   0.0000   0.0000   0.0000
     0.0000   0.0000   0.0000   0.0000   0.0000   0.0000   0.0000   0.0000
     0.0000   0.0000   0.0000   0.0000   0.0000   0.0000   0.0000   0.0000

          k = 0.0000-0.5000 0.0000 ( 65180 PWs)   bands (ev):

   -92.7074 -92.6521 -92.5608 -92.5097 -92.4555 -92.4136 -92.3960 -92.2728
   -56.0608 -56.0386 -55.9183 -55.9080 -55.8976 -55.8948 -55.8569 -55.8301
   -55.8145 -55.8131 -55.8033 -55.7630 -55.7424 -55.7067 -55.6870 -55.6555
   -55.6430 -55.6018 -55.5989 -55.5988 -55.5904 -55.5476 -55.5264 -55.4399
   -31.2832 -31.2636 -31.1236 -31.0878 -31.0768 -31.0363 -30.8250 -30.7699
   -29.8542 -29.8112 -29.7886 -29.6788 -15.0177 -14.9685 -14.9177 -14.7884
   -14.7051 -14.5648 -14.4205 -14.2885 -14.1637 -14.0994 -14.0533 -14.0448
   -13.9955 -13.9777 -13.9326 -13.9134 -13.8872 -13.8488 -13.8120 -13.7816
   -13.5899 -13.5340 -13.5200 -13.4631 -13.4273 -13.3650 -13.3397 -13.2888
   -13.2836 -13.2239 -13.1160 -13.1037 -13.0606 -13.0451 -12.9757 -12.9604
   -12.9352 -12.8883 -12.8491 -12.8306 -12.8072 -12.7809 -12.7468 -12.7117
   -12.6866 -12.6576 -12.5209 -12.4233 -12.3294 -12.2808 -12.2257 -12.1891
   -11.7882 -11.7862 -11.7590 -11.7220 -11.6876 -11.6765 -11.6330 -11.6292
   -11.5841 -11.5240 -11.5099 -11.4954  -2.5996  -2.5398  -2.3888  -2.3165
    -2.0363  -1.9514  -1.8253  -1.6866  -1.6521  -1.6302  -1.5522  -1.5198
    -1.4396  -1.4033  -1.3270  -1.2860  -1.2468  -1.2196  -1.1645  -1.1259
    -1.0782  -1.0431  -1.0102  -0.9748  -0.8660  -0.8205  -0.7875  -0.7862
    -0.6997  -0.6669  -0.6437  -0.5961  -0.5123  -0.4378  -0.3588  -0.3319
    -0.2175  -0.1775  -0.0364  -0.0077   0.0272   0.0762   0.2002   0.2575
     0.3853   0.4523   0.4591   0.5888   0.6340   0.7291   0.8683   0.9736
     1.0047   1.0431   1.0470   1.0851   1.1035   1.1411   1.1569   1.1680
     1.2799   1.3384   1.3632   1.3885   1.6506   1.6847   1.7065   1.8035
     1.8237   1.8600   1.8763   1.9044   1.9215   1.9238   1.9583   1.9943
     2.0212   2.0459   2.0585   2.0898   2.1439   2.2260   2.2581   2.4360
     2.5947   2.6046   2.6218   2.6535   2.6607   2.6755   2.7238   2.7373
     2.7917   2.7992   2.8129   2.8998   2.9160   2.9708   2.9880   3.0023
     3.0043   3.0245   3.0301   3.0331   3.0365   3.0423   3.0637   3.0712
     3.0777   3.1369   3.1427   3.1589   3.2132   4.1157   4.1507   4.1966
     4.2510   4.7274   4.8937   5.0253   5.1430   5.4137   5.4579   5.5870
     5.6929   5.9874   6.0380   6.0505   6.6813   6.8552   6.9502   7.2224
     7.3108   7.3250   7.4220   7.4952   7.6742   7.7478   7.8292   7.9050
     8.1105   8.2614   8.4241   8.5200   8.6614   8.7407   8.8051   8.8283

     occupation numbers 
     1.0000   1.0000   1.0000   1.0000   1.0000   1.0000   1.0000   1.0000
     1.0000   1.0000   1.0000   1.0000   1.0000   1.0000   1.0000   1.0000
     1.0000   1.0000   1.0000   1.0000   1.0000   1.0000   1.0000   1.0000
     1.0000   1.0000   1.0000   1.0000   1.0000   1.0000   1.0000   1.0000
     1.0000   1.0000   1.0000   1.0000   1.0000   1.0000   1.0000   1.0000
     1.0000   1.0000   1.0000   1.0000   1.0000   1.0000   1.0000   1.0000
     1.0000   1.0000   1.0000   1.0000   1.0000   1.0000   1.0000   1.0000
     1.0000   1.0000   1.0000   1.0000   1.0000   1.0000   1.0000   1.0000
     1.0000   1.0000   1.0000   1.0000   1.0000   1.0000   1.0000   1.0000
     1.0000   1.0000   1.0000   1.0000   1.0000   1.0000   1.0000   1.0000
     1.0000   1.0000   1.0000   1.0000   1.0000   1.0000   1.0000   1.0000
     1.0000   1.0000   1.0000   1.0000   1.0000   1.0000   1.0000   1.0000
     1.0000   1.0000   1.0000   1.0000   1.0000   1.0000   1.0000   1.0000
     1.0000   1.0000   1.0000   1.0000   1.0000   1.0000   1.0000   1.0000
     1.0000   1.0000   1.0000   1.0000   1.0000   1.0000   1.0000   1.0000
     1.0000   1.0000   1.0000   1.0000   1.0000   1.0000   1.0000   1.0000
     1.0000   1.0000   1.0000   1.0000   1.0000   1.0000   1.0000   1.0000
     1.0000   1.0000   1.0000   1.0000   1.0000   1.0000   1.0000   1.0000
     1.0000   1.0000   1.0000   1.0000   1.0000   1.0000   1.0000   1.0000
     1.0000   1.0000   1.0000   1.0000   1.0000   0.9999   0.9999   0.9998
     0.9997   0.9996   0.9996   0.9995   0.9995   0.9994   0.9993   0.9993
     0.9988   0.9984   0.9982   0.9979   0.9934   0.9924   0.9917   0.9879
     0.9869   0.9849   0.9840   0.9823   0.9811   0.9810   0.9785   0.9755
     0.9732   0.9708   0.9695   0.9662   0.9597   0.9479   0.9427   0.9055
     0.8594   0.8561   0.8503   0.8390   0.8364   0.8309   0.8122   0.8068
     0.7838   0.7806   0.7745   0.7339   0.7260   0.6982   0.6892   0.6817
     0.6807   0.6699   0.6669   0.6653   0.6634   0.6602   0.6486   0.6444
     0.6408   0.6075   0.6041   0.5948   0.5633   0.1188   0.1088   0.0966
     0.0835   0.0184   0.0097   0.0057   0.0034   0.0009   0.0008   0.0004
     0.0002   0.0000   0.0000   0.0000   0.0000   0.0000   0.0000   0.0000
     0.0000   0.0000   0.0000   0.0000   0.0000   0.0000   0.0000   0.0000
     0.0000   0.0000   0.0000   0.0000   0.0000   0.0000   0.0000   0.0000

          k = 0.2500 0.2500 0.0000 ( 65198 PWs)   bands (ev):

   -92.7074 -92.6521 -92.5608 -92.5097 -92.4555 -92.4136 -92.3960 -92.2728
   -56.0608 -56.0386 -55.9183 -55.9080 -55.8976 -55.8948 -55.8569 -55.8301
   -55.8145 -55.8131 -55.8032 -55.7630 -55.7424 -55.7067 -55.6870 -55.6555
   -55.6430 -55.6018 -55.5989 -55.5988 -55.5904 -55.5476 -55.5264 -55.4399
   -31.2817 -31.2654 -31.1230 -31.0900 -31.0744 -31.0365 -30.8257 -30.7694
   -29.8538 -29.8124 -29.7876 -29.6789 -15.0227 -14.9864 -14.9125 -14.7948
   -14.6787 -14.5529 -14.4782 -14.2740 -14.1160 -14.1031 -14.0682 -14.0382
   -14.0165 -13.9928 -13.9563 -13.9364 -13.8488 -13.8319 -13.6709 -13.6570
   -13.6288 -13.6068 -13.5673 -13.5179 -13.4602 -13.4328 -13.3198 -13.2923
   -13.2360 -13.1480 -13.1083 -13.0652 -13.0561 -13.0255 -13.0035 -12.9624
   -12.9532 -12.9256 -12.8938 -12.8570 -12.8018 -12.7581 -12.7489 -12.7205
   -12.7183 -12.6785 -12.5016 -12.4584 -12.4330 -12.2833 -12.1429 -12.0937
   -11.8068 -11.7749 -11.7643 -11.7573 -11.6944 -11.6602 -11.6533 -11.6176
   -11.6102 -11.5185 -11.4773 -11.4596  -2.6759  -2.4663  -2.3488  -2.2549
    -2.1335  -2.0681  -1.8716  -1.7260  -1.7062  -1.6783  -1.5829  -1.5492
    -1.4551  -1.4280  -1.3776  -1.2460  -1.1984  -1.1262  -1.0805  -1.0370
    -1.0127  -0.9877  -0.9460  -0.9299  -0.8397  -0.7897  -0.7260  -0.6763
    -0.6456  -0.5953  -0.5819  -0.5193  -0.4698  -0.4170  -0.3790  -0.2954
    -0.2395  -0.2126  -0.1726  -0.1179  -0.0415  -0.0062   0.0159   0.0925
     0.1258   0.3996   0.5465   0.5840   0.6405   0.6832   0.7324   0.7917
     0.8542   0.8895   1.1621   1.2313   1.3047   1.3314   1.3767   1.4111
     1.4460   1.4830   1.5003   1.5285   1.5707   1.5796   1.5955   1.6370
     1.6781   1.7175   1.7768   1.8141   1.8220   1.8566   1.8915   1.9434
     1.9737   2.0927   2.1658   2.2023   2.2278   2.2871   2.3594   2.3879
     2.4237   2.4480   2.4623   2.5709   2.6081   2.6961   2.8113   2.8741
     2.8886   2.8948   2.9104   2.9247   2.9358   2.9528   2.9583   2.9696
     2.9805   2.9921   3.0111   3.0165   3.0286   3.0505   3.0630   3.0722
     3.1035   3.4047   3.5000   3.5381   3.6063   3.6663   3.8455   3.9478
     4.2942   4.5170   4.7082   4.9694   5.1675   5.6381   5.6776   5.7380
     5.8292   5.8885   5.9939   6.1576   6.2233   6.7273   6.8948   7.0521
     7.1604   7.5498   7.5982   7.7050   7.7200   7.8635   7.9576   8.1155
     8.1393   8.2077   8.3035   8.3746   8.4412   8.4636   8.5407   8.8289

     occupation numbers 
     1.0000   1.0000   1.0000   1.0000   1.0000   1.0000   1.0000   1.0000
     1.0000   1.0000   1.0000   1.0000   1.0000   1.0000   1.0000   1.0000
     1.0000   1.0000   1.0000   1.0000   1.0000   1.0000   1.0000   1.0000
     1.0000   1.0000   1.0000   1.0000   1.0000   1.0000   1.0000   1.0000
     1.0000   1.0000   1.0000   1.0000   1.0000   1.0000   1.0000   1.0000
     1.0000   1.0000   1.0000   1.0000   1.0000   1.0000   1.0000   1.0000
     1.0000   1.0000   1.0000   1.0000   1.0000   1.0000   1.0000   1.0000
     1.0000   1.0000   1.0000   1.0000   1.0000   1.0000   1.0000   1.0000
     1.0000   1.0000   1.0000   1.0000   1.0000   1.0000   1.0000   1.0000
     1.0000   1.0000   1.0000   1.0000   1.0000   1.0000   1.0000   1.0000
     1.0000   1.0000   1.0000   1.0000   1.0000   1.0000   1.0000   1.0000
     1.0000   1.0000   1.0000   1.0000   1.0000   1.0000   1.0000   1.0000
     1.0000   1.0000   1.0000   1.0000   1.0000   1.0000   1.0000   1.0000
     1.0000   1.0000   1.0000   1.0000   1.0000   1.0000   1.0000   1.0000
     1.0000   1.0000   1.0000   1.0000   1.0000   1.0000   1.0000   1.0000
     1.0000   1.0000   1.0000   1.0000   1.0000   1.0000   1.0000   1.0000
     1.0000   1.0000   1.0000   1.0000   1.0000   1.0000   1.0000   1.0000
     1.0000   1.0000   1.0000   1.0000   1.0000   1.0000   1.0000   1.0000
     1.0000   1.0000   1.0000   1.0000   1.0000   1.0000   1.0000   1.0000
     1.0000   1.0000   1.0000   1.0000   1.0000   1.0000   0.9999   0.9999
     0.9999   0.9998   0.9993   0.9990   0.9986   0.9984   0.9981   0.9977
     0.9973   0.9968   0.9966   0.9961   0.9953   0.9951   0.9948   0.9938
     0.9926   0.9914   0.9891   0.9874   0.9870   0.9851   0.9831   0.9796
     0.9772   0.9659   0.9568   0.9516   0.9477   0.9375   0.9232   0.9170
     0.9085   0.9024   0.8987   0.8672   0.8549   0.8231   0.7752   0.7463
     0.7394   0.7364   0.7287   0.7217   0.7161   0.7075   0.7047   0.6988
     0.6932   0.6871   0.6771   0.6742   0.6677   0.6558   0.6489   0.6438
     0.6264   0.4503   0.3949   0.3733   0.3356   0.3038   0.2178   0.1758
     0.0741   0.0378   0.0197   0.0072   0.0030   0.0003   0.0002   0.0002
     0.0001   0.0001   0.0000   0.0000   0.0000   0.0000   0.0000   0.0000
     0.0000   0.0000   0.0000   0.0000   0.0000   0.0000   0.0000   0.0000
     0.0000   0.0000   0.0000   0.0000   0.0000   0.0000   0.0000   0.0000

          k = 0.2500-0.5000 0.0000 ( 65138 PWs)   bands (ev):

   -92.7074 -92.6521 -92.5608 -92.5097 -92.4555 -92.4136 -92.3960 -92.2728
   -56.0608 -56.0386 -55.9183 -55.9080 -55.8976 -55.8948 -55.8569 -55.8301
   -55.8145 -55.8131 -55.8032 -55.7630 -55.7424 -55.7067 -55.6870 -55.6555
   -55.6430 -55.6018 -55.5989 -55.5988 -55.5904 -55.5476 -55.5264 -55.4399
   -31.2815 -31.2653 -31.1232 -31.0878 -31.0767 -31.0367 -30.8252 -30.7700
   -29.8532 -29.8121 -29.7882 -29.6792 -14.9873 -14.9415 -14.8745 -14.7574
   -14.7287 -14.6059 -14.5217 -14.3872 -14.0803 -14.0308 -14.0014 -13.9813
   -13.9644 -13.9501 -13.9175 -13.9017 -13.8664 -13.8258 -13.8028 -13.7694
   -13.6728 -13.6234 -13.5850 -13.5449 -13.4822 -13.4696 -13.3761 -13.3470
   -13.2124 -13.1483 -13.1270 -13.0439 -13.0371 -13.0153 -12.9937 -12.9758
   -12.9496 -12.9185 -12.8503 -12.8373 -12.8024 -12.7825 -12.7619 -12.6869
   -12.6613 -12.6299 -12.5275 -12.4089 -12.3269 -12.2641 -12.2154 -12.1859
   -11.7822 -11.7703 -11.7595 -11.7326 -11.7007 -11.6730 -11.6308 -11.6039
   -11.5810 -11.5368 -11.5110 -11.4994  -2.4580  -2.3918  -2.2627  -2.1853
    -2.0568  -1.9718  -1.8497  -1.6983  -1.6460  -1.6227  -1.5594  -1.5466
    -1.4505  -1.3821  -1.2970  -1.2487  -1.2389  -1.1754  -1.1341  -1.0981
    -1.0513  -1.0138  -0.9790  -0.9390  -0.9288  -0.8821  -0.8532  -0.8123
    -0.7812  -0.7137  -0.6141  -0.5730  -0.4954  -0.4302  -0.3834  -0.3392
    -0.3167  -0.2651  -0.1014  -0.0919   0.0046   0.0477   0.0533   0.0978
     0.1315   0.1704   0.1983   0.2684   0.5372   0.6336   0.6948   0.7570
     1.0226   1.0480   1.1365   1.1606   1.3284   1.3605   1.4039   1.4273
     1.4430   1.4636   1.5242   1.5691   1.6069   1.6833   1.7783   1.8191
     1.8375   1.8440   1.8850   1.8980   1.9035   1.9482   1.9598   1.9806
     2.0036   2.0275   2.0509   2.0826   2.1426   2.1808   2.2598   2.3997
     2.5479   2.5631   2.5838   2.6081   2.6339   2.6598   2.6844   2.6926
     2.7186   2.8140   2.8240   2.8837   2.8884   2.8998   2.9106   2.9272
     2.9401   2.9593   2.9677   2.9990   3.0091   3.0250   3.0338   3.0416
     3.0541   3.5807   3.5909   3.7370   3.7876   4.1327   4.1770   4.2035
     4.3103   4.7470   4.9161   5.0603   5.1188   5.2995   5.4275   5.6021
     5.6095   5.7636   5.7809   6.1181   6.3948   6.4853   6.5800   6.9935
     7.4393   7.5292   7.7004   7.7365   7.8089   7.8748   8.0344   8.1860
     8.3115   8.3772   8.4245   8.5243   8.5400   8.6277   8.7044   8.7664

     occupation numbers 
     1.0000   1.0000   1.0000   1.0000   1.0000   1.0000   1.0000   1.0000
     1.0000   1.0000   1.0000   1.0000   1.0000   1.0000   1.0000   1.0000
     1.0000   1.0000   1.0000   1.0000   1.0000   1.0000   1.0000   1.0000
     1.0000   1.0000   1.0000   1.0000   1.0000   1.0000   1.0000   1.0000
     1.0000   1.0000   1.0000   1.0000   1.0000   1.0000   1.0000   1.0000
     1.0000   1.0000   1.0000   1.0000   1.0000   1.0000   1.0000   1.0000
     1.0000   1.0000   1.0000   1.0000   1.0000   1.0000   1.0000   1.0000
     1.0000   1.0000   1.0000   1.0000   1.0000   1.0000   1.0000   1.0000
     1.0000   1.0000   1.0000   1.0000   1.0000   1.0000   1.0000   1.0000
     1.0000   1.0000   1.0000   1.0000   1.0000   1.0000   1.0000   1.0000
     1.0000   1.0000   1.0000   1.0000   1.0000   1.0000   1.0000   1.0000
     1.0000   1.0000   1.0000   1.0000   1.0000   1.0000   1.0000   1.0000
     1.0000   1.0000   1.0000   1.0000   1.0000   1.0000   1.0000   1.0000
     1.0000   1.0000   1.0000   1.0000   1.0000   1.0000   1.0000   1.0000
     1.0000   1.0000   1.0000   1.0000   1.0000   1.0000   1.0000   1.0000
     1.0000   1.0000   1.0000   1.0000   1.0000   1.0000   1.0000   1.0000
     1.0000   1.0000   1.0000   1.0000   1.0000   1.0000   1.0000   1.0000
     1.0000   1.0000   1.0000   1.0000   1.0000   1.0000   1.0000   1.0000
     1.0000   1.0000   1.0000   1.0000   1.0000   1.0000   1.0000   1.0000
     1.0000   1.0000   1.0000   1.0000   1.0000   1.0000   1.0000   0.9999
     0.9997   0.9996   0.9994   0.9993   0.9985   0.9982   0.9978   0.9975
     0.9973   0.9971   0.9962   0.9953   0.9945   0.9925   0.9890   0.9871
     0.9862   0.9858   0.9835   0.9827   0.9823   0.9792   0.9783   0.9767
     0.9747   0.9726   0.9703   0.9670   0.9599   0.9547   0.9424   0.9142
     0.8744   0.8696   0.8630   0.8549   0.8460   0.8367   0.8275   0.8244
     0.8143   0.7740   0.7695   0.7417   0.7395   0.7339   0.7286   0.7204
     0.7139   0.7041   0.6998   0.6835   0.6781   0.6696   0.6648   0.6606
     0.6538   0.3496   0.3440   0.2682   0.2440   0.1139   0.1017   0.0949
     0.0708   0.0171   0.0089   0.0049   0.0038   0.0016   0.0009   0.0004
     0.0003   0.0001   0.0001   0.0000   0.0000   0.0000   0.0000   0.0000
     0.0000   0.0000   0.0000   0.0000   0.0000   0.0000   0.0000   0.0000
     0.0000   0.0000   0.0000   0.0000   0.0000   0.0000   0.0000   0.0000

          k =-0.5000-0.5000 0.0000 ( 65132 PWs)   bands (ev):

   -92.7074 -92.6521 -92.5608 -92.5097 -92.4555 -92.4136 -92.3960 -92.2728
   -56.0608 -56.0386 -55.9183 -55.9080 -55.8976 -55.8948 -55.8569 -55.8301
   -55.8145 -55.8131 -55.8032 -55.7630 -55.7424 -55.7067 -55.6870 -55.6555
   -55.6430 -55.6018 -55.5989 -55.5988 -55.5904 -55.5476 -55.5264 -55.4399
   -31.2794 -31.2674 -31.1228 -31.0877 -31.0765 -31.0371 -30.8253 -30.7701
   -29.8522 -29.8132 -29.7878 -29.6796 -14.9411 -14.9144 -14.7964 -14.7861
   -14.6942 -14.6536 -14.6225 -14.4879 -13.9920 -13.9794 -13.9455 -13.9273
   -13.9090 -13.9017 -13.8657 -13.8576 -13.8462 -13.8331 -13.8187 -13.7414
   -13.7321 -13.7072 -13.6769 -13.6691 -13.5655 -13.5394 -13.4105 -13.4041
   -13.1624 -13.1248 -13.0587 -13.0321 -13.0192 -12.9994 -12.9906 -12.9829
   -12.9780 -12.9605 -12.8506 -12.8372 -12.8022 -12.7825 -12.7693 -12.6973
   -12.6110 -12.6036 -12.5437 -12.3952 -12.3232 -12.2462 -12.2059 -12.1824
   -11.7789 -11.7666 -11.7486 -11.7321 -11.6969 -11.6785 -11.6457 -11.5845
   -11.5640 -11.5587 -11.5085 -11.5051  -2.2346  -2.1579  -2.1467  -2.0764
    -2.0370  -1.9586  -1.8909  -1.7656  -1.6487  -1.6179  -1.5803  -1.5220
    -1.4501  -1.4366  -1.3644  -1.3225  -1.2059  -1.1777  -1.1290  -1.0987
    -1.0347  -0.9895  -0.9702  -0.9580  -0.9064  -0.8594  -0.8459  -0.7318
    -0.6737  -0.6286  -0.5778  -0.5536  -0.5426  -0.5055  -0.4627  -0.4298
    -0.4171  -0.3307  -0.2622  -0.2171  -0.1924  -0.1178  -0.0640  -0.0446
     0.0084   0.0255   0.0428   0.0525   0.5059   0.5555   0.6421   0.6686
     1.0555   1.0684   1.0996   1.1376   1.4119   1.4321   1.4378   1.4753
     1.6084   1.7053   1.7317   1.7680   1.7872   1.8105   1.8188   1.8514
     1.8625   1.8795   1.8843   1.9364   1.9425   1.9689   1.9939   1.9997
     2.0190   2.0586   2.0817   2.0906   2.1265   2.1513   2.2236   2.2915
     2.5498   2.5914   2.6095   2.6313   2.6428   2.6705   2.6737   2.6927
     2.7039   2.7206   2.7433   2.7546   2.8059   2.8239   2.8299   2.8438
     2.8677   2.8887   2.8924   2.8955   2.9156   3.0052   3.0128   3.0377
     3.0478   3.9875   4.0226   4.0623   4.1148   4.3120   4.3845   4.4123
     4.6529   4.7745   4.8578   4.9871   5.0728   5.0825   5.1980   5.3022
     5.3692   5.8562   5.8885   5.9596   6.0213   6.3559   6.5082   6.5477
     7.7565   7.8275   7.8806   7.8970   7.9326   7.9729   8.0099   8.0813
     8.2639   8.3734   8.5215   8.5799   8.6071   8.6153   8.6506   8.6691

     occupation numbers 
     1.0000   1.0000   1.0000   1.0000   1.0000   1.0000   1.0000   1.0000
     1.0000   1.0000   1.0000   1.0000   1.0000   1.0000   1.0000   1.0000
     1.0000   1.0000   1.0000   1.0000   1.0000   1.0000   1.0000   1.0000
     1.0000   1.0000   1.0000   1.0000   1.0000   1.0000   1.0000   1.0000
     1.0000   1.0000   1.0000   1.0000   1.0000   1.0000   1.0000   1.0000
     1.0000   1.0000   1.0000   1.0000   1.0000   1.0000   1.0000   1.0000
     1.0000   1.0000   1.0000   1.0000   1.0000   1.0000   1.0000   1.0000
     1.0000   1.0000   1.0000   1.0000   1.0000   1.0000   1.0000   1.0000
     1.0000   1.0000   1.0000   1.0000   1.0000   1.0000   1.0000   1.0000
     1.0000   1.0000   1.0000   1.0000   1.0000   1.0000   1.0000   1.0000
     1.0000   1.0000   1.0000   1.0000   1.0000   1.0000   1.0000   1.0000
     1.0000   1.0000   1.0000   1.0000   1.0000   1.0000   1.0000   1.0000
     1.0000   1.0000   1.0000   1.0000   1.0000   1.0000   1.0000   1.0000
     1.0000   1.0000   1.0000   1.0000   1.0000   1.0000   1.0000   1.0000
     1.0000   1.0000   1.0000   1.0000   1.0000   1.0000   1.0000   1.0000
     1.0000   1.0000   1.0000   1.0000   1.0000   1.0000   1.0000   1.0000
     1.0000   1.0000   1.0000   1.0000   1.0000   1.0000   1.0000   1.0000
     1.0000   1.0000   1.0000   1.0000   1.0000   1.0000   1.0000   1.0000
     1.0000   1.0000   1.0000   1.0000   1.0000   1.0000   1.0000   1.0000
     1.0000   1.0000   1.0000   1.0000   1.0000   1.0000   1.0000   1.0000
     0.9996   0.9996   0.9995   0.9994   0.9977   0.9975   0.9974   0.9969
     0.9945   0.9918   0.9908   0.9894   0.9886   0.9875   0.9871   0.9854
     0.9848   0.9838   0.9835   0.9801   0.9796   0.9776   0.9756   0.9751
     0.9734   0.9695   0.9671   0.9661   0.9619   0.9587   0.9483   0.9367
     0.8738   0.8605   0.8545   0.8469   0.8429   0.8328   0.8316   0.8244
     0.8201   0.8135   0.8043   0.7996   0.7776   0.7696   0.7669   0.7605
     0.7494   0.7393   0.7375   0.7360   0.7262   0.6802   0.6761   0.6627
     0.6572   0.1610   0.1486   0.1354   0.1191   0.0705   0.0571   0.0525
     0.0239   0.0154   0.0112   0.0067   0.0046   0.0044   0.0027   0.0016
     0.0012   0.0001   0.0001   0.0000   0.0000   0.0000   0.0000   0.0000
     0.0000   0.0000   0.0000   0.0000   0.0000   0.0000   0.0000   0.0000
     0.0000   0.0000   0.0000   0.0000   0.0000   0.0000   0.0000   0.0000

          k = 0.2500 0.0000 0.0000 ( 65257 PWs)   bands (ev):

   -92.7074 -92.6521 -92.5608 -92.5097 -92.4555 -92.4136 -92.3960 -92.2728
   -56.0608 -56.0386 -55.9183 -55.9080 -55.8976 -55.8948 -55.8569 -55.8301
   -55.8145 -55.8131 -55.8033 -55.7630 -55.7424 -55.7067 -55.6870 -55.6555
   -55.6430 -55.6018 -55.5989 -55.5988 -55.5904 -55.5476 -55.5264 -55.4399
   -31.2819 -31.2655 -31.1228 -31.0917 -31.0727 -31.0364 -30.8263 -30.7688
   -29.8545 -29.8128 -29.7870 -29.6785 -15.0547 -15.0172 -14.9458 -14.7980
   -14.6961 -14.4996 -14.3641 -14.1863 -14.1667 -14.1380 -14.1076 -14.0826
   -14.0495 -14.0347 -14.0100 -13.9753 -13.8492 -13.8187 -13.6661 -13.6035
   -13.5934 -13.5330 -13.4994 -13.4890 -13.4358 -13.3528 -13.3186 -13.2438
   -13.1868 -13.1642 -13.1138 -13.0664 -13.0512 -13.0349 -13.0194 -12.9861
   -12.9621 -12.9439 -12.9236 -12.9063 -12.8263 -12.7912 -12.7770 -12.7103
   -12.6617 -12.6489 -12.6225 -12.5642 -12.4120 -12.2551 -12.1059 -12.0482
   -11.8339 -11.7819 -11.7644 -11.7513 -11.7246 -11.6742 -11.6507 -11.6429
   -11.5926 -11.5033 -11.4472 -11.4412  -2.8136  -2.5911  -2.4614  -2.2890
    -2.2253  -2.0545  -1.8481  -1.7703  -1.7256  -1.6921  -1.5909  -1.5768
    -1.5421  -1.5229  -1.4542  -1.2733  -1.1662  -1.1239  -1.0284  -1.0190
    -0.9362  -0.9100  -0.8601  -0.8187  -0.7665  -0.7394  -0.6890  -0.6619
    -0.6428  -0.5880  -0.5744  -0.4823  -0.4730  -0.4120  -0.3167  -0.2668
    -0.1405  -0.1244  -0.0716  -0.0229   0.0335   0.0565   0.0985   0.1586
     0.2047   0.4848   0.6194   0.6483   0.7370   0.7660   0.7947   0.8153
     0.9004   1.0096   1.0572   1.0802   1.1221   1.2659   1.3008   1.3342
[...]
     0.7446   0.7252   0.7188   0.7148   0.7048   0.6988   0.6916   0.6801
     0.6767   0.6648   0.6565   0.6544   0.6466   0.6338   0.6218   0.6195
     0.6147   0.6108   0.6053   0.5992   0.5191   0.3531   0.3232   0.2047
     0.0800   0.0444   0.0219   0.0059   0.0049   0.0003   0.0001   0.0001
     0.0000   0.0000   0.0000   0.0000   0.0000   0.0000   0.0000   0.0000
     0.0000   0.0000   0.0000   0.0000   0.0000   0.0000   0.0000   0.0000
     0.0000   0.0000   0.0000   0.0000   0.0000   0.0000   0.0000   0.0000

          k =-0.5000 0.0000 0.0000 ( 65180 PWs)   bands (ev):

   -92.7074 -92.6521 -92.5608 -92.5097 -92.4555 -92.4136 -92.3960 -92.2728
   -56.0608 -56.0386 -55.9183 -55.9080 -55.8976 -55.8948 -55.8569 -55.8301
   -55.8145 -55.8131 -55.8032 -55.7630 -55.7424 -55.7067 -55.6870 -55.6555
   -55.6430 -55.6018 -55.5989 -55.5988 -55.5904 -55.5476 -55.5264 -55.4399
   -31.2798 -31.2677 -31.1224 -31.0916 -31.0726 -31.0368 -30.8264 -30.7689
   -29.8534 -29.8138 -29.7866 -29.6789 -15.0218 -14.9716 -14.9095 -14.8043
   -14.6957 -14.5533 -14.4071 -14.2720 -14.1394 -14.1338 -14.1145 -14.0517
   -13.9984 -13.9662 -13.9189 -13.9152 -13.9001 -13.8457 -13.8361 -13.7296
   -13.5610 -13.5433 -13.5014 -13.4941 -13.4364 -13.3709 -13.3292 -13.2741
   -13.2515 -13.2501 -13.1043 -13.0605 -13.0500 -13.0293 -13.0169 -12.9948
   -12.9549 -12.9373 -12.9235 -12.9073 -12.7846 -12.7108 -12.6531 -12.6464
   -12.6378 -12.6332 -12.5469 -12.4980 -12.3673 -12.3332 -12.1972 -12.1554
   -11.7859 -11.7646 -11.7576 -11.7427 -11.7247 -11.6830 -11.6212 -11.6038
   -11.5712 -11.5256 -11.5162 -11.5006  -2.5893  -2.5507  -2.3864  -2.3475
    -2.0345  -1.9603  -1.8101  -1.6932  -1.6542  -1.6096  -1.5604  -1.5350
    -1.4124  -1.3676  -1.3531  -1.2704  -1.2349  -1.2210  -1.1878  -1.1307
    -1.0620  -1.0321  -1.0056  -0.9093  -0.8614  -0.8125  -0.7797  -0.7585
    -0.7302  -0.6809  -0.6563  -0.6164  -0.5235  -0.4482  -0.3865  -0.3231
    -0.1543  -0.1240  -0.0628  -0.0373   0.0366   0.0449   0.1833   0.2142
     0.2528   0.4340   0.5327   0.5797   0.6518   0.7330   0.8483   0.8629
     0.9991   1.0231   1.0759   1.0980   1.1413   1.1551   1.1980   1.2240
     1.2913   1.3369   1.3845   1.3908   1.6892   1.6993   1.7174   1.7361
     1.8504   1.8593   1.8728   1.8847   1.9111   1.9224   1.9620   1.9891
     2.0122   2.0707   2.0813   2.1328   2.1506   2.2127   2.3138   2.4281
     2.4874   2.5096   2.5815   2.6202   2.6458   2.7147   2.7221   2.7315
     2.7601   2.8079   2.8435   2.8754   2.9198   2.9633   2.9936   2.9976
     2.9981   3.0137   3.0240   3.0371   3.0523   3.0571   3.0801   3.0829
     3.1063   3.1229   3.1278   3.2580   3.2770   4.0506   4.1156   4.1784
     4.3500   4.7853   4.8601   5.0216   5.0492   5.4825   5.5131   5.5814
     5.6477   5.9453   6.0275   6.0574   6.6757   6.8007   7.0012   7.2801
     7.2997   7.3269   7.4082   7.4672   7.7084   7.7735   7.8500   7.8861
     8.1409   8.2653   8.4163   8.5320   8.6255   8.7024   8.7590   8.8394

     occupation numbers 
     1.0000   1.0000   1.0000   1.0000   1.0000   1.0000   1.0000   1.0000
     1.0000   1.0000   1.0000   1.0000   1.0000   1.0000   1.0000   1.0000
     1.0000   1.0000   1.0000   1.0000   1.0000   1.0000   1.0000   1.0000
     1.0000   1.0000   1.0000   1.0000   1.0000   1.0000   1.0000   1.0000
     1.0000   1.0000   1.0000   1.0000   1.0000   1.0000   1.0000   1.0000
     1.0000   1.0000   1.0000   1.0000   1.0000   1.0000   1.0000   1.0000
     1.0000   1.0000   1.0000   1.0000   1.0000   1.0000   1.0000   1.0000
     1.0000   1.0000   1.0000   1.0000   1.0000   1.0000   1.0000   1.0000
     1.0000   1.0000   1.0000   1.0000   1.0000   1.0000   1.0000   1.0000
     1.0000   1.0000   1.0000   1.0000   1.0000   1.0000   1.0000   1.0000
     1.0000   1.0000   1.0000   1.0000   1.0000   1.0000   1.0000   1.0000
     1.0000   1.0000   1.0000   1.0000   1.0000   1.0000   1.0000   1.0000
     1.0000   1.0000   1.0000   1.0000   1.0000   1.0000   1.0000   1.0000
     1.0000   1.0000   1.0000   1.0000   1.0000   1.0000   1.0000   1.0000
     1.0000   1.0000   1.0000   1.0000   1.0000   1.0000   1.0000   1.0000
     1.0000   1.0000   1.0000   1.0000   1.0000   1.0000   1.0000   1.0000
     1.0000   1.0000   1.0000   1.0000   1.0000   1.0000   1.0000   1.0000
     1.0000   1.0000   1.0000   1.0000   1.0000   1.0000   1.0000   1.0000
     1.0000   1.0000   1.0000   1.0000   1.0000   1.0000   1.0000   1.0000
     1.0000   1.0000   1.0000   1.0000   1.0000   0.9999   0.9999   0.9999
     0.9997   0.9997   0.9996   0.9995   0.9994   0.9993   0.9992   0.9991
     0.9987   0.9984   0.9980   0.9979   0.9923   0.9920   0.9914   0.9907
     0.9855   0.9850   0.9842   0.9835   0.9818   0.9811   0.9782   0.9760
     0.9740   0.9683   0.9671   0.9611   0.9588   0.9500   0.9325   0.9074
     0.8920   0.8857   0.8638   0.8508   0.8418   0.8158   0.8129   0.8091
     0.7973   0.7767   0.7606   0.7457   0.7241   0.7021   0.6863   0.6842
     0.6839   0.6757   0.6702   0.6631   0.6548   0.6522   0.6394   0.6379
     0.6248   0.6154   0.6126   0.5370   0.5257   0.1392   0.1189   0.1014
     0.0632   0.0148   0.0111   0.0058   0.0051   0.0007   0.0006   0.0004
     0.0003   0.0000   0.0000   0.0000   0.0000   0.0000   0.0000   0.0000
     0.0000   0.0000   0.0000   0.0000   0.0000   0.0000   0.0000   0.0000
     0.0000   0.0000   0.0000   0.0000   0.0000   0.0000   0.0000   0.0000

          k =-0.2500 0.2500 0.0000 ( 65198 PWs)   bands (ev):

   -92.7074 -92.6521 -92.5608 -92.5097 -92.4555 -92.4136 -92.3960 -92.2728
   -56.0608 -56.0386 -55.9183 -55.9080 -55.8976 -55.8948 -55.8569 -55.8301
   -55.8145 -55.8131 -55.8032 -55.7630 -55.7424 -55.7067 -55.6870 -55.6555
   -55.6430 -55.6018 -55.5989 -55.5988 -55.5904 -55.5476 -55.5264 -55.4399
   -31.2817 -31.2654 -31.1230 -31.0900 -31.0744 -31.0365 -30.8257 -30.7694
   -29.8538 -29.8124 -29.7876 -29.6789 -15.0241 -14.9853 -14.9109 -14.7931
   -14.6852 -14.5569 -14.4703 -14.2655 -14.1232 -14.0925 -14.0824 -14.0334
   -14.0107 -13.9930 -13.9761 -13.9329 -13.8455 -13.8327 -13.6788 -13.6537
   -13.6261 -13.6047 -13.5702 -13.5043 -13.4535 -13.4416 -13.3249 -13.2933
   -13.2298 -13.1520 -13.1101 -13.0618 -13.0466 -13.0196 -12.9984 -12.9744
   -12.9441 -12.9332 -12.8972 -12.8639 -12.8022 -12.7764 -12.7572 -12.7233
   -12.6976 -12.6737 -12.5167 -12.4481 -12.4177 -12.2890 -12.1375 -12.1003
   -11.8060 -11.7843 -11.7574 -11.7452 -11.7041 -11.6700 -11.6461 -11.6253
   -11.6023 -11.5183 -11.4726 -11.4630  -2.6743  -2.4652  -2.3445  -2.2567
    -2.1377  -2.0708  -1.8693  -1.7227  -1.7039  -1.6763  -1.5834  -1.5481
    -1.4549  -1.4212  -1.3952  -1.2516  -1.1963  -1.1294  -1.1005  -1.0403
    -1.0181  -0.9779  -0.9488  -0.9088  -0.8460  -0.7986  -0.7379  -0.6675
    -0.6414  -0.5900  -0.5616  -0.5164  -0.4605  -0.4196  -0.3732  -0.2765
    -0.2413  -0.2310  -0.1862  -0.1192  -0.0434  -0.0033   0.0236   0.0943
     0.1239   0.3810   0.5479   0.5930   0.6306   0.6888   0.7340   0.7934
     0.8596   0.8884   1.1697   1.2820   1.3213   1.3539   1.3599   1.4037
     1.4210   1.4647   1.4961   1.5112   1.5370   1.5801   1.5937   1.6380
     1.6534   1.6992   1.7909   1.8043   1.8216   1.8625   1.8888   1.9258
     1.9775   2.0822   2.1960   2.2245   2.2687   2.2897   2.3593   2.3983
     2.4263   2.4513   2.4693   2.5714   2.6061   2.6968   2.8154   2.8775
     2.8880   2.8982   2.9096   2.9198   2.9338   2.9433   2.9573   2.9706
     2.9816   2.9899   3.0030   3.0119   3.0184   3.0514   3.0629   3.0716
     3.1052   3.3977   3.4804   3.5426   3.6207   3.6645   3.8297   3.9566
     4.2928   4.5169   4.7077   4.9805   5.1674   5.6387   5.6769   5.7424
     5.8275   5.8893   5.9857   6.1715   6.2062   6.7504   6.8944   7.0458
     7.1370   7.5636   7.6073   7.6674   7.7626   7.8800   7.9518   8.1052
     8.1465   8.2109   8.2444   8.3181   8.4431   8.4738   8.6442   8.8429

     occupation numbers 
     1.0000   1.0000   1.0000   1.0000   1.0000   1.0000   1.0000   1.0000
     1.0000   1.0000   1.0000   1.0000   1.0000   1.0000   1.0000   1.0000
     1.0000   1.0000   1.0000   1.0000   1.0000   1.0000   1.0000   1.0000
     1.0000   1.0000   1.0000   1.0000   1.0000   1.0000   1.0000   1.0000
     1.0000   1.0000   1.0000   1.0000   1.0000   1.0000   1.0000   1.0000
     1.0000   1.0000   1.0000   1.0000   1.0000   1.0000   1.0000   1.0000
     1.0000   1.0000   1.0000   1.0000   1.0000   1.0000   1.0000   1.0000
     1.0000   1.0000   1.0000   1.0000   1.0000   1.0000   1.0000   1.0000
     1.0000   1.0000   1.0000   1.0000   1.0000   1.0000   1.0000   1.0000
     1.0000   1.0000   1.0000   1.0000   1.0000   1.0000   1.0000   1.0000
     1.0000   1.0000   1.0000   1.0000   1.0000   1.0000   1.0000   1.0000
     1.0000   1.0000   1.0000   1.0000   1.0000   1.0000   1.0000   1.0000
     1.0000   1.0000   1.0000   1.0000   1.0000   1.0000   1.0000   1.0000
     1.0000   1.0000   1.0000   1.0000   1.0000   1.0000   1.0000   1.0000
     1.0000   1.0000   1.0000   1.0000   1.0000   1.0000   1.0000   1.0000
     1.0000   1.0000   1.0000   1.0000   1.0000   1.0000   1.0000   1.0000
     1.0000   1.0000   1.0000   1.0000   1.0000   1.0000   1.0000   1.0000
     1.0000   1.0000   1.0000   1.0000   1.0000   1.0000   1.0000   1.0000
     1.0000   1.0000   1.0000   1.0000   1.0000   1.0000   1.0000   1.0000
     1.0000   1.0000   1.0000   1.0000   1.0000   1.0000   0.9999   0.9999
     0.9999   0.9998   0.9993   0.9988   0.9985   0.9983   0.9982   0.9978
     0.9976   0.9971   0.9966   0.9964   0.9960   0.9951   0.9948   0.9938
     0.9933   0.9920   0.9884   0.9878   0.9870   0.9848   0.9832   0.9808
     0.9769   0.9670   0.9525   0.9482   0.9408   0.9371   0.9233   0.9146
     0.9079   0.9016   0.8969   0.8670   0.8556   0.8228   0.7734   0.7447
     0.7397   0.7347   0.7291   0.7241   0.7171   0.7123   0.7052   0.6983
     0.6926   0.6882   0.6814   0.6766   0.6732   0.6553   0.6490   0.6442
     0.6254   0.4544   0.4062   0.3708   0.3279   0.3047   0.2248   0.1725
     0.0744   0.0378   0.0197   0.0069   0.0030   0.0003   0.0002   0.0002
     0.0001   0.0001   0.0000   0.0000   0.0000   0.0000   0.0000   0.0000
     0.0000   0.0000   0.0000   0.0000   0.0000   0.0000   0.0000   0.0000
     0.0000   0.0000   0.0000   0.0000   0.0000   0.0000   0.0000   0.0000

          k =-0.5000 0.2500 0.0000 ( 65138 PWs)   bands (ev):

   -92.7074 -92.6521 -92.5608 -92.5097 -92.4555 -92.4136 -92.3960 -92.2728
   -56.0608 -56.0386 -55.9183 -55.9080 -55.8976 -55.8948 -55.8569 -55.8301
   -55.8145 -55.8131 -55.8032 -55.7630 -55.7424 -55.7067 -55.6870 -55.6555
   -55.6430 -55.6018 -55.5989 -55.5988 -55.5904 -55.5476 -55.5264 -55.4399
   -31.2796 -31.2675 -31.1226 -31.0899 -31.0743 -31.0369 -30.8259 -30.7695
   -29.8528 -29.8135 -29.7872 -29.6793 -14.9892 -14.9453 -14.8665 -14.7694
   -14.7263 -14.5995 -14.5116 -14.3856 -14.0741 -14.0430 -14.0308 -13.9848
   -13.9662 -13.9397 -13.9054 -13.9007 -13.8771 -13.8385 -13.8254 -13.7206
   -13.6440 -13.6013 -13.5942 -13.5820 -13.4894 -13.4747 -13.3700 -13.3316
   -13.2056 -13.1705 -13.0754 -13.0569 -13.0333 -13.0220 -13.0042 -12.9734
   -12.9514 -12.9422 -12.9245 -12.8634 -12.7925 -12.7427 -12.7092 -12.6712
   -12.6284 -12.6203 -12.5451 -12.4387 -12.3286 -12.3100 -12.1948 -12.1677
   -11.7787 -11.7660 -11.7517 -11.7399 -11.7183 -11.6879 -11.6084 -11.5998
   -11.5764 -11.5401 -11.5119 -11.5032  -2.4471  -2.4050  -2.2562  -2.2142
    -2.0537  -1.9790  -1.8345  -1.6996  -1.6432  -1.6162  -1.5764  -1.5376
    -1.4572  -1.3422  -1.2851  -1.2620  -1.2370  -1.1610  -1.1313  -1.0928
    -1.0753  -1.0144  -0.9870  -0.9461  -0.9111  -0.8823  -0.8251  -0.7981
    -0.7564  -0.7223  -0.6187  -0.5899  -0.5066  -0.4419  -0.4105  -0.3562
    -0.2682  -0.2342  -0.1346  -0.0936  -0.0400   0.0131   0.0321   0.1117
     0.1362   0.1677   0.2244   0.2631   0.5686   0.6361   0.6931   0.7147
     1.0086   1.0590   1.1368   1.1611   1.3398   1.3780   1.4143   1.4280
     1.4461   1.4641   1.5339   1.5744   1.6183   1.6418   1.7712   1.8029
     1.8324   1.8442   1.8844   1.9080   1.9212   1.9374   1.9586   1.9808
     2.0268   2.0445   2.0762   2.0977   2.1277   2.1900   2.3075   2.4143
     2.4360   2.5087   2.5468   2.5996   2.6451   2.6508   2.6872   2.7212
     2.7446   2.8115   2.8457   2.8721   2.8888   2.8967   2.9131   2.9366
     2.9478   2.9642   2.9775   2.9960   3.0072   3.0189   3.0265   3.0360
     3.0473   3.5728   3.6439   3.7671   3.7948   4.0595   4.1380   4.1894
     4.4193   4.7797   4.8762   5.0247   5.0742   5.3946   5.4259   5.5920
     5.6114   5.7459   5.7682   6.0925   6.3908   6.4917   6.6063   6.9727
     7.4442   7.5263   7.7117   7.7802   7.7940   7.8873   8.0197   8.1904
     8.3084   8.3847   8.4233   8.5222   8.5529   8.6172   8.6741   8.7383

     occupation numbers 
     1.0000   1.0000   1.0000   1.0000   1.0000   1.0000   1.0000   1.0000
     1.0000   1.0000   1.0000   1.0000   1.0000   1.0000   1.0000   1.0000
     1.0000   1.0000   1.0000   1.0000   1.0000   1.0000   1.0000   1.0000
     1.0000   1.0000   1.0000   1.0000   1.0000   1.0000   1.0000   1.0000
     1.0000   1.0000   1.0000   1.0000   1.0000   1.0000   1.0000   1.0000
     1.0000   1.0000   1.0000   1.0000   1.0000   1.0000   1.0000   1.0000
     1.0000   1.0000   1.0000   1.0000   1.0000   1.0000   1.0000   1.0000
     1.0000   1.0000   1.0000   1.0000   1.0000   1.0000   1.0000   1.0000
     1.0000   1.0000   1.0000   1.0000   1.0000   1.0000   1.0000   1.0000
     1.0000   1.0000   1.0000   1.0000   1.0000   1.0000   1.0000   1.0000
     1.0000   1.0000   1.0000   1.0000   1.0000   1.0000   1.0000   1.0000
     1.0000   1.0000   1.0000   1.0000   1.0000   1.0000   1.0000   1.0000
     1.0000   1.0000   1.0000   1.0000   1.0000   1.0000   1.0000   1.0000
     1.0000   1.0000   1.0000   1.0000   1.0000   1.0000   1.0000   1.0000
     1.0000   1.0000   1.0000   1.0000   1.0000   1.0000   1.0000   1.0000
     1.0000   1.0000   1.0000   1.0000   1.0000   1.0000   1.0000   1.0000
     1.0000   1.0000   1.0000   1.0000   1.0000   1.0000   1.0000   1.0000
     1.0000   1.0000   1.0000   1.0000   1.0000   1.0000   1.0000   1.0000
     1.0000   1.0000   1.0000   1.0000   1.0000   1.0000   1.0000   1.0000
     1.0000   1.0000   1.0000   1.0000   1.0000   1.0000   1.0000   0.9999
     0.9997   0.9996   0.9994   0.9993   0.9984   0.9980   0.9977   0.9975
     0.9973   0.9971   0.9960   0.9952   0.9943   0.9937   0.9893   0.9879
     0.9864   0.9858   0.9835   0.9820   0.9811   0.9800   0.9784   0.9767
     0.9726   0.9709   0.9677   0.9653   0.9617   0.9534   0.9337   0.9108
     0.9055   0.8860   0.8747   0.8578   0.8421   0.8400   0.8265   0.8133
     0.8038   0.7751   0.7596   0.7472   0.7392   0.7354   0.7274   0.7157
     0.7100   0.7016   0.6948   0.6850   0.6791   0.6729   0.6688   0.6637
     0.6575   0.3540   0.3155   0.2536   0.2407   0.1362   0.1124   0.0985
     0.0514   0.0151   0.0104   0.0057   0.0046   0.0010   0.0009   0.0004
     0.0003   0.0002   0.0001   0.0000   0.0000   0.0000   0.0000   0.0000
     0.0000   0.0000   0.0000   0.0000   0.0000   0.0000   0.0000   0.0000
     0.0000   0.0000   0.0000   0.0000   0.0000   0.0000   0.0000   0.0000

     the Fermi energy is     3.3205 ev

!    total energy              =   -4399.91333924 Ry
     estimated scf accuracy    <          4.1E-09 Ry
     smearing contrib. (-TS)   =      -1.14573868 Ry
     internal energy E=F+TS    =   -4398.76760057 Ry

     The total energy is F=E-TS. E is the sum of the following terms:
     one-electron contribution =  -21253.16153878 Ry
     hartree contribution      =   10754.58587667 Ry
     xc contribution           =    -686.72865922 Ry
     ewald contribution        =    7053.18191068 Ry
     one-center paw contrib.   =    -266.64518992 Ry
      -> PAW hartree energy AE =      25.15622123 Ry
      -> PAW hartree energy PS =     -25.04021170 Ry
      -> PAW xc energy AE      =     -16.51650297 Ry
      -> PAW xc energy PS      =       6.87593224 Ry
      -> total E_H with PAW    =   10754.70188620 Ry
      -> total E_XC with PAW   =    -696.36922995 Ry

     convergence has been achieved in  47 iterations

     Writing all to output data dir /bsuhome/zayahcortright/scratch/pwscf.save/
 
     init_run     :      7.74s CPU      8.28s WALL (       1 calls)
     electrons    :    676.41s CPU    688.26s WALL (       1 calls)

     Called by init_run:
     wfcinit      :      5.58s CPU      5.70s WALL (       1 calls)
     wfcinit:atom :      0.05s CPU      0.06s WALL (       5 calls)
     wfcinit:wfcr :      5.26s CPU      5.33s WALL (       5 calls)
     potinit      :      0.17s CPU      0.19s WALL (       1 calls)
     hinit0       :      0.56s CPU      0.87s WALL (       1 calls)

     Called by electrons:
     c_bands      :    535.94s CPU    540.57s WALL (      47 calls)
     sum_band     :    105.36s CPU    109.53s WALL (      47 calls)
     v_of_rho     :      5.17s CPU      5.45s WALL (      48 calls)
     v_h          :      0.46s CPU      0.46s WALL (      48 calls)
     v_xc         :      4.71s CPU      4.98s WALL (      48 calls)
     newd         :     16.09s CPU     18.51s WALL (      48 calls)
     PAW_pot      :      1.56s CPU      1.59s WALL (      48 calls)
     mix_rho      :     11.94s CPU     12.18s WALL (      47 calls)

     Called by c_bands:
     init_us_2    :      6.59s CPU      6.63s WALL (     475 calls)
     init_us_2:cp :      6.58s CPU      6.63s WALL (     475 calls)
     cegterg      :    504.13s CPU    508.58s WALL (     235 calls)

     Called by sum_band:
     sum_band:wei :      0.34s CPU      0.35s WALL (      47 calls)
     sum_band:loo :     86.00s CPU     86.64s WALL (      47 calls)
     sum_band:buf :      1.31s CPU      1.32s WALL (     235 calls)
     sum_band:ini :      3.03s CPU      3.04s WALL (     235 calls)
     sum_band:cal :     17.44s CPU     17.49s WALL (     235 calls)
     sum_band:bec :      0.53s CPU      0.53s WALL (     235 calls)
     addusdens    :     17.62s CPU     21.12s WALL (      47 calls)
                                        0.00s GPU  (      47 calls)
     addusd:skk   :      0.31s CPU      0.64s WALL (     188 calls)
                                        0.00s GPU  (     188 calls)

     Called by *egterg:
     cdiaghg      :     53.51s CPU     53.72s WALL (    1296 calls)
     cegterg:over :     36.49s CPU     36.60s WALL (    1061 calls)
     cegterg:upda :     26.64s CPU     26.99s WALL (    1061 calls)
     cegterg:last :     55.14s CPU     55.30s WALL (     433 calls)
     cdiaghg:chol :      3.16s CPU      3.19s WALL (    1296 calls)
     cdiaghg:inve :      3.35s CPU      3.36s WALL (    1296 calls)
     cdiaghg:para :      6.89s CPU      6.92s WALL (    2592 calls)
     h_psi        :    280.02s CPU    282.67s WALL (    1301 calls)
     s_psi        :     37.70s CPU     37.80s WALL (    1301 calls)
     g_psi        :      1.00s CPU      1.00s WALL (    1061 calls)

     Called by h_psi:
     h_psi:calbec :     40.65s CPU     40.78s WALL (    1301 calls)
     vloc_psi     :    199.13s CPU    201.15s WALL (    1301 calls)
     add_vuspsi   :     37.17s CPU     37.29s WALL (    1301 calls)

     General routines
     calbec       :     58.08s CPU     58.26s WALL (    1536 calls)
     fft          :      3.37s CPU      3.41s WALL (     622 calls)
     ffts         :      4.43s CPU      4.46s WALL (    4971 calls)
     fftw         :    169.78s CPU    171.24s WALL (  316304 calls)
     interpolate  :      0.39s CPU      0.40s WALL (      48 calls)
 
     Parallel routines

     PAW routines
     PAW_pot      :      1.56s CPU      1.59s WALL (      48 calls)
 
     PWSCF        :  11m25.67s CPU  11m41.83s WALL

 
   This run was terminated on:  18:13: 1  21Jun2024            

=------------------------------------------------------------------------------=
   JOB DONE.
=------------------------------------------------------------------------------=
