
     Program PWSCF v.7.2 starts on 22Jun2024 at  4:45:16 

     This program is part of the open-source Quantum ESPRESSO suite
     for quantum simulation of materials; please cite
         "P. Giannozzi et al., J. Phys.:Condens. Matter 21 395502 (2009);
         "P. Giannozzi et al., J. Phys.:Condens. Matter 29 465901 (2017);
         "P. Giannozzi et al., J. Chem. Phys. 152 154105 (2020);
          URL http://www.quantum-espresso.org", 
     in publications or presentations arising from this work. More details at
     http://www.quantum-espresso.org/quote

     Parallel version (MPI & OpenMP), running on      48 processor cores
     Number of MPI processes:                48
     Threads/MPI process:                     1

     MPI processes distributed on     1 nodes
     33228 MiB available memory on the printing compute node when the environment starts
 
     Reading input from espresso.pwi
Warning: card &CELL ignored
Warning: card / ignored
Warning: card &FCP ignored
Warning: card / ignored
Warning: card &RISM ignored
Warning: card / ignored

     Current dimensions of program PWSCF are:
     Max number of different atomic species (ntypx) = 10
     Max number of k-points (npk) =  40000
     Max angular momentum in pseudopotentials (lmaxx) =  4
     file O.pbe-n-kjpaw_psl.0.1.UPF: wavefunction(s)  2P renormalized
     signal trapping enabled: kill the code with -SIGUSR1 to stop cleanly the simulation 
 
     K-points division:     npool     =       2
     R & G space division:  proc/nbgrp/npool/nimage =      24
     Subspace diagonalization in iterative solution of the eigenvalue problem:
     one sub-group per band group will be used
     scalapack distributed-memory algorithm (size of sub-group:  3*  3 procs)

 
     Parallelization info
     --------------------
     sticks:   dense  smooth     PW     G-vecs:    dense   smooth      PW
     Min         350     175     47                61430    21716    3036
     Max         351     177     48                61449    21727    3041
     Sum        8421    4205   1137              1474595   521381   72913
 
     Using Slab Decomposition
 


     bravais-lattice index     =            0
     lattice parameter (alat)  =      14.8599  a.u.
     unit-cell volume          =    8305.1283 (a.u.)^3
     number of atoms/cell      =           50
     number of atomic types    =            4
     number of electrons       =       431.00
     number of Kohn-Sham states=          259
     kinetic-energy cutoff     =      60.0000  Ry
     charge density cutoff     =     480.0000  Ry
     scf convergence threshold =      1.0E-08
     mixing beta               =       0.1500
     number of iterations used =            8  local-TF  mixing
     Exchange-correlation= PBE
                           (   1   4   3   4   0   0   0)

     celldm(1)=  14.859904  celldm(2)=   0.000000  celldm(3)=   0.000000
     celldm(4)=   0.000000  celldm(5)=   0.000000  celldm(6)=   0.000000

     crystal axes: (cart. coord. in units of alat)
               a(1) = (   1.000000   0.000000   0.000000 )  
               a(2) = (   0.000000   1.000000   0.000000 )  
               a(3) = (   0.000000   0.000000   2.531036 )  

     reciprocal axes: (cart. coord. in units 2 pi/alat)
               b(1) = (  1.000000  0.000000  0.000000 )  
               b(2) = (  0.000000  1.000000  0.000000 )  
               b(3) = (  0.000000  0.000000  0.395095 )  


     PseudoPot. # 1 for Sr read from file:
     /bsuhome/zayahcortright/q-e/pseudo/Sr_pbe_v1.uspp.F.UPF
     MD5 check sum: 6b418c05fbe9db5448babca5e47b7a5b
     Pseudo is Ultrasoft + core correction, Zval = 10.0
     Generated by new atomic code, or converted to UPF format
     Using radial grid of  883 points,  6 beta functions with: 
                l(1) =   0
                l(2) =   0
                l(3) =   1
                l(4) =   1
                l(5) =   2
                l(6) =   2
     Q(r) pseudized with  6 coefficients,  rinner =    1.400   1.400   1.400
                                                       1.400   1.400

     PseudoPot. # 2 for O  read from file:
     /bsuhome/zayahcortright/q-e/pseudo/O.pbe-n-kjpaw_psl.0.1.UPF
     MD5 check sum: 0234752ac141de4415c5fc33072bef88
     Pseudo is Projector augmented-wave + core cor, Zval =  6.0
     Generated using "atomic" code by A. Dal Corso  v.5.0.99 svn rev. 10869
     Shape of augmentation charge: BESSEL
     Using radial grid of 1095 points,  4 beta functions with: 
                l(1) =   0
                l(2) =   0
                l(3) =   1
                l(4) =   1
     Q(r) pseudized with 0 coefficients 


     PseudoPot. # 3 for Co read from file:
     /bsuhome/zayahcortright/q-e/pseudo/Co_pbe_v1.2.uspp.F.UPF
     MD5 check sum: 5f91765df6ddd3222702df6e7b74a16d
     Pseudo is Ultrasoft + core correction, Zval = 17.0
     Generated by new atomic code, or converted to UPF format
     Using radial grid of  863 points,  6 beta functions with: 
                l(1) =   0
                l(2) =   0
                l(3) =   1
                l(4) =   1
                l(5) =   2
                l(6) =   2
     Q(r) pseudized with  8 coefficients,  rinner =    1.200   1.200   1.200
                                                       1.200   1.200

     PseudoPot. # 4 for H  read from file:
     /bsuhome/zayahcortright/q-e/pseudo/H.pbe-rrkjus_psl.1.0.0.UPF
     MD5 check sum: f52b6d4d1c606e5624b1dc7b2218f220
     Pseudo is Ultrasoft, Zval =  1.0
     Generated using "atomic" code by A. Dal Corso  v.5.1
     Using radial grid of  929 points,  2 beta functions with: 
                l(1) =   0
                l(2) =   0
     Q(r) pseudized with 0 coefficients 


     atomic species   valence    mass     pseudopotential
        Sr            10.00    87.62000     Sr( 1.00)
        O              6.00    15.99900     O ( 1.00)
        Co            17.00    58.93319     Co( 1.00)
        H              1.00     1.00800     H ( 1.00)

     No symmetry found


                                    s                        frac. trans.

      isym =  1     identity                                     

 cryst.   s( 1) = (     1          0          0      )
                  (     0          1          0      )
                  (     0          0          1      )

 cart.    s( 1) = (  1.0000000  0.0000000  0.0000000 )
                  (  0.0000000  1.0000000  0.0000000 )
                  (  0.0000000  0.0000000  1.0000000 )


   Cartesian axes

     site n.     atom                  positions (alat units)
         1           Sr  tau(   1) = (   0.2508693   0.7491307   1.7574407  )
         2           O   tau(   2) = (   0.4985141   0.5014859   1.7715967  )
         3           Sr  tau(   3) = (   0.7482398   0.7454518   1.7648669  )
         4           Sr  tau(   4) = (   0.7441748   0.2558252   1.7667843  )
         5           Sr  tau(   5) = (   0.2508693   0.7491307   1.2696799  )
         6           Sr  tau(   6) = (   0.2508693   0.7491307   0.7632319  )
         7           Co  tau(   7) = (   0.4998914   0.5001086   1.0164559  )
         8           Co  tau(   8) = (   0.4936915   0.5063085   1.5135603  )
         9           O   tau(   9) = (   0.4988895   0.7610401   1.0164559  )
        10           O   tau(  10) = (   0.2389599   0.5011105   1.0164559  )
        11           O   tau(  11) = (   0.0070918   0.7374880   1.0164559  )
        12           O   tau(  12) = (   0.0088340   0.7405089   1.5135603  )
        13           O   tau(  13) = (   0.5066944   0.7415376   1.5135603  )
        14           O   tau(  14) = (   0.2584624   0.4933056   1.5135603  )
        15           O   tau(  15) = (   0.4985141   0.5014859   0.7773880  )
        16           O   tau(  16) = (   0.4985141   0.5014859   1.2555238  )
        17           Sr  tau(  17) = (   0.7482398   0.7454518   0.7706582  )
        18           Sr  tau(  18) = (   0.7482398   0.7454518   1.2622536  )
        19           Sr  tau(  19) = (   0.7441748   0.2558252   0.7725755  )
        20           Sr  tau(  20) = (   0.7441748   0.2558252   1.2603363  )
        21           O   tau(  21) = (   0.7322655   0.0078049   1.5135603  )
        22           O   tau(  22) = (   0.7558175   0.4996027   1.5135603  )
        23           O   tau(  23) = (   0.5003973   0.2441825   1.5135603  )
        24           O   tau(  24) = (   0.7527966   0.4978604   1.0164559  )
        25           O   tau(  25) = (   0.5021396   0.2472034   1.0164559  )
        26           O   tau(  26) = (   0.7517679   0.0000000   1.0164559  )
        27           O   tau(  27) = (   0.0114961   0.4948124   1.7455321  )
        28           O   tau(  28) = (   0.0048226   0.0077944   1.7715967  )
        29           Sr  tau(  29) = (   0.2545482   0.2517602   1.7648669  )
        30           O   tau(  30) = (   0.5048017   0.0015068   1.7786929  )
        31           Co  tau(  31) = (   0.0056869   0.5006215   1.0164559  )
        32           Co  tau(  32) = (   0.0065315   0.4997770   1.5135603  )
        33           Co  tau(  33) = (   0.0061999   0.0064171   1.0164559  )
        34           Co  tau(  34) = (   0.0000000   0.0126169   1.5135603  )
        35           O   tau(  35) = (   0.0114961   0.4948124   1.2815885  )
        36           O   tau(  36) = (   0.0114961   0.4948124   0.7513233  )
        37           O   tau(  37) = (   0.0051979   0.2673486   1.0164559  )
        38           O   tau(  38) = (   0.0130029   0.2478461   1.5135603  )
        39           O   tau(  39) = (   0.0048226   0.0077944   0.7773880  )
        40           O   tau(  40) = (   0.0048226   0.0077944   1.2555238  )
        41           Sr  tau(  41) = (   0.2545482   0.2517602   0.7706582  )
        42           Sr  tau(  42) = (   0.2545482   0.2517602   1.2622536  )
        43           Co  tau(  43) = (   0.4989925   0.0073160   1.5135603  )
        44           Co  tau(  44) = (   0.4998370   0.0064714   1.0164559  )
        45           O   tau(  45) = (   0.5048017   0.0015068   0.7844841  )
        46           O   tau(  46) = (   0.5048017   0.0015068   1.2484277  )
        47           O   tau(  47) = (   0.2621260   0.0059111   1.5135603  )
        48           O   tau(  48) = (   0.2591051   0.0041689   1.0164559  )
        49           O   tau(  49) = (   0.9951520   0.5686583   2.1602013  )
        50           H   tau(  50) = (   0.9951520   0.5686583   2.2847091  )

   Crystallographic axes

     site n.     atom                  positions (cryst. coord.)
         1           Sr  tau(   1) = (  0.2508693  0.7491307  0.6943562  )
         2           O   tau(   2) = (  0.4985141  0.5014859  0.6999492  )
         3           Sr  tau(   3) = (  0.7482398  0.7454518  0.6972903  )
         4           Sr  tau(   4) = (  0.7441748  0.2558252  0.6980478  )
         5           Sr  tau(   5) = (  0.2508693  0.7491307  0.5016443  )
         6           Sr  tau(   6) = (  0.2508693  0.7491307  0.3015492  )
         7           Co  tau(   7) = (  0.4998914  0.5001086  0.4015968  )
         8           Co  tau(   8) = (  0.4936915  0.5063085  0.5980003  )
         9           O   tau(   9) = (  0.4988895  0.7610401  0.4015968  )
        10           O   tau(  10) = (  0.2389599  0.5011105  0.4015968  )
        11           O   tau(  11) = (  0.0070918  0.7374880  0.4015968  )
        12           O   tau(  12) = (  0.0088340  0.7405089  0.5980003  )
        13           O   tau(  13) = (  0.5066944  0.7415376  0.5980003  )
        14           O   tau(  14) = (  0.2584624  0.4933056  0.5980003  )
        15           O   tau(  15) = (  0.4985141  0.5014859  0.3071422  )
        16           O   tau(  16) = (  0.4985141  0.5014859  0.4960513  )
        17           Sr  tau(  17) = (  0.7482398  0.7454518  0.3044833  )
        18           Sr  tau(  18) = (  0.7482398  0.7454518  0.4987103  )
        19           Sr  tau(  19) = (  0.7441748  0.2558252  0.3052408  )
        20           Sr  tau(  20) = (  0.7441748  0.2558252  0.4979527  )
        21           O   tau(  21) = (  0.7322655  0.0078049  0.5980003  )
        22           O   tau(  22) = (  0.7558175  0.4996027  0.5980003  )
        23           O   tau(  23) = (  0.5003973  0.2441825  0.5980003  )
        24           O   tau(  24) = (  0.7527966  0.4978604  0.4015968  )
        25           O   tau(  25) = (  0.5021396  0.2472034  0.4015968  )
        26           O   tau(  26) = (  0.7517679  0.0000000  0.4015968  )
        27           O   tau(  27) = (  0.0114961  0.4948124  0.6896512  )
        28           O   tau(  28) = (  0.0048226  0.0077944  0.6999492  )
        29           Sr  tau(  29) = (  0.2545482  0.2517602  0.6972903  )
        30           O   tau(  30) = (  0.5048017  0.0015068  0.7027529  )
        31           Co  tau(  31) = (  0.0056869  0.5006215  0.4015968  )
        32           Co  tau(  32) = (  0.0065315  0.4997770  0.5980003  )
        33           Co  tau(  33) = (  0.0061999  0.0064171  0.4015968  )
        34           Co  tau(  34) = (  0.0000000  0.0126169  0.5980003  )
        35           O   tau(  35) = (  0.0114961  0.4948124  0.5063494  )
        36           O   tau(  36) = (  0.0114961  0.4948124  0.2968442  )
        37           O   tau(  37) = (  0.0051979  0.2673486  0.4015968  )
        38           O   tau(  38) = (  0.0130029  0.2478461  0.5980003  )
        39           O   tau(  39) = (  0.0048226  0.0077944  0.3071422  )
        40           O   tau(  40) = (  0.0048226  0.0077944  0.4960513  )
        41           Sr  tau(  41) = (  0.2545482  0.2517602  0.3044833  )
        42           Sr  tau(  42) = (  0.2545482  0.2517602  0.4987103  )
        43           Co  tau(  43) = (  0.4989925  0.0073160  0.5980003  )
        44           Co  tau(  44) = (  0.4998370  0.0064714  0.4015968  )
        45           O   tau(  45) = (  0.5048017  0.0015068  0.3099459  )
        46           O   tau(  46) = (  0.5048017  0.0015068  0.4932477  )
        47           O   tau(  47) = (  0.2621260  0.0059111  0.5980003  )
        48           O   tau(  48) = (  0.2591051  0.0041689  0.4015968  )
        49           O   tau(  49) = (  0.9951520  0.5686583  0.8534850  )
        50           H   tau(  50) = (  0.9951520  0.5686583  0.9026774  )

     number of k points=    10  Gaussian smearing, width (Ry)=  0.0700
                       cart. coord. in units 2pi/alat
        k(    1) = (   0.0000000   0.0000000   0.0000000), wk =   0.1250000
        k(    2) = (   0.0000000   0.2500000   0.0000000), wk =   0.2500000
        k(    3) = (   0.0000000  -0.5000000   0.0000000), wk =   0.1250000
        k(    4) = (   0.2500000   0.2500000   0.0000000), wk =   0.2500000
        k(    5) = (   0.2500000  -0.5000000   0.0000000), wk =   0.2500000
        k(    6) = (  -0.5000000  -0.5000000   0.0000000), wk =   0.1250000
        k(    7) = (   0.2500000   0.0000000   0.0000000), wk =   0.2500000
        k(    8) = (  -0.5000000   0.0000000   0.0000000), wk =   0.1250000
        k(    9) = (  -0.2500000   0.2500000   0.0000000), wk =   0.2500000
        k(   10) = (  -0.5000000   0.2500000   0.0000000), wk =   0.2500000

                       cryst. coord.
        k(    1) = (   0.0000000   0.0000000   0.0000000), wk =   0.1250000
        k(    2) = (   0.0000000   0.2500000   0.0000000), wk =   0.2500000
        k(    3) = (   0.0000000  -0.5000000   0.0000000), wk =   0.1250000
        k(    4) = (   0.2500000   0.2500000   0.0000000), wk =   0.2500000
        k(    5) = (   0.2500000  -0.5000000   0.0000000), wk =   0.2500000
        k(    6) = (  -0.5000000  -0.5000000   0.0000000), wk =   0.1250000
        k(    7) = (   0.2500000   0.0000000   0.0000000), wk =   0.2500000
        k(    8) = (  -0.5000000   0.0000000   0.0000000), wk =   0.1250000
        k(    9) = (  -0.2500000   0.2500000   0.0000000), wk =   0.2500000
        k(   10) = (  -0.5000000   0.2500000   0.0000000), wk =   0.2500000

     Dense  grid:  1474595 G-vectors     FFT dimensions: ( 108, 108, 270)

     Smooth grid:   521381 G-vectors     FFT dimensions: (  75,  75, 192)

     Dynamical RAM for                 wfc:      10.73 MB

     Dynamical RAM for     wfc (w. buffer):      64.38 MB

     Dynamical RAM for           str. fact:       3.75 MB

     Dynamical RAM for           local pot:       0.00 MB

     Dynamical RAM for          nlocal pot:      24.61 MB

     Dynamical RAM for                qrad:       7.03 MB

     Dynamical RAM for          rho,v,vnew:       6.02 MB

     Dynamical RAM for               rhoin:       2.01 MB

     Dynamical RAM for            rho*nmix:      15.00 MB

     Dynamical RAM for           G-vectors:       3.68 MB

     Dynamical RAM for          h,s,v(r/c):       1.35 MB

     Dynamical RAM for          <psi|beta>:       2.35 MB

     Dynamical RAM for                 psi:      21.46 MB

     Dynamical RAM for                hpsi:      21.46 MB

     Dynamical RAM for                spsi:      21.46 MB

     Dynamical RAM for      wfcinit/wfcrot:      34.49 MB

     Dynamical RAM for           addusdens:     101.26 MB

     Estimated static dynamical RAM per process >     121.50 MB

     Estimated max dynamical RAM per process >     237.76 MB

     Estimated total dynamical RAM >      10.79 GB

     Check: negative core charge=   -0.000004

     Initial potential from superposition of free atoms

     starting charge     422.5961, renormalised to     431.0000

     negative rho (up, down):  7.820E-01 0.000E+00
     Starting wfcs are  377 randomized atomic wfcs
     Checking if some PAW data can be deallocated... 
       PAW data deallocated on   19 nodes for type:  2

     total cpu time spent up to now is        8.9 secs

     Self-consistent Calculation

     iteration #  1     ecut=    60.00 Ry     beta= 0.15
     Davidson diagonalization with overlap

---- Real-time Memory Report at c_bands before calling an iterative solver
             0 MiB given to the printing process from OS
             0 MiB allocation reported by mallinfo(arena+hblkhd)
         23984 MiB available memory on the node where the printing process lives
------------------
     ethr =  1.00E-02,  avg # of iterations =  2.0

     negative rho (up, down):  7.714E-01 0.000E+00

     total cpu time spent up to now is       25.3 secs

     total energy              =   -4446.57651199 Ry
     estimated scf accuracy    <      44.91908315 Ry

     iteration #  2     ecut=    60.00 Ry     beta= 0.15
     Davidson diagonalization with overlap

---- Real-time Memory Report at c_bands before calling an iterative solver
             0 MiB given to the printing process from OS
             0 MiB allocation reported by mallinfo(arena+hblkhd)
         24253 MiB available memory on the node where the printing process lives
------------------
     ethr =  1.00E-02,  avg # of iterations =  1.0

     negative rho (up, down):  7.581E-01 0.000E+00

     total cpu time spent up to now is       39.5 secs

     total energy              =   -4443.27207519 Ry
     estimated scf accuracy    <      29.45003978 Ry

     iteration #  3     ecut=    60.00 Ry     beta= 0.15
     Davidson diagonalization with overlap

---- Real-time Memory Report at c_bands before calling an iterative solver
             0 MiB given to the printing process from OS
             0 MiB allocation reported by mallinfo(arena+hblkhd)
         23416 MiB available memory on the node where the printing process lives
------------------
     ethr =  6.83E-03,  avg # of iterations =  1.0

     negative rho (up, down):  7.552E-01 0.000E+00

     total cpu time spent up to now is       54.1 secs

     total energy              =   -4444.25509439 Ry
     estimated scf accuracy    <      28.73960340 Ry

     iteration #  4     ecut=    60.00 Ry     beta= 0.15
     Davidson diagonalization with overlap

---- Real-time Memory Report at c_bands before calling an iterative solver
             0 MiB given to the printing process from OS
             0 MiB allocation reported by mallinfo(arena+hblkhd)
         23386 MiB available memory on the node where the printing process lives
------------------
     ethr =  6.67E-03,  avg # of iterations =  1.0

     negative rho (up, down):  7.497E-01 0.000E+00

     total cpu time spent up to now is       68.5 secs

     total energy              =   -4443.00602388 Ry
     estimated scf accuracy    <      21.07770194 Ry

     iteration #  5     ecut=    60.00 Ry     beta= 0.15
     Davidson diagonalization with overlap

---- Real-time Memory Report at c_bands before calling an iterative solver
             0 MiB given to the printing process from OS
             0 MiB allocation reported by mallinfo(arena+hblkhd)
         23373 MiB available memory on the node where the printing process lives
------------------
     ethr =  4.89E-03,  avg # of iterations =  1.0

     negative rho (up, down):  7.404E-01 0.000E+00

     total cpu time spent up to now is       82.8 secs

     total energy              =   -4442.54921581 Ry
     estimated scf accuracy    <      11.12360888 Ry

     iteration #  6     ecut=    60.00 Ry     beta= 0.15
     Davidson diagonalization with overlap

---- Real-time Memory Report at c_bands before calling an iterative solver
             0 MiB given to the printing process from OS
             0 MiB allocation reported by mallinfo(arena+hblkhd)
         23352 MiB available memory on the node where the printing process lives
------------------
     ethr =  2.58E-03,  avg # of iterations =  1.0

     negative rho (up, down):  7.429E-01 0.000E+00

     total cpu time spent up to now is       97.2 secs

     total energy              =   -4442.80404047 Ry
     estimated scf accuracy    <       4.92563926 Ry

     iteration #  7     ecut=    60.00 Ry     beta= 0.15
     Davidson diagonalization with overlap

---- Real-time Memory Report at c_bands before calling an iterative solver
             0 MiB given to the printing process from OS
             0 MiB allocation reported by mallinfo(arena+hblkhd)
         23336 MiB available memory on the node where the printing process lives
------------------
     ethr =  1.14E-03,  avg # of iterations =  1.8

     negative rho (up, down):  7.651E-01 0.000E+00

     total cpu time spent up to now is      112.3 secs

     total energy              =   -4441.68263501 Ry
     estimated scf accuracy    <       3.93140223 Ry

     iteration #  8     ecut=    60.00 Ry     beta= 0.15
     Davidson diagonalization with overlap

---- Real-time Memory Report at c_bands before calling an iterative solver
             0 MiB given to the printing process from OS
             0 MiB allocation reported by mallinfo(arena+hblkhd)
         23311 MiB available memory on the node where the printing process lives
------------------
     ethr =  9.12E-04,  avg # of iterations =  4.1

     negative rho (up, down):  7.732E-01 0.000E+00

     total cpu time spent up to now is      131.0 secs

     total energy              =   -4441.34505856 Ry
     estimated scf accuracy    <      20.68905886 Ry

     iteration #  9     ecut=    60.00 Ry     beta= 0.15
     Davidson diagonalization with overlap

---- Real-time Memory Report at c_bands before calling an iterative solver
             0 MiB given to the printing process from OS
             0 MiB allocation reported by mallinfo(arena+hblkhd)
         23148 MiB available memory on the node where the printing process lives
------------------
     ethr =  9.12E-04,  avg # of iterations = 10.0

     negative rho (up, down):  7.704E-01 0.000E+00

     total cpu time spent up to now is      152.7 secs

     total energy              =   -4441.74024151 Ry
     estimated scf accuracy    <       3.36329047 Ry

     iteration # 10     ecut=    60.00 Ry     beta= 0.15
     Davidson diagonalization with overlap

---- Real-time Memory Report at c_bands before calling an iterative solver
             0 MiB given to the printing process from OS
             0 MiB allocation reported by mallinfo(arena+hblkhd)
         22818 MiB available memory on the node where the printing process lives
------------------
     ethr =  7.80E-04,  avg # of iterations =  1.0

     negative rho (up, down):  7.750E-01 0.000E+00

     total cpu time spent up to now is      167.3 secs

     total energy              =   -4441.89133768 Ry
     estimated scf accuracy    <       1.42425905 Ry

     iteration # 11     ecut=    60.00 Ry     beta= 0.15
     Davidson diagonalization with overlap

---- Real-time Memory Report at c_bands before calling an iterative solver
             0 MiB given to the printing process from OS
             0 MiB allocation reported by mallinfo(arena+hblkhd)
         22798 MiB available memory on the node where the printing process lives
------------------
     ethr =  3.30E-04,  avg # of iterations =  2.2

     negative rho (up, down):  8.045E-01 0.000E+00

     total cpu time spent up to now is      183.4 secs

     total energy              =   -4441.73296249 Ry
     estimated scf accuracy    <       1.09860205 Ry

     iteration # 12     ecut=    60.00 Ry     beta= 0.15
     Davidson diagonalization with overlap

---- Real-time Memory Report at c_bands before calling an iterative solver
             0 MiB given to the printing process from OS
             0 MiB allocation reported by mallinfo(arena+hblkhd)
         22803 MiB available memory on the node where the printing process lives
------------------
     ethr =  2.55E-04,  avg # of iterations =  5.1

     negative rho (up, down):  8.170E-01 0.000E+00

     total cpu time spent up to now is      201.2 secs

     total energy              =   -4441.87550291 Ry
     estimated scf accuracy    <       1.58166931 Ry

     iteration # 13     ecut=    60.00 Ry     beta= 0.15
     Davidson diagonalization with overlap

---- Real-time Memory Report at c_bands before calling an iterative solver
             0 MiB given to the printing process from OS
             0 MiB allocation reported by mallinfo(arena+hblkhd)
         22788 MiB available memory on the node where the printing process lives
------------------
     ethr =  2.55E-04,  avg # of iterations =  7.6

     negative rho (up, down):  8.179E-01 0.000E+00

     total cpu time spent up to now is      220.4 secs

     total energy              =   -4441.78797474 Ry
     estimated scf accuracy    <       1.13641517 Ry

     iteration # 14     ecut=    60.00 Ry     beta= 0.15
     Davidson diagonalization with overlap

---- Real-time Memory Report at c_bands before calling an iterative solver
             0 MiB given to the printing process from OS
             0 MiB allocation reported by mallinfo(arena+hblkhd)
         22759 MiB available memory on the node where the printing process lives
------------------
     ethr =  2.55E-04,  avg # of iterations =  3.8

     negative rho (up, down):  8.173E-01 0.000E+00

     total cpu time spent up to now is      237.5 secs

     total energy              =   -4441.76032393 Ry
     estimated scf accuracy    <       0.39904701 Ry

     iteration # 15     ecut=    60.00 Ry     beta= 0.15
     Davidson diagonalization with overlap

---- Real-time Memory Report at c_bands before calling an iterative solver
             0 MiB given to the printing process from OS
             0 MiB allocation reported by mallinfo(arena+hblkhd)
         22757 MiB available memory on the node where the printing process lives
------------------
     ethr =  9.26E-05,  avg # of iterations =  9.0

     negative rho (up, down):  8.263E-01 0.000E+00

     total cpu time spent up to now is      258.0 secs

     total energy              =   -4441.72563436 Ry
     estimated scf accuracy    <       0.28224315 Ry

     iteration # 16     ecut=    60.00 Ry     beta= 0.15
     Davidson diagonalization with overlap

---- Real-time Memory Report at c_bands before calling an iterative solver
             0 MiB given to the printing process from OS
             0 MiB allocation reported by mallinfo(arena+hblkhd)
         22738 MiB available memory on the node where the printing process lives
------------------
     c_bands:  1 eigenvalues not converged
     ethr =  6.55E-05,  avg # of iterations = 12.1

     negative rho (up, down):  8.299E-01 0.000E+00

     total cpu time spent up to now is      281.1 secs

     total energy              =   -4441.72426883 Ry
     estimated scf accuracy    <       0.29685659 Ry

     iteration # 17     ecut=    60.00 Ry     beta= 0.15
     Davidson diagonalization with overlap

---- Real-time Memory Report at c_bands before calling an iterative solver
             0 MiB given to the printing process from OS
             0 MiB allocation reported by mallinfo(arena+hblkhd)
         22805 MiB available memory on the node where the printing process lives
------------------
     ethr =  6.55E-05,  avg # of iterations =  1.1

     negative rho (up, down):  8.195E-01 0.000E+00

     total cpu time spent up to now is      296.2 secs

     total energy              =   -4441.69932730 Ry
     estimated scf accuracy    <       0.23114118 Ry

     iteration # 18     ecut=    60.00 Ry     beta= 0.15
     Davidson diagonalization with overlap

---- Real-time Memory Report at c_bands before calling an iterative solver
             0 MiB given to the printing process from OS
             0 MiB allocation reported by mallinfo(arena+hblkhd)
         22787 MiB available memory on the node where the printing process lives
------------------
     ethr =  5.36E-05,  avg # of iterations =  7.1

     negative rho (up, down):  8.132E-01 0.000E+00

     total cpu time spent up to now is      316.1 secs

     total energy              =   -4441.68146047 Ry
     estimated scf accuracy    <       0.14730251 Ry

     iteration # 19     ecut=    60.00 Ry     beta= 0.15
     Davidson diagonalization with overlap

---- Real-time Memory Report at c_bands before calling an iterative solver
             0 MiB given to the printing process from OS
             0 MiB allocation reported by mallinfo(arena+hblkhd)
         22773 MiB available memory on the node where the printing process lives
------------------
     ethr =  3.42E-05,  avg # of iterations =  9.3

     negative rho (up, down):  8.345E-01 0.000E+00

     total cpu time spent up to now is      337.5 secs

     total energy              =   -4441.66520338 Ry
     estimated scf accuracy    <       0.11879042 Ry

     iteration # 20     ecut=    60.00 Ry     beta= 0.15
     Davidson diagonalization with overlap

---- Real-time Memory Report at c_bands before calling an iterative solver
             0 MiB given to the printing process from OS
             0 MiB allocation reported by mallinfo(arena+hblkhd)
         22725 MiB available memory on the node where the printing process lives
------------------
     ethr =  2.76E-05,  avg # of iterations =  7.7

     negative rho (up, down):  8.226E-01 0.000E+00

     total cpu time spent up to now is      357.5 secs

     total energy              =   -4441.66874453 Ry
     estimated scf accuracy    <       0.04183420 Ry

     iteration # 21     ecut=    60.00 Ry     beta= 0.15
     Davidson diagonalization with overlap

---- Real-time Memory Report at c_bands before calling an iterative solver
             0 MiB given to the printing process from OS
             0 MiB allocation reported by mallinfo(arena+hblkhd)
         22732 MiB available memory on the node where the printing process lives
------------------
     ethr =  9.71E-06,  avg # of iterations =  9.8

     negative rho (up, down):  8.107E-01 0.000E+00

     total cpu time spent up to now is      378.1 secs

     total energy              =   -4441.66650733 Ry
     estimated scf accuracy    <       0.03061770 Ry

     iteration # 22     ecut=    60.00 Ry     beta= 0.15
     Davidson diagonalization with overlap

---- Real-time Memory Report at c_bands before calling an iterative solver
             0 MiB given to the printing process from OS
             0 MiB allocation reported by mallinfo(arena+hblkhd)
         22692 MiB available memory on the node where the printing process lives
------------------
     ethr =  7.10E-06,  avg # of iterations =  4.1

     negative rho (up, down):  8.013E-01 0.000E+00

     total cpu time spent up to now is      395.8 secs

     total energy              =   -4441.66404543 Ry
     estimated scf accuracy    <       0.02086268 Ry

     iteration # 23     ecut=    60.00 Ry     beta= 0.15
     Davidson diagonalization with overlap

---- Real-time Memory Report at c_bands before calling an iterative solver
             0 MiB given to the printing process from OS
             0 MiB allocation reported by mallinfo(arena+hblkhd)
         22751 MiB available memory on the node where the printing process lives
------------------
     ethr =  4.84E-06,  avg # of iterations =  8.9

     negative rho (up, down):  7.933E-01 0.000E+00

     total cpu time spent up to now is      416.5 secs

     total energy              =   -4441.66229775 Ry
     estimated scf accuracy    <       0.01368276 Ry

     iteration # 24     ecut=    60.00 Ry     beta= 0.15
     Davidson diagonalization with overlap

---- Real-time Memory Report at c_bands before calling an iterative solver
             0 MiB given to the printing process from OS
             0 MiB allocation reported by mallinfo(arena+hblkhd)
         22742 MiB available memory on the node where the printing process lives
------------------
     c_bands:  1 eigenvalues not converged
     ethr =  3.17E-06,  avg # of iterations = 11.3

     negative rho (up, down):  8.044E-01 0.000E+00

     total cpu time spent up to now is      438.5 secs

     total energy              =   -4441.66141236 Ry
     estimated scf accuracy    <       0.00895354 Ry

     iteration # 25     ecut=    60.00 Ry     beta= 0.15
     Davidson diagonalization with overlap

---- Real-time Memory Report at c_bands before calling an iterative solver
             0 MiB given to the printing process from OS
             0 MiB allocation reported by mallinfo(arena+hblkhd)
         22720 MiB available memory on the node where the printing process lives
------------------
     ethr =  2.08E-06,  avg # of iterations =  8.5

     negative rho (up, down):  7.996E-01 0.000E+00

     total cpu time spent up to now is      460.0 secs

     total energy              =   -4441.66138458 Ry
     estimated scf accuracy    <       0.00222666 Ry

     iteration # 26     ecut=    60.00 Ry     beta= 0.15
     Davidson diagonalization with overlap

---- Real-time Memory Report at c_bands before calling an iterative solver
             0 MiB given to the printing process from OS
             0 MiB allocation reported by mallinfo(arena+hblkhd)
         22651 MiB available memory on the node where the printing process lives
------------------
     c_bands:  1 eigenvalues not converged
     ethr =  5.17E-07,  avg # of iterations = 10.6

     negative rho (up, down):  7.994E-01 0.000E+00

     total cpu time spent up to now is      481.5 secs

     total energy              =   -4441.66149054 Ry
     estimated scf accuracy    <       0.00128452 Ry

     iteration # 27     ecut=    60.00 Ry     beta= 0.15
     Davidson diagonalization with overlap

---- Real-time Memory Report at c_bands before calling an iterative solver
             0 MiB given to the printing process from OS
             0 MiB allocation reported by mallinfo(arena+hblkhd)
         22601 MiB available memory on the node where the printing process lives
------------------
     ethr =  2.98E-07,  avg # of iterations =  7.1

     negative rho (up, down):  7.961E-01 0.000E+00

     total cpu time spent up to now is      500.9 secs

     total energy              =   -4441.66139842 Ry
     estimated scf accuracy    <       0.00062077 Ry

     iteration # 28     ecut=    60.00 Ry     beta= 0.15
     Davidson diagonalization with overlap

---- Real-time Memory Report at c_bands before calling an iterative solver
             0 MiB given to the printing process from OS
             0 MiB allocation reported by mallinfo(arena+hblkhd)
         22661 MiB available memory on the node where the printing process lives
------------------
     c_bands:  1 eigenvalues not converged
     ethr =  1.44E-07,  avg # of iterations =  9.1

     negative rho (up, down):  7.952E-01 0.000E+00

     total cpu time spent up to now is      523.1 secs

     total energy              =   -4441.66144356 Ry
     estimated scf accuracy    <       0.00022147 Ry

     iteration # 29     ecut=    60.00 Ry     beta= 0.15
     Davidson diagonalization with overlap

---- Real-time Memory Report at c_bands before calling an iterative solver
             0 MiB given to the printing process from OS
             0 MiB allocation reported by mallinfo(arena+hblkhd)
         22685 MiB available memory on the node where the printing process lives
------------------
     ethr =  5.14E-08,  avg # of iterations =  2.9

     negative rho (up, down):  7.944E-01 0.000E+00

     total cpu time spent up to now is      540.3 secs

     total energy              =   -4441.66144766 Ry
     estimated scf accuracy    <       0.00011480 Ry

     iteration # 30     ecut=    60.00 Ry     beta= 0.15
     Davidson diagonalization with overlap

---- Real-time Memory Report at c_bands before calling an iterative solver
             0 MiB given to the printing process from OS
             0 MiB allocation reported by mallinfo(arena+hblkhd)
         22694 MiB available memory on the node where the printing process lives
------------------
     ethr =  2.66E-08,  avg # of iterations =  2.0

     negative rho (up, down):  7.930E-01 0.000E+00

     total cpu time spent up to now is      557.0 secs

     total energy              =   -4441.66144170 Ry
     estimated scf accuracy    <       0.00006394 Ry

     iteration # 31     ecut=    60.00 Ry     beta= 0.15
     Davidson diagonalization with overlap

---- Real-time Memory Report at c_bands before calling an iterative solver
             0 MiB given to the printing process from OS
             0 MiB allocation reported by mallinfo(arena+hblkhd)
         22676 MiB available memory on the node where the printing process lives
------------------
     ethr =  1.48E-08,  avg # of iterations =  2.2

     negative rho (up, down):  7.925E-01 0.000E+00

     total cpu time spent up to now is      574.0 secs

     total energy              =   -4441.66144473 Ry
     estimated scf accuracy    <       0.00002235 Ry

     iteration # 32     ecut=    60.00 Ry     beta= 0.15
     Davidson diagonalization with overlap

---- Real-time Memory Report at c_bands before calling an iterative solver
             0 MiB given to the printing process from OS
             0 MiB allocation reported by mallinfo(arena+hblkhd)
         22684 MiB available memory on the node where the printing process lives
------------------
     ethr =  5.18E-09,  avg # of iterations =  2.1

     negative rho (up, down):  7.921E-01 0.000E+00

     total cpu time spent up to now is      590.5 secs

     total energy              =   -4441.66144540 Ry
     estimated scf accuracy    <       0.00001241 Ry

     iteration # 33     ecut=    60.00 Ry     beta= 0.15
     Davidson diagonalization with overlap

---- Real-time Memory Report at c_bands before calling an iterative solver
             0 MiB given to the printing process from OS
             0 MiB allocation reported by mallinfo(arena+hblkhd)
         22686 MiB available memory on the node where the printing process lives
------------------
     ethr =  2.88E-09,  avg # of iterations =  2.9

     negative rho (up, down):  7.922E-01 0.000E+00

     total cpu time spent up to now is      607.7 secs

     total energy              =   -4441.66144431 Ry
     estimated scf accuracy    <       0.00000488 Ry

     iteration # 34     ecut=    60.00 Ry     beta= 0.15
     Davidson diagonalization with overlap

---- Real-time Memory Report at c_bands before calling an iterative solver
             0 MiB given to the printing process from OS
             0 MiB allocation reported by mallinfo(arena+hblkhd)
         22686 MiB available memory on the node where the printing process lives
------------------
     ethr =  1.13E-09,  avg # of iterations =  4.1

     negative rho (up, down):  7.922E-01 0.000E+00

     total cpu time spent up to now is      625.6 secs

     total energy              =   -4441.66144498 Ry
     estimated scf accuracy    <       0.00000158 Ry

     iteration # 35     ecut=    60.00 Ry     beta= 0.15
     Davidson diagonalization with overlap

---- Real-time Memory Report at c_bands before calling an iterative solver
             0 MiB given to the printing process from OS
             0 MiB allocation reported by mallinfo(arena+hblkhd)
         22671 MiB available memory on the node where the printing process lives
------------------
     ethr =  3.67E-10,  avg # of iterations =  1.9

     negative rho (up, down):  7.923E-01 0.000E+00

     total cpu time spent up to now is      642.0 secs

     total energy              =   -4441.66144523 Ry
     estimated scf accuracy    <       0.00000106 Ry

     iteration # 36     ecut=    60.00 Ry     beta= 0.15
     Davidson diagonalization with overlap

---- Real-time Memory Report at c_bands before calling an iterative solver
             0 MiB given to the printing process from OS
             0 MiB allocation reported by mallinfo(arena+hblkhd)
         22610 MiB available memory on the node where the printing process lives
------------------
     ethr =  2.45E-10,  avg # of iterations =  2.1

     negative rho (up, down):  7.923E-01 0.000E+00

     total cpu time spent up to now is      658.6 secs

     total energy              =   -4441.66144579 Ry
     estimated scf accuracy    <       0.00000082 Ry

     iteration # 37     ecut=    60.00 Ry     beta= 0.15
     Davidson diagonalization with overlap

---- Real-time Memory Report at c_bands before calling an iterative solver
             0 MiB given to the printing process from OS
             0 MiB allocation reported by mallinfo(arena+hblkhd)
         22611 MiB available memory on the node where the printing process lives
------------------
     ethr =  1.91E-10,  avg # of iterations =  2.2

     negative rho (up, down):  7.925E-01 0.000E+00

     total cpu time spent up to now is      675.3 secs

     total energy              =   -4441.66144633 Ry
     estimated scf accuracy    <       0.00000057 Ry

     iteration # 38     ecut=    60.00 Ry     beta= 0.15
     Davidson diagonalization with overlap

---- Real-time Memory Report at c_bands before calling an iterative solver
             0 MiB given to the printing process from OS
             0 MiB allocation reported by mallinfo(arena+hblkhd)
         22616 MiB available memory on the node where the printing process lives
------------------
     ethr =  1.31E-10,  avg # of iterations =  3.8

     negative rho (up, down):  7.925E-01 0.000E+00

     total cpu time spent up to now is      693.2 secs

     total energy              =   -4441.66144645 Ry
     estimated scf accuracy    <       0.00000029 Ry

     iteration # 39     ecut=    60.00 Ry     beta= 0.15
     Davidson diagonalization with overlap

---- Real-time Memory Report at c_bands before calling an iterative solver
             0 MiB given to the printing process from OS
             0 MiB allocation reported by mallinfo(arena+hblkhd)
         22618 MiB available memory on the node where the printing process lives
------------------
     ethr =  6.74E-11,  avg # of iterations =  3.1

     negative rho (up, down):  7.925E-01 0.000E+00

     total cpu time spent up to now is      710.4 secs

     total energy              =   -4441.66144642 Ry
     estimated scf accuracy    <       0.00000023 Ry

     iteration # 40     ecut=    60.00 Ry     beta= 0.15
     Davidson diagonalization with overlap

---- Real-time Memory Report at c_bands before calling an iterative solver
             0 MiB given to the printing process from OS
             0 MiB allocation reported by mallinfo(arena+hblkhd)
         22615 MiB available memory on the node where the printing process lives
------------------
     ethr =  5.36E-11,  avg # of iterations =  3.6

     negative rho (up, down):  7.925E-01 0.000E+00

     total cpu time spent up to now is      727.8 secs

     total energy              =   -4441.66144638 Ry
     estimated scf accuracy    <       0.00000012 Ry

     iteration # 41     ecut=    60.00 Ry     beta= 0.15
     Davidson diagonalization with overlap

---- Real-time Memory Report at c_bands before calling an iterative solver
             0 MiB given to the printing process from OS
             0 MiB allocation reported by mallinfo(arena+hblkhd)
         22607 MiB available memory on the node where the printing process lives
------------------
     ethr =  2.90E-11,  avg # of iterations =  2.9

     negative rho (up, down):  7.925E-01 0.000E+00

     total cpu time spent up to now is      744.9 secs

     total energy              =   -4441.66144637 Ry
     estimated scf accuracy    <       0.00000007 Ry

     iteration # 42     ecut=    60.00 Ry     beta= 0.15
     Davidson diagonalization with overlap

---- Real-time Memory Report at c_bands before calling an iterative solver
             0 MiB given to the printing process from OS
             0 MiB allocation reported by mallinfo(arena+hblkhd)
         22608 MiB available memory on the node where the printing process lives
------------------
     ethr =  1.74E-11,  avg # of iterations =  1.9

     negative rho (up, down):  7.925E-01 0.000E+00

     total cpu time spent up to now is      761.3 secs

     total energy              =   -4441.66144639 Ry
     estimated scf accuracy    <       0.00000006 Ry

     iteration # 43     ecut=    60.00 Ry     beta= 0.15
     Davidson diagonalization with overlap

---- Real-time Memory Report at c_bands before calling an iterative solver
             0 MiB given to the printing process from OS
             0 MiB allocation reported by mallinfo(arena+hblkhd)
         22613 MiB available memory on the node where the printing process lives
------------------
     ethr =  1.34E-11,  avg # of iterations =  2.1

     negative rho (up, down):  7.925E-01 0.000E+00

     total cpu time spent up to now is      778.0 secs

     total energy              =   -4441.66144641 Ry
     estimated scf accuracy    <       0.00000004 Ry

     iteration # 44     ecut=    60.00 Ry     beta= 0.15
     Davidson diagonalization with overlap

---- Real-time Memory Report at c_bands before calling an iterative solver
             0 MiB given to the printing process from OS
             0 MiB allocation reported by mallinfo(arena+hblkhd)
         22611 MiB available memory on the node where the printing process lives
------------------
     ethr =  8.68E-12,  avg # of iterations =  2.2

     negative rho (up, down):  7.925E-01 0.000E+00

     total cpu time spent up to now is      794.7 secs

     total energy              =   -4441.66144642 Ry
     estimated scf accuracy    <       0.00000003 Ry

     iteration # 45     ecut=    60.00 Ry     beta= 0.15
     Davidson diagonalization with overlap

---- Real-time Memory Report at c_bands before calling an iterative solver
             0 MiB given to the printing process from OS
             0 MiB allocation reported by mallinfo(arena+hblkhd)
         22623 MiB available memory on the node where the printing process lives
------------------
     ethr =  6.17E-12,  avg # of iterations =  2.2

     negative rho (up, down):  7.925E-01 0.000E+00

     total cpu time spent up to now is      811.4 secs

     total energy              =   -4441.66144644 Ry
     estimated scf accuracy    <       0.00000001 Ry

     iteration # 46     ecut=    60.00 Ry     beta= 0.15
     Davidson diagonalization with overlap

---- Real-time Memory Report at c_bands before calling an iterative solver
             0 MiB given to the printing process from OS
             0 MiB allocation reported by mallinfo(arena+hblkhd)
         22639 MiB available memory on the node where the printing process lives
------------------
     ethr =  2.99E-12,  avg # of iterations =  3.8

     negative rho (up, down):  7.925E-01 0.000E+00

     total cpu time spent up to now is      828.8 secs

     End of self-consistent calculation

          k = 0.0000 0.0000 0.0000 ( 65197 PWs)   bands (ev):

   -92.7084 -92.6617 -92.5635 -92.5150 -92.4589 -92.4150 -92.3976 -92.2769
   -56.0618 -56.0483 -55.9203 -55.9092 -55.9028 -55.8960 -55.8644 -55.8323
   -55.8162 -55.8146 -55.8116 -55.7659 -55.7456 -55.7097 -55.6905 -55.6590
   -55.6504 -55.6033 -55.6033 -55.6002 -55.5918 -55.5522 -55.5279 -55.4422
   -31.2850 -31.2656 -31.1241 -31.0372 -30.9941 -30.9782 -30.8146 -30.7676
   -29.8551 -29.8117 -29.7866 -29.6782 -15.0887 -15.0410 -14.9625 -14.8339
   -14.6337 -14.5166 -14.2253 -14.2024 -14.1759 -14.1298 -14.0849 -14.0710
   -14.0600 -14.0412 -14.0179 -13.9834 -13.9602 -13.9367 -13.7836 -13.5969
   -13.5722 -13.5424 -13.5030 -13.4832 -13.4392 -13.4055 -13.3295 -13.2570
   -13.1271 -13.1165 -13.1049 -13.0818 -13.0639 -13.0260 -13.0082 -13.0054
   -12.9868 -12.9607 -12.9300 -12.9072 -12.8517 -12.8407 -12.8275 -12.7706
   -12.7530 -12.7438 -12.6909 -12.6479 -12.6397 -12.3499 -12.2037 -12.0277
   -11.9552 -11.8685 -11.7944 -11.7835 -11.7606 -11.7431 -11.6794 -11.6623
   -11.6272 -11.5983 -11.4870 -11.4070 -11.4035  -2.9479  -2.7166  -2.4872
    -2.3377  -2.2772  -2.1351  -1.8269  -1.8120  -1.7937  -1.7053  -1.6888
    -1.6208  -1.6043  -1.5641  -1.5200  -1.3385  -1.1248  -1.0965  -1.0755
    -0.9382  -0.9234  -0.8750  -0.8561  -0.8097  -0.7927  -0.7409  -0.7136
    -0.6394  -0.6280  -0.5540  -0.4224  -0.4098  -0.3785  -0.2989  -0.2777
    -0.2168  -0.1797  -0.1320  -0.0885  -0.0278  -0.0127   0.0527   0.1259
     0.1730   0.1973   0.2068   0.4675   0.4830   0.6633   0.7191   0.7818
     0.8325   0.9191   0.9310   0.9482   1.0170   1.0447   1.0777   1.1350
     1.2666   1.3244   1.3467   1.3740   1.3842   1.4443   1.5136   1.6266
     1.6461   1.6974   1.7071   1.7509   1.7734   1.7857   1.8359   1.9012
     1.9087   1.9487   1.9676   2.0204   2.1520   2.2376   2.2798   2.2967
     2.4327   2.4400   2.4610   2.4676   2.5051   2.5071   2.6193   2.6513
     2.6801   2.6996   2.7195   2.8010   2.9014   2.9381   2.9446   2.9502
     3.0178   3.0245   3.0457   3.0535   3.0626   3.0746   3.0830   3.0972
     3.1039   3.1127   3.1216   3.1288   3.1493   3.1706   3.1754   3.1879
     3.2091   3.3277   3.4123   4.0983   4.4216   4.7644   4.8645   5.0338
     5.8225   5.9534   5.9873   6.0063   6.3068   6.3536   6.4789   6.4887
     6.7750   7.0054   7.1030   7.3120   7.5977   7.6261   7.6507   7.6737
     7.7028   7.9217   7.9492   8.0697   8.1087   8.1795   8.4222   8.4417
     8.6740   8.8243   8.8938

     occupation numbers 
     1.0000   1.0000   1.0000   1.0000   1.0000   1.0000   1.0000   1.0000
     1.0000   1.0000   1.0000   1.0000   1.0000   1.0000   1.0000   1.0000
     1.0000   1.0000   1.0000   1.0000   1.0000   1.0000   1.0000   1.0000
     1.0000   1.0000   1.0000   1.0000   1.0000   1.0000   1.0000   1.0000
     1.0000   1.0000   1.0000   1.0000   1.0000   1.0000   1.0000   1.0000
     1.0000   1.0000   1.0000   1.0000   1.0000   1.0000   1.0000   1.0000
     1.0000   1.0000   1.0000   1.0000   1.0000   1.0000   1.0000   1.0000
     1.0000   1.0000   1.0000   1.0000   1.0000   1.0000   1.0000   1.0000
     1.0000   1.0000   1.0000   1.0000   1.0000   1.0000   1.0000   1.0000
     1.0000   1.0000   1.0000   1.0000   1.0000   1.0000   1.0000   1.0000
     1.0000   1.0000   1.0000   1.0000   1.0000   1.0000   1.0000   1.0000
     1.0000   1.0000   1.0000   1.0000   1.0000   1.0000   1.0000   1.0000
     1.0000   1.0000   1.0000   1.0000   1.0000   1.0000   1.0000   1.0000
     1.0000   1.0000   1.0000   1.0000   1.0000   1.0000   1.0000   1.0000
     1.0000   1.0000   1.0000   1.0000   1.0000   1.0000   1.0000   1.0000
     1.0000   1.0000   1.0000   1.0000   1.0000   1.0000   1.0000   1.0000
     1.0000   1.0000   1.0000   1.0000   1.0000   1.0000   1.0000   1.0000
     1.0000   1.0000   1.0000   1.0000   1.0000   1.0000   1.0000   1.0000
     1.0000   1.0000   1.0000   1.0000   1.0000   1.0000   1.0000   1.0000
     1.0000   1.0000   1.0000   1.0000   1.0000   1.0000   0.9999   0.9999
     0.9999   0.9998   0.9998   0.9998   0.9997   0.9996   0.9996   0.9994
     0.9988   0.9985   0.9983   0.9981   0.9980   0.9973   0.9963   0.9940
     0.9935   0.9920   0.9917   0.9901   0.9891   0.9886   0.9862   0.9824
     0.9819   0.9791   0.9776   0.9731   0.9585   0.9459   0.9386   0.9355
     0.9060   0.9041   0.8987   0.8970   0.8866   0.8861   0.8506   0.8393
     0.8287   0.8212   0.8134   0.7792   0.7325   0.7142   0.7110   0.7081
     0.6727   0.6691   0.6576   0.6534   0.6484   0.6417   0.6371   0.6291
     0.6253   0.6204   0.6154   0.6113   0.5995   0.5873   0.5845   0.5773
     0.5649   0.4949   0.4450   0.1236   0.0508   0.0159   0.0109   0.0054
     0.0001   0.0000   0.0000   0.0000   0.0000   0.0000   0.0000   0.0000
     0.0000   0.0000   0.0000   0.0000   0.0000   0.0000   0.0000   0.0000
     0.0000   0.0000   0.0000   0.0000   0.0000   0.0000   0.0000   0.0000
     0.0000   0.0000   0.0000

          k = 0.0000 0.2500 0.0000 ( 65257 PWs)   bands (ev):

   -92.7084 -92.6617 -92.5635 -92.5150 -92.4589 -92.4150 -92.3976 -92.2769
   -56.0618 -56.0483 -55.9203 -55.9092 -55.9028 -55.8960 -55.8644 -55.8323
   -55.8162 -55.8146 -55.8116 -55.7659 -55.7456 -55.7097 -55.6905 -55.6590
   -55.6504 -55.6033 -55.6033 -55.6002 -55.5918 -55.5522 -55.5279 -55.4422
   -31.2849 -31.2655 -31.1243 -31.0374 -30.9920 -30.9803 -30.8140 -30.7683
   -29.8545 -29.8114 -29.7872 -29.6786 -15.0522 -15.0146 -14.9380 -14.8039
   -14.6772 -14.5044 -14.3711 -14.1917 -14.1521 -14.1345 -14.1058 -14.0464
   -14.0407 -14.0253 -14.0011 -13.9631 -13.9483 -13.8555 -13.8137 -13.6545
   -13.6213 -13.5840 -13.5466 -13.4808 -13.4591 -13.4102 -13.3493 -13.3148
   -13.2408 -13.1707 -13.1544 -13.1158 -13.0964 -13.0069 -12.9947 -12.9679
   -12.9421 -12.9095 -12.8906 -12.8738 -12.8073 -12.7987 -12.7805 -12.7483
   -12.7419 -12.7284 -12.6799 -12.5555 -12.4873 -12.4112 -12.2548 -12.0867
   -12.0231 -11.8340 -11.7912 -11.7634 -11.7353 -11.7187 -11.6711 -11.6600
   -11.6374 -11.6028 -11.5014 -11.4487 -11.4381  -2.8124  -2.5923  -2.4542
    -2.2714  -2.2282  -2.0655  -1.8432  -1.7617  -1.7486  -1.6853  -1.5876
    -1.5717  -1.5383  -1.5104  -1.4665  -1.2698  -1.1420  -1.1290  -1.1050
    -1.0484  -1.0394  -0.9373  -0.9086  -0.8492  -0.8218  -0.7845  -0.7179
    -0.6907  -0.6591  -0.6300  -0.6129  -0.5796  -0.5078  -0.4556  -0.3718
    -0.2753  -0.2388  -0.1828  -0.0973  -0.0567   0.0147   0.0553   0.1108
     0.1248   0.1525   0.2106   0.5173   0.6044   0.6419   0.7216   0.7674
     0.7897   0.9033   0.9211   1.0180   1.0443   1.0704   1.1848   1.2821
     1.3001   1.3274   1.3489   1.3682   1.4284   1.4574   1.4843   1.5308
     1.5664   1.6018   1.6907   1.7255   1.7493   1.8074   1.8577   1.8943
     1.9232   1.9538   1.9652   2.0742   2.1908   2.2618   2.2817   2.3528
     2.3970   2.4331   2.4405   2.4493   2.4589   2.5120   2.5473   2.6329
     2.6842   2.6993   2.8594   2.8793   2.9134   2.9384   2.9522   2.9614
     2.9667   2.9755   3.0057   3.0082   3.0256   3.0362   3.0400   3.0610
     3.0716   3.0794   3.1001   3.1109   3.1171   3.1518   3.1684   3.2271
     3.5927   3.6336   3.8745   4.2888   4.4152   4.7113   5.0171   5.0578
     5.6408   5.8265   5.9592   6.0131   6.0808   6.1030   6.1776   6.5955
     6.9013   7.0981   7.1432   7.3265   7.4816   7.4951   7.6408   7.7086
     7.8558   7.9763   8.0906   8.1940   8.2692   8.3616   8.4034   8.4237
     8.4936   8.7955   8.9451

     occupation numbers 
     1.0000   1.0000   1.0000   1.0000   1.0000   1.0000   1.0000   1.0000
     1.0000   1.0000   1.0000   1.0000   1.0000   1.0000   1.0000   1.0000
     1.0000   1.0000   1.0000   1.0000   1.0000   1.0000   1.0000   1.0000
     1.0000   1.0000   1.0000   1.0000   1.0000   1.0000   1.0000   1.0000
     1.0000   1.0000   1.0000   1.0000   1.0000   1.0000   1.0000   1.0000
     1.0000   1.0000   1.0000   1.0000   1.0000   1.0000   1.0000   1.0000
     1.0000   1.0000   1.0000   1.0000   1.0000   1.0000   1.0000   1.0000
     1.0000   1.0000   1.0000   1.0000   1.0000   1.0000   1.0000   1.0000
     1.0000   1.0000   1.0000   1.0000   1.0000   1.0000   1.0000   1.0000
     1.0000   1.0000   1.0000   1.0000   1.0000   1.0000   1.0000   1.0000
     1.0000   1.0000   1.0000   1.0000   1.0000   1.0000   1.0000   1.0000
     1.0000   1.0000   1.0000   1.0000   1.0000   1.0000   1.0000   1.0000
     1.0000   1.0000   1.0000   1.0000   1.0000   1.0000   1.0000   1.0000
     1.0000   1.0000   1.0000   1.0000   1.0000   1.0000   1.0000   1.0000
     1.0000   1.0000   1.0000   1.0000   1.0000   1.0000   1.0000   1.0000
     1.0000   1.0000   1.0000   1.0000   1.0000   1.0000   1.0000   1.0000
     1.0000   1.0000   1.0000   1.0000   1.0000   1.0000   1.0000   1.0000
     1.0000   1.0000   1.0000   1.0000   1.0000   1.0000   1.0000   1.0000
     1.0000   1.0000   1.0000   1.0000   1.0000   1.0000   1.0000   1.0000
     1.0000   1.0000   1.0000   1.0000   1.0000   1.0000   0.9999   0.9999
     0.9999   0.9998   0.9998   0.9997   0.9996   0.9996   0.9992   0.9988
     0.9986   0.9984   0.9983   0.9981   0.9975   0.9971   0.9968   0.9960
     0.9954   0.9946   0.9922   0.9910   0.9901   0.9876   0.9850   0.9828
     0.9809   0.9787   0.9778   0.9677   0.9531   0.9418   0.9383   0.9243
     0.9145   0.9059   0.9040   0.9018   0.8993   0.8846   0.8741   0.8459
     0.8271   0.8213   0.7526   0.7431   0.7266   0.7141   0.7070   0.7024
     0.6996   0.6951   0.6792   0.6779   0.6685   0.6628   0.6608   0.6493
     0.6434   0.6390   0.6275   0.6214   0.6179   0.5981   0.5886   0.5543
     0.3423   0.3203   0.2048   0.0750   0.0518   0.0194   0.0058   0.0049
     0.0003   0.0001   0.0000   0.0000   0.0000   0.0000   0.0000   0.0000
     0.0000   0.0000   0.0000   0.0000   0.0000   0.0000   0.0000   0.0000
     0.0000   0.0000   0.0000   0.0000   0.0000   0.0000   0.0000   0.0000
     0.0000   0.0000   0.0000

          k = 0.0000-0.5000 0.0000 ( 65180 PWs)   bands (ev):

   -92.7084 -92.6617 -92.5635 -92.5150 -92.4589 -92.4150 -92.3976 -92.2769
   -56.0618 -56.0483 -55.9203 -55.9091 -55.9028 -55.8960 -55.8644 -55.8323
   -55.8162 -55.8146 -55.8116 -55.7659 -55.7456 -55.7097 -55.6905 -55.6590
   -55.6504 -55.6033 -55.6033 -55.6002 -55.5918 -55.5522 -55.5279 -55.4422
   -31.2847 -31.2653 -31.1245 -31.0375 -30.9881 -30.9842 -30.8133 -30.7690
   -29.8539 -29.8110 -29.7878 -29.6789 -15.0153 -14.9669 -14.9138 -14.7823
   -14.7021 -14.5632 -14.4093 -14.2829 -14.1647 -14.0886 -14.0476 -14.0403
   -13.9915 -13.9772 -13.9616 -13.9300 -13.8967 -13.8823 -13.8440 -13.7892
   -13.7690 -13.5907 -13.5312 -13.4808 -13.4639 -13.4022 -13.3652 -13.3186
   -13.2904 -13.2619 -13.2251 -13.1165 -13.0971 -12.9865 -12.9734 -12.9599
   -12.9515 -12.9359 -12.8889 -12.7955 -12.7738 -12.7484 -12.7344 -12.7132
   -12.7054 -12.6858 -12.6591 -12.5222 -12.4013 -12.3297 -12.2671 -12.1998
   -12.1624 -11.7881 -11.7856 -11.7584 -11.7215 -11.6868 -11.6757 -11.6326
   -11.6288 -11.5842 -11.5233 -11.5096 -11.4954  -2.5970  -2.5395  -2.3890
    -2.3173  -2.0319  -1.9516  -1.8240  -1.6877  -1.6434  -1.6301  -1.5526
    -1.5194  -1.4388  -1.4031  -1.3233  -1.2856  -1.2476  -1.2202  -1.1605
    -1.1278  -1.1047  -1.0742  -1.0367  -1.0094  -0.9742  -0.8649  -0.8209
    -0.7833  -0.7784  -0.6928  -0.6641  -0.6424  -0.5955  -0.5003  -0.4376
    -0.3440  -0.2779  -0.2136  -0.1825  -0.0372   0.0321   0.0466   0.0798
     0.1984   0.2643   0.3844   0.4555   0.4668   0.5900   0.6646   0.7376
     0.8699   0.9731   1.0074   1.0469   1.0618   1.0927   1.1077   1.1421
     1.1598   1.1731   1.2800   1.3404   1.3778   1.4109   1.6796   1.6943
     1.7144   1.8020   1.8278   1.8651   1.8796   1.9051   1.9251   1.9290
     1.9528   2.0015   2.0253   2.0596   2.0626   2.0925   2.1448   2.2373
     2.2691   2.4322   2.4415   2.4527   2.5977   2.6097   2.6240   2.6644
     2.6743   2.6814   2.7265   2.7369   2.7914   2.8119   2.8924   2.9115
     2.9762   2.9802   3.0061   3.0106   3.0229   3.0263   3.0303   3.0381
     3.0410   3.0525   3.0708   3.0715   3.1369   3.1415   3.1578   3.2123
     4.1178   4.1305   4.1783   4.2635   4.7316   4.8977   5.0197   5.1802
     5.4100   5.4589   5.5809   5.7417   6.0339   6.0388   6.3917   6.4970
     6.8494   6.9509   7.2132   7.3193   7.4265   7.4973   7.7468   7.8297
     7.9032   8.0990   8.1332   8.3006   8.3243   8.3812   8.4895   8.6605
     8.8020   8.8163   8.8598

     occupation numbers 
     1.0000   1.0000   1.0000   1.0000   1.0000   1.0000   1.0000   1.0000
     1.0000   1.0000   1.0000   1.0000   1.0000   1.0000   1.0000   1.0000
     1.0000   1.0000   1.0000   1.0000   1.0000   1.0000   1.0000   1.0000
     1.0000   1.0000   1.0000   1.0000   1.0000   1.0000   1.0000   1.0000
     1.0000   1.0000   1.0000   1.0000   1.0000   1.0000   1.0000   1.0000
     1.0000   1.0000   1.0000   1.0000   1.0000   1.0000   1.0000   1.0000
     1.0000   1.0000   1.0000   1.0000   1.0000   1.0000   1.0000   1.0000
     1.0000   1.0000   1.0000   1.0000   1.0000   1.0000   1.0000   1.0000
     1.0000   1.0000   1.0000   1.0000   1.0000   1.0000   1.0000   1.0000
     1.0000   1.0000   1.0000   1.0000   1.0000   1.0000   1.0000   1.0000
     1.0000   1.0000   1.0000   1.0000   1.0000   1.0000   1.0000   1.0000
     1.0000   1.0000   1.0000   1.0000   1.0000   1.0000   1.0000   1.0000
     1.0000   1.0000   1.0000   1.0000   1.0000   1.0000   1.0000   1.0000
     1.0000   1.0000   1.0000   1.0000   1.0000   1.0000   1.0000   1.0000
     1.0000   1.0000   1.0000   1.0000   1.0000   1.0000   1.0000   1.0000
     1.0000   1.0000   1.0000   1.0000   1.0000   1.0000   1.0000   1.0000
     1.0000   1.0000   1.0000   1.0000   1.0000   1.0000   1.0000   1.0000
     1.0000   1.0000   1.0000   1.0000   1.0000   1.0000   1.0000   1.0000
     1.0000   1.0000   1.0000   1.0000   1.0000   1.0000   1.0000   1.0000
     1.0000   1.0000   1.0000   1.0000   1.0000   1.0000   1.0000   0.9999
     0.9999   0.9998   0.9997   0.9996   0.9996   0.9995   0.9995   0.9994
     0.9993   0.9993   0.9988   0.9983   0.9980   0.9977   0.9925   0.9921
     0.9914   0.9879   0.9866   0.9846   0.9837   0.9821   0.9808   0.9805
     0.9788   0.9748   0.9726   0.9693   0.9690   0.9657   0.9594   0.9459
     0.9405   0.9061   0.9038   0.9009   0.8580   0.8539   0.8490   0.8345
     0.8309   0.8282   0.8106   0.8063   0.7834   0.7743   0.7369   0.7275
     0.6947   0.6926   0.6790   0.6766   0.6700   0.6681   0.6660   0.6618
     0.6602   0.6539   0.6439   0.6434   0.6066   0.6040   0.5947   0.5630
     0.1178   0.1141   0.1010   0.0804   0.0180   0.0095   0.0058   0.0029
     0.0010   0.0007   0.0004   0.0002   0.0000   0.0000   0.0000   0.0000
     0.0000   0.0000   0.0000   0.0000   0.0000   0.0000   0.0000   0.0000
     0.0000   0.0000   0.0000   0.0000   0.0000   0.0000   0.0000   0.0000
     0.0000   0.0000   0.0000

          k = 0.2500 0.2500 0.0000 ( 65198 PWs)   bands (ev):

   -92.7084 -92.6617 -92.5635 -92.5150 -92.4589 -92.4150 -92.3976 -92.2769
   -56.0618 -56.0483 -55.9203 -55.9092 -55.9028 -55.8960 -55.8644 -55.8323
   -55.8162 -55.8146 -55.8116 -55.7659 -55.7456 -55.7097 -55.6905 -55.6590
   -55.6504 -55.6033 -55.6033 -55.6002 -55.5918 -55.5522 -55.5279 -55.4422
   -31.2832 -31.2672 -31.1239 -31.0378 -30.9918 -30.9802 -30.8141 -30.7685
   -29.8535 -29.8123 -29.7868 -29.6790 -15.0233 -14.9798 -14.9100 -14.7935
   -14.6694 -14.5466 -14.4766 -14.2660 -14.1147 -14.1010 -14.0642 -14.0342
   -14.0126 -13.9836 -13.9624 -13.9454 -13.9109 -13.8458 -13.8269 -13.6701
   -13.6546 -13.6240 -13.6063 -13.5230 -13.5116 -13.4399 -13.4325 -13.3003
   -13.2584 -13.2354 -13.1487 -13.1086 -13.0561 -13.0251 -12.9860 -12.9693
   -12.9522 -12.9243 -12.8871 -12.8327 -12.7899 -12.7668 -12.7517 -12.7251
   -12.7207 -12.6902 -12.6739 -12.4939 -12.4597 -12.3920 -12.2839 -12.1189
   -12.0714 -11.8063 -11.7747 -11.7638 -11.7567 -11.6940 -11.6594 -11.6529
   -11.6174 -11.6095 -11.5180 -11.4770 -11.4595  -2.6740  -2.4665  -2.3485
    -2.2519  -2.1333  -2.0688  -1.8677  -1.7261  -1.7072  -1.6732  -1.5820
    -1.5487  -1.4541  -1.4262  -1.3759  -1.2457  -1.1971  -1.1261  -1.1056
    -1.0782  -1.0299  -1.0088  -0.9864  -0.9443  -0.9289  -0.8376  -0.7882
    -0.7169  -0.6696  -0.6428  -0.5952  -0.5810  -0.5161  -0.4652  -0.3959
    -0.3720  -0.2752  -0.2349  -0.1974  -0.1656  -0.1116  -0.0378   0.0007
     0.0403   0.1008   0.1359   0.4060   0.5594   0.5882   0.6541   0.6871
     0.7481   0.7922   0.8609   0.9007   1.1728   1.2352   1.3091   1.3320
     1.3886   1.4130   1.4505   1.4876   1.5033   1.5312   1.5773   1.5855
     1.6039   1.6515   1.6847   1.7237   1.7804   1.8163   1.8347   1.8592
     1.8963   1.9541   1.9767   2.1108   2.1704   2.2066   2.2279   2.2979
     2.3576   2.3881   2.4236   2.4340   2.4516   2.4593   2.4645   2.5753
     2.6222   2.7124   2.8695   2.8881   2.8921   2.9086   2.9241   2.9377
     2.9497   2.9552   2.9679   2.9812   2.9978   3.0106   3.0169   3.0294
     3.0551   3.0631   3.0719   3.1031   3.4037   3.4954   3.5460   3.6105
     3.6218   3.8577   3.9463   4.2976   4.5022   4.7171   4.9740   5.1656
     5.6425   5.7010   5.7942   5.8319   5.8906   6.1444   6.1609   6.2113
     6.8921   7.0163   7.2123   7.2518   7.5484   7.6014   7.7082   7.8641
     7.8955   8.0322   8.1488   8.2300   8.3370   8.4120   8.4411   8.5174
     8.5635   8.6422   8.8988

     occupation numbers 
     1.0000   1.0000   1.0000   1.0000   1.0000   1.0000   1.0000   1.0000
     1.0000   1.0000   1.0000   1.0000   1.0000   1.0000   1.0000   1.0000
     1.0000   1.0000   1.0000   1.0000   1.0000   1.0000   1.0000   1.0000
     1.0000   1.0000   1.0000   1.0000   1.0000   1.0000   1.0000   1.0000
     1.0000   1.0000   1.0000   1.0000   1.0000   1.0000   1.0000   1.0000
     1.0000   1.0000   1.0000   1.0000   1.0000   1.0000   1.0000   1.0000
     1.0000   1.0000   1.0000   1.0000   1.0000   1.0000   1.0000   1.0000
     1.0000   1.0000   1.0000   1.0000   1.0000   1.0000   1.0000   1.0000
     1.0000   1.0000   1.0000   1.0000   1.0000   1.0000   1.0000   1.0000
     1.0000   1.0000   1.0000   1.0000   1.0000   1.0000   1.0000   1.0000
     1.0000   1.0000   1.0000   1.0000   1.0000   1.0000   1.0000   1.0000
     1.0000   1.0000   1.0000   1.0000   1.0000   1.0000   1.0000   1.0000
     1.0000   1.0000   1.0000   1.0000   1.0000   1.0000   1.0000   1.0000
     1.0000   1.0000   1.0000   1.0000   1.0000   1.0000   1.0000   1.0000
     1.0000   1.0000   1.0000   1.0000   1.0000   1.0000   1.0000   1.0000
     1.0000   1.0000   1.0000   1.0000   1.0000   1.0000   1.0000   1.0000
     1.0000   1.0000   1.0000   1.0000   1.0000   1.0000   1.0000   1.0000
     1.0000   1.0000   1.0000   1.0000   1.0000   1.0000   1.0000   1.0000
     1.0000   1.0000   1.0000   1.0000   1.0000   1.0000   1.0000   1.0000
     1.0000   1.0000   1.0000   1.0000   1.0000   1.0000   1.0000   1.0000
     0.9999   0.9999   0.9999   0.9998   0.9993   0.9990   0.9986   0.9984
     0.9979   0.9977   0.9972   0.9967   0.9965   0.9960   0.9952   0.9950
     0.9946   0.9934   0.9924   0.9911   0.9888   0.9872   0.9862   0.9849
     0.9827   0.9787   0.9769   0.9636   0.9560   0.9507   0.9474   0.9353
     0.9233   0.9166   0.9082   0.9056   0.9012   0.8992   0.8978   0.8653
     0.8496   0.8162   0.7478   0.7389   0.7370   0.7290   0.7212   0.7144
     0.7084   0.7055   0.6990   0.6921   0.6833   0.6766   0.6732   0.6665
     0.6525   0.6481   0.6432   0.6258   0.4500   0.3967   0.3681   0.3326
     0.3265   0.2119   0.1758   0.0731   0.0395   0.0190   0.0070   0.0031
     0.0003   0.0002   0.0001   0.0001   0.0001   0.0000   0.0000   0.0000
     0.0000   0.0000   0.0000   0.0000   0.0000   0.0000   0.0000   0.0000
     0.0000   0.0000   0.0000   0.0000   0.0000   0.0000   0.0000   0.0000
     0.0000   0.0000   0.0000

          k = 0.2500-0.5000 0.0000 ( 65138 PWs)   bands (ev):

   -92.7084 -92.6617 -92.5635 -92.5150 -92.4589 -92.4150 -92.3976 -92.2769
   -56.0618 -56.0483 -55.9203 -55.9091 -55.9028 -55.8960 -55.8644 -55.8323
   -55.8162 -55.8146 -55.8116 -55.7659 -55.7456 -55.7097 -55.6905 -55.6590
   -55.6504 -55.6033 -55.6033 -55.6002 -55.5918 -55.5522 -55.5279 -55.4422
   -31.2830 -31.2670 -31.1241 -31.0379 -30.9880 -30.9840 -30.8134 -30.7692
   -29.8529 -29.8120 -29.7874 -29.6793 -14.9846 -14.9400 -14.8707 -14.7532
   -14.7241 -14.6047 -14.5121 -14.3812 -14.0798 -14.0238 -13.9988 -13.9766
   -13.9636 -13.9576 -13.9497 -13.9134 -13.8862 -13.8557 -13.8256 -13.7899
   -13.7508 -13.6726 -13.6244 -13.5463 -13.5351 -13.4759 -13.4477 -13.3559
   -13.3182 -13.2141 -13.1494 -13.1259 -13.0404 -12.9991 -12.9840 -12.9532
   -12.9373 -12.9211 -12.9150 -12.7997 -12.7842 -12.7572 -12.7419 -12.7103
   -12.6955 -12.6625 -12.6312 -12.5287 -12.3829 -12.3272 -12.2457 -12.1883
   -12.1628 -11.7819 -11.7698 -11.7591 -11.7320 -11.7002 -11.6722 -11.6302
   -11.6034 -11.5808 -11.5363 -11.5107 -11.4994  -2.4544  -2.3914  -2.2628
    -2.1860  -2.0525  -1.9714  -1.8483  -1.6983  -1.6411  -1.6207  -1.5596
    -1.5468  -1.4496  -1.3818  -1.2978  -1.2458  -1.2367  -1.1752  -1.1334
    -1.1058  -1.0967  -1.0490  -1.0089  -0.9774  -0.9388  -0.9258  -0.8814
    -0.8518  -0.8055  -0.7781  -0.7100  -0.6023  -0.5718  -0.4880  -0.4224
    -0.3659  -0.3285  -0.3141  -0.2431  -0.1013  -0.0914   0.0437   0.0501
     0.0598   0.1015   0.1393   0.1706   0.2056   0.2704   0.5637   0.6574
     0.7028   0.7585   1.0393   1.0508   1.1453   1.1694   1.3330   1.3740
     1.4071   1.4313   1.4438   1.4670   1.5326   1.5853   1.6182   1.6868
     1.7881   1.8180   1.8399   1.8494   1.8866   1.9018   1.9068   1.9512
     1.9629   1.9824   2.0195   2.0300   2.0537   2.0871   2.1445   2.1921
     2.2693   2.3996   2.4368   2.4535   2.5494   2.5661   2.5845   2.6204
     2.6389   2.6647   2.6848   2.6989   2.7219   2.8180   2.8714   2.8881
     2.8988   2.9061   2.9258   2.9396   2.9585   2.9672   3.0095   3.0164
     3.0266   3.0333   3.0435   3.0528   3.5685   3.5950   3.7352   3.7882
     4.1192   4.1789   4.1867   4.3164   4.7512   4.9193   5.0557   5.1427
     5.2981   5.4312   5.6050   5.6610   5.7657   5.7898   6.3926   6.4822
     6.5059   6.6326   7.3674   7.4197   7.5903   7.6979   7.7313   7.8118
     7.8765   8.0356   8.3558   8.4376   8.4697   8.5428   8.5580   8.5742
     8.6839   8.7108   8.7685

     occupation numbers 
     1.0000   1.0000   1.0000   1.0000   1.0000   1.0000   1.0000   1.0000
     1.0000   1.0000   1.0000   1.0000   1.0000   1.0000   1.0000   1.0000
     1.0000   1.0000   1.0000   1.0000   1.0000   1.0000   1.0000   1.0000
     1.0000   1.0000   1.0000   1.0000   1.0000   1.0000   1.0000   1.0000
     1.0000   1.0000   1.0000   1.0000   1.0000   1.0000   1.0000   1.0000
     1.0000   1.0000   1.0000   1.0000   1.0000   1.0000   1.0000   1.0000
     1.0000   1.0000   1.0000   1.0000   1.0000   1.0000   1.0000   1.0000
     1.0000   1.0000   1.0000   1.0000   1.0000   1.0000   1.0000   1.0000
     1.0000   1.0000   1.0000   1.0000   1.0000   1.0000   1.0000   1.0000
     1.0000   1.0000   1.0000   1.0000   1.0000   1.0000   1.0000   1.0000
     1.0000   1.0000   1.0000   1.0000   1.0000   1.0000   1.0000   1.0000
     1.0000   1.0000   1.0000   1.0000   1.0000   1.0000   1.0000   1.0000
     1.0000   1.0000   1.0000   1.0000   1.0000   1.0000   1.0000   1.0000
     1.0000   1.0000   1.0000   1.0000   1.0000   1.0000   1.0000   1.0000
     1.0000   1.0000   1.0000   1.0000   1.0000   1.0000   1.0000   1.0000
     1.0000   1.0000   1.0000   1.0000   1.0000   1.0000   1.0000   1.0000
     1.0000   1.0000   1.0000   1.0000   1.0000   1.0000   1.0000   1.0000
     1.0000   1.0000   1.0000   1.0000   1.0000   1.0000   1.0000   1.0000
     1.0000   1.0000   1.0000   1.0000   1.0000   1.0000   1.0000   1.0000
     1.0000   1.0000   1.0000   1.0000   1.0000   1.0000   1.0000   1.0000
     0.9999   0.9999   0.9996   0.9996   0.9994   0.9993   0.9984   0.9981
     0.9977   0.9975   0.9973   0.9970   0.9960   0.9950   0.9942   0.9923
     0.9885   0.9871   0.9860   0.9855   0.9833   0.9823   0.9820   0.9789
     0.9780   0.9764   0.9732   0.9722   0.9699   0.9663   0.9594   0.9529
     0.9405   0.9139   0.9049   0.9007   0.8735   0.8682   0.8623   0.8503
     0.8438   0.8344   0.8269   0.8215   0.8124   0.7716   0.7469   0.7389
     0.7337   0.7302   0.7204   0.7135   0.7038   0.6993   0.6771   0.6735
     0.6680   0.6644   0.6589   0.6538   0.3556   0.3410   0.2683   0.2430
     0.1174   0.1009   0.0988   0.0693   0.0167   0.0087   0.0050   0.0034
     0.0016   0.0009   0.0003   0.0003   0.0001   0.0001   0.0000   0.0000
     0.0000   0.0000   0.0000   0.0000   0.0000   0.0000   0.0000   0.0000
     0.0000   0.0000   0.0000   0.0000   0.0000   0.0000   0.0000   0.0000
     0.0000   0.0000   0.0000

          k =-0.5000-0.5000 0.0000 ( 65132 PWs)   bands (ev):

   -92.7084 -92.6617 -92.5635 -92.5150 -92.4589 -92.4150 -92.3976 -92.2769
   -56.0618 -56.0483 -55.9203 -55.9091 -55.9028 -55.8959 -55.8644 -55.8323
   -55.8162 -55.8146 -55.8116 -55.7659 -55.7456 -55.7097 -55.6905 -55.6590
   -55.6504 -55.6033 -55.6033 -55.6002 -55.5918 -55.5522 -55.5279 -55.4422
   -31.2808 -31.2692 -31.1238 -31.0383 -30.9878 -30.9839 -30.8136 -30.7693
   -29.8519 -29.8131 -29.7870 -29.6797 -14.9376 -14.9129 -14.7957 -14.7826
   -14.6862 -14.6530 -14.6139 -14.4814 -13.9896 -13.9778 -13.9627 -13.9432
   -13.9256 -13.9083 -13.8837 -13.8650 -13.8548 -13.8402 -13.8279 -13.8093
   -13.7395 -13.7331 -13.6947 -13.6684 -13.6190 -13.5626 -13.5048 -13.3967
   -13.3632 -13.1643 -13.1231 -13.0573 -13.0327 -12.9984 -12.9914 -12.9819
   -12.9636 -12.9187 -12.8864 -12.7999 -12.7760 -12.7582 -12.7514 -12.7231
   -12.7181 -12.6125 -12.6046 -12.5450 -12.3655 -12.3235 -12.2223 -12.1766
   -12.1652 -11.7786 -11.7662 -11.7481 -11.7315 -11.6963 -11.6784 -11.6444
   -11.5839 -11.5634 -11.5586 -11.5084 -11.5051  -2.2279  -2.1553  -2.1483
    -2.0749  -2.0361  -1.9579  -1.8900  -1.7628  -1.6486  -1.6191  -1.5754
    -1.5226  -1.4499  -1.4357  -1.3652  -1.3226  -1.2043  -1.1744  -1.1268
    -1.1035  -1.0994  -1.0346  -0.9869  -0.9696  -0.9571  -0.8996  -0.8599
    -0.8381  -0.7281  -0.6723  -0.6270  -0.5777  -0.5468  -0.5249  -0.4976
    -0.4611  -0.4173  -0.4077  -0.3271  -0.2603  -0.2177  -0.1882  -0.1174
    -0.0545  -0.0507   0.0115   0.0436   0.0549   0.0949   0.5433   0.5774
     0.6486   0.6706   1.0629   1.0757   1.1146   1.1545   1.4199   1.4374
     1.4455   1.4942   1.6114   1.7061   1.7335   1.7699   1.7984   1.8127
     1.8228   1.8534   1.8660   1.8821   1.8920   1.9418   1.9448   1.9726
     1.9860   2.0069   2.0238   2.0601   2.0863   2.1018   2.1299   2.1650
     2.2270   2.2962   2.4331   2.4520   2.5630   2.5933   2.6150   2.6307
     2.6431   2.6732   2.6748   2.6939   2.7052   2.7217   2.7442   2.7542
     2.8199   2.8240   2.8443   2.8585   2.8755   2.8965   2.8986   2.9049
     3.0149   3.0217   3.0375   3.0519   4.0004   4.0381   4.0457   4.0787
     4.3116   4.3866   4.4111   4.6504   4.7740   4.8564   4.9859   5.0775
     5.0857   5.2019   5.2910   5.4667   5.8563   5.8849   5.9527   6.0275
     6.7407   6.9483   6.9901   7.0609   7.8862   7.9232   7.9582   7.9629
     7.9820   8.0169   8.0846   8.2665   8.5231   8.5837   8.6158   8.6544
     8.6663   8.7961   8.8174

     occupation numbers 
     1.0000   1.0000   1.0000   1.0000   1.0000   1.0000   1.0000   1.0000
     1.0000   1.0000   1.0000   1.0000   1.0000   1.0000   1.0000   1.0000
     1.0000   1.0000   1.0000   1.0000   1.0000   1.0000   1.0000   1.0000
     1.0000   1.0000   1.0000   1.0000   1.0000   1.0000   1.0000   1.0000
     1.0000   1.0000   1.0000   1.0000   1.0000   1.0000   1.0000   1.0000
     1.0000   1.0000   1.0000   1.0000   1.0000   1.0000   1.0000   1.0000
     1.0000   1.0000   1.0000   1.0000   1.0000   1.0000   1.0000   1.0000
     1.0000   1.0000   1.0000   1.0000   1.0000   1.0000   1.0000   1.0000
     1.0000   1.0000   1.0000   1.0000   1.0000   1.0000   1.0000   1.0000
     1.0000   1.0000   1.0000   1.0000   1.0000   1.0000   1.0000   1.0000
     1.0000   1.0000   1.0000   1.0000   1.0000   1.0000   1.0000   1.0000
     1.0000   1.0000   1.0000   1.0000   1.0000   1.0000   1.0000   1.0000
     1.0000   1.0000   1.0000   1.0000   1.0000   1.0000   1.0000   1.0000
     1.0000   1.0000   1.0000   1.0000   1.0000   1.0000   1.0000   1.0000
     1.0000   1.0000   1.0000   1.0000   1.0000   1.0000   1.0000   1.0000
     1.0000   1.0000   1.0000   1.0000   1.0000   1.0000   1.0000   1.0000
     1.0000   1.0000   1.0000   1.0000   1.0000   1.0000   1.0000   1.0000
     1.0000   1.0000   1.0000   1.0000   1.0000   1.0000   1.0000   1.0000
     1.0000   1.0000   1.0000   1.0000   1.0000   1.0000   1.0000   1.0000
     1.0000   1.0000   1.0000   1.0000   1.0000   1.0000   1.0000   1.0000
     1.0000   1.0000   0.9996   0.9996   0.9995   0.9993   0.9976   0.9974
     0.9973   0.9966   0.9944   0.9917   0.9907   0.9893   0.9880   0.9874
     0.9869   0.9852   0.9845   0.9836   0.9830   0.9796   0.9794   0.9772
     0.9761   0.9743   0.9728   0.9692   0.9664   0.9647   0.9613   0.9567
     0.9476   0.9356   0.9059   0.9011   0.8692   0.8594   0.8521   0.8467
     0.8423   0.8312   0.8307   0.8234   0.8190   0.8125   0.8033   0.7992
     0.7707   0.7689   0.7596   0.7530   0.7450   0.7349   0.7338   0.7308
     0.6743   0.6706   0.6621   0.6542   0.1559   0.1428   0.1403   0.1297
     0.0703   0.0565   0.0525   0.0240   0.0154   0.0112   0.0067   0.0045
     0.0044   0.0026   0.0017   0.0007   0.0001   0.0001   0.0000   0.0000
     0.0000   0.0000   0.0000   0.0000   0.0000   0.0000   0.0000   0.0000
     0.0000   0.0000   0.0000   0.0000   0.0000   0.0000   0.0000   0.0000
     0.0000   0.0000   0.0000

          k = 0.2500 0.0000 0.0000 ( 65257 PWs)   bands (ev):

   -92.7084 -92.6617 -92.5635 -92.5150 -92.4589 -92.4150 -92.3976 -92.2769
   -56.0618 -56.0483 -55.9203 -55.9092 -55.9028 -55.8960 -55.8644 -55.8323
   -55.8162 -55.8146 -55.8116 -55.7659 -55.7456 -55.7097 -55.6905 -55.6590
   -55.6504 -55.6033 -55.6033 -55.6002 -55.5918 -55.5522 -55.5279 -55.4422
   -31.2834 -31.2673 -31.1237 -31.0376 -30.9940 -30.9780 -30.8148 -30.7678
   -29.8542 -29.8127 -29.7862 -29.6786 -15.0560 -15.0099 -14.9431 -14.7974
   -14.6853 -14.4944 -14.3615 -14.1794 -14.1648 -14.1342 -14.1017 -14.0765
   -14.0448 -14.0258 -14.0008 -13.9639 -13.9525 -13.8466 -13.8131 -13.6667
   -13.5960 -13.5790 -13.5073 -13.4963 -13.4806 -13.4206 -13.3522 -13.3199
   -13.2249 -13.1672 -13.1574 -13.0680 -13.0512 -13.0336 -13.0239 -13.0132
   -12.9792 -12.9412 -12.8833 -12.8418 -12.8273 -12.8252 -12.7789 -12.7469
   -12.7006 -12.6521 -12.6442 -12.6000 -12.5212 -12.4133 -12.2558 -12.0842
   -12.0216 -11.8333 -11.7815 -11.7642 -11.7509 -11.7240 -11.6738 -11.6504
   -11.6424 -11.5917 -11.5029 -11.4470 -11.4410  -2.8120  -2.5913  -2.4611
    -2.2876  -2.2239  -2.0553  -1.8439  -1.7707  -1.7268  -1.6872  -1.5900
    -1.5759  -1.5408  -1.5215  -1.4520  -1.2726  -1.1639  -1.1267  -1.1014
    -1.0269  -1.0099  -0.9366  -0.9096  -0.8561  -0.8166  -0.7649  -0.7288
    -0.6838  -0.6604  -0.6410  -0.5867  -0.5730  -0.4819  -0.4717  -0.3960
    -0.3006  -0.2164  -0.1401  -0.1236  -0.0454  -0.0139   0.0396   0.0605
     0.1068   0.1632   0.2086   0.4973   0.6244   0.6685   0.7436   0.7686
     0.8032   0.8168   0.9006   1.0123   1.0606   1.0858   1.1225   1.2786
     1.3039   1.3409   1.3470   1.3850   1.4338   1.4800   1.5085   1.5674
     1.6105   1.6255   1.6826   1.7277   1.7661   1.7951   1.8764   1.8785
[...]
     0.3552   0.3250   0.2037   0.0791   0.0462   0.0215   0.0058   0.0048
     0.0003   0.0001   0.0000   0.0000   0.0000   0.0000   0.0000   0.0000
     0.0000   0.0000   0.0000   0.0000   0.0000   0.0000   0.0000   0.0000
     0.0000   0.0000   0.0000   0.0000   0.0000   0.0000   0.0000   0.0000
     0.0000   0.0000   0.0000

          k =-0.5000 0.0000 0.0000 ( 65180 PWs)   bands (ev):

   -92.7084 -92.6617 -92.5635 -92.5150 -92.4589 -92.4150 -92.3976 -92.2769
   -56.0618 -56.0483 -55.9203 -55.9092 -55.9028 -55.8959 -55.8644 -55.8323
   -55.8162 -55.8146 -55.8116 -55.7659 -55.7456 -55.7097 -55.6905 -55.6590
   -55.6504 -55.6033 -55.6033 -55.6002 -55.5918 -55.5522 -55.5279 -55.4422
   -31.2812 -31.2695 -31.1234 -31.0380 -30.9938 -30.9779 -30.8150 -30.7679
   -29.8531 -29.8137 -29.7858 -29.6790 -15.0218 -14.9669 -14.9069 -14.7945
   -14.6957 -14.5507 -14.4049 -14.2556 -14.1392 -14.1209 -14.1153 -14.0479
   -13.9988 -13.9660 -13.9625 -13.9141 -13.8989 -13.8870 -13.8426 -13.8141
   -13.7164 -13.5625 -13.5117 -13.4988 -13.4867 -13.4149 -13.3712 -13.3123
   -13.2751 -13.2515 -13.2328 -13.0616 -13.0487 -13.0256 -13.0157 -13.0069
   -12.9539 -12.9326 -12.9237 -12.8420 -12.8248 -12.7321 -12.7047 -12.6507
   -12.6478 -12.6434 -12.6383 -12.5483 -12.4423 -12.3337 -12.3130 -12.1842
   -12.1424 -11.7855 -11.7638 -11.7572 -11.7426 -11.7243 -11.6829 -11.6206
   -11.6029 -11.5699 -11.5254 -11.5164 -11.5006  -2.5877  -2.5496  -2.3866
    -2.3475  -2.0323  -1.9549  -1.8111  -1.6929  -1.6527  -1.6058  -1.5600
    -1.5358  -1.4122  -1.3682  -1.3509  -1.2697  -1.2349  -1.2187  -1.1878
    -1.1276  -1.1057  -1.0600  -1.0325  -0.9962  -0.9058  -0.8607  -0.8097
    -0.7787  -0.7582  -0.7219  -0.6785  -0.6539  -0.6156  -0.5025  -0.4475
    -0.3627  -0.3017  -0.1551  -0.1108  -0.0639   0.0031   0.0346   0.0605
     0.1904   0.2241   0.2680   0.4327   0.5329   0.5812   0.6836   0.7308
     0.8533   0.8647   0.9965   1.0250   1.0804   1.1174   1.1488   1.1561
     1.2074   1.2275   1.2962   1.3433   1.3891   1.4079   1.6974   1.7124
     1.7246   1.7584   1.8517   1.8653   1.8802   1.8866   1.9181   1.9297
     1.9655   1.9908   2.0125   2.0705   2.0870   2.1394   2.1590   2.2177
     2.3243   2.4177   2.4352   2.4633   2.4952   2.5093   2.5947   2.6190
     2.6524   2.7195   2.7278   2.7375   2.7682   2.8289   2.8743   2.9341
     2.9471   2.9935   2.9984   3.0017   3.0100   3.0274   3.0385   3.0505
     3.0575   3.0757   3.0794   3.1021   3.1218   3.1266   3.2549   3.2619
     4.0595   4.1287   4.1885   4.3064   4.7849   4.8593   5.0388   5.0631
     5.4813   5.5076   5.6050   5.6482   6.0270   6.0526   6.4120   6.4865
     6.7942   7.0029   7.2779   7.3012   7.4017   7.4634   7.7712   7.7905
     7.8818   8.1215   8.1975   8.2175   8.3114   8.4594   8.5130   8.6183
     8.7565   8.8186   8.8914

     occupation numbers 
     1.0000   1.0000   1.0000   1.0000   1.0000   1.0000   1.0000   1.0000
     1.0000   1.0000   1.0000   1.0000   1.0000   1.0000   1.0000   1.0000
     1.0000   1.0000   1.0000   1.0000   1.0000   1.0000   1.0000   1.0000
     1.0000   1.0000   1.0000   1.0000   1.0000   1.0000   1.0000   1.0000
     1.0000   1.0000   1.0000   1.0000   1.0000   1.0000   1.0000   1.0000
     1.0000   1.0000   1.0000   1.0000   1.0000   1.0000   1.0000   1.0000
     1.0000   1.0000   1.0000   1.0000   1.0000   1.0000   1.0000   1.0000
     1.0000   1.0000   1.0000   1.0000   1.0000   1.0000   1.0000   1.0000
     1.0000   1.0000   1.0000   1.0000   1.0000   1.0000   1.0000   1.0000
     1.0000   1.0000   1.0000   1.0000   1.0000   1.0000   1.0000   1.0000
     1.0000   1.0000   1.0000   1.0000   1.0000   1.0000   1.0000   1.0000
     1.0000   1.0000   1.0000   1.0000   1.0000   1.0000   1.0000   1.0000
     1.0000   1.0000   1.0000   1.0000   1.0000   1.0000   1.0000   1.0000
     1.0000   1.0000   1.0000   1.0000   1.0000   1.0000   1.0000   1.0000
     1.0000   1.0000   1.0000   1.0000   1.0000   1.0000   1.0000   1.0000
     1.0000   1.0000   1.0000   1.0000   1.0000   1.0000   1.0000   1.0000
     1.0000   1.0000   1.0000   1.0000   1.0000   1.0000   1.0000   1.0000
     1.0000   1.0000   1.0000   1.0000   1.0000   1.0000   1.0000   1.0000
     1.0000   1.0000   1.0000   1.0000   1.0000   1.0000   1.0000   1.0000
     1.0000   1.0000   1.0000   1.0000   1.0000   1.0000   1.0000   0.9999
     0.9999   0.9999   0.9997   0.9997   0.9996   0.9995   0.9994   0.9993
     0.9991   0.9991   0.9987   0.9983   0.9979   0.9977   0.9920   0.9915
     0.9911   0.9898   0.9853   0.9846   0.9837   0.9833   0.9813   0.9805
     0.9778   0.9757   0.9738   0.9681   0.9663   0.9601   0.9575   0.9490
     0.9302   0.9096   0.9053   0.8981   0.8894   0.8854   0.8590   0.8507
     0.8389   0.8134   0.8100   0.8061   0.7934   0.7667   0.7455   0.7162
     0.7097   0.6856   0.6830   0.6813   0.6769   0.6675   0.6616   0.6550
     0.6512   0.6411   0.6391   0.6264   0.6153   0.6125   0.5380   0.5338
     0.1358   0.1146   0.0984   0.0713   0.0148   0.0111   0.0053   0.0048
     0.0007   0.0006   0.0003   0.0003   0.0000   0.0000   0.0000   0.0000
     0.0000   0.0000   0.0000   0.0000   0.0000   0.0000   0.0000   0.0000
     0.0000   0.0000   0.0000   0.0000   0.0000   0.0000   0.0000   0.0000
     0.0000   0.0000   0.0000

          k =-0.2500 0.2500 0.0000 ( 65198 PWs)   bands (ev):

   -92.7084 -92.6617 -92.5635 -92.5150 -92.4589 -92.4150 -92.3976 -92.2769
   -56.0618 -56.0483 -55.9203 -55.9092 -55.9028 -55.8960 -55.8644 -55.8323
   -55.8162 -55.8146 -55.8116 -55.7659 -55.7456 -55.7097 -55.6905 -55.6590
   -55.6504 -55.6033 -55.6033 -55.6002 -55.5918 -55.5522 -55.5279 -55.4422
   -31.2832 -31.2672 -31.1239 -31.0378 -30.9918 -30.9802 -30.8141 -30.7685
   -29.8535 -29.8123 -29.7868 -29.6790 -15.0245 -14.9788 -14.9084 -14.7923
   -14.6750 -14.5519 -14.4686 -14.2566 -14.1210 -14.0925 -14.0768 -14.0303
   -14.0055 -13.9854 -13.9685 -13.9496 -13.9186 -13.8415 -13.8273 -13.6791
   -13.6512 -13.6189 -13.6021 -13.5236 -13.5039 -13.4424 -13.4298 -13.3051
   -13.2603 -13.2296 -13.1530 -13.1098 -13.0465 -13.0149 -12.9938 -12.9702
   -12.9532 -12.9335 -12.8810 -12.8412 -12.7912 -12.7789 -12.7633 -12.7240
   -12.7012 -12.6878 -12.6734 -12.4826 -12.4494 -12.4040 -12.2896 -12.1217
   -12.0678 -11.8054 -11.7840 -11.7570 -11.7448 -11.7036 -11.6692 -11.6459
   -11.6246 -11.6019 -11.5178 -11.4723 -11.4629  -2.6724  -2.4654  -2.3445
    -2.2532  -2.1377  -2.0715  -1.8652  -1.7232  -1.7048  -1.6712  -1.5826
    -1.5476  -1.4541  -1.4193  -1.3932  -1.2520  -1.1957  -1.1310  -1.1053
    -1.0912  -1.0358  -1.0169  -0.9764  -0.9482  -0.9076  -0.8439  -0.7966
    -0.7242  -0.6640  -0.6393  -0.5893  -0.5599  -0.5149  -0.4541  -0.3974
    -0.3680  -0.2609  -0.2371  -0.2130  -0.1716  -0.1158  -0.0422  -0.0013
     0.0498   0.1057   0.1346   0.3848   0.5653   0.5949   0.6415   0.6952
     0.7473   0.7963   0.8674   0.8979   1.1806   1.2864   1.3259   1.3595
     1.3689   1.4067   1.4220   1.4695   1.5002   1.5122   1.5386   1.5873
     1.6035   1.6421   1.6696   1.7093   1.7922   1.8092   1.8344   1.8611
     1.8948   1.9358   1.9833   2.0969   2.2037   2.2282   2.2755   2.2948
     2.3569   2.3992   2.4256   2.4352   2.4526   2.4586   2.4744   2.5754
     2.6211   2.7116   2.8777   2.8841   2.8990   2.9074   2.9190   2.9328
     2.9411   2.9587   2.9694   2.9806   2.9926   3.0026   3.0118   3.0197
     3.0551   3.0648   3.0711   3.1053   3.3970   3.4777   3.5478   3.6122
     3.6337   3.8421   3.9548   4.2969   4.4996   4.7186   4.9837   5.1656
     5.6437   5.6991   5.7983   5.8279   5.8912   6.1484   6.1710   6.1950
     6.8919   7.0241   7.1901   7.2701   7.5622   7.6090   7.6688   7.8812
     7.8934   8.0235   8.1671   8.2248   8.3362   8.4190   8.4430   8.4827
     8.5661   8.6669   8.8983

     occupation numbers 
     1.0000   1.0000   1.0000   1.0000   1.0000   1.0000   1.0000   1.0000
     1.0000   1.0000   1.0000   1.0000   1.0000   1.0000   1.0000   1.0000
     1.0000   1.0000   1.0000   1.0000   1.0000   1.0000   1.0000   1.0000
     1.0000   1.0000   1.0000   1.0000   1.0000   1.0000   1.0000   1.0000
     1.0000   1.0000   1.0000   1.0000   1.0000   1.0000   1.0000   1.0000
     1.0000   1.0000   1.0000   1.0000   1.0000   1.0000   1.0000   1.0000
     1.0000   1.0000   1.0000   1.0000   1.0000   1.0000   1.0000   1.0000
     1.0000   1.0000   1.0000   1.0000   1.0000   1.0000   1.0000   1.0000
     1.0000   1.0000   1.0000   1.0000   1.0000   1.0000   1.0000   1.0000
     1.0000   1.0000   1.0000   1.0000   1.0000   1.0000   1.0000   1.0000
     1.0000   1.0000   1.0000   1.0000   1.0000   1.0000   1.0000   1.0000
     1.0000   1.0000   1.0000   1.0000   1.0000   1.0000   1.0000   1.0000
     1.0000   1.0000   1.0000   1.0000   1.0000   1.0000   1.0000   1.0000
     1.0000   1.0000   1.0000   1.0000   1.0000   1.0000   1.0000   1.0000
     1.0000   1.0000   1.0000   1.0000   1.0000   1.0000   1.0000   1.0000
     1.0000   1.0000   1.0000   1.0000   1.0000   1.0000   1.0000   1.0000
     1.0000   1.0000   1.0000   1.0000   1.0000   1.0000   1.0000   1.0000
     1.0000   1.0000   1.0000   1.0000   1.0000   1.0000   1.0000   1.0000
     1.0000   1.0000   1.0000   1.0000   1.0000   1.0000   1.0000   1.0000
     1.0000   1.0000   1.0000   1.0000   1.0000   1.0000   1.0000   1.0000
     0.9999   0.9999   0.9999   0.9998   0.9993   0.9987   0.9985   0.9982
     0.9981   0.9977   0.9976   0.9970   0.9965   0.9964   0.9959   0.9949
     0.9946   0.9936   0.9928   0.9916   0.9883   0.9875   0.9863   0.9848
     0.9828   0.9800   0.9763   0.9652   0.9512   0.9474   0.9394   0.9359
     0.9235   0.9140   0.9077   0.9053   0.9009   0.8993   0.8951   0.8653
     0.8500   0.8165   0.7439   0.7408   0.7336   0.7295   0.7238   0.7169
     0.7127   0.7037   0.6982   0.6924   0.6861   0.6808   0.6759   0.6717
     0.6525   0.6471   0.6437   0.6246   0.4540   0.4069   0.3671   0.3317
     0.3202   0.2187   0.1726   0.0733   0.0398   0.0189   0.0067   0.0031
     0.0003   0.0002   0.0001   0.0001   0.0001   0.0000   0.0000   0.0000
     0.0000   0.0000   0.0000   0.0000   0.0000   0.0000   0.0000   0.0000
     0.0000   0.0000   0.0000   0.0000   0.0000   0.0000   0.0000   0.0000
     0.0000   0.0000   0.0000

          k =-0.5000 0.2500 0.0000 ( 65138 PWs)   bands (ev):

   -92.7084 -92.6617 -92.5635 -92.5150 -92.4589 -92.4150 -92.3976 -92.2769
   -56.0618 -56.0483 -55.9203 -55.9092 -55.9028 -55.8959 -55.8644 -55.8323
   -55.8162 -55.8146 -55.8116 -55.7659 -55.7456 -55.7097 -55.6905 -55.6590
   -55.6504 -55.6033 -55.6033 -55.6002 -55.5918 -55.5522 -55.5279 -55.4422
   -31.2810 -31.2694 -31.1236 -31.0382 -30.9916 -30.9801 -30.8143 -30.7686
   -29.8525 -29.8134 -29.7864 -29.6794 -14.9886 -14.9408 -14.8640 -14.7619
   -14.7232 -14.5980 -14.5079 -14.3745 -14.0716 -14.0400 -14.0280 -13.9848
   -13.9653 -13.9566 -13.9382 -13.9006 -13.8815 -13.8681 -13.8294 -13.8136
   -13.7089 -13.6447 -13.5954 -13.5877 -13.5459 -13.4763 -13.4606 -13.3509
   -13.3033 -13.2073 -13.1711 -13.0740 -13.0336 -13.0228 -12.9939 -12.9637
   -12.9570 -12.9454 -12.8811 -12.8635 -12.7891 -12.7406 -12.7315 -12.6855
   -12.6775 -12.6294 -12.6216 -12.5464 -12.4003 -12.3289 -12.2702 -12.1785
   -12.1512 -11.7783 -11.7655 -11.7513 -11.7393 -11.7179 -11.6877 -11.6074
   -11.5991 -11.5755 -11.5400 -11.5120 -11.5031  -2.4449  -2.4035  -2.2562
    -2.2141  -2.0521  -1.9736  -1.8352  -1.6988  -1.6403  -1.6140  -1.5759
    -1.5386  -1.4574  -1.3418  -1.2847  -1.2618  -1.2344  -1.1594  -1.1308
    -1.1037  -1.0903  -1.0744  -1.0137  -0.9796  -0.9443  -0.9104  -0.8815
    -0.8224  -0.7953  -0.7544  -0.7171  -0.6110  -0.5889  -0.4842  -0.4398
    -0.4007  -0.3317  -0.2663  -0.2330  -0.1275  -0.0941  -0.0297   0.0145
     0.0790   0.1146   0.1433   0.1751   0.2254   0.2647   0.6056   0.6453
     0.6977   0.7184   1.0097   1.0766   1.1464   1.1772   1.3481   1.3813
     1.4196   1.4309   1.4486   1.4659   1.5362   1.5842   1.6218   1.6621
     1.7683   1.8160   1.8404   1.8504   1.8826   1.9144   1.9317   1.9435
     1.9595   1.9848   2.0270   2.0454   2.0799   2.1059   2.1380   2.1930
     2.3181   2.4090   2.4305   2.4475   2.4571   2.5081   2.5468   2.6098
     2.6480   2.6536   2.6959   2.7250   2.7492   2.8288   2.8732   2.8871
     2.8929   2.9148   2.9339   2.9461   2.9620   2.9746   2.9995   3.0118
     3.0207   3.0304   3.0368   3.0491   3.5807   3.6154   3.7688   3.7875
     4.0690   4.1414   4.1985   4.3936   4.7792   4.8768   5.0433   5.0764
     5.4096   5.4272   5.5871   5.6304   5.7399   5.8107   6.3903   6.4879
     6.5184   6.6266   7.3657   7.4190   7.5770   7.7091   7.7491   7.7924
     7.8860   8.0212   8.3226   8.4495   8.4984   8.5254   8.5743   8.5935
     8.6654   8.7028   8.7546

     occupation numbers 
     1.0000   1.0000   1.0000   1.0000   1.0000   1.0000   1.0000   1.0000
     1.0000   1.0000   1.0000   1.0000   1.0000   1.0000   1.0000   1.0000
     1.0000   1.0000   1.0000   1.0000   1.0000   1.0000   1.0000   1.0000
     1.0000   1.0000   1.0000   1.0000   1.0000   1.0000   1.0000   1.0000
     1.0000   1.0000   1.0000   1.0000   1.0000   1.0000   1.0000   1.0000
     1.0000   1.0000   1.0000   1.0000   1.0000   1.0000   1.0000   1.0000
     1.0000   1.0000   1.0000   1.0000   1.0000   1.0000   1.0000   1.0000
     1.0000   1.0000   1.0000   1.0000   1.0000   1.0000   1.0000   1.0000
     1.0000   1.0000   1.0000   1.0000   1.0000   1.0000   1.0000   1.0000
     1.0000   1.0000   1.0000   1.0000   1.0000   1.0000   1.0000   1.0000
     1.0000   1.0000   1.0000   1.0000   1.0000   1.0000   1.0000   1.0000
     1.0000   1.0000   1.0000   1.0000   1.0000   1.0000   1.0000   1.0000
     1.0000   1.0000   1.0000   1.0000   1.0000   1.0000   1.0000   1.0000
     1.0000   1.0000   1.0000   1.0000   1.0000   1.0000   1.0000   1.0000
     1.0000   1.0000   1.0000   1.0000   1.0000   1.0000   1.0000   1.0000
     1.0000   1.0000   1.0000   1.0000   1.0000   1.0000   1.0000   1.0000
     1.0000   1.0000   1.0000   1.0000   1.0000   1.0000   1.0000   1.0000
     1.0000   1.0000   1.0000   1.0000   1.0000   1.0000   1.0000   1.0000
     1.0000   1.0000   1.0000   1.0000   1.0000   1.0000   1.0000   1.0000
     1.0000   1.0000   1.0000   1.0000   1.0000   1.0000   1.0000   1.0000
     1.0000   0.9999   0.9997   0.9996   0.9994   0.9993   0.9983   0.9980
     0.9976   0.9975   0.9973   0.9970   0.9959   0.9950   0.9941   0.9931
     0.9894   0.9872   0.9859   0.9854   0.9835   0.9815   0.9803   0.9795
     0.9783   0.9762   0.9725   0.9707   0.9671   0.9642   0.9603   0.9528
     0.9314   0.9117   0.9065   0.9022   0.8997   0.8858   0.8743   0.8539
     0.8405   0.8385   0.8226   0.8112   0.8013   0.7667   0.7461   0.7394
     0.7366   0.7259   0.7163   0.7102   0.7020   0.6955   0.6825   0.6759
     0.6711   0.6659   0.6625   0.6558   0.3489   0.3300   0.2521   0.2434
     0.1328   0.1110   0.0958   0.0553   0.0151   0.0104   0.0052   0.0045
     0.0010   0.0009   0.0004   0.0003   0.0002   0.0001   0.0000   0.0000
     0.0000   0.0000   0.0000   0.0000   0.0000   0.0000   0.0000   0.0000
     0.0000   0.0000   0.0000   0.0000   0.0000   0.0000   0.0000   0.0000
     0.0000   0.0000   0.0000

     the Fermi energy is     3.3191 ev

!    total energy              =   -4441.66144644 Ry
     estimated scf accuracy    <          3.6E-09 Ry
     smearing contrib. (-TS)   =      -1.15489032 Ry
     internal energy E=F+TS    =   -4440.50655612 Ry

     The total energy is F=E-TS. E is the sum of the following terms:
     one-electron contribution =  -20802.72808440 Ry
     hartree contribution      =   10533.23206172 Ry
     xc contribution           =    -694.18075981 Ry
     ewald contribution        =    6799.34037724 Ry
     one-center paw contrib.   =    -276.17015087 Ry
      -> PAW hartree energy AE =      25.16089527 Ry
      -> PAW hartree energy PS =     -25.04480303 Ry
      -> PAW xc energy AE      =     -16.51724589 Ry
      -> PAW xc energy PS      =       6.87668299 Ry
      -> total E_H with PAW    =   10533.34815395 Ry
      -> total E_XC with PAW   =    -703.82132270 Ry

     convergence has been achieved in  46 iterations

     Writing all to output data dir /bsuhome/zayahcortright/scratch/pwscf.save/
 
     init_run     :      7.94s CPU      8.49s WALL (       1 calls)
     electrons    :    742.33s CPU    820.17s WALL (       1 calls)

     Called by init_run:
     wfcinit      :      6.20s CPU      6.39s WALL (       1 calls)
     wfcinit:atom :      0.04s CPU      0.06s WALL (       5 calls)
     wfcinit:wfcr :      5.89s CPU      6.01s WALL (       5 calls)
     potinit      :      0.18s CPU      0.21s WALL (       1 calls)
     hinit0       :      0.64s CPU      0.75s WALL (       1 calls)

     Called by electrons:
     c_bands      :    599.94s CPU    611.88s WALL (      46 calls)
     sum_band     :    105.35s CPU    142.26s WALL (      46 calls)
     v_of_rho     :      5.00s CPU      5.37s WALL (      47 calls)
     v_h          :      0.43s CPU      0.44s WALL (      47 calls)
     v_xc         :      4.57s CPU      4.94s WALL (      47 calls)
     newd         :     18.20s CPU     46.45s WALL (      47 calls)
     PAW_pot      :      1.52s CPU      1.54s WALL (      47 calls)
     mix_rho      :     12.05s CPU     12.42s WALL (      46 calls)

     Called by c_bands:
     init_us_2    :      6.41s CPU      6.50s WALL (     465 calls)
     init_us_2:cp :      6.40s CPU      6.50s WALL (     465 calls)
     cegterg      :    566.88s CPU    578.47s WALL (     230 calls)

     Called by sum_band:
     sum_band:wei :      0.33s CPU      0.33s WALL (      46 calls)
     sum_band:loo :     85.30s CPU     85.97s WALL (      46 calls)
     sum_band:buf :      1.22s CPU      1.30s WALL (     230 calls)
     sum_band:ini :      2.96s CPU      2.97s WALL (     230 calls)
     sum_band:cal :     18.37s CPU     18.45s WALL (     230 calls)
     sum_band:bec :      0.54s CPU      0.54s WALL (     230 calls)
     addusdens    :     17.58s CPU     53.75s WALL (      46 calls)
                                        0.00s GPU  (      46 calls)
     addusd:skk   :      0.29s CPU      1.98s WALL (     184 calls)
                                        0.00s GPU  (     184 calls)

     Called by *egterg:
     cdiaghg      :     59.77s CPU     60.03s WALL (    1321 calls)
     cegterg:over :     45.95s CPU     46.13s WALL (    1091 calls)
     cegterg:upda :     47.30s CPU     48.38s WALL (    1091 calls)
     cegterg:last :     67.10s CPU     67.37s WALL (     419 calls)
     cdiaghg:chol :      3.35s CPU      3.37s WALL (    1321 calls)
     cdiaghg:inve :      3.65s CPU      3.67s WALL (    1321 calls)
     cdiaghg:para :      7.58s CPU      7.63s WALL (    2642 calls)
     h_psi        :    283.87s CPU    288.48s WALL (    1326 calls)
     s_psi        :     37.82s CPU     37.94s WALL (    1326 calls)
     g_psi        :      2.46s CPU      2.47s WALL (    1091 calls)

     Called by h_psi:
     h_psi:calbec :     43.33s CPU     43.54s WALL (    1326 calls)
     vloc_psi     :    197.43s CPU    199.32s WALL (    1326 calls)
     add_vuspsi   :     37.41s CPU     37.63s WALL (    1326 calls)

     General routines
     calbec       :     61.69s CPU     61.98s WALL (    1556 calls)
     fft          :      4.30s CPU      4.35s WALL (     609 calls)
     ffts         :      4.52s CPU      4.58s WALL (    4880 calls)
     fftw         :    181.83s CPU    183.34s WALL (  312454 calls)
     interpolate  :      0.38s CPU      0.39s WALL (      47 calls)
 
     Parallel routines

     PAW routines
     PAW_pot      :      1.52s CPU      1.54s WALL (      47 calls)
 
     PWSCF        :  12m32.31s CPU  13m53.35s WALL

 
   This run was terminated on:   4:59: 9  22Jun2024            

=------------------------------------------------------------------------------=
   JOB DONE.
=------------------------------------------------------------------------------=
