
     Program PWSCF v.7.2 starts on 21Jun2024 at 18: 7:45 

     This program is part of the open-source Quantum ESPRESSO suite
     for quantum simulation of materials; please cite
         "P. Giannozzi et al., J. Phys.:Condens. Matter 21 395502 (2009);
         "P. Giannozzi et al., J. Phys.:Condens. Matter 29 465901 (2017);
         "P. Giannozzi et al., J. Chem. Phys. 152 154105 (2020);
          URL http://www.quantum-espresso.org", 
     in publications or presentations arising from this work. More details at
     http://www.quantum-espresso.org/quote

     Parallel version (MPI & OpenMP), running on      48 processor cores
     Number of MPI processes:                48
     Threads/MPI process:                     1

     MPI processes distributed on     1 nodes
     33226 MiB available memory on the printing compute node when the environment starts
 
     Reading input from espresso.pwi
Warning: card &CELL ignored
Warning: card / ignored
Warning: card &FCP ignored
Warning: card / ignored
Warning: card &RISM ignored
Warning: card / ignored

     Current dimensions of program PWSCF are:
     Max number of different atomic species (ntypx) = 10
     Max number of k-points (npk) =  40000
     Max angular momentum in pseudopotentials (lmaxx) =  4
     file O.pbe-n-kjpaw_psl.0.1.UPF: wavefunction(s)  2P renormalized
     signal trapping enabled: kill the code with -SIGUSR1 to stop cleanly the simulation 
 
     K-points division:     npool     =       2
     R & G space division:  proc/nbgrp/npool/nimage =      24
     Subspace diagonalization in iterative solution of the eigenvalue problem:
     one sub-group per band group will be used
     scalapack distributed-memory algorithm (size of sub-group:  3*  3 procs)

 
     Parallelization info
     --------------------
     sticks:   dense  smooth     PW     G-vecs:    dense   smooth      PW
     Min         350     175     47                61430    21716    3036
     Max         351     177     48                61449    21727    3041
     Sum        8421    4205   1137              1474595   521381   72913
 
     Using Slab Decomposition
 


     bravais-lattice index     =            0
     lattice parameter (alat)  =      14.8599  a.u.
     unit-cell volume          =    8305.1283 (a.u.)^3
     number of atoms/cell      =           50
     number of atomic types    =            4
     number of electrons       =       431.00
     number of Kohn-Sham states=          259
     kinetic-energy cutoff     =      60.0000  Ry
     charge density cutoff     =     480.0000  Ry
     scf convergence threshold =      1.0E-08
     mixing beta               =       0.1500
     number of iterations used =            8  local-TF  mixing
     Exchange-correlation= PBE
                           (   1   4   3   4   0   0   0)

     celldm(1)=  14.859904  celldm(2)=   0.000000  celldm(3)=   0.000000
     celldm(4)=   0.000000  celldm(5)=   0.000000  celldm(6)=   0.000000

     crystal axes: (cart. coord. in units of alat)
               a(1) = (   1.000000   0.000000   0.000000 )  
               a(2) = (   0.000000   1.000000   0.000000 )  
               a(3) = (   0.000000   0.000000   2.531036 )  

     reciprocal axes: (cart. coord. in units 2 pi/alat)
               b(1) = (  1.000000  0.000000  0.000000 )  
               b(2) = (  0.000000  1.000000  0.000000 )  
               b(3) = (  0.000000  0.000000  0.395095 )  


     PseudoPot. # 1 for Sr read from file:
     /bsuhome/zayahcortright/q-e/pseudo/Sr_pbe_v1.uspp.F.UPF
     MD5 check sum: 6b418c05fbe9db5448babca5e47b7a5b
     Pseudo is Ultrasoft + core correction, Zval = 10.0
     Generated by new atomic code, or converted to UPF format
     Using radial grid of  883 points,  6 beta functions with: 
                l(1) =   0
                l(2) =   0
                l(3) =   1
                l(4) =   1
                l(5) =   2
                l(6) =   2
     Q(r) pseudized with  6 coefficients,  rinner =    1.400   1.400   1.400
                                                       1.400   1.400

     PseudoPot. # 2 for O  read from file:
     /bsuhome/zayahcortright/q-e/pseudo/O.pbe-n-kjpaw_psl.0.1.UPF
     MD5 check sum: 0234752ac141de4415c5fc33072bef88
     Pseudo is Projector augmented-wave + core cor, Zval =  6.0
     Generated using "atomic" code by A. Dal Corso  v.5.0.99 svn rev. 10869
     Shape of augmentation charge: BESSEL
     Using radial grid of 1095 points,  4 beta functions with: 
                l(1) =   0
                l(2) =   0
                l(3) =   1
                l(4) =   1
     Q(r) pseudized with 0 coefficients 


     PseudoPot. # 3 for Co read from file:
     /bsuhome/zayahcortright/q-e/pseudo/Co_pbe_v1.2.uspp.F.UPF
     MD5 check sum: 5f91765df6ddd3222702df6e7b74a16d
     Pseudo is Ultrasoft + core correction, Zval = 17.0
     Generated by new atomic code, or converted to UPF format
     Using radial grid of  863 points,  6 beta functions with: 
                l(1) =   0
                l(2) =   0
                l(3) =   1
                l(4) =   1
                l(5) =   2
                l(6) =   2
     Q(r) pseudized with  8 coefficients,  rinner =    1.200   1.200   1.200
                                                       1.200   1.200

     PseudoPot. # 4 for H  read from file:
     /bsuhome/zayahcortright/q-e/pseudo/H.pbe-rrkjus_psl.1.0.0.UPF
     MD5 check sum: f52b6d4d1c606e5624b1dc7b2218f220
     Pseudo is Ultrasoft, Zval =  1.0
     Generated using "atomic" code by A. Dal Corso  v.5.1
     Using radial grid of  929 points,  2 beta functions with: 
                l(1) =   0
                l(2) =   0
     Q(r) pseudized with 0 coefficients 


     atomic species   valence    mass     pseudopotential
        Sr            10.00    87.62000     Sr( 1.00)
        O              6.00    15.99900     O ( 1.00)
        Co            17.00    58.93319     Co( 1.00)
        H              1.00     1.00800     H ( 1.00)

     No symmetry found


                                    s                        frac. trans.

      isym =  1     identity                                     

 cryst.   s( 1) = (     1          0          0      )
                  (     0          1          0      )
                  (     0          0          1      )

 cart.    s( 1) = (  1.0000000  0.0000000  0.0000000 )
                  (  0.0000000  1.0000000  0.0000000 )
                  (  0.0000000  0.0000000  1.0000000 )


   Cartesian axes

     site n.     atom                  positions (alat units)
         1           Sr  tau(   1) = (   0.2508693   0.7491307   1.7574407  )
         2           O   tau(   2) = (   0.4985141   0.5014859   1.7715967  )
         3           Sr  tau(   3) = (   0.7482398   0.7454518   1.7648669  )
         4           Sr  tau(   4) = (   0.7441748   0.2558252   1.7667843  )
         5           Sr  tau(   5) = (   0.2508693   0.7491307   1.2696799  )
         6           Sr  tau(   6) = (   0.2508693   0.7491307   0.7632319  )
         7           Co  tau(   7) = (   0.4998914   0.5001086   1.0164559  )
         8           Co  tau(   8) = (   0.4936915   0.5063085   1.5135603  )
         9           O   tau(   9) = (   0.4988895   0.7610401   1.0164559  )
        10           O   tau(  10) = (   0.2389599   0.5011105   1.0164559  )
        11           O   tau(  11) = (   0.0070918   0.7374880   1.0164559  )
        12           O   tau(  12) = (   0.0088340   0.7405089   1.5135603  )
        13           O   tau(  13) = (   0.5066944   0.7415376   1.5135603  )
        14           O   tau(  14) = (   0.2584624   0.4933056   1.5135603  )
        15           O   tau(  15) = (   0.4985141   0.5014859   0.7773880  )
        16           O   tau(  16) = (   0.4985141   0.5014859   1.2555238  )
        17           Sr  tau(  17) = (   0.7482398   0.7454518   0.7706582  )
        18           Sr  tau(  18) = (   0.7482398   0.7454518   1.2622536  )
        19           Sr  tau(  19) = (   0.7441748   0.2558252   0.7725755  )
        20           Sr  tau(  20) = (   0.7441748   0.2558252   1.2603363  )
        21           O   tau(  21) = (   0.7322655   0.0078049   1.5135603  )
        22           O   tau(  22) = (   0.7558175   0.4996027   1.5135603  )
        23           O   tau(  23) = (   0.5003973   0.2441825   1.5135603  )
        24           O   tau(  24) = (   0.7527966   0.4978604   1.0164559  )
        25           O   tau(  25) = (   0.5021396   0.2472034   1.0164559  )
        26           O   tau(  26) = (   0.7517679   0.0000000   1.0164559  )
        27           O   tau(  27) = (   0.0114961   0.4948124   1.7455321  )
        28           O   tau(  28) = (   0.0048226   0.0077944   1.7715967  )
        29           Sr  tau(  29) = (   0.2545482   0.2517602   1.7648669  )
        30           O   tau(  30) = (   0.5048017   0.0015068   1.7786929  )
        31           Co  tau(  31) = (   0.0056869   0.5006215   1.0164559  )
        32           Co  tau(  32) = (   0.0065315   0.4997770   1.5135603  )
        33           Co  tau(  33) = (   0.0061999   0.0064171   1.0164559  )
        34           Co  tau(  34) = (   0.0000000   0.0126169   1.5135603  )
        35           O   tau(  35) = (   0.0114961   0.4948124   1.2815885  )
        36           O   tau(  36) = (   0.0114961   0.4948124   0.7513233  )
        37           O   tau(  37) = (   0.0051979   0.2673486   1.0164559  )
        38           O   tau(  38) = (   0.0130029   0.2478461   1.5135603  )
        39           O   tau(  39) = (   0.0048226   0.0077944   0.7773880  )
        40           O   tau(  40) = (   0.0048226   0.0077944   1.2555238  )
        41           Sr  tau(  41) = (   0.2545482   0.2517602   0.7706582  )
        42           Sr  tau(  42) = (   0.2545482   0.2517602   1.2622536  )
        43           Co  tau(  43) = (   0.4989925   0.0073160   1.5135603  )
        44           Co  tau(  44) = (   0.4998370   0.0064714   1.0164559  )
        45           O   tau(  45) = (   0.5048017   0.0015068   0.7844841  )
        46           O   tau(  46) = (   0.5048017   0.0015068   1.2484277  )
        47           O   tau(  47) = (   0.2621260   0.0059111   1.5135603  )
        48           O   tau(  48) = (   0.2591051   0.0041689   1.0164559  )
        49           O   tau(  49) = (   0.2843291   0.0000000   2.1602013  )
        50           H   tau(  50) = (   0.2843291   0.0000000   2.2847091  )

   Crystallographic axes

     site n.     atom                  positions (cryst. coord.)
         1           Sr  tau(   1) = (  0.2508693  0.7491307  0.6943562  )
         2           O   tau(   2) = (  0.4985141  0.5014859  0.6999492  )
         3           Sr  tau(   3) = (  0.7482398  0.7454518  0.6972903  )
         4           Sr  tau(   4) = (  0.7441748  0.2558252  0.6980478  )
         5           Sr  tau(   5) = (  0.2508693  0.7491307  0.5016443  )
         6           Sr  tau(   6) = (  0.2508693  0.7491307  0.3015492  )
         7           Co  tau(   7) = (  0.4998914  0.5001086  0.4015968  )
         8           Co  tau(   8) = (  0.4936915  0.5063085  0.5980003  )
         9           O   tau(   9) = (  0.4988895  0.7610401  0.4015968  )
        10           O   tau(  10) = (  0.2389599  0.5011105  0.4015968  )
        11           O   tau(  11) = (  0.0070918  0.7374880  0.4015968  )
        12           O   tau(  12) = (  0.0088340  0.7405089  0.5980003  )
        13           O   tau(  13) = (  0.5066944  0.7415376  0.5980003  )
        14           O   tau(  14) = (  0.2584624  0.4933056  0.5980003  )
        15           O   tau(  15) = (  0.4985141  0.5014859  0.3071422  )
        16           O   tau(  16) = (  0.4985141  0.5014859  0.4960513  )
        17           Sr  tau(  17) = (  0.7482398  0.7454518  0.3044833  )
        18           Sr  tau(  18) = (  0.7482398  0.7454518  0.4987103  )
        19           Sr  tau(  19) = (  0.7441748  0.2558252  0.3052408  )
        20           Sr  tau(  20) = (  0.7441748  0.2558252  0.4979527  )
        21           O   tau(  21) = (  0.7322655  0.0078049  0.5980003  )
        22           O   tau(  22) = (  0.7558175  0.4996027  0.5980003  )
        23           O   tau(  23) = (  0.5003973  0.2441825  0.5980003  )
        24           O   tau(  24) = (  0.7527966  0.4978604  0.4015968  )
        25           O   tau(  25) = (  0.5021396  0.2472034  0.4015968  )
        26           O   tau(  26) = (  0.7517679  0.0000000  0.4015968  )
        27           O   tau(  27) = (  0.0114961  0.4948124  0.6896512  )
        28           O   tau(  28) = (  0.0048226  0.0077944  0.6999492  )
        29           Sr  tau(  29) = (  0.2545482  0.2517602  0.6972903  )
        30           O   tau(  30) = (  0.5048017  0.0015068  0.7027529  )
        31           Co  tau(  31) = (  0.0056869  0.5006215  0.4015968  )
        32           Co  tau(  32) = (  0.0065315  0.4997770  0.5980003  )
        33           Co  tau(  33) = (  0.0061999  0.0064171  0.4015968  )
        34           Co  tau(  34) = (  0.0000000  0.0126169  0.5980003  )
        35           O   tau(  35) = (  0.0114961  0.4948124  0.5063494  )
        36           O   tau(  36) = (  0.0114961  0.4948124  0.2968442  )
        37           O   tau(  37) = (  0.0051979  0.2673486  0.4015968  )
        38           O   tau(  38) = (  0.0130029  0.2478461  0.5980003  )
        39           O   tau(  39) = (  0.0048226  0.0077944  0.3071422  )
        40           O   tau(  40) = (  0.0048226  0.0077944  0.4960513  )
        41           Sr  tau(  41) = (  0.2545482  0.2517602  0.3044833  )
        42           Sr  tau(  42) = (  0.2545482  0.2517602  0.4987103  )
        43           Co  tau(  43) = (  0.4989925  0.0073160  0.5980003  )
        44           Co  tau(  44) = (  0.4998370  0.0064714  0.4015968  )
        45           O   tau(  45) = (  0.5048017  0.0015068  0.3099459  )
        46           O   tau(  46) = (  0.5048017  0.0015068  0.4932477  )
        47           O   tau(  47) = (  0.2621260  0.0059111  0.5980003  )
        48           O   tau(  48) = (  0.2591051  0.0041689  0.4015968  )
        49           O   tau(  49) = (  0.2843291  0.0000000  0.8534850  )
        50           H   tau(  50) = (  0.2843291  0.0000000  0.9026774  )

     number of k points=    10  Gaussian smearing, width (Ry)=  0.0700
                       cart. coord. in units 2pi/alat
        k(    1) = (   0.0000000   0.0000000   0.0000000), wk =   0.1250000
        k(    2) = (   0.0000000   0.2500000   0.0000000), wk =   0.2500000
        k(    3) = (   0.0000000  -0.5000000   0.0000000), wk =   0.1250000
        k(    4) = (   0.2500000   0.2500000   0.0000000), wk =   0.2500000
        k(    5) = (   0.2500000  -0.5000000   0.0000000), wk =   0.2500000
        k(    6) = (  -0.5000000  -0.5000000   0.0000000), wk =   0.1250000
        k(    7) = (   0.2500000   0.0000000   0.0000000), wk =   0.2500000
        k(    8) = (  -0.5000000   0.0000000   0.0000000), wk =   0.1250000
        k(    9) = (  -0.2500000   0.2500000   0.0000000), wk =   0.2500000
        k(   10) = (  -0.5000000   0.2500000   0.0000000), wk =   0.2500000

                       cryst. coord.
        k(    1) = (   0.0000000   0.0000000   0.0000000), wk =   0.1250000
        k(    2) = (   0.0000000   0.2500000   0.0000000), wk =   0.2500000
        k(    3) = (   0.0000000  -0.5000000   0.0000000), wk =   0.1250000
        k(    4) = (   0.2500000   0.2500000   0.0000000), wk =   0.2500000
        k(    5) = (   0.2500000  -0.5000000   0.0000000), wk =   0.2500000
        k(    6) = (  -0.5000000  -0.5000000   0.0000000), wk =   0.1250000
        k(    7) = (   0.2500000   0.0000000   0.0000000), wk =   0.2500000
        k(    8) = (  -0.5000000   0.0000000   0.0000000), wk =   0.1250000
        k(    9) = (  -0.2500000   0.2500000   0.0000000), wk =   0.2500000
        k(   10) = (  -0.5000000   0.2500000   0.0000000), wk =   0.2500000

     Dense  grid:  1474595 G-vectors     FFT dimensions: ( 108, 108, 270)

     Smooth grid:   521381 G-vectors     FFT dimensions: (  75,  75, 192)

     Dynamical RAM for                 wfc:      10.73 MB

     Dynamical RAM for     wfc (w. buffer):      64.38 MB

     Dynamical RAM for           str. fact:       3.75 MB

     Dynamical RAM for           local pot:       0.00 MB

     Dynamical RAM for          nlocal pot:      24.61 MB

     Dynamical RAM for                qrad:       7.03 MB

     Dynamical RAM for          rho,v,vnew:       6.02 MB

     Dynamical RAM for               rhoin:       2.01 MB

     Dynamical RAM for            rho*nmix:      15.00 MB

     Dynamical RAM for           G-vectors:       3.68 MB

     Dynamical RAM for          h,s,v(r/c):       1.35 MB

     Dynamical RAM for          <psi|beta>:       2.35 MB

     Dynamical RAM for                 psi:      21.46 MB

     Dynamical RAM for                hpsi:      21.46 MB

     Dynamical RAM for                spsi:      21.46 MB

     Dynamical RAM for      wfcinit/wfcrot:      34.49 MB

     Dynamical RAM for           addusdens:     101.26 MB

     Estimated static dynamical RAM per process >     121.50 MB

     Estimated max dynamical RAM per process >     237.76 MB

     Estimated total dynamical RAM >      10.79 GB

     Check: negative core charge=   -0.000004

     Initial potential from superposition of free atoms

     starting charge     422.5961, renormalised to     431.0000

     negative rho (up, down):  7.820E-01 0.000E+00
     Starting wfcs are  377 randomized atomic wfcs
     Checking if some PAW data can be deallocated... 
       PAW data deallocated on   19 nodes for type:  2

     total cpu time spent up to now is        9.1 secs

     Self-consistent Calculation

     iteration #  1     ecut=    60.00 Ry     beta= 0.15
     Davidson diagonalization with overlap

---- Real-time Memory Report at c_bands before calling an iterative solver
             0 MiB given to the printing process from OS
             0 MiB allocation reported by mallinfo(arena+hblkhd)
         24010 MiB available memory on the node where the printing process lives
------------------
     ethr =  1.00E-02,  avg # of iterations =  2.0

     negative rho (up, down):  7.716E-01 0.000E+00

     total cpu time spent up to now is       25.8 secs

     total energy              =   -4446.63593207 Ry
     estimated scf accuracy    <      44.74823403 Ry

     iteration #  2     ecut=    60.00 Ry     beta= 0.15
     Davidson diagonalization with overlap

---- Real-time Memory Report at c_bands before calling an iterative solver
             0 MiB given to the printing process from OS
             0 MiB allocation reported by mallinfo(arena+hblkhd)
         24265 MiB available memory on the node where the printing process lives
------------------
     ethr =  1.00E-02,  avg # of iterations =  1.0

     negative rho (up, down):  7.581E-01 0.000E+00

     total cpu time spent up to now is       40.2 secs

     total energy              =   -4443.26993427 Ry
     estimated scf accuracy    <      29.70521243 Ry

     iteration #  3     ecut=    60.00 Ry     beta= 0.15
     Davidson diagonalization with overlap

---- Real-time Memory Report at c_bands before calling an iterative solver
             0 MiB given to the printing process from OS
             0 MiB allocation reported by mallinfo(arena+hblkhd)
         23424 MiB available memory on the node where the printing process lives
------------------
     ethr =  6.89E-03,  avg # of iterations =  1.0

     negative rho (up, down):  7.554E-01 0.000E+00

     total cpu time spent up to now is       54.7 secs

     total energy              =   -4444.26688766 Ry
     estimated scf accuracy    <      28.85117078 Ry

     iteration #  4     ecut=    60.00 Ry     beta= 0.15
     Davidson diagonalization with overlap

---- Real-time Memory Report at c_bands before calling an iterative solver
             0 MiB given to the printing process from OS
             0 MiB allocation reported by mallinfo(arena+hblkhd)
         23400 MiB available memory on the node where the printing process lives
------------------
     ethr =  6.69E-03,  avg # of iterations =  1.0

     negative rho (up, down):  7.494E-01 0.000E+00

     total cpu time spent up to now is       69.4 secs

     total energy              =   -4443.07634806 Ry
     estimated scf accuracy    <      20.81642040 Ry

     iteration #  5     ecut=    60.00 Ry     beta= 0.15
     Davidson diagonalization with overlap

---- Real-time Memory Report at c_bands before calling an iterative solver
             0 MiB given to the printing process from OS
             0 MiB allocation reported by mallinfo(arena+hblkhd)
         23386 MiB available memory on the node where the printing process lives
------------------
     ethr =  4.83E-03,  avg # of iterations =  1.0

     negative rho (up, down):  7.405E-01 0.000E+00

     total cpu time spent up to now is       84.0 secs

     total energy              =   -4442.56805533 Ry
     estimated scf accuracy    <      10.41330902 Ry

     iteration #  6     ecut=    60.00 Ry     beta= 0.15
     Davidson diagonalization with overlap

---- Real-time Memory Report at c_bands before calling an iterative solver
             0 MiB given to the printing process from OS
             0 MiB allocation reported by mallinfo(arena+hblkhd)
         23363 MiB available memory on the node where the printing process lives
------------------
     ethr =  2.42E-03,  avg # of iterations =  1.1

     negative rho (up, down):  7.429E-01 0.000E+00

     total cpu time spent up to now is       98.7 secs

     total energy              =   -4442.81327208 Ry
     estimated scf accuracy    <       4.92306245 Ry

     iteration #  7     ecut=    60.00 Ry     beta= 0.15
     Davidson diagonalization with overlap

---- Real-time Memory Report at c_bands before calling an iterative solver
             0 MiB given to the printing process from OS
             0 MiB allocation reported by mallinfo(arena+hblkhd)
         23345 MiB available memory on the node where the printing process lives
------------------
     ethr =  1.14E-03,  avg # of iterations =  1.7

     negative rho (up, down):  7.649E-01 0.000E+00

     total cpu time spent up to now is      113.8 secs

     total energy              =   -4441.64603492 Ry
     estimated scf accuracy    <       3.95523033 Ry

     iteration #  8     ecut=    60.00 Ry     beta= 0.15
     Davidson diagonalization with overlap

---- Real-time Memory Report at c_bands before calling an iterative solver
             0 MiB given to the printing process from OS
             0 MiB allocation reported by mallinfo(arena+hblkhd)
         23326 MiB available memory on the node where the printing process lives
------------------
     ethr =  9.18E-04,  avg # of iterations =  5.7

     negative rho (up, down):  7.721E-01 0.000E+00

     total cpu time spent up to now is      133.7 secs

     total energy              =   -4441.51223581 Ry
     estimated scf accuracy    <      14.92754311 Ry

     iteration #  9     ecut=    60.00 Ry     beta= 0.15
     Davidson diagonalization with overlap

---- Real-time Memory Report at c_bands before calling an iterative solver
             0 MiB given to the printing process from OS
             0 MiB allocation reported by mallinfo(arena+hblkhd)
         23157 MiB available memory on the node where the printing process lives
------------------
     ethr =  9.18E-04,  avg # of iterations =  9.9

     negative rho (up, down):  7.703E-01 0.000E+00

     total cpu time spent up to now is      155.4 secs

     total energy              =   -4441.78400313 Ry
     estimated scf accuracy    <       2.40137780 Ry

     iteration # 10     ecut=    60.00 Ry     beta= 0.15
     Davidson diagonalization with overlap

---- Real-time Memory Report at c_bands before calling an iterative solver
             0 MiB given to the printing process from OS
             0 MiB allocation reported by mallinfo(arena+hblkhd)
         22834 MiB available memory on the node where the printing process lives
------------------
     ethr =  5.57E-04,  avg # of iterations =  1.7

     negative rho (up, down):  7.783E-01 0.000E+00

     total cpu time spent up to now is      171.3 secs

     total energy              =   -4441.92291460 Ry
     estimated scf accuracy    <       1.16011337 Ry

     iteration # 11     ecut=    60.00 Ry     beta= 0.15
     Davidson diagonalization with overlap

---- Real-time Memory Report at c_bands before calling an iterative solver
             0 MiB given to the printing process from OS
             0 MiB allocation reported by mallinfo(arena+hblkhd)
         22826 MiB available memory on the node where the printing process lives
------------------
     ethr =  2.69E-04,  avg # of iterations =  3.6

     negative rho (up, down):  8.095E-01 0.000E+00

     total cpu time spent up to now is      189.4 secs

     total energy              =   -4441.70835489 Ry
     estimated scf accuracy    <       1.41632783 Ry

     iteration # 12     ecut=    60.00 Ry     beta= 0.15
     Davidson diagonalization with overlap

---- Real-time Memory Report at c_bands before calling an iterative solver
             0 MiB given to the printing process from OS
             0 MiB allocation reported by mallinfo(arena+hblkhd)
         22811 MiB available memory on the node where the printing process lives
------------------
     ethr =  2.69E-04,  avg # of iterations =  7.2

     negative rho (up, down):  8.147E-01 0.000E+00

     total cpu time spent up to now is      208.5 secs

     total energy              =   -4441.84413405 Ry
     estimated scf accuracy    <       1.04386215 Ry

     iteration # 13     ecut=    60.00 Ry     beta= 0.15
     Davidson diagonalization with overlap

---- Real-time Memory Report at c_bands before calling an iterative solver
             0 MiB given to the printing process from OS
             0 MiB allocation reported by mallinfo(arena+hblkhd)
         22783 MiB available memory on the node where the printing process lives
------------------
     ethr =  2.42E-04,  avg # of iterations =  2.5

     negative rho (up, down):  8.180E-01 0.000E+00

     total cpu time spent up to now is      224.8 secs

     total energy              =   -4441.78878162 Ry
     estimated scf accuracy    <       0.65086932 Ry

     iteration # 14     ecut=    60.00 Ry     beta= 0.15
     Davidson diagonalization with overlap

---- Real-time Memory Report at c_bands before calling an iterative solver
             0 MiB given to the printing process from OS
             0 MiB allocation reported by mallinfo(arena+hblkhd)
         22786 MiB available memory on the node where the printing process lives
------------------
     c_bands:  4 eigenvalues not converged
     ethr =  1.51E-04,  avg # of iterations =  6.4

     negative rho (up, down):  8.258E-01 0.000E+00

     total cpu time spent up to now is      243.7 secs

     total energy              =   -4441.72619341 Ry
     estimated scf accuracy    <       0.35388968 Ry

     iteration # 15     ecut=    60.00 Ry     beta= 0.15
     Davidson diagonalization with overlap

---- Real-time Memory Report at c_bands before calling an iterative solver
             0 MiB given to the printing process from OS
             0 MiB allocation reported by mallinfo(arena+hblkhd)
         22770 MiB available memory on the node where the printing process lives
------------------
     ethr =  8.21E-05,  avg # of iterations = 14.8

     negative rho (up, down):  8.336E-01 0.000E+00

     total cpu time spent up to now is      267.6 secs

     total energy              =   -4441.72268773 Ry
     estimated scf accuracy    <       0.32785814 Ry

     iteration # 16     ecut=    60.00 Ry     beta= 0.15
     Davidson diagonalization with overlap

---- Real-time Memory Report at c_bands before calling an iterative solver
             0 MiB given to the printing process from OS
             0 MiB allocation reported by mallinfo(arena+hblkhd)
         22786 MiB available memory on the node where the printing process lives
------------------
     ethr =  7.61E-05,  avg # of iterations =  3.7

     negative rho (up, down):  8.292E-01 0.000E+00

     total cpu time spent up to now is      285.3 secs

     total energy              =   -4441.70918185 Ry
     estimated scf accuracy    <       0.26695234 Ry

     iteration # 17     ecut=    60.00 Ry     beta= 0.15
     Davidson diagonalization with overlap

---- Real-time Memory Report at c_bands before calling an iterative solver
             0 MiB given to the printing process from OS
             0 MiB allocation reported by mallinfo(arena+hblkhd)
         22776 MiB available memory on the node where the printing process lives
------------------
     ethr =  6.19E-05,  avg # of iterations =  1.1

     negative rho (up, down):  8.049E-01 0.000E+00

     total cpu time spent up to now is      300.4 secs

     total energy              =   -4441.67704519 Ry
     estimated scf accuracy    <       0.16792423 Ry

     iteration # 18     ecut=    60.00 Ry     beta= 0.15
     Davidson diagonalization with overlap

---- Real-time Memory Report at c_bands before calling an iterative solver
             0 MiB given to the printing process from OS
             0 MiB allocation reported by mallinfo(arena+hblkhd)
         22782 MiB available memory on the node where the printing process lives
------------------
     ethr =  3.90E-05,  avg # of iterations = 10.1

     negative rho (up, down):  8.374E-01 0.000E+00

     total cpu time spent up to now is      322.0 secs

     total energy              =   -4441.65662367 Ry
     estimated scf accuracy    <       0.14444711 Ry

     iteration # 19     ecut=    60.00 Ry     beta= 0.15
     Davidson diagonalization with overlap

---- Real-time Memory Report at c_bands before calling an iterative solver
             0 MiB given to the printing process from OS
             0 MiB allocation reported by mallinfo(arena+hblkhd)
         22705 MiB available memory on the node where the printing process lives
------------------
     ethr =  3.35E-05,  avg # of iterations =  8.6

     negative rho (up, down):  8.382E-01 0.000E+00

     total cpu time spent up to now is      342.8 secs

     total energy              =   -4441.66461019 Ry
     estimated scf accuracy    <       0.04326627 Ry

     iteration # 20     ecut=    60.00 Ry     beta= 0.15
     Davidson diagonalization with overlap

---- Real-time Memory Report at c_bands before calling an iterative solver
             0 MiB given to the printing process from OS
             0 MiB allocation reported by mallinfo(arena+hblkhd)
         22697 MiB available memory on the node where the printing process lives
------------------
     ethr =  1.00E-05,  avg # of iterations =  9.4

     negative rho (up, down):  8.157E-01 0.000E+00

     total cpu time spent up to now is      364.0 secs

     total energy              =   -4441.66217103 Ry
     estimated scf accuracy    <       0.02954028 Ry

     iteration # 21     ecut=    60.00 Ry     beta= 0.15
     Davidson diagonalization with overlap

---- Real-time Memory Report at c_bands before calling an iterative solver
             0 MiB given to the printing process from OS
             0 MiB allocation reported by mallinfo(arena+hblkhd)
         22655 MiB available memory on the node where the printing process lives
------------------
     ethr =  6.85E-06,  avg # of iterations =  3.5

     negative rho (up, down):  8.101E-01 0.000E+00

     total cpu time spent up to now is      381.7 secs

     total energy              =   -4441.65999117 Ry
     estimated scf accuracy    <       0.02407735 Ry

     iteration # 22     ecut=    60.00 Ry     beta= 0.15
     Davidson diagonalization with overlap

---- Real-time Memory Report at c_bands before calling an iterative solver
             0 MiB given to the printing process from OS
             0 MiB allocation reported by mallinfo(arena+hblkhd)
         22713 MiB available memory on the node where the printing process lives
------------------
     ethr =  5.59E-06,  avg # of iterations =  3.2

     negative rho (up, down):  7.943E-01 0.000E+00

     total cpu time spent up to now is      398.8 secs

     total energy              =   -4441.65590967 Ry
     estimated scf accuracy    <       0.01740078 Ry

     iteration # 23     ecut=    60.00 Ry     beta= 0.15
     Davidson diagonalization with overlap

---- Real-time Memory Report at c_bands before calling an iterative solver
             0 MiB given to the printing process from OS
             0 MiB allocation reported by mallinfo(arena+hblkhd)
         22707 MiB available memory on the node where the printing process lives
------------------
     c_bands:  1 eigenvalues not converged
     c_bands:  1 eigenvalues not converged
     ethr =  4.04E-06,  avg # of iterations = 14.6

     negative rho (up, down):  8.048E-01 0.000E+00

     total cpu time spent up to now is      423.9 secs

     total energy              =   -4441.65590133 Ry
     estimated scf accuracy    <       0.00915729 Ry

     iteration # 24     ecut=    60.00 Ry     beta= 0.15
     Davidson diagonalization with overlap

---- Real-time Memory Report at c_bands before calling an iterative solver
             0 MiB given to the printing process from OS
             0 MiB allocation reported by mallinfo(arena+hblkhd)
         22662 MiB available memory on the node where the printing process lives
------------------
     ethr =  2.12E-06,  avg # of iterations = 10.7

     negative rho (up, down):  8.024E-01 0.000E+00

     total cpu time spent up to now is      446.6 secs

     total energy              =   -4441.65572046 Ry
     estimated scf accuracy    <       0.00361730 Ry

     iteration # 25     ecut=    60.00 Ry     beta= 0.15
     Davidson diagonalization with overlap

---- Real-time Memory Report at c_bands before calling an iterative solver
             0 MiB given to the printing process from OS
             0 MiB allocation reported by mallinfo(arena+hblkhd)
         22639 MiB available memory on the node where the printing process lives
------------------
     ethr =  8.39E-07,  avg # of iterations =  7.4

     negative rho (up, down):  7.999E-01 0.000E+00

     total cpu time spent up to now is      466.2 secs

     total energy              =   -4441.65573713 Ry
     estimated scf accuracy    <       0.00134836 Ry

     iteration # 26     ecut=    60.00 Ry     beta= 0.15
     Davidson diagonalization with overlap

---- Real-time Memory Report at c_bands before calling an iterative solver
             0 MiB given to the printing process from OS
             0 MiB allocation reported by mallinfo(arena+hblkhd)
         22651 MiB available memory on the node where the printing process lives
------------------
     ethr =  3.13E-07,  avg # of iterations = 10.6

     negative rho (up, down):  7.982E-01 0.000E+00

     total cpu time spent up to now is      487.8 secs

     total energy              =   -4441.65572651 Ry
     estimated scf accuracy    <       0.00066729 Ry

     iteration # 27     ecut=    60.00 Ry     beta= 0.15
     Davidson diagonalization with overlap

---- Real-time Memory Report at c_bands before calling an iterative solver
             0 MiB given to the printing process from OS
             0 MiB allocation reported by mallinfo(arena+hblkhd)
         22658 MiB available memory on the node where the printing process lives
------------------
     ethr =  1.55E-07,  avg # of iterations = 10.3

     negative rho (up, down):  7.973E-01 0.000E+00

     total cpu time spent up to now is      509.9 secs

     total energy              =   -4441.65569689 Ry
     estimated scf accuracy    <       0.00038137 Ry

     iteration # 28     ecut=    60.00 Ry     beta= 0.15
     Davidson diagonalization with overlap

---- Real-time Memory Report at c_bands before calling an iterative solver
             0 MiB given to the printing process from OS
             0 MiB allocation reported by mallinfo(arena+hblkhd)
         22650 MiB available memory on the node where the printing process lives
------------------
     ethr =  8.85E-08,  avg # of iterations =  5.5

     negative rho (up, down):  7.958E-01 0.000E+00

     total cpu time spent up to now is      530.7 secs

     total energy              =   -4441.65570442 Ry
     estimated scf accuracy    <       0.00011583 Ry

     iteration # 29     ecut=    60.00 Ry     beta= 0.15
     Davidson diagonalization with overlap

---- Real-time Memory Report at c_bands before calling an iterative solver
             0 MiB given to the printing process from OS
             0 MiB allocation reported by mallinfo(arena+hblkhd)
         22599 MiB available memory on the node where the printing process lives
------------------
     ethr =  2.69E-08,  avg # of iterations =  4.0

     negative rho (up, down):  7.943E-01 0.000E+00

     total cpu time spent up to now is      548.6 secs

     total energy              =   -4441.65567874 Ry
     estimated scf accuracy    <       0.00007336 Ry

     iteration # 30     ecut=    60.00 Ry     beta= 0.15
     Davidson diagonalization with overlap

---- Real-time Memory Report at c_bands before calling an iterative solver
             0 MiB given to the printing process from OS
             0 MiB allocation reported by mallinfo(arena+hblkhd)
         22630 MiB available memory on the node where the printing process lives
------------------
     ethr =  1.70E-08,  avg # of iterations =  4.1

     negative rho (up, down):  7.931E-01 0.000E+00

     total cpu time spent up to now is      566.6 secs

     total energy              =   -4441.65566935 Ry
     estimated scf accuracy    <       0.00003715 Ry

     iteration # 31     ecut=    60.00 Ry     beta= 0.15
     Davidson diagonalization with overlap

---- Real-time Memory Report at c_bands before calling an iterative solver
             0 MiB given to the printing process from OS
             0 MiB allocation reported by mallinfo(arena+hblkhd)
         22633 MiB available memory on the node where the printing process lives
------------------
     ethr =  8.62E-09,  avg # of iterations =  3.2

     negative rho (up, down):  7.927E-01 0.000E+00

     total cpu time spent up to now is      584.7 secs

     total energy              =   -4441.65567133 Ry
     estimated scf accuracy    <       0.00000979 Ry

     iteration # 32     ecut=    60.00 Ry     beta= 0.15
     Davidson diagonalization with overlap

---- Real-time Memory Report at c_bands before calling an iterative solver
             0 MiB given to the printing process from OS
             0 MiB allocation reported by mallinfo(arena+hblkhd)
         22634 MiB available memory on the node where the printing process lives
------------------
     ethr =  2.27E-09,  avg # of iterations =  2.3

     negative rho (up, down):  7.927E-01 0.000E+00

     total cpu time spent up to now is      601.9 secs

     total energy              =   -4441.65567144 Ry
     estimated scf accuracy    <       0.00000520 Ry

     iteration # 33     ecut=    60.00 Ry     beta= 0.15
     Davidson diagonalization with overlap

---- Real-time Memory Report at c_bands before calling an iterative solver
             0 MiB given to the printing process from OS
             0 MiB allocation reported by mallinfo(arena+hblkhd)
         22654 MiB available memory on the node where the printing process lives
------------------
     ethr =  1.21E-09,  avg # of iterations =  2.2

     negative rho (up, down):  7.926E-01 0.000E+00

     total cpu time spent up to now is      618.9 secs

     total energy              =   -4441.65567176 Ry
     estimated scf accuracy    <       0.00000285 Ry

     iteration # 34     ecut=    60.00 Ry     beta= 0.15
     Davidson diagonalization with overlap

---- Real-time Memory Report at c_bands before calling an iterative solver
             0 MiB given to the printing process from OS
             0 MiB allocation reported by mallinfo(arena+hblkhd)
         22654 MiB available memory on the node where the printing process lives
------------------
     ethr =  6.61E-10,  avg # of iterations =  2.4

     negative rho (up, down):  7.926E-01 0.000E+00

     total cpu time spent up to now is      636.0 secs

     total energy              =   -4441.65567266 Ry
     estimated scf accuracy    <       0.00000148 Ry

     iteration # 35     ecut=    60.00 Ry     beta= 0.15
     Davidson diagonalization with overlap

---- Real-time Memory Report at c_bands before calling an iterative solver
             0 MiB given to the printing process from OS
             0 MiB allocation reported by mallinfo(arena+hblkhd)
         22663 MiB available memory on the node where the printing process lives
------------------
     ethr =  3.44E-10,  avg # of iterations =  3.4

     negative rho (up, down):  7.926E-01 0.000E+00

     total cpu time spent up to now is      653.7 secs

     total energy              =   -4441.65567303 Ry
     estimated scf accuracy    <       0.00000085 Ry

     iteration # 36     ecut=    60.00 Ry     beta= 0.15
     Davidson diagonalization with overlap

---- Real-time Memory Report at c_bands before calling an iterative solver
             0 MiB given to the printing process from OS
             0 MiB allocation reported by mallinfo(arena+hblkhd)
         22663 MiB available memory on the node where the printing process lives
------------------
     ethr =  1.96E-10,  avg # of iterations =  2.2

     negative rho (up, down):  7.926E-01 0.000E+00

     total cpu time spent up to now is      670.6 secs

     total energy              =   -4441.65567318 Ry
     estimated scf accuracy    <       0.00000069 Ry

     iteration # 37     ecut=    60.00 Ry     beta= 0.15
     Davidson diagonalization with overlap

---- Real-time Memory Report at c_bands before calling an iterative solver
             0 MiB given to the printing process from OS
             0 MiB allocation reported by mallinfo(arena+hblkhd)
         22664 MiB available memory on the node where the printing process lives
------------------
     ethr =  1.61E-10,  avg # of iterations =  2.3

     negative rho (up, down):  7.926E-01 0.000E+00

     total cpu time spent up to now is      687.6 secs

     total energy              =   -4441.65567342 Ry
     estimated scf accuracy    <       0.00000054 Ry

     iteration # 38     ecut=    60.00 Ry     beta= 0.15
     Davidson diagonalization with overlap

---- Real-time Memory Report at c_bands before calling an iterative solver
             0 MiB given to the printing process from OS
             0 MiB allocation reported by mallinfo(arena+hblkhd)
         22665 MiB available memory on the node where the printing process lives
------------------
     ethr =  1.26E-10,  avg # of iterations =  2.8

     negative rho (up, down):  7.926E-01 0.000E+00

     total cpu time spent up to now is      704.6 secs

     total energy              =   -4441.65567359 Ry
     estimated scf accuracy    <       0.00000039 Ry

     iteration # 39     ecut=    60.00 Ry     beta= 0.15
     Davidson diagonalization with overlap

---- Real-time Memory Report at c_bands before calling an iterative solver
             0 MiB given to the printing process from OS
             0 MiB allocation reported by mallinfo(arena+hblkhd)
         22676 MiB available memory on the node where the printing process lives
------------------
     ethr =  8.94E-11,  avg # of iterations =  2.7

     negative rho (up, down):  7.925E-01 0.000E+00

     total cpu time spent up to now is      721.8 secs

     total energy              =   -4441.65567374 Ry
     estimated scf accuracy    <       0.00000028 Ry

     iteration # 40     ecut=    60.00 Ry     beta= 0.15
     Davidson diagonalization with overlap

---- Real-time Memory Report at c_bands before calling an iterative solver
             0 MiB given to the printing process from OS
             0 MiB allocation reported by mallinfo(arena+hblkhd)
         22687 MiB available memory on the node where the printing process lives
------------------
     ethr =  6.56E-11,  avg # of iterations =  2.8

     negative rho (up, down):  7.925E-01 0.000E+00

     total cpu time spent up to now is      739.2 secs

     total energy              =   -4441.65567394 Ry
     estimated scf accuracy    <       0.00000021 Ry

     iteration # 41     ecut=    60.00 Ry     beta= 0.15
     Davidson diagonalization with overlap

---- Real-time Memory Report at c_bands before calling an iterative solver
             0 MiB given to the printing process from OS
             0 MiB allocation reported by mallinfo(arena+hblkhd)
         22694 MiB available memory on the node where the printing process lives
------------------
     ethr =  4.94E-11,  avg # of iterations =  4.2

     negative rho (up, down):  7.925E-01 0.000E+00

     total cpu time spent up to now is      757.3 secs

     total energy              =   -4441.65567398 Ry
     estimated scf accuracy    <       0.00000008 Ry

     iteration # 42     ecut=    60.00 Ry     beta= 0.15
     Davidson diagonalization with overlap

---- Real-time Memory Report at c_bands before calling an iterative solver
             0 MiB given to the printing process from OS
             0 MiB allocation reported by mallinfo(arena+hblkhd)
         22693 MiB available memory on the node where the printing process lives
------------------
     ethr =  1.81E-11,  avg # of iterations =  2.1

     negative rho (up, down):  7.925E-01 0.000E+00

     total cpu time spent up to now is      774.1 secs

     total energy              =   -4441.65567399 Ry
     estimated scf accuracy    <       0.00000006 Ry

     iteration # 43     ecut=    60.00 Ry     beta= 0.15
     Davidson diagonalization with overlap

---- Real-time Memory Report at c_bands before calling an iterative solver
             0 MiB given to the printing process from OS
             0 MiB allocation reported by mallinfo(arena+hblkhd)
         22698 MiB available memory on the node where the printing process lives
------------------
     ethr =  1.31E-11,  avg # of iterations =  2.6

     negative rho (up, down):  7.925E-01 0.000E+00

     total cpu time spent up to now is      791.0 secs

     total energy              =   -4441.65567398 Ry
     estimated scf accuracy    <       0.00000004 Ry

     iteration # 44     ecut=    60.00 Ry     beta= 0.15
     Davidson diagonalization with overlap

---- Real-time Memory Report at c_bands before calling an iterative solver
             0 MiB given to the printing process from OS
             0 MiB allocation reported by mallinfo(arena+hblkhd)
         22698 MiB available memory on the node where the printing process lives
------------------
     ethr =  1.02E-11,  avg # of iterations =  4.0

     negative rho (up, down):  7.925E-01 0.000E+00

     total cpu time spent up to now is      809.4 secs

     total energy              =   -4441.65567398 Ry
     estimated scf accuracy    <       0.00000002 Ry

     iteration # 45     ecut=    60.00 Ry     beta= 0.15
     Davidson diagonalization with overlap

---- Real-time Memory Report at c_bands before calling an iterative solver
             0 MiB given to the printing process from OS
             0 MiB allocation reported by mallinfo(arena+hblkhd)
         22694 MiB available memory on the node where the printing process lives
------------------
     ethr =  3.63E-12,  avg # of iterations =  2.2

     negative rho (up, down):  7.925E-01 0.000E+00

     total cpu time spent up to now is      826.3 secs

     total energy              =   -4441.65567398 Ry
     estimated scf accuracy    <       0.00000001 Ry

     iteration # 46     ecut=    60.00 Ry     beta= 0.15
     Davidson diagonalization with overlap

---- Real-time Memory Report at c_bands before calling an iterative solver
             0 MiB given to the printing process from OS
             0 MiB allocation reported by mallinfo(arena+hblkhd)
         22695 MiB available memory on the node where the printing process lives
------------------
     ethr =  2.92E-12,  avg # of iterations =  1.7

     negative rho (up, down):  7.925E-01 0.000E+00

     total cpu time spent up to now is      842.4 secs

     total energy              =   -4441.65567399 Ry
     estimated scf accuracy    <       0.00000001 Ry

     iteration # 47     ecut=    60.00 Ry     beta= 0.15
     Davidson diagonalization with overlap

---- Real-time Memory Report at c_bands before calling an iterative solver
             0 MiB given to the printing process from OS
             0 MiB allocation reported by mallinfo(arena+hblkhd)
         22694 MiB available memory on the node where the printing process lives
------------------
     ethr =  2.51E-12,  avg # of iterations =  1.1

     negative rho (up, down):  7.925E-01 0.000E+00

     total cpu time spent up to now is      857.4 secs

     End of self-consistent calculation

          k = 0.0000 0.0000 0.0000 ( 65197 PWs)   bands (ev):

   -92.6816 -92.6282 -92.5352 -92.4892 -92.4304 -92.3877 -92.3706 -92.2507
   -56.0351 -56.0147 -55.8926 -55.8823 -55.8752 -55.8691 -55.8329 -55.8045
   -55.7892 -55.7871 -55.7786 -55.7379 -55.7204 -55.6815 -55.6615 -55.6303
   -55.6244 -55.5762 -55.5753 -55.5730 -55.5646 -55.5259 -55.5009 -55.4174
   -31.2594 -31.2398 -31.1054 -31.0983 -31.0176 -31.0112 -30.7443 -30.6175
   -29.8290 -29.7848 -29.7601 -29.6506 -15.0617 -15.0150 -14.9372 -14.8069
   -14.6139 -14.4894 -14.1998 -14.1801 -14.1500 -14.1056 -14.0587 -14.0488
   -14.0385 -14.0200 -13.9955 -13.9691 -13.9463 -13.9106 -13.7596 -13.5836
   -13.5482 -13.5172 -13.4890 -13.4696 -13.4154 -13.3819 -13.3039 -13.2319
   -13.1129 -13.0995 -13.0903 -13.0728 -13.0556 -13.0385 -12.9951 -12.9851
   -12.9608 -12.9400 -12.9147 -12.9055 -12.8980 -12.8806 -12.8672 -12.7587
   -12.7240 -12.6792 -12.5623 -12.5502 -12.5267 -12.3238 -12.1781 -11.9752
   -11.9119 -11.8418 -11.7679 -11.7571 -11.7335 -11.7161 -11.6525 -11.6354
   -11.6005 -11.5722 -11.4593 -11.3801 -11.3764  -2.9218  -2.6895  -2.4602
    -2.3130  -2.2500  -2.1080  -1.8010  -1.7869  -1.7673  -1.6835  -1.6631
    -1.5954  -1.5790  -1.5384  -1.4935  -1.3115  -1.1118  -1.0882  -1.0550
    -0.9114  -0.8968  -0.8499  -0.8324  -0.7850  -0.7701  -0.7141  -0.6877
    -0.6145  -0.5987  -0.5274  -0.3956  -0.3826  -0.3542  -0.2730  -0.2598
    -0.2512  -0.1797  -0.1084  -0.0551  -0.0105   0.0215   0.0903   0.1574
     0.2013   0.2284   0.2345   0.4918   0.5072   0.6826   0.7465   0.8164
     0.8637   0.9450   0.9614   0.9796   1.0425   1.0697   1.1046   1.1618
     1.2931   1.3546   1.3738   1.3930   1.4036   1.4702   1.5412   1.6469
     1.6585   1.7272   1.7398   1.7797   1.7980   1.8035   1.8617   1.9160
     1.9391   1.9721   2.0424   2.0497   2.1790   2.2624   2.3043   2.3303
     2.4389   2.4835   2.4932   2.5239   2.5317   2.5453   2.6472   2.6776
     2.7053   2.7235   2.7359   2.8176   2.9272   2.9576   2.9706   2.9772
     3.0455   3.0489   3.0728   3.0809   3.0898   3.1025   3.1084   3.1220
     3.1277   3.1405   3.1494   3.1572   3.1765   3.1972   3.2024   3.2144
     3.2467   3.3555   3.4317   4.1261   4.4570   4.7884   4.8770   5.0628
     5.7251   5.9529   6.0067   6.0293   6.3335   6.3807   6.4926   6.4982
     6.7186   7.0197   7.1009   7.3330   7.4862   7.5309   7.6610   7.6775
     7.7009   7.8452   7.9786   8.0109   8.1255   8.1845   8.3281   8.4106
     8.7211   8.8547   8.9080

     occupation numbers 
     1.0000   1.0000   1.0000   1.0000   1.0000   1.0000   1.0000   1.0000
     1.0000   1.0000   1.0000   1.0000   1.0000   1.0000   1.0000   1.0000
     1.0000   1.0000   1.0000   1.0000   1.0000   1.0000   1.0000   1.0000
     1.0000   1.0000   1.0000   1.0000   1.0000   1.0000   1.0000   1.0000
     1.0000   1.0000   1.0000   1.0000   1.0000   1.0000   1.0000   1.0000
     1.0000   1.0000   1.0000   1.0000   1.0000   1.0000   1.0000   1.0000
     1.0000   1.0000   1.0000   1.0000   1.0000   1.0000   1.0000   1.0000
     1.0000   1.0000   1.0000   1.0000   1.0000   1.0000   1.0000   1.0000
     1.0000   1.0000   1.0000   1.0000   1.0000   1.0000   1.0000   1.0000
     1.0000   1.0000   1.0000   1.0000   1.0000   1.0000   1.0000   1.0000
     1.0000   1.0000   1.0000   1.0000   1.0000   1.0000   1.0000   1.0000
     1.0000   1.0000   1.0000   1.0000   1.0000   1.0000   1.0000   1.0000
     1.0000   1.0000   1.0000   1.0000   1.0000   1.0000   1.0000   1.0000
     1.0000   1.0000   1.0000   1.0000   1.0000   1.0000   1.0000   1.0000
     1.0000   1.0000   1.0000   1.0000   1.0000   1.0000   1.0000   1.0000
     1.0000   1.0000   1.0000   1.0000   1.0000   1.0000   1.0000   1.0000
     1.0000   1.0000   1.0000   1.0000   1.0000   1.0000   1.0000   1.0000
     1.0000   1.0000   1.0000   1.0000   1.0000   1.0000   1.0000   1.0000
     1.0000   1.0000   1.0000   1.0000   1.0000   1.0000   1.0000   1.0000
     1.0000   1.0000   1.0000   1.0000   1.0000   1.0000   0.9999   0.9999
     0.9999   0.9998   0.9998   0.9998   0.9997   0.9996   0.9996   0.9994
     0.9989   0.9984   0.9983   0.9981   0.9980   0.9973   0.9963   0.9942
     0.9939   0.9919   0.9915   0.9900   0.9892   0.9890   0.9863   0.9832
     0.9817   0.9793   0.9736   0.9729   0.9585   0.9462   0.9391   0.9343
     0.9111   0.8999   0.8974   0.8890   0.8868   0.8828   0.8504   0.8396
     0.8294   0.8224   0.8176   0.7837   0.7331   0.7181   0.7115   0.7081
     0.6724   0.6706   0.6576   0.6532   0.6483   0.6413   0.6380   0.6304
     0.6272   0.6200   0.6150   0.6105   0.5995   0.5876   0.5845   0.5776
     0.5588   0.4945   0.4495   0.1234   0.0495   0.0161   0.0115   0.0054
     0.0002   0.0001   0.0000   0.0000   0.0000   0.0000   0.0000   0.0000
     0.0000   0.0000   0.0000   0.0000   0.0000   0.0000   0.0000   0.0000
     0.0000   0.0000   0.0000   0.0000   0.0000   0.0000   0.0000   0.0000
     0.0000   0.0000   0.0000

          k = 0.0000 0.2500 0.0000 ( 65257 PWs)   bands (ev):

   -92.6816 -92.6282 -92.5352 -92.4892 -92.4304 -92.3877 -92.3706 -92.2507
   -56.0351 -56.0147 -55.8926 -55.8823 -55.8752 -55.8691 -55.8329 -55.8045
   -55.7892 -55.7871 -55.7786 -55.7379 -55.7204 -55.6815 -55.6615 -55.6303
   -55.6244 -55.5762 -55.5753 -55.5730 -55.5646 -55.5259 -55.5009 -55.4174
   -31.2592 -31.2397 -31.1050 -31.0985 -31.0180 -31.0114 -30.7441 -30.6178
   -29.8284 -29.7845 -29.7607 -29.6509 -15.0254 -14.9886 -14.9118 -14.7777
   -14.6540 -14.4813 -14.3447 -14.1659 -14.1301 -14.1104 -14.0822 -14.0226
   -14.0170 -14.0007 -13.9825 -13.9489 -13.9361 -13.8294 -13.7900 -13.6289
   -13.6082 -13.5590 -13.5235 -13.4801 -13.4345 -13.3917 -13.3238 -13.2894
   -13.2186 -13.1598 -13.1291 -13.0940 -13.0861 -13.0563 -12.9802 -12.9566
   -12.9258 -12.9121 -12.8833 -12.8483 -12.8317 -12.8066 -12.7798 -12.7366
   -12.7083 -12.6626 -12.5622 -12.4695 -12.4158 -12.3851 -12.2293 -12.0307
   -11.9764 -11.8072 -11.7647 -11.7367 -11.7086 -11.6919 -11.6444 -11.6332
   -11.6108 -11.5764 -11.4738 -11.4217 -11.4110  -2.7865  -2.5651  -2.4275
    -2.2455  -2.2022  -2.0384  -1.8197  -1.7346  -1.7216  -1.6647  -1.5618
    -1.5451  -1.5116  -1.4850  -1.4410  -1.2434  -1.1166  -1.1143  -1.0948
    -1.0266  -1.0153  -0.9112  -0.8822  -0.8238  -0.7987  -0.7583  -0.6947
    -0.6680  -0.6358  -0.6011  -0.5845  -0.5536  -0.4801  -0.4291  -0.3656
    -0.2530  -0.2355  -0.1897  -0.0698  -0.0342   0.0339   0.0783   0.1494
     0.1588   0.1812   0.2442   0.5425   0.6271   0.6571   0.7489   0.7978
     0.8219   0.9323   0.9531   1.0457   1.0714   1.0965   1.2113   1.3046
     1.3286   1.3510   1.3683   1.3958   1.4549   1.4819   1.5091   1.5570
     1.5932   1.6221   1.7048   1.7393   1.7835   1.8286   1.8846   1.9363
     1.9620   1.9881   2.0138   2.1039   2.2125   2.2873   2.3102   2.3796
     2.4199   2.4494   2.4706   2.4831   2.5232   2.5503   2.5741   2.6645
     2.6966   2.7139   2.8845   2.9070   2.9399   2.9603   2.9778   2.9861
     2.9939   3.0038   3.0327   3.0349   3.0539   3.0565   3.0677   3.0854
     3.0974   3.1050   3.1276   3.1384   3.1430   3.1781   3.1948   3.2554
     3.6321   3.6564   3.9003   4.3171   4.4538   4.7272   5.0284   5.0886
     5.6561   5.8024   5.9143   6.0006   6.1003   6.1247   6.2019   6.6071
     6.8171   7.0584   7.1264   7.3432   7.4965   7.5125   7.5941   7.6579
     7.8633   7.9709   7.9967   8.1863   8.2120   8.3006   8.3839   8.4234
     8.6397   8.8546   8.9494

     occupation numbers 
     1.0000   1.0000   1.0000   1.0000   1.0000   1.0000   1.0000   1.0000
     1.0000   1.0000   1.0000   1.0000   1.0000   1.0000   1.0000   1.0000
     1.0000   1.0000   1.0000   1.0000   1.0000   1.0000   1.0000   1.0000
     1.0000   1.0000   1.0000   1.0000   1.0000   1.0000   1.0000   1.0000
     1.0000   1.0000   1.0000   1.0000   1.0000   1.0000   1.0000   1.0000
     1.0000   1.0000   1.0000   1.0000   1.0000   1.0000   1.0000   1.0000
     1.0000   1.0000   1.0000   1.0000   1.0000   1.0000   1.0000   1.0000
     1.0000   1.0000   1.0000   1.0000   1.0000   1.0000   1.0000   1.0000
     1.0000   1.0000   1.0000   1.0000   1.0000   1.0000   1.0000   1.0000
     1.0000   1.0000   1.0000   1.0000   1.0000   1.0000   1.0000   1.0000
     1.0000   1.0000   1.0000   1.0000   1.0000   1.0000   1.0000   1.0000
     1.0000   1.0000   1.0000   1.0000   1.0000   1.0000   1.0000   1.0000
     1.0000   1.0000   1.0000   1.0000   1.0000   1.0000   1.0000   1.0000
     1.0000   1.0000   1.0000   1.0000   1.0000   1.0000   1.0000   1.0000
     1.0000   1.0000   1.0000   1.0000   1.0000   1.0000   1.0000   1.0000
     1.0000   1.0000   1.0000   1.0000   1.0000   1.0000   1.0000   1.0000
     1.0000   1.0000   1.0000   1.0000   1.0000   1.0000   1.0000   1.0000
     1.0000   1.0000   1.0000   1.0000   1.0000   1.0000   1.0000   1.0000
     1.0000   1.0000   1.0000   1.0000   1.0000   1.0000   1.0000   1.0000
     1.0000   1.0000   1.0000   1.0000   1.0000   1.0000   0.9999   0.9999
     0.9999   0.9998   0.9998   0.9997   0.9996   0.9996   0.9992   0.9988
     0.9986   0.9985   0.9983   0.9981   0.9975   0.9972   0.9968   0.9961
     0.9954   0.9948   0.9926   0.9915   0.9898   0.9879   0.9850   0.9819
     0.9801   0.9781   0.9761   0.9675   0.9539   0.9421   0.9380   0.9244
     0.9155   0.9085   0.9032   0.9000   0.8892   0.8814   0.8742   0.8443
     0.8326   0.8261   0.7535   0.7428   0.7269   0.7167   0.7079   0.7036
     0.6996   0.6944   0.6792   0.6781   0.6679   0.6665   0.6604   0.6507
     0.6441   0.6399   0.6273   0.6212   0.6186   0.5986   0.5890   0.5537
     0.3356   0.3225   0.2053   0.0747   0.0500   0.0202   0.0062   0.0048
     0.0003   0.0001   0.0001   0.0000   0.0000   0.0000   0.0000   0.0000
     0.0000   0.0000   0.0000   0.0000   0.0000   0.0000   0.0000   0.0000
     0.0000   0.0000   0.0000   0.0000   0.0000   0.0000   0.0000   0.0000
     0.0000   0.0000   0.0000

          k = 0.0000-0.5000 0.0000 ( 65180 PWs)   bands (ev):

   -92.6816 -92.6282 -92.5352 -92.4892 -92.4304 -92.3877 -92.3706 -92.2507
   -56.0351 -56.0147 -55.8926 -55.8823 -55.8752 -55.8691 -55.8329 -55.8045
   -55.7892 -55.7871 -55.7786 -55.7379 -55.7204 -55.6815 -55.6615 -55.6303
   -55.6244 -55.5762 -55.5753 -55.5730 -55.5646 -55.5259 -55.5009 -55.4174
   -31.2590 -31.2396 -31.1047 -31.0988 -31.0183 -31.0115 -30.7438 -30.6180
   -29.8278 -29.7841 -29.7614 -29.6513 -14.9890 -14.9406 -14.8863 -14.7584
   -14.6762 -14.5388 -14.3854 -14.2609 -14.1382 -14.0678 -14.0230 -14.0184
   -13.9683 -13.9513 -13.9472 -13.9021 -13.8817 -13.8567 -13.8231 -13.7854
   -13.7422 -13.5642 -13.5059 -13.4874 -13.4373 -13.3925 -13.3395 -13.2891
   -13.2647 -13.2407 -13.1994 -13.0952 -13.0858 -13.0366 -13.0022 -12.9473
   -12.9314 -12.9101 -12.8633 -12.8133 -12.7975 -12.7344 -12.6967 -12.6868
   -12.6429 -12.6330 -12.5651 -12.4960 -12.3462 -12.3045 -12.2315 -12.1375
   -12.0924 -11.7616 -11.7589 -11.7315 -11.6947 -11.6603 -11.6492 -11.6063
   -11.6024 -11.5576 -11.4957 -11.4822 -11.4680  -2.5722  -2.5119  -2.3619
    -2.2901  -2.0094  -1.9244  -1.7978  -1.6607  -1.6242  -1.6036  -1.5250
    -1.4938  -1.4117  -1.3763  -1.2991  -1.2597  -1.2211  -1.1936  -1.1376
    -1.1065  -1.0988  -1.0500  -1.0151  -0.9822  -0.9457  -0.8390  -0.7942
    -0.7591  -0.7578  -0.6710  -0.6393  -0.6163  -0.5633  -0.4836  -0.4099
    -0.3270  -0.3001  -0.1935  -0.1415  -0.0096   0.0261   0.0542   0.1193
     0.2599   0.2912   0.4114   0.4809   0.4886   0.6152   0.6635   0.7900
     0.8949   1.0053   1.0348   1.0728   1.0768   1.1228   1.1356   1.1692
     1.1911   1.1966   1.3074   1.3699   1.3957   1.4213   1.6802   1.7176
     1.7419   1.8373   1.8788   1.8881   1.9063   1.9331   1.9503   1.9738
     2.0012   2.0226   2.0552   2.0883   2.0888   2.1255   2.1762   2.2575
     2.2861   2.4419   2.4693   2.5337   2.6230   2.6348   2.6584   2.6873
     2.6939   2.7041   2.7534   2.7651   2.8185   2.8407   2.9181   2.9307
     2.9977   3.0076   3.0288   3.0312   3.0502   3.0570   3.0591   3.0627
     3.0661   3.0788   3.0976   3.0987   3.1633   3.1683   3.1845   3.2382
     4.1586   4.1833   4.2052   4.2731   4.7625   4.9202   5.0424   5.1757
     5.4295   5.4817   5.5985   5.7382   6.0402   6.0708   6.2447   6.4647
     6.8637   6.9645   7.2349   7.2910   7.3514   7.4733   7.7264   7.7765
     7.9251   8.0245   8.1708   8.2289   8.2901   8.4690   8.5341   8.6908
     8.8167   8.8323   8.8875

     occupation numbers 
     1.0000   1.0000   1.0000   1.0000   1.0000   1.0000   1.0000   1.0000
     1.0000   1.0000   1.0000   1.0000   1.0000   1.0000   1.0000   1.0000
     1.0000   1.0000   1.0000   1.0000   1.0000   1.0000   1.0000   1.0000
     1.0000   1.0000   1.0000   1.0000   1.0000   1.0000   1.0000   1.0000
     1.0000   1.0000   1.0000   1.0000   1.0000   1.0000   1.0000   1.0000
     1.0000   1.0000   1.0000   1.0000   1.0000   1.0000   1.0000   1.0000
     1.0000   1.0000   1.0000   1.0000   1.0000   1.0000   1.0000   1.0000
     1.0000   1.0000   1.0000   1.0000   1.0000   1.0000   1.0000   1.0000
     1.0000   1.0000   1.0000   1.0000   1.0000   1.0000   1.0000   1.0000
     1.0000   1.0000   1.0000   1.0000   1.0000   1.0000   1.0000   1.0000
     1.0000   1.0000   1.0000   1.0000   1.0000   1.0000   1.0000   1.0000
     1.0000   1.0000   1.0000   1.0000   1.0000   1.0000   1.0000   1.0000
     1.0000   1.0000   1.0000   1.0000   1.0000   1.0000   1.0000   1.0000
     1.0000   1.0000   1.0000   1.0000   1.0000   1.0000   1.0000   1.0000
     1.0000   1.0000   1.0000   1.0000   1.0000   1.0000   1.0000   1.0000
     1.0000   1.0000   1.0000   1.0000   1.0000   1.0000   1.0000   1.0000
     1.0000   1.0000   1.0000   1.0000   1.0000   1.0000   1.0000   1.0000
     1.0000   1.0000   1.0000   1.0000   1.0000   1.0000   1.0000   1.0000
     1.0000   1.0000   1.0000   1.0000   1.0000   1.0000   1.0000   1.0000
     1.0000   1.0000   1.0000   1.0000   1.0000   1.0000   1.0000   0.9999
     0.9999   0.9997   0.9997   0.9996   0.9996   0.9995   0.9995   0.9994
     0.9993   0.9993   0.9988   0.9983   0.9981   0.9979   0.9933   0.9922
     0.9914   0.9875   0.9853   0.9848   0.9837   0.9821   0.9809   0.9792
     0.9771   0.9753   0.9724   0.9691   0.9691   0.9651   0.9588   0.9470
     0.9423   0.9103   0.9036   0.8862   0.8586   0.8546   0.8465   0.8361
     0.8336   0.8298   0.8106   0.8059   0.7834   0.7736   0.7375   0.7314
     0.6976   0.6925   0.6813   0.6800   0.6699   0.6662   0.6651   0.6631
     0.6613   0.6544   0.6440   0.6434   0.6071   0.6042   0.5949   0.5637
     0.1139   0.1069   0.1011   0.0844   0.0177   0.0097   0.0059   0.0033
     0.0010   0.0008   0.0004   0.0002   0.0000   0.0000   0.0000   0.0000
     0.0000   0.0000   0.0000   0.0000   0.0000   0.0000   0.0000   0.0000
     0.0000   0.0000   0.0000   0.0000   0.0000   0.0000   0.0000   0.0000
     0.0000   0.0000   0.0000

          k = 0.2500 0.2500 0.0000 ( 65198 PWs)   bands (ev):

   -92.6816 -92.6282 -92.5352 -92.4892 -92.4304 -92.3877 -92.3706 -92.2507
   -56.0351 -56.0147 -55.8926 -55.8823 -55.8752 -55.8691 -55.8329 -55.8045
   -55.7892 -55.7871 -55.7786 -55.7379 -55.7204 -55.6815 -55.6615 -55.6303
   -55.6244 -55.5762 -55.5753 -55.5730 -55.5646 -55.5259 -55.5009 -55.4174
   -31.2575 -31.2414 -31.1050 -31.0982 -31.0179 -31.0117 -30.7442 -30.6178
   -29.8274 -29.7854 -29.7603 -29.6513 -14.9964 -14.9535 -14.8839 -14.7673
   -14.6473 -14.5210 -14.4509 -14.2443 -14.0896 -14.0763 -14.0401 -14.0105
   -13.9870 -13.9587 -13.9456 -13.9277 -13.9038 -13.8207 -13.8043 -13.6450
   -13.6300 -13.6004 -13.5811 -13.5322 -13.4916 -13.4269 -13.4077 -13.2670
   -13.2384 -13.2104 -13.1242 -13.0849 -13.0537 -13.0272 -12.9998 -12.9749
   -12.9344 -12.9268 -12.9002 -12.8558 -12.8145 -12.7257 -12.7078 -12.6953
   -12.6821 -12.6337 -12.5629 -12.4362 -12.4336 -12.3353 -12.2585 -12.0571
   -12.0223 -11.7796 -11.7480 -11.7371 -11.7304 -11.6673 -11.6329 -11.6260
   -11.5905 -11.5834 -11.4903 -11.4499 -11.4323  -2.6483  -2.4393  -2.3216
    -2.2274  -2.1065  -2.0415  -1.8445  -1.6991  -1.6803  -1.6513  -1.5568
    -1.5219  -1.4279  -1.4001  -1.3505  -1.2201  -1.1709  -1.1091  -1.0959
    -1.0513  -1.0090  -0.9854  -0.9614  -0.9185  -0.9030  -0.8122  -0.7619
    -0.6978  -0.6481  -0.6166  -0.5680  -0.5510  -0.4899  -0.4422  -0.3860
    -0.3506  -0.2664  -0.2113  -0.1827  -0.1446  -0.0894  -0.0106   0.0258
     0.0519   0.1368   0.1681   0.4294   0.5756   0.6114   0.6718   0.7128
     0.7842   0.8499   0.8889   0.9243   1.1939   1.2604   1.3340   1.3589
     1.4076   1.4398   1.4748   1.5117   1.5289   1.5556   1.6011   1.6088
     1.6233   1.6680   1.7120   1.7474   1.8074   1.8499   1.8567   1.9002
     1.9280   1.9851   2.0253   2.1424   2.1975   2.2299   2.2551   2.3252
     2.3917   2.4165   2.4471   2.4528   2.4797   2.4914   2.5336   2.6089
     2.6377   2.7261   2.8958   2.9124   2.9190   2.9352   2.9495   2.9625
     2.9763   2.9831   2.9933   3.0064   3.0187   3.0377   3.0436   3.0555
     3.0774   3.0892   3.0984   3.1298   3.4307   3.5253   3.5654   3.6380
     3.6711   3.8763   3.9738   4.3265   4.5406   4.7358   5.0010   5.1762
     5.6620   5.7174   5.7731   5.8559   5.9134   6.0490   6.1700   6.2280
     6.8812   6.9107   7.1263   7.2464   7.5663   7.6176   7.7256   7.8567
     7.8893   8.0092   8.1669   8.2201   8.2727   8.3566   8.4096   8.4635
     8.5627   8.7890   8.9435

     occupation numbers 
     1.0000   1.0000   1.0000   1.0000   1.0000   1.0000   1.0000   1.0000
     1.0000   1.0000   1.0000   1.0000   1.0000   1.0000   1.0000   1.0000
     1.0000   1.0000   1.0000   1.0000   1.0000   1.0000   1.0000   1.0000
     1.0000   1.0000   1.0000   1.0000   1.0000   1.0000   1.0000   1.0000
     1.0000   1.0000   1.0000   1.0000   1.0000   1.0000   1.0000   1.0000
     1.0000   1.0000   1.0000   1.0000   1.0000   1.0000   1.0000   1.0000
     1.0000   1.0000   1.0000   1.0000   1.0000   1.0000   1.0000   1.0000
     1.0000   1.0000   1.0000   1.0000   1.0000   1.0000   1.0000   1.0000
     1.0000   1.0000   1.0000   1.0000   1.0000   1.0000   1.0000   1.0000
     1.0000   1.0000   1.0000   1.0000   1.0000   1.0000   1.0000   1.0000
     1.0000   1.0000   1.0000   1.0000   1.0000   1.0000   1.0000   1.0000
     1.0000   1.0000   1.0000   1.0000   1.0000   1.0000   1.0000   1.0000
     1.0000   1.0000   1.0000   1.0000   1.0000   1.0000   1.0000   1.0000
     1.0000   1.0000   1.0000   1.0000   1.0000   1.0000   1.0000   1.0000
     1.0000   1.0000   1.0000   1.0000   1.0000   1.0000   1.0000   1.0000
     1.0000   1.0000   1.0000   1.0000   1.0000   1.0000   1.0000   1.0000
     1.0000   1.0000   1.0000   1.0000   1.0000   1.0000   1.0000   1.0000
     1.0000   1.0000   1.0000   1.0000   1.0000   1.0000   1.0000   1.0000
     1.0000   1.0000   1.0000   1.0000   1.0000   1.0000   1.0000   1.0000
     1.0000   1.0000   1.0000   1.0000   1.0000   1.0000   1.0000   1.0000
     0.9999   0.9999   0.9999   0.9998   0.9993   0.9990   0.9986   0.9984
     0.9980   0.9977   0.9973   0.9968   0.9965   0.9961   0.9952   0.9951
     0.9947   0.9936   0.9924   0.9912   0.9888   0.9869   0.9865   0.9841
     0.9824   0.9784   0.9751   0.9631   0.9560   0.9513   0.9474   0.9353
     0.9218   0.9163   0.9091   0.9077   0.9009   0.8978   0.8862   0.8632
     0.8536   0.8214   0.7482   0.7403   0.7371   0.7292   0.7221   0.7156
     0.7086   0.7052   0.6999   0.6931   0.6867   0.6766   0.6734   0.6670
     0.6551   0.6486   0.6436   0.6260   0.4501   0.3951   0.3724   0.3324
     0.3147   0.2156   0.1757   0.0728   0.0381   0.0195   0.0070   0.0033
     0.0003   0.0002   0.0002   0.0001   0.0001   0.0000   0.0000   0.0000
     0.0000   0.0000   0.0000   0.0000   0.0000   0.0000   0.0000   0.0000
     0.0000   0.0000   0.0000   0.0000   0.0000   0.0000   0.0000   0.0000
     0.0000   0.0000   0.0000

          k = 0.2500-0.5000 0.0000 ( 65138 PWs)   bands (ev):

   -92.6816 -92.6282 -92.5352 -92.4892 -92.4304 -92.3877 -92.3706 -92.2507
   -56.0351 -56.0147 -55.8926 -55.8823 -55.8752 -55.8691 -55.8329 -55.8045
   -55.7892 -55.7871 -55.7786 -55.7379 -55.7204 -55.6815 -55.6615 -55.6303
   -55.6244 -55.5762 -55.5753 -55.5730 -55.5646 -55.5259 -55.5009 -55.4174
   -31.2573 -31.2412 -31.1046 -31.0984 -31.0183 -31.0119 -30.7439 -30.6181
   -29.8268 -29.7851 -29.7610 -29.6517 -14.9581 -14.9136 -14.8430 -14.7290
   -14.6990 -14.5794 -14.4891 -14.3583 -14.0542 -14.0010 -13.9741 -13.9524
   -13.9470 -13.9371 -13.9231 -13.8865 -13.8703 -13.8372 -13.8005 -13.7739
   -13.7351 -13.6468 -13.5982 -13.5490 -13.5192 -13.4531 -13.4400 -13.3252
   -13.2913 -13.1881 -13.1237 -13.1053 -13.0316 -13.0048 -12.9873 -12.9664
   -12.9445 -12.9231 -12.8925 -12.8139 -12.7919 -12.7351 -12.7114 -12.6529
   -12.6370 -12.6067 -12.5682 -12.5026 -12.3265 -12.3019 -12.2070 -12.1277
   -12.0958 -11.7553 -11.7433 -11.7323 -11.7054 -11.6738 -11.6456 -11.6041
   -11.5764 -11.5543 -11.5087 -11.4834 -11.4720  -2.4305  -2.3635  -2.2357
    -2.1588  -2.0298  -1.9444  -1.8222  -1.6720  -1.6186  -1.5961  -1.5328
    -1.5200  -1.4226  -1.3555  -1.2710  -1.2211  -1.2123  -1.1489  -1.1138
    -1.0981  -1.0718  -1.0245  -0.9870  -0.9519  -0.9115  -0.9002  -0.8545
    -0.8247  -0.7847  -0.7529  -0.6865  -0.5856  -0.5413  -0.4667  -0.4015
    -0.3528  -0.3093  -0.2884  -0.2363  -0.0744  -0.0598   0.0382   0.0794
     0.0878   0.1315   0.1614   0.2110   0.2327   0.2947   0.5654   0.6627
     0.7560   0.8210   1.0530   1.0842   1.1671   1.1934   1.3574   1.3906
     1.4337   1.4546   1.4722   1.4914   1.5539   1.5988   1.6353   1.7195
     1.8062   1.8503   1.8676   1.8836   1.9165   1.9313   1.9351   1.9884
     1.9927   2.0195   2.0490   2.0666   2.0808   2.1233   2.1755   2.2113
     2.2898   2.4390   2.4423   2.5224   2.5763   2.5950   2.6150   2.6388
     2.6637   2.6923   2.7116   2.7272   2.7520   2.8463   2.8956   2.9145
     2.9174   2.9324   2.9527   2.9664   2.9855   2.9930   3.0251   3.0371
     3.0515   3.0614   3.0695   3.0801   3.6092   3.6132   3.7624   3.8128
     4.1727   4.2052   4.2201   4.3335   4.7819   4.9426   5.0799   5.1499
     5.3254   5.4475   5.6181   5.6451   5.7860   5.8063   6.3239   6.4104
     6.5025   6.5903   7.2772   7.3157   7.5706   7.7167   7.8202   7.8640
     7.8980   8.0565   8.2405   8.3920   8.4441   8.5199   8.5613   8.5753
     8.7297   8.7372   8.8084

     occupation numbers 
     1.0000   1.0000   1.0000   1.0000   1.0000   1.0000   1.0000   1.0000
     1.0000   1.0000   1.0000   1.0000   1.0000   1.0000   1.0000   1.0000
     1.0000   1.0000   1.0000   1.0000   1.0000   1.0000   1.0000   1.0000
     1.0000   1.0000   1.0000   1.0000   1.0000   1.0000   1.0000   1.0000
     1.0000   1.0000   1.0000   1.0000   1.0000   1.0000   1.0000   1.0000
     1.0000   1.0000   1.0000   1.0000   1.0000   1.0000   1.0000   1.0000
     1.0000   1.0000   1.0000   1.0000   1.0000   1.0000   1.0000   1.0000
     1.0000   1.0000   1.0000   1.0000   1.0000   1.0000   1.0000   1.0000
     1.0000   1.0000   1.0000   1.0000   1.0000   1.0000   1.0000   1.0000
     1.0000   1.0000   1.0000   1.0000   1.0000   1.0000   1.0000   1.0000
     1.0000   1.0000   1.0000   1.0000   1.0000   1.0000   1.0000   1.0000
     1.0000   1.0000   1.0000   1.0000   1.0000   1.0000   1.0000   1.0000
     1.0000   1.0000   1.0000   1.0000   1.0000   1.0000   1.0000   1.0000
     1.0000   1.0000   1.0000   1.0000   1.0000   1.0000   1.0000   1.0000
     1.0000   1.0000   1.0000   1.0000   1.0000   1.0000   1.0000   1.0000
     1.0000   1.0000   1.0000   1.0000   1.0000   1.0000   1.0000   1.0000
     1.0000   1.0000   1.0000   1.0000   1.0000   1.0000   1.0000   1.0000
     1.0000   1.0000   1.0000   1.0000   1.0000   1.0000   1.0000   1.0000
     1.0000   1.0000   1.0000   1.0000   1.0000   1.0000   1.0000   1.0000
     1.0000   1.0000   1.0000   1.0000   1.0000   1.0000   1.0000   1.0000
     0.9999   0.9999   0.9997   0.9996   0.9994   0.9993   0.9984   0.9982
     0.9977   0.9975   0.9973   0.9971   0.9961   0.9953   0.9945   0.9921
     0.9889   0.9868   0.9859   0.9851   0.9831   0.9822   0.9819   0.9781
     0.9778   0.9756   0.9730   0.9713   0.9699   0.9653   0.9589   0.9540
     0.9416   0.9110   0.9102   0.8894   0.8735   0.8677   0.8612   0.8532
     0.8446   0.8342   0.8270   0.8210   0.8112   0.7711   0.7483   0.7393
     0.7378   0.7306   0.7205   0.7136   0.7039   0.7000   0.6833   0.6769
     0.6692   0.6638   0.6594   0.6537   0.3481   0.3459   0.2683   0.2442
     0.1099   0.1011   0.0972   0.0713   0.0165   0.0089   0.0050   0.0037
     0.0016   0.0009   0.0004   0.0003   0.0001   0.0001   0.0000   0.0000
     0.0000   0.0000   0.0000   0.0000   0.0000   0.0000   0.0000   0.0000
     0.0000   0.0000   0.0000   0.0000   0.0000   0.0000   0.0000   0.0000
     0.0000   0.0000   0.0000

          k =-0.5000-0.5000 0.0000 ( 65132 PWs)   bands (ev):

   -92.6816 -92.6282 -92.5352 -92.4892 -92.4304 -92.3877 -92.3706 -92.2507
   -56.0351 -56.0147 -55.8926 -55.8823 -55.8752 -55.8691 -55.8329 -55.8045
   -55.7892 -55.7871 -55.7786 -55.7379 -55.7204 -55.6815 -55.6615 -55.6303
   -55.6244 -55.5762 -55.5753 -55.5730 -55.5646 -55.5259 -55.5009 -55.4174
   -31.2552 -31.2434 -31.1045 -31.0980 -31.0182 -31.0123 -30.7440 -30.6182
   -29.8258 -29.7861 -29.7606 -29.6521 -14.9104 -14.8866 -14.7691 -14.7556
   -14.6623 -14.6255 -14.5941 -14.4581 -13.9641 -13.9534 -13.9471 -13.9173
   -13.9014 -13.8810 -13.8675 -13.8398 -13.8279 -13.8158 -13.8074 -13.7929
   -13.7146 -13.7060 -13.6803 -13.6437 -13.6355 -13.5399 -13.5088 -13.3622
   -13.3329 -13.1381 -13.1030 -13.0324 -13.0072 -13.0039 -12.9785 -12.9653
   -12.9559 -12.9426 -12.9327 -12.8158 -12.7795 -12.7412 -12.7191 -12.6655
   -12.5921 -12.5821 -12.5674 -12.5190 -12.3087 -12.2975 -12.1807 -12.1182
   -12.1009 -11.7516 -11.7398 -11.7219 -11.7050 -11.6701 -11.6516 -11.6183
   -11.5563 -11.5371 -11.5309 -11.4812 -11.4777  -2.2065  -2.1312  -2.1193
    -2.0474  -2.0096  -1.9314  -1.8636  -1.7382  -1.6224  -1.5917  -1.5532
    -1.4950  -1.4237  -1.4091  -1.3386  -1.2959  -1.1792  -1.1503  -1.1125
    -1.0938  -1.0727  -1.0084  -0.9620  -0.9432  -0.9305  -0.8777  -0.8334
    -0.8189  -0.7043  -0.6452  -0.5987  -0.5513  -0.5236  -0.5133  -0.4775
    -0.4329  -0.4001  -0.3884  -0.3009  -0.2358  -0.1907  -0.1631  -0.0915
    -0.0358  -0.0110   0.0382   0.0592   0.0789   0.0934   0.5358   0.5831
     0.7027   0.7532   1.0880   1.0996   1.1320   1.1733   1.4420   1.4617
     1.4685   1.5081   1.6366   1.7328   1.7591   1.7957   1.8163   1.8441
     1.8500   1.8789   1.8904   1.9111   1.9188   1.9685   1.9697   1.9996
     2.0358   2.0399   2.0585   2.0980   2.1165   2.1332   2.1607   2.1902
     2.2510   2.3220   2.4413   2.5186   2.5924   2.6196   2.6412   2.6573
     2.6748   2.6984   2.7020   2.7238   2.7337   2.7502   2.7715   2.7824
     2.8474   2.8503   2.8715   2.8870   2.8964   2.9163   2.9217   2.9305
     3.0333   3.0386   3.0662   3.0761   4.0367   4.0542   4.0904   4.1182
     4.3393   4.4137   4.4380   4.6789   4.8011   4.8837   5.0121   5.0998
     5.1128   5.2249   5.3230   5.4134   5.8665   5.8953   5.9705   6.0413
     6.4659   6.8315   6.9908   7.1202   7.9074   7.9202   7.9494   7.9761
     7.9959   8.0362   8.1044   8.2797   8.3870   8.6034   8.6256   8.6322
     8.6772   8.7283   8.7619

     occupation numbers 
     1.0000   1.0000   1.0000   1.0000   1.0000   1.0000   1.0000   1.0000
     1.0000   1.0000   1.0000   1.0000   1.0000   1.0000   1.0000   1.0000
     1.0000   1.0000   1.0000   1.0000   1.0000   1.0000   1.0000   1.0000
     1.0000   1.0000   1.0000   1.0000   1.0000   1.0000   1.0000   1.0000
     1.0000   1.0000   1.0000   1.0000   1.0000   1.0000   1.0000   1.0000
     1.0000   1.0000   1.0000   1.0000   1.0000   1.0000   1.0000   1.0000
     1.0000   1.0000   1.0000   1.0000   1.0000   1.0000   1.0000   1.0000
     1.0000   1.0000   1.0000   1.0000   1.0000   1.0000   1.0000   1.0000
     1.0000   1.0000   1.0000   1.0000   1.0000   1.0000   1.0000   1.0000
     1.0000   1.0000   1.0000   1.0000   1.0000   1.0000   1.0000   1.0000
     1.0000   1.0000   1.0000   1.0000   1.0000   1.0000   1.0000   1.0000
     1.0000   1.0000   1.0000   1.0000   1.0000   1.0000   1.0000   1.0000
     1.0000   1.0000   1.0000   1.0000   1.0000   1.0000   1.0000   1.0000
     1.0000   1.0000   1.0000   1.0000   1.0000   1.0000   1.0000   1.0000
     1.0000   1.0000   1.0000   1.0000   1.0000   1.0000   1.0000   1.0000
     1.0000   1.0000   1.0000   1.0000   1.0000   1.0000   1.0000   1.0000
     1.0000   1.0000   1.0000   1.0000   1.0000   1.0000   1.0000   1.0000
     1.0000   1.0000   1.0000   1.0000   1.0000   1.0000   1.0000   1.0000
     1.0000   1.0000   1.0000   1.0000   1.0000   1.0000   1.0000   1.0000
     1.0000   1.0000   1.0000   1.0000   1.0000   1.0000   1.0000   1.0000
     1.0000   0.9999   0.9996   0.9996   0.9995   0.9994   0.9977   0.9974
     0.9973   0.9968   0.9944   0.9917   0.9908   0.9893   0.9885   0.9871
     0.9869   0.9853   0.9847   0.9835   0.9830   0.9796   0.9795   0.9772
     0.9742   0.9738   0.9721   0.9681   0.9661   0.9642   0.9608   0.9570
     0.9481   0.9358   0.9105   0.8905   0.8685   0.8597   0.8524   0.8468
     0.8406   0.8320   0.8306   0.8223   0.8185   0.8119   0.8033   0.7988
     0.7706   0.7693   0.7596   0.7523   0.7479   0.7384   0.7358   0.7315
     0.6789   0.6761   0.6612   0.6558   0.1526   0.1466   0.1346   0.1258
     0.0702   0.0565   0.0525   0.0239   0.0154   0.0112   0.0067   0.0046
     0.0044   0.0026   0.0017   0.0011   0.0001   0.0001   0.0000   0.0000
     0.0000   0.0000   0.0000   0.0000   0.0000   0.0000   0.0000   0.0000
     0.0000   0.0000   0.0000   0.0000   0.0000   0.0000   0.0000   0.0000
     0.0000   0.0000   0.0000

          k = 0.2500 0.0000 0.0000 ( 65257 PWs)   bands (ev):

   -92.6816 -92.6282 -92.5352 -92.4892 -92.4304 -92.3877 -92.3706 -92.2507
   -56.0351 -56.0147 -55.8926 -55.8823 -55.8752 -55.8691 -55.8329 -55.8045
   -55.7892 -55.7871 -55.7786 -55.7379 -55.7204 -55.6815 -55.6615 -55.6303
   -55.6244 -55.5762 -55.5753 -55.5730 -55.5646 -55.5259 -55.5009 -55.4174
   -31.2577 -31.2415 -31.1053 -31.0980 -31.0176 -31.0116 -30.7444 -30.6176
   -29.8281 -29.7857 -29.7597 -29.6510 -15.0290 -14.9834 -14.9179 -14.7702
   -14.6646 -14.4661 -14.3374 -14.1570 -14.1394 -14.1104 -14.0790 -14.0537
   -14.0173 -14.0037 -13.9828 -13.9466 -13.9424 -13.8214 -13.7908 -13.6406
   -13.5736 -13.5621 -13.5022 -13.4735 -13.4606 -13.4031 -13.3264 -13.2943
   -13.1913 -13.1409 -13.1315 -13.0906 -13.0419 -13.0259 -13.0094 -12.9946
   -12.9606 -12.9354 -12.9175 -12.9001 -12.8811 -12.8011 -12.7526 -12.6898
   -12.5997 -12.5779 -12.5611 -12.5213 -12.4921 -12.3873 -12.2303 -12.0251
   -11.9731 -11.8067 -11.7552 -11.7377 -11.7238 -11.6973 -11.6470 -11.6236
   -11.6157 -11.5657 -11.4751 -11.4199 -11.4140  -2.7860  -2.5643  -2.4345
    -2.2618  -2.1979  -2.0280  -1.8211  -1.7435  -1.6997  -1.6653  -1.5644
[...]
     0.3502   0.3283   0.2051   0.0792   0.0446   0.0216   0.0061   0.0049
     0.0003   0.0001   0.0001   0.0000   0.0000   0.0000   0.0000   0.0000
     0.0000   0.0000   0.0000   0.0000   0.0000   0.0000   0.0000   0.0000
     0.0000   0.0000   0.0000   0.0000   0.0000   0.0000   0.0000   0.0000
     0.0000   0.0000   0.0000

          k =-0.5000 0.0000 0.0000 ( 65180 PWs)   bands (ev):

   -92.6816 -92.6282 -92.5352 -92.4892 -92.4304 -92.3877 -92.3706 -92.2507
   -56.0351 -56.0147 -55.8926 -55.8823 -55.8752 -55.8691 -55.8329 -55.8045
   -55.7892 -55.7871 -55.7786 -55.7379 -55.7204 -55.6815 -55.6615 -55.6303
   -55.6244 -55.5762 -55.5753 -55.5730 -55.5646 -55.5259 -55.5009 -55.4174
   -31.2556 -31.2437 -31.1052 -31.0976 -31.0175 -31.0120 -30.7445 -30.6177
   -29.8270 -29.7868 -29.7593 -29.6514 -14.9948 -14.9407 -14.8791 -14.7746
   -14.6678 -14.5254 -14.3735 -14.2429 -14.1128 -14.1023 -14.0891 -14.0224
   -13.9725 -13.9483 -13.9358 -13.8882 -13.8876 -13.8685 -13.8192 -13.8071
   -13.6898 -13.5354 -13.5097 -13.4756 -13.4684 -13.4078 -13.3454 -13.2655
   -13.2491 -13.2256 -13.1990 -13.0872 -13.0358 -13.0245 -13.0026 -12.9920
   -12.9612 -12.9285 -12.9107 -12.9006 -12.8847 -12.6847 -12.6217 -12.6127
   -12.5668 -12.5640 -12.5428 -12.5222 -12.4367 -12.3241 -12.3083 -12.1056
   -12.0688 -11.7592 -11.7373 -11.7308 -11.7153 -11.6974 -11.6560 -11.5940
   -11.5769 -11.5445 -11.4975 -11.4884 -11.4732  -2.5617  -2.5236  -2.3595
    -2.3207  -2.0068  -1.9329  -1.7828  -1.6663  -1.6278  -1.5821  -1.5334
    -1.5090  -1.3856  -1.3414  -1.3255  -1.2433  -1.2087  -1.1913  -1.1614
    -1.1224  -1.0896  -1.0319  -1.0060  -0.9768  -0.8814  -0.8344  -0.7846
    -0.7527  -0.7309  -0.7022  -0.6540  -0.6290  -0.5886  -0.4941  -0.4142
    -0.3569  -0.2939  -0.1178  -0.0864  -0.0361  -0.0061   0.0673   0.0746
     0.2177   0.2480   0.2996   0.4602   0.5589   0.6070   0.6956   0.7814
     0.8933   0.8967   1.0290   1.0506   1.1055   1.1323   1.1739   1.1837
     1.2265   1.2544   1.3197   1.3687   1.4164   1.4243   1.7289   1.7354
     1.7524   1.7723   1.8772   1.8893   1.9108   1.9214   1.9445   1.9545
     2.0000   2.0201   2.0537   2.0972   2.1158   2.1636   2.1946   2.2406
     2.3557   2.4360   2.4712   2.5092   2.5360   2.5413   2.6279   2.6460
     2.6778   2.7435   2.7509   2.7583   2.7876   2.8579   2.9016   2.9453
     2.9773   3.0201   3.0242   3.0245   3.0366   3.0523   3.0634   3.0778
     3.0816   3.1042   3.1076   3.1288   3.1488   3.1539   3.2861   3.2897
     4.1006   4.1424   4.2053   4.3639   4.8104   4.8818   5.0599   5.0688
     5.4979   5.5254   5.6120   5.6703   6.0383   6.0537   6.2025   6.5251
     6.8102   7.0163   7.2950   7.3425   7.3670   7.4054   7.6497   7.7937
     7.8833   7.9108   8.1582   8.2325   8.3549   8.5250   8.5838   8.6637
     8.7766   8.8075   8.9655

     occupation numbers 
     1.0000   1.0000   1.0000   1.0000   1.0000   1.0000   1.0000   1.0000
     1.0000   1.0000   1.0000   1.0000   1.0000   1.0000   1.0000   1.0000
     1.0000   1.0000   1.0000   1.0000   1.0000   1.0000   1.0000   1.0000
     1.0000   1.0000   1.0000   1.0000   1.0000   1.0000   1.0000   1.0000
     1.0000   1.0000   1.0000   1.0000   1.0000   1.0000   1.0000   1.0000
     1.0000   1.0000   1.0000   1.0000   1.0000   1.0000   1.0000   1.0000
     1.0000   1.0000   1.0000   1.0000   1.0000   1.0000   1.0000   1.0000
     1.0000   1.0000   1.0000   1.0000   1.0000   1.0000   1.0000   1.0000
     1.0000   1.0000   1.0000   1.0000   1.0000   1.0000   1.0000   1.0000
     1.0000   1.0000   1.0000   1.0000   1.0000   1.0000   1.0000   1.0000
     1.0000   1.0000   1.0000   1.0000   1.0000   1.0000   1.0000   1.0000
     1.0000   1.0000   1.0000   1.0000   1.0000   1.0000   1.0000   1.0000
     1.0000   1.0000   1.0000   1.0000   1.0000   1.0000   1.0000   1.0000
     1.0000   1.0000   1.0000   1.0000   1.0000   1.0000   1.0000   1.0000
     1.0000   1.0000   1.0000   1.0000   1.0000   1.0000   1.0000   1.0000
     1.0000   1.0000   1.0000   1.0000   1.0000   1.0000   1.0000   1.0000
     1.0000   1.0000   1.0000   1.0000   1.0000   1.0000   1.0000   1.0000
     1.0000   1.0000   1.0000   1.0000   1.0000   1.0000   1.0000   1.0000
     1.0000   1.0000   1.0000   1.0000   1.0000   1.0000   1.0000   1.0000
     1.0000   1.0000   1.0000   1.0000   1.0000   1.0000   1.0000   0.9999
     0.9999   0.9999   0.9997   0.9997   0.9996   0.9995   0.9994   0.9993
     0.9992   0.9991   0.9987   0.9983   0.9979   0.9978   0.9918   0.9916
     0.9910   0.9903   0.9854   0.9847   0.9835   0.9828   0.9813   0.9806
     0.9772   0.9755   0.9725   0.9682   0.9662   0.9605   0.9564   0.9497
     0.9293   0.9118   0.9031   0.8930   0.8855   0.8840   0.8569   0.8508
     0.8395   0.8146   0.8116   0.8087   0.7966   0.7658   0.7454   0.7242
     0.7081   0.6859   0.6837   0.6836   0.6772   0.6687   0.6628   0.6549
     0.6528   0.6404   0.6385   0.6266   0.6153   0.6124   0.5356   0.5334
     0.1313   0.1185   0.1010   0.0654   0.0148   0.0113   0.0055   0.0053
     0.0007   0.0006   0.0004   0.0003   0.0000   0.0000   0.0000   0.0000
     0.0000   0.0000   0.0000   0.0000   0.0000   0.0000   0.0000   0.0000
     0.0000   0.0000   0.0000   0.0000   0.0000   0.0000   0.0000   0.0000
     0.0000   0.0000   0.0000

          k =-0.2500 0.2500 0.0000 ( 65198 PWs)   bands (ev):

   -92.6816 -92.6282 -92.5352 -92.4892 -92.4304 -92.3877 -92.3706 -92.2507
   -56.0351 -56.0147 -55.8926 -55.8823 -55.8752 -55.8691 -55.8329 -55.8045
   -55.7892 -55.7871 -55.7786 -55.7379 -55.7204 -55.6815 -55.6615 -55.6303
   -55.6244 -55.5762 -55.5753 -55.5730 -55.5646 -55.5259 -55.5009 -55.4174
   -31.2575 -31.2414 -31.1050 -31.0982 -31.0179 -31.0117 -30.7442 -30.6178
   -29.8274 -29.7854 -29.7603 -29.6513 -14.9977 -14.9524 -14.8825 -14.7657
   -14.6535 -14.5254 -14.4430 -14.2353 -14.0962 -14.0664 -14.0542 -14.0045
   -13.9817 -13.9619 -13.9481 -13.9399 -13.9041 -13.8167 -13.8052 -13.6535
   -13.6269 -13.5974 -13.5773 -13.5347 -13.4778 -13.4210 -13.4165 -13.2752
   -13.2382 -13.2045 -13.1280 -13.0873 -13.0424 -13.0206 -12.9932 -12.9730
   -12.9440 -12.9128 -12.9080 -12.8726 -12.8297 -12.7524 -12.7223 -12.6744
   -12.6668 -12.6172 -12.5625 -12.4233 -12.4157 -12.3616 -12.2642 -12.0617
   -12.0159 -11.7788 -11.7575 -11.7300 -11.7182 -11.6769 -11.6426 -11.6191
   -11.5983 -11.5753 -11.4901 -11.4452 -11.4357  -2.6466  -2.4383  -2.3175
    -2.2289  -2.1106  -2.0443  -1.8422  -1.6959  -1.6780  -1.6494  -1.5573
    -1.5207  -1.4274  -1.3939  -1.3676  -1.2253  -1.1706  -1.1094  -1.1003
    -1.0681  -1.0118  -0.9910  -0.9512  -0.9223  -0.8820  -0.8188  -0.7707
    -0.7095  -0.6393  -0.6123  -0.5616  -0.5324  -0.4870  -0.4325  -0.3888
    -0.3455  -0.2479  -0.2117  -0.2005  -0.1582  -0.0908  -0.0150   0.0316
     0.0573   0.1412   0.1645   0.4109   0.5777   0.6198   0.6593   0.7203
     0.7911   0.8462   0.8967   0.9218   1.2014   1.3109   1.3514   1.3827
     1.3891   1.4336   1.4494   1.4938   1.5238   1.5388   1.5641   1.6086
     1.6248   1.6683   1.6846   1.7300   1.8208   1.8418   1.8566   1.9071
     1.9231   1.9649   2.0337   2.1332   2.2245   2.2535   2.3023   2.3224
     2.3914   2.4282   2.4449   2.4594   2.4795   2.4980   2.5367   2.6087
     2.6357   2.7260   2.9025   2.9109   2.9245   2.9346   2.9455   2.9594
     2.9657   2.9833   2.9925   3.0072   3.0167   3.0293   3.0387   3.0458
     3.0790   3.0892   3.0975   3.1319   3.4239   3.5063   3.5695   3.6558
     3.6655   3.8609   3.9825   4.3256   4.5394   4.7364   5.0112   5.1762
     5.6639   5.7136   5.7755   5.8534   5.9145   6.0494   6.1830   6.2119
     6.8867   6.9175   7.0998   7.2678   7.5803   7.6245   7.6848   7.8596
     7.9159   7.9780   8.1881   8.2234   8.3019   8.3552   8.3698   8.4651
     8.5502   8.8108   8.9464

     occupation numbers 
     1.0000   1.0000   1.0000   1.0000   1.0000   1.0000   1.0000   1.0000
     1.0000   1.0000   1.0000   1.0000   1.0000   1.0000   1.0000   1.0000
     1.0000   1.0000   1.0000   1.0000   1.0000   1.0000   1.0000   1.0000
     1.0000   1.0000   1.0000   1.0000   1.0000   1.0000   1.0000   1.0000
     1.0000   1.0000   1.0000   1.0000   1.0000   1.0000   1.0000   1.0000
     1.0000   1.0000   1.0000   1.0000   1.0000   1.0000   1.0000   1.0000
     1.0000   1.0000   1.0000   1.0000   1.0000   1.0000   1.0000   1.0000
     1.0000   1.0000   1.0000   1.0000   1.0000   1.0000   1.0000   1.0000
     1.0000   1.0000   1.0000   1.0000   1.0000   1.0000   1.0000   1.0000
     1.0000   1.0000   1.0000   1.0000   1.0000   1.0000   1.0000   1.0000
     1.0000   1.0000   1.0000   1.0000   1.0000   1.0000   1.0000   1.0000
     1.0000   1.0000   1.0000   1.0000   1.0000   1.0000   1.0000   1.0000
     1.0000   1.0000   1.0000   1.0000   1.0000   1.0000   1.0000   1.0000
     1.0000   1.0000   1.0000   1.0000   1.0000   1.0000   1.0000   1.0000
     1.0000   1.0000   1.0000   1.0000   1.0000   1.0000   1.0000   1.0000
     1.0000   1.0000   1.0000   1.0000   1.0000   1.0000   1.0000   1.0000
     1.0000   1.0000   1.0000   1.0000   1.0000   1.0000   1.0000   1.0000
     1.0000   1.0000   1.0000   1.0000   1.0000   1.0000   1.0000   1.0000
     1.0000   1.0000   1.0000   1.0000   1.0000   1.0000   1.0000   1.0000
     1.0000   1.0000   1.0000   1.0000   1.0000   1.0000   1.0000   1.0000
     0.9999   0.9999   0.9999   0.9998   0.9993   0.9987   0.9985   0.9982
     0.9982   0.9977   0.9976   0.9970   0.9966   0.9964   0.9959   0.9951
     0.9947   0.9936   0.9932   0.9918   0.9882   0.9873   0.9865   0.9837
     0.9827   0.9799   0.9744   0.9642   0.9521   0.9477   0.9395   0.9358
     0.9219   0.9136   0.9096   0.9060   0.9010   0.8961   0.8853   0.8633
     0.8543   0.8215   0.7450   0.7410   0.7344   0.7295   0.7241   0.7171
     0.7140   0.7050   0.7003   0.6927   0.6877   0.6810   0.6760   0.6722
     0.6543   0.6487   0.6441   0.6249   0.4541   0.4061   0.3701   0.3229
     0.3177   0.2224   0.1724   0.0729   0.0382   0.0195   0.0067   0.0033
     0.0003   0.0002   0.0002   0.0001   0.0001   0.0000   0.0000   0.0000
     0.0000   0.0000   0.0000   0.0000   0.0000   0.0000   0.0000   0.0000
     0.0000   0.0000   0.0000   0.0000   0.0000   0.0000   0.0000   0.0000
     0.0000   0.0000   0.0000

          k =-0.5000 0.2500 0.0000 ( 65138 PWs)   bands (ev):

   -92.6816 -92.6282 -92.5352 -92.4892 -92.4304 -92.3877 -92.3706 -92.2507
   -56.0351 -56.0147 -55.8926 -55.8823 -55.8752 -55.8691 -55.8329 -55.8045
   -55.7892 -55.7871 -55.7786 -55.7379 -55.7204 -55.6815 -55.6615 -55.6303
   -55.6244 -55.5762 -55.5753 -55.5730 -55.5646 -55.5259 -55.5009 -55.4174
   -31.2554 -31.2435 -31.1049 -31.0978 -31.0178 -31.0121 -30.7443 -30.6179
   -29.8264 -29.7864 -29.7600 -29.6518 -14.9615 -14.9148 -14.8360 -14.7401
   -14.6982 -14.5719 -14.4793 -14.3563 -14.0466 -14.0156 -14.0037 -13.9578
   -13.9461 -13.9363 -13.9112 -13.8752 -13.8734 -13.8457 -13.8107 -13.7988
   -13.6844 -13.6182 -13.5698 -13.5671 -13.5535 -13.4600 -13.4492 -13.3086
   -13.2781 -13.1811 -13.1464 -13.0548 -13.0384 -13.0074 -12.9972 -12.9759
   -12.9454 -12.9242 -12.9143 -12.8867 -12.8363 -12.6956 -12.6412 -12.6297
   -12.6041 -12.5973 -12.5617 -12.5203 -12.3600 -12.3037 -12.2505 -12.1056
   -12.0837 -11.7518 -11.7388 -11.7247 -11.7131 -11.6910 -11.6609 -11.5813
   -11.5721 -11.5497 -11.5120 -11.4843 -11.4758  -2.4194  -2.3779  -2.2291
    -2.1872  -2.0260  -1.9514  -1.8072  -1.6727  -1.6163  -1.5893  -1.5497
    -1.5113  -1.4304  -1.3155  -1.2583  -1.2355  -1.2100  -1.1355  -1.1107
    -1.1021  -1.0591  -1.0479  -0.9871  -0.9586  -0.9194  -0.8841  -0.8553
    -0.7976  -0.7707  -0.7290  -0.6947  -0.5907  -0.5621  -0.4764  -0.4111
    -0.3798  -0.3271  -0.2384  -0.2041  -0.1052  -0.0627  -0.0082   0.0490
     0.0647   0.1403   0.1698   0.2059   0.2517   0.2913   0.6010   0.6634
     0.7470   0.7909   1.0389   1.0936   1.1667   1.1962   1.3702   1.4072
     1.4451   1.4565   1.4750   1.4930   1.5627   1.6039   1.6469   1.6724
     1.8035   1.8326   1.8651   1.8780   1.9286   1.9404   1.9558   1.9738
     1.9936   2.0141   2.0665   2.0745   2.1101   2.1320   2.1705   2.2226
     2.3430   2.4287   2.4587   2.4694   2.5188   2.5461   2.5735   2.6438
     2.6731   2.6789   2.7173   2.7496   2.7729   2.8579   2.8979   2.9116
     2.9165   2.9377   2.9609   2.9734   2.9886   3.0002   3.0220   3.0349
     3.0452   3.0525   3.0641   3.0753   3.6040   3.6545   3.7947   3.8177
     4.1056   4.1673   4.2167   4.4387   4.8051   4.8996   5.0605   5.0958
     5.4229   5.4505   5.6018   5.6347   5.7665   5.8022   6.2837   6.4063
     6.5087   6.6642   7.1839   7.3933   7.5453   7.7258   7.8074   7.8669
     7.9192   8.0413   8.2005   8.4013   8.4269   8.5240   8.5562   8.5919
     8.6664   8.7467   8.8509

     occupation numbers 
     1.0000   1.0000   1.0000   1.0000   1.0000   1.0000   1.0000   1.0000
     1.0000   1.0000   1.0000   1.0000   1.0000   1.0000   1.0000   1.0000
     1.0000   1.0000   1.0000   1.0000   1.0000   1.0000   1.0000   1.0000
     1.0000   1.0000   1.0000   1.0000   1.0000   1.0000   1.0000   1.0000
     1.0000   1.0000   1.0000   1.0000   1.0000   1.0000   1.0000   1.0000
     1.0000   1.0000   1.0000   1.0000   1.0000   1.0000   1.0000   1.0000
     1.0000   1.0000   1.0000   1.0000   1.0000   1.0000   1.0000   1.0000
     1.0000   1.0000   1.0000   1.0000   1.0000   1.0000   1.0000   1.0000
     1.0000   1.0000   1.0000   1.0000   1.0000   1.0000   1.0000   1.0000
     1.0000   1.0000   1.0000   1.0000   1.0000   1.0000   1.0000   1.0000
     1.0000   1.0000   1.0000   1.0000   1.0000   1.0000   1.0000   1.0000
     1.0000   1.0000   1.0000   1.0000   1.0000   1.0000   1.0000   1.0000
     1.0000   1.0000   1.0000   1.0000   1.0000   1.0000   1.0000   1.0000
     1.0000   1.0000   1.0000   1.0000   1.0000   1.0000   1.0000   1.0000
     1.0000   1.0000   1.0000   1.0000   1.0000   1.0000   1.0000   1.0000
     1.0000   1.0000   1.0000   1.0000   1.0000   1.0000   1.0000   1.0000
     1.0000   1.0000   1.0000   1.0000   1.0000   1.0000   1.0000   1.0000
     1.0000   1.0000   1.0000   1.0000   1.0000   1.0000   1.0000   1.0000
     1.0000   1.0000   1.0000   1.0000   1.0000   1.0000   1.0000   1.0000
     1.0000   1.0000   1.0000   1.0000   1.0000   1.0000   1.0000   1.0000
     0.9999   0.9999   0.9997   0.9996   0.9994   0.9993   0.9983   0.9980
     0.9976   0.9975   0.9973   0.9970   0.9960   0.9952   0.9942   0.9935
     0.9890   0.9877   0.9861   0.9854   0.9824   0.9816   0.9805   0.9792
     0.9777   0.9760   0.9713   0.9705   0.9668   0.9643   0.9596   0.9524
     0.9318   0.9135   0.9062   0.9035   0.8904   0.8826   0.8744   0.8515
     0.8412   0.8391   0.8248   0.8122   0.8027   0.7658   0.7472   0.7406
     0.7383   0.7279   0.7164   0.7101   0.7023   0.6963   0.6849   0.6781
     0.6726   0.6687   0.6624   0.6563   0.3510   0.3236   0.2527   0.2419
     0.1297   0.1114   0.0981   0.0524   0.0151   0.0105   0.0055   0.0047
     0.0010   0.0009   0.0004   0.0003   0.0002   0.0001   0.0000   0.0000
     0.0000   0.0000   0.0000   0.0000   0.0000   0.0000   0.0000   0.0000
     0.0000   0.0000   0.0000   0.0000   0.0000   0.0000   0.0000   0.0000
     0.0000   0.0000   0.0000

     the Fermi energy is     3.3462 ev

!    total energy              =   -4441.65567399 Ry
     estimated scf accuracy    <          8.3E-09 Ry
     smearing contrib. (-TS)   =      -1.15512773 Ry
     internal energy E=F+TS    =   -4440.50054626 Ry

     The total energy is F=E-TS. E is the sum of the following terms:
     one-electron contribution =  -20804.81781246 Ry
     hartree contribution      =   10534.67115590 Ry
     xc contribution           =    -694.18163979 Ry
     ewald contribution        =    6799.99793692 Ry
     one-center paw contrib.   =    -276.17018682 Ry
      -> PAW hartree energy AE =      25.16894843 Ry
      -> PAW hartree energy PS =     -25.05278164 Ry
      -> PAW xc energy AE      =     -16.51835783 Ry
      -> PAW xc energy PS      =       6.87786060 Ry
      -> total E_H with PAW    =   10534.78732268 Ry
      -> total E_XC with PAW   =    -703.82213703 Ry

     convergence has been achieved in  47 iterations

     Writing all to output data dir /bsuhome/zayahcortright/scratch/pwscf.save/
 
     init_run     :      7.67s CPU      8.49s WALL (       1 calls)
     electrons    :    765.93s CPU    848.52s WALL (       1 calls)

     Called by init_run:
     wfcinit      :      6.16s CPU      6.38s WALL (       1 calls)
     wfcinit:atom :      0.04s CPU      0.06s WALL (       5 calls)
     wfcinit:wfcr :      5.84s CPU      5.98s WALL (       5 calls)
     potinit      :      0.15s CPU      0.18s WALL (       1 calls)
     hinit0       :      0.47s CPU      0.77s WALL (       1 calls)

     Called by electrons:
     c_bands      :    617.82s CPU    630.14s WALL (      47 calls)
     sum_band     :    109.92s CPU    148.29s WALL (      47 calls)
     v_of_rho     :      5.24s CPU      5.67s WALL (      48 calls)
     v_h          :      0.44s CPU      0.45s WALL (      48 calls)
     v_xc         :      4.79s CPU      5.23s WALL (      48 calls)
     newd         :     18.26s CPU     49.26s WALL (      48 calls)
     PAW_pot      :      1.56s CPU      1.59s WALL (      48 calls)
     mix_rho      :     12.87s CPU     13.34s WALL (      47 calls)

     Called by c_bands:
     init_us_2    :      6.43s CPU      6.55s WALL (     475 calls)
     init_us_2:cp :      6.43s CPU      6.54s WALL (     475 calls)
     cegterg      :    584.25s CPU    596.17s WALL (     235 calls)

     Called by sum_band:
     sum_band:wei :      0.33s CPU      0.34s WALL (      47 calls)
     sum_band:loo :     88.58s CPU     89.41s WALL (      47 calls)
     sum_band:buf :      1.29s CPU      1.35s WALL (     235 calls)
     sum_band:ini :      2.86s CPU      2.87s WALL (     235 calls)
     sum_band:cal :     18.65s CPU     18.71s WALL (     235 calls)
     sum_band:bec :      0.56s CPU      0.58s WALL (     235 calls)
     addusdens    :     16.75s CPU     54.20s WALL (      47 calls)
                                        0.00s GPU  (      47 calls)
     addusd:skk   :      0.32s CPU      2.34s WALL (     188 calls)
                                        0.00s GPU  (     188 calls)

     Called by *egterg:
     cdiaghg      :     57.57s CPU     57.87s WALL (    1297 calls)
     cegterg:over :     45.83s CPU     46.05s WALL (    1062 calls)
     cegterg:upda :     48.92s CPU     49.86s WALL (    1062 calls)
     cegterg:last :     68.36s CPU     68.65s WALL (     427 calls)
     cdiaghg:chol :      3.21s CPU      3.23s WALL (    1297 calls)
     cdiaghg:inve :      3.40s CPU      3.42s WALL (    1297 calls)
     cdiaghg:para :      7.32s CPU      7.39s WALL (    2594 calls)
     h_psi        :    294.31s CPU    299.12s WALL (    1302 calls)
     s_psi        :     42.18s CPU     42.38s WALL (    1302 calls)
     g_psi        :      2.32s CPU      2.33s WALL (    1062 calls)

     Called by h_psi:
     h_psi:calbec :     44.30s CPU     44.54s WALL (    1302 calls)
     vloc_psi     :    202.19s CPU    204.37s WALL (    1302 calls)
     add_vuspsi   :     42.74s CPU     42.99s WALL (    1302 calls)

     General routines
     calbec       :     62.95s CPU     63.24s WALL (    1537 calls)
     fft          :      6.56s CPU      6.62s WALL (     622 calls)
     ffts         :      4.64s CPU      4.70s WALL (    5075 calls)
     fftw         :    168.49s CPU    170.16s WALL (  319907 calls)
     interpolate  :      0.39s CPU      0.41s WALL (      48 calls)
 
     Parallel routines

     PAW routines
     PAW_pot      :      1.56s CPU      1.59s WALL (      48 calls)
 
     PWSCF        :  12m55.42s CPU  14m21.70s WALL

 
   This run was terminated on:  18:22: 7  21Jun2024            

=------------------------------------------------------------------------------=
   JOB DONE.
=------------------------------------------------------------------------------=
