
     Program PWSCF v.7.2 starts on 21Jun2024 at 16:24:24 

     This program is part of the open-source Quantum ESPRESSO suite
     for quantum simulation of materials; please cite
         "P. Giannozzi et al., J. Phys.:Condens. Matter 21 395502 (2009);
         "P. Giannozzi et al., J. Phys.:Condens. Matter 29 465901 (2017);
         "P. Giannozzi et al., J. Chem. Phys. 152 154105 (2020);
          URL http://www.quantum-espresso.org", 
     in publications or presentations arising from this work. More details at
     http://www.quantum-espresso.org/quote

     Parallel version (MPI & OpenMP), running on      48 processor cores
     Number of MPI processes:                48
     Threads/MPI process:                     1

     MPI processes distributed on     1 nodes
     60582 MiB available memory on the printing compute node when the environment starts
 
     Reading input from espresso.pwi
Warning: card &CELL ignored
Warning: card / ignored
Warning: card &FCP ignored
Warning: card / ignored
Warning: card &RISM ignored
Warning: card / ignored

     Current dimensions of program PWSCF are:
     Max number of different atomic species (ntypx) = 10
     Max number of k-points (npk) =  40000
     Max angular momentum in pseudopotentials (lmaxx) =  4
     file O.pbe-n-kjpaw_psl.0.1.UPF: wavefunction(s)  2P renormalized
     signal trapping enabled: kill the code with -SIGUSR1 to stop cleanly the simulation 
 
     K-points division:     npool     =       2
     R & G space division:  proc/nbgrp/npool/nimage =      24
     Subspace diagonalization in iterative solution of the eigenvalue problem:
     one sub-group per band group will be used
     scalapack distributed-memory algorithm (size of sub-group:  3*  3 procs)

 
     Parallelization info
     --------------------
     sticks:   dense  smooth     PW     G-vecs:    dense   smooth      PW
     Min         350     175     47                61430    21716    3036
     Max         351     177     48                61449    21727    3041
     Sum        8421    4205   1137              1474595   521381   72913
 
     Using Slab Decomposition
 


     bravais-lattice index     =            0
     lattice parameter (alat)  =      14.8599  a.u.
     unit-cell volume          =    8305.1283 (a.u.)^3
     number of atoms/cell      =           49
     number of atomic types    =            3
     number of electrons       =       430.00
     number of Kohn-Sham states=          258
     kinetic-energy cutoff     =      60.0000  Ry
     charge density cutoff     =     480.0000  Ry
     scf convergence threshold =      1.0E-08
     mixing beta               =       0.1500
     number of iterations used =            8  local-TF  mixing
     Exchange-correlation= SLA  PW   PBE  PBE
                           (   1   4   3   4   0   0   0)

     celldm(1)=  14.859904  celldm(2)=   0.000000  celldm(3)=   0.000000
     celldm(4)=   0.000000  celldm(5)=   0.000000  celldm(6)=   0.000000

     crystal axes: (cart. coord. in units of alat)
               a(1) = (   1.000000   0.000000   0.000000 )  
               a(2) = (   0.000000   1.000000   0.000000 )  
               a(3) = (   0.000000   0.000000   2.531036 )  

     reciprocal axes: (cart. coord. in units 2 pi/alat)
               b(1) = (  1.000000  0.000000  0.000000 )  
               b(2) = (  0.000000  1.000000  0.000000 )  
               b(3) = (  0.000000  0.000000  0.395095 )  


     PseudoPot. # 1 for Sr read from file:
     /bsuhome/zayahcortright/q-e/pseudo/Sr_pbe_v1.uspp.F.UPF
     MD5 check sum: 6b418c05fbe9db5448babca5e47b7a5b
     Pseudo is Ultrasoft + core correction, Zval = 10.0
     Generated by new atomic code, or converted to UPF format
     Using radial grid of  883 points,  6 beta functions with: 
                l(1) =   0
                l(2) =   0
                l(3) =   1
                l(4) =   1
                l(5) =   2
                l(6) =   2
     Q(r) pseudized with  6 coefficients,  rinner =    1.400   1.400   1.400
                                                       1.400   1.400

     PseudoPot. # 2 for O  read from file:
     /bsuhome/zayahcortright/q-e/pseudo/O.pbe-n-kjpaw_psl.0.1.UPF
     MD5 check sum: 0234752ac141de4415c5fc33072bef88
     Pseudo is Projector augmented-wave + core cor, Zval =  6.0
     Generated using "atomic" code by A. Dal Corso  v.5.0.99 svn rev. 10869
     Shape of augmentation charge: BESSEL
     Using radial grid of 1095 points,  4 beta functions with: 
                l(1) =   0
                l(2) =   0
                l(3) =   1
                l(4) =   1
     Q(r) pseudized with 0 coefficients 


     PseudoPot. # 3 for Co read from file:
     /bsuhome/zayahcortright/q-e/pseudo/Co_pbe_v1.2.uspp.F.UPF
     MD5 check sum: 5f91765df6ddd3222702df6e7b74a16d
     Pseudo is Ultrasoft + core correction, Zval = 17.0
     Generated by new atomic code, or converted to UPF format
     Using radial grid of  863 points,  6 beta functions with: 
                l(1) =   0
                l(2) =   0
                l(3) =   1
                l(4) =   1
                l(5) =   2
                l(6) =   2
     Q(r) pseudized with  8 coefficients,  rinner =    1.200   1.200   1.200
                                                       1.200   1.200

     atomic species   valence    mass     pseudopotential
        Sr            10.00    87.62000     Sr( 1.00)
        O              6.00    15.99900     O ( 1.00)
        Co            17.00    58.93319     Co( 1.00)

     No symmetry found


                                    s                        frac. trans.

      isym =  1     identity                                     

 cryst.   s( 1) = (     1          0          0      )
                  (     0          1          0      )
                  (     0          0          1      )

 cart.    s( 1) = (  1.0000000  0.0000000  0.0000000 )
                  (  0.0000000  1.0000000  0.0000000 )
                  (  0.0000000  0.0000000  1.0000000 )


   Cartesian axes

     site n.     atom                  positions (alat units)
         1           Sr  tau(   1) = (   0.2508693   0.7491307   1.7574407  )
         2           O   tau(   2) = (   0.4985141   0.5014859   1.7715967  )
         3           Sr  tau(   3) = (   0.7482398   0.7454518   1.7648669  )
         4           Sr  tau(   4) = (   0.7441748   0.2558252   1.7667843  )
         5           Sr  tau(   5) = (   0.2508693   0.7491307   1.2696799  )
         6           Sr  tau(   6) = (   0.2508693   0.7491307   0.7632319  )
         7           Co  tau(   7) = (   0.4998914   0.5001086   1.0164559  )
         8           Co  tau(   8) = (   0.4936915   0.5063085   1.5135603  )
         9           O   tau(   9) = (   0.4988895   0.7610401   1.0164559  )
        10           O   tau(  10) = (   0.2389599   0.5011105   1.0164559  )
        11           O   tau(  11) = (   0.0070918   0.7374880   1.0164559  )
        12           O   tau(  12) = (   0.0088340   0.7405089   1.5135603  )
        13           O   tau(  13) = (   0.5066944   0.7415376   1.5135603  )
        14           O   tau(  14) = (   0.2584624   0.4933056   1.5135603  )
        15           O   tau(  15) = (   0.4985141   0.5014859   0.7773880  )
        16           O   tau(  16) = (   0.4985141   0.5014859   1.2555238  )
        17           Sr  tau(  17) = (   0.7482398   0.7454518   0.7706582  )
        18           Sr  tau(  18) = (   0.7482398   0.7454518   1.2622536  )
        19           Sr  tau(  19) = (   0.7441748   0.2558252   0.7725755  )
        20           Sr  tau(  20) = (   0.7441748   0.2558252   1.2603363  )
        21           O   tau(  21) = (   0.7322655   0.0078049   1.5135603  )
        22           O   tau(  22) = (   0.7558175   0.4996027   1.5135603  )
        23           O   tau(  23) = (   0.5003973   0.2441825   1.5135603  )
        24           O   tau(  24) = (   0.7527966   0.4978604   1.0164559  )
        25           O   tau(  25) = (   0.5021396   0.2472034   1.0164559  )
        26           O   tau(  26) = (   0.7517679   0.0000000   1.0164559  )
        27           O   tau(  27) = (   0.0114961   0.4948124   1.7455321  )
        28           O   tau(  28) = (   0.0048226   0.0077944   1.7715967  )
        29           Sr  tau(  29) = (   0.2545482   0.2517602   1.7648669  )
        30           O   tau(  30) = (   0.5048017   0.0015068   1.7786929  )
        31           Co  tau(  31) = (   0.0056869   0.5006215   1.0164559  )
        32           Co  tau(  32) = (   0.0065315   0.4997770   1.5135603  )
        33           Co  tau(  33) = (   0.0061999   0.0064171   1.0164559  )
        34           Co  tau(  34) = (   0.0000000   0.0126169   1.5135603  )
        35           O   tau(  35) = (   0.0114961   0.4948124   1.2815885  )
        36           O   tau(  36) = (   0.0114961   0.4948124   0.7513233  )
        37           O   tau(  37) = (   0.0051979   0.2673486   1.0164559  )
        38           O   tau(  38) = (   0.0130029   0.2478461   1.5135603  )
        39           O   tau(  39) = (   0.0048226   0.0077944   0.7773880  )
        40           O   tau(  40) = (   0.0048226   0.0077944   1.2555238  )
        41           Sr  tau(  41) = (   0.2545482   0.2517602   0.7706582  )
        42           Sr  tau(  42) = (   0.2545482   0.2517602   1.2622536  )
        43           Co  tau(  43) = (   0.4989925   0.0073160   1.5135603  )
        44           Co  tau(  44) = (   0.4998370   0.0064714   1.0164559  )
        45           O   tau(  45) = (   0.5048017   0.0015068   0.7844841  )
        46           O   tau(  46) = (   0.5048017   0.0015068   1.2484277  )
        47           O   tau(  47) = (   0.2621260   0.0059111   1.5135603  )
        48           O   tau(  48) = (   0.2591051   0.0041689   1.0164559  )
        49           O   tau(  49) = (   0.1421646   0.2843291   2.1602013  )

   Crystallographic axes

     site n.     atom                  positions (cryst. coord.)
         1           Sr  tau(   1) = (  0.2508693  0.7491307  0.6943562  )
         2           O   tau(   2) = (  0.4985141  0.5014859  0.6999492  )
         3           Sr  tau(   3) = (  0.7482398  0.7454518  0.6972903  )
         4           Sr  tau(   4) = (  0.7441748  0.2558252  0.6980478  )
         5           Sr  tau(   5) = (  0.2508693  0.7491307  0.5016443  )
         6           Sr  tau(   6) = (  0.2508693  0.7491307  0.3015492  )
         7           Co  tau(   7) = (  0.4998914  0.5001086  0.4015968  )
         8           Co  tau(   8) = (  0.4936915  0.5063085  0.5980003  )
         9           O   tau(   9) = (  0.4988895  0.7610401  0.4015968  )
        10           O   tau(  10) = (  0.2389599  0.5011105  0.4015968  )
        11           O   tau(  11) = (  0.0070918  0.7374880  0.4015968  )
        12           O   tau(  12) = (  0.0088340  0.7405089  0.5980003  )
        13           O   tau(  13) = (  0.5066944  0.7415376  0.5980003  )
        14           O   tau(  14) = (  0.2584624  0.4933056  0.5980003  )
        15           O   tau(  15) = (  0.4985141  0.5014859  0.3071422  )
        16           O   tau(  16) = (  0.4985141  0.5014859  0.4960513  )
        17           Sr  tau(  17) = (  0.7482398  0.7454518  0.3044833  )
        18           Sr  tau(  18) = (  0.7482398  0.7454518  0.4987103  )
        19           Sr  tau(  19) = (  0.7441748  0.2558252  0.3052408  )
        20           Sr  tau(  20) = (  0.7441748  0.2558252  0.4979527  )
        21           O   tau(  21) = (  0.7322655  0.0078049  0.5980003  )
        22           O   tau(  22) = (  0.7558175  0.4996027  0.5980003  )
        23           O   tau(  23) = (  0.5003973  0.2441825  0.5980003  )
        24           O   tau(  24) = (  0.7527966  0.4978604  0.4015968  )
        25           O   tau(  25) = (  0.5021396  0.2472034  0.4015968  )
        26           O   tau(  26) = (  0.7517679  0.0000000  0.4015968  )
        27           O   tau(  27) = (  0.0114961  0.4948124  0.6896512  )
        28           O   tau(  28) = (  0.0048226  0.0077944  0.6999492  )
        29           Sr  tau(  29) = (  0.2545482  0.2517602  0.6972903  )
        30           O   tau(  30) = (  0.5048017  0.0015068  0.7027529  )
        31           Co  tau(  31) = (  0.0056869  0.5006215  0.4015968  )
        32           Co  tau(  32) = (  0.0065315  0.4997770  0.5980003  )
        33           Co  tau(  33) = (  0.0061999  0.0064171  0.4015968  )
        34           Co  tau(  34) = (  0.0000000  0.0126169  0.5980003  )
        35           O   tau(  35) = (  0.0114961  0.4948124  0.5063494  )
        36           O   tau(  36) = (  0.0114961  0.4948124  0.2968442  )
        37           O   tau(  37) = (  0.0051979  0.2673486  0.4015968  )
        38           O   tau(  38) = (  0.0130029  0.2478461  0.5980003  )
        39           O   tau(  39) = (  0.0048226  0.0077944  0.3071422  )
        40           O   tau(  40) = (  0.0048226  0.0077944  0.4960513  )
        41           Sr  tau(  41) = (  0.2545482  0.2517602  0.3044833  )
        42           Sr  tau(  42) = (  0.2545482  0.2517602  0.4987103  )
        43           Co  tau(  43) = (  0.4989925  0.0073160  0.5980003  )
        44           Co  tau(  44) = (  0.4998370  0.0064714  0.4015968  )
        45           O   tau(  45) = (  0.5048017  0.0015068  0.3099459  )
        46           O   tau(  46) = (  0.5048017  0.0015068  0.4932477  )
        47           O   tau(  47) = (  0.2621260  0.0059111  0.5980003  )
        48           O   tau(  48) = (  0.2591051  0.0041689  0.4015968  )
        49           O   tau(  49) = (  0.1421646  0.2843291  0.8534850  )

     number of k points=    10  Gaussian smearing, width (Ry)=  0.0700
                       cart. coord. in units 2pi/alat
        k(    1) = (   0.0000000   0.0000000   0.0000000), wk =   0.1250000
        k(    2) = (   0.0000000   0.2500000   0.0000000), wk =   0.2500000
        k(    3) = (   0.0000000  -0.5000000   0.0000000), wk =   0.1250000
        k(    4) = (   0.2500000   0.2500000   0.0000000), wk =   0.2500000
        k(    5) = (   0.2500000  -0.5000000   0.0000000), wk =   0.2500000
        k(    6) = (  -0.5000000  -0.5000000   0.0000000), wk =   0.1250000
        k(    7) = (   0.2500000   0.0000000   0.0000000), wk =   0.2500000
        k(    8) = (  -0.5000000   0.0000000   0.0000000), wk =   0.1250000
        k(    9) = (  -0.2500000   0.2500000   0.0000000), wk =   0.2500000
        k(   10) = (  -0.5000000   0.2500000   0.0000000), wk =   0.2500000

                       cryst. coord.
        k(    1) = (   0.0000000   0.0000000   0.0000000), wk =   0.1250000
        k(    2) = (   0.0000000   0.2500000   0.0000000), wk =   0.2500000
        k(    3) = (   0.0000000  -0.5000000   0.0000000), wk =   0.1250000
        k(    4) = (   0.2500000   0.2500000   0.0000000), wk =   0.2500000
        k(    5) = (   0.2500000  -0.5000000   0.0000000), wk =   0.2500000
        k(    6) = (  -0.5000000  -0.5000000   0.0000000), wk =   0.1250000
        k(    7) = (   0.2500000   0.0000000   0.0000000), wk =   0.2500000
        k(    8) = (  -0.5000000   0.0000000   0.0000000), wk =   0.1250000
        k(    9) = (  -0.2500000   0.2500000   0.0000000), wk =   0.2500000
        k(   10) = (  -0.5000000   0.2500000   0.0000000), wk =   0.2500000

     Dense  grid:  1474595 G-vectors     FFT dimensions: ( 108, 108, 270)

     Smooth grid:   521381 G-vectors     FFT dimensions: (  75,  75, 192)

     Dynamical RAM for                 wfc:      10.69 MB

     Dynamical RAM for     wfc (w. buffer):      64.13 MB

     Dynamical RAM for           str. fact:       2.81 MB

     Dynamical RAM for           local pot:       0.00 MB

     Dynamical RAM for          nlocal pot:      24.53 MB

     Dynamical RAM for                qrad:       5.27 MB

     Dynamical RAM for          rho,v,vnew:       6.02 MB

     Dynamical RAM for               rhoin:       2.01 MB

     Dynamical RAM for            rho*nmix:      15.00 MB

     Dynamical RAM for           G-vectors:       3.68 MB

     Dynamical RAM for          h,s,v(r/c):       1.35 MB

     Dynamical RAM for          <psi|beta>:       2.33 MB

     Dynamical RAM for                 psi:      21.38 MB

     Dynamical RAM for                hpsi:      21.38 MB

     Dynamical RAM for                spsi:      21.38 MB

     Dynamical RAM for      wfcinit/wfcrot:      34.39 MB

     Dynamical RAM for           addusdens:     101.26 MB

     Estimated static dynamical RAM per process >     117.53 MB

     Estimated max dynamical RAM per process >     233.79 MB

     Estimated total dynamical RAM >      10.61 GB

     Check: negative core charge=   -0.000004

     Initial potential from superposition of free atoms

     starting charge     421.5961, renormalised to     430.0000

     negative rho (up, down):  7.826E-01 0.000E+00
     Starting wfcs are  376 randomized atomic wfcs
     Checking if some PAW data can be deallocated... 
       PAW data deallocated on   19 nodes for type:  2

     total cpu time spent up to now is        9.3 secs

     Self-consistent Calculation

     iteration #  1     ecut=    60.00 Ry     beta= 0.15
     Davidson diagonalization with overlap

---- Real-time Memory Report at c_bands before calling an iterative solver
             0 MiB given to the printing process from OS
             0 MiB allocation reported by mallinfo(arena+hblkhd)
         51471 MiB available memory on the node where the printing process lives
------------------
     ethr =  1.00E-02,  avg # of iterations =  2.0

     negative rho (up, down):  7.716E-01 0.000E+00

     total cpu time spent up to now is       25.0 secs

     total energy              =   -4445.20430685 Ry
     estimated scf accuracy    <      53.80278683 Ry

     iteration #  2     ecut=    60.00 Ry     beta= 0.15
     Davidson diagonalization with overlap

---- Real-time Memory Report at c_bands before calling an iterative solver
             0 MiB given to the printing process from OS
             0 MiB allocation reported by mallinfo(arena+hblkhd)
         51857 MiB available memory on the node where the printing process lives
------------------
     ethr =  1.00E-02,  avg # of iterations =  1.0

     negative rho (up, down):  7.595E-01 0.000E+00

     total cpu time spent up to now is       38.1 secs

     total energy              =   -4442.05105809 Ry
     estimated scf accuracy    <      28.04517321 Ry

     iteration #  3     ecut=    60.00 Ry     beta= 0.15
     Davidson diagonalization with overlap

---- Real-time Memory Report at c_bands before calling an iterative solver
             0 MiB given to the printing process from OS
             0 MiB allocation reported by mallinfo(arena+hblkhd)
         51081 MiB available memory on the node where the printing process lives
------------------
     ethr =  6.52E-03,  avg # of iterations =  1.0

     negative rho (up, down):  7.528E-01 0.000E+00

     total cpu time spent up to now is       50.8 secs

     total energy              =   -4442.54516493 Ry
     estimated scf accuracy    <      30.23620908 Ry

     iteration #  4     ecut=    60.00 Ry     beta= 0.15
     Davidson diagonalization with overlap

---- Real-time Memory Report at c_bands before calling an iterative solver
             0 MiB given to the printing process from OS
             0 MiB allocation reported by mallinfo(arena+hblkhd)
         51033 MiB available memory on the node where the printing process lives
------------------
     ethr =  6.52E-03,  avg # of iterations =  1.0

     negative rho (up, down):  7.521E-01 0.000E+00

     total cpu time spent up to now is       63.4 secs

     total energy              =   -4442.99399485 Ry
     estimated scf accuracy    <      28.88240272 Ry

     iteration #  5     ecut=    60.00 Ry     beta= 0.15
     Davidson diagonalization with overlap

---- Real-time Memory Report at c_bands before calling an iterative solver
             0 MiB given to the printing process from OS
             0 MiB allocation reported by mallinfo(arena+hblkhd)
         51014 MiB available memory on the node where the printing process lives
------------------
     ethr =  6.52E-03,  avg # of iterations =  1.0

     negative rho (up, down):  7.363E-01 0.000E+00

     total cpu time spent up to now is       76.0 secs

     total energy              =   -4442.39461364 Ry
     estimated scf accuracy    <      37.51434740 Ry

     iteration #  6     ecut=    60.00 Ry     beta= 0.15
     Davidson diagonalization with overlap

---- Real-time Memory Report at c_bands before calling an iterative solver
             0 MiB given to the printing process from OS
             0 MiB allocation reported by mallinfo(arena+hblkhd)
         50995 MiB available memory on the node where the printing process lives
------------------
     ethr =  6.52E-03,  avg # of iterations =  1.0

     negative rho (up, down):  7.444E-01 0.000E+00

     total cpu time spent up to now is       88.8 secs

     total energy              =   -4442.21359887 Ry
     estimated scf accuracy    <      41.66051495 Ry

     iteration #  7     ecut=    60.00 Ry     beta= 0.15
     Davidson diagonalization with overlap

---- Real-time Memory Report at c_bands before calling an iterative solver
             0 MiB given to the printing process from OS
             0 MiB allocation reported by mallinfo(arena+hblkhd)
         50975 MiB available memory on the node where the printing process lives
------------------
     ethr =  6.52E-03,  avg # of iterations =  1.0

     negative rho (up, down):  7.471E-01 0.000E+00

     total cpu time spent up to now is      101.4 secs

     total energy              =   -4439.45191736 Ry
     estimated scf accuracy    <      37.94932702 Ry

     iteration #  8     ecut=    60.00 Ry     beta= 0.15
     Davidson diagonalization with overlap

---- Real-time Memory Report at c_bands before calling an iterative solver
             0 MiB given to the printing process from OS
             0 MiB allocation reported by mallinfo(arena+hblkhd)
         50957 MiB available memory on the node where the printing process lives
------------------
     ethr =  6.52E-03,  avg # of iterations =  1.0

     negative rho (up, down):  7.429E-01 0.000E+00

     total cpu time spent up to now is      114.1 secs

     total energy              =   -4440.57320128 Ry
     estimated scf accuracy    <       6.93441630 Ry

     iteration #  9     ecut=    60.00 Ry     beta= 0.15
     Davidson diagonalization with overlap

---- Real-time Memory Report at c_bands before calling an iterative solver
             0 MiB given to the printing process from OS
             0 MiB allocation reported by mallinfo(arena+hblkhd)
         50938 MiB available memory on the node where the printing process lives
------------------
     ethr =  1.61E-03,  avg # of iterations =  1.7

     negative rho (up, down):  7.603E-01 0.000E+00

     total cpu time spent up to now is      127.4 secs

     total energy              =   -4440.62139454 Ry
     estimated scf accuracy    <       6.72554521 Ry

     iteration # 10     ecut=    60.00 Ry     beta= 0.15
     Davidson diagonalization with overlap

---- Real-time Memory Report at c_bands before calling an iterative solver
             0 MiB given to the printing process from OS
             0 MiB allocation reported by mallinfo(arena+hblkhd)
         50913 MiB available memory on the node where the printing process lives
------------------
     ethr =  1.56E-03,  avg # of iterations =  2.0

     negative rho (up, down):  7.662E-01 0.000E+00

     total cpu time spent up to now is      141.6 secs

     total energy              =   -4440.25725458 Ry
     estimated scf accuracy    <      23.98796087 Ry

     iteration # 11     ecut=    60.00 Ry     beta= 0.15
     Davidson diagonalization with overlap

---- Real-time Memory Report at c_bands before calling an iterative solver
             0 MiB given to the printing process from OS
             0 MiB allocation reported by mallinfo(arena+hblkhd)
         50910 MiB available memory on the node where the printing process lives
------------------
     ethr =  1.56E-03,  avg # of iterations =  5.1

     negative rho (up, down):  7.748E-01 0.000E+00

     total cpu time spent up to now is      156.8 secs

     total energy              =   -4440.50798772 Ry
     estimated scf accuracy    <       5.67677146 Ry

     iteration # 12     ecut=    60.00 Ry     beta= 0.15
     Davidson diagonalization with overlap

---- Real-time Memory Report at c_bands before calling an iterative solver
             0 MiB given to the printing process from OS
             0 MiB allocation reported by mallinfo(arena+hblkhd)
         50863 MiB available memory on the node where the printing process lives
------------------
     ethr =  1.32E-03,  avg # of iterations =  5.6

     negative rho (up, down):  7.804E-01 0.000E+00

     total cpu time spent up to now is      172.5 secs

     total energy              =   -4440.54418144 Ry
     estimated scf accuracy    <       1.34760473 Ry

     iteration # 13     ecut=    60.00 Ry     beta= 0.15
     Davidson diagonalization with overlap

---- Real-time Memory Report at c_bands before calling an iterative solver
             0 MiB given to the printing process from OS
             0 MiB allocation reported by mallinfo(arena+hblkhd)
         50796 MiB available memory on the node where the printing process lives
------------------
     ethr =  3.13E-04,  avg # of iterations = 13.6

     negative rho (up, down):  8.074E-01 0.000E+00

     total cpu time spent up to now is      193.0 secs

     total energy              =   -4440.51467640 Ry
     estimated scf accuracy    <       1.96991699 Ry

     iteration # 14     ecut=    60.00 Ry     beta= 0.15
     Davidson diagonalization with overlap

---- Real-time Memory Report at c_bands before calling an iterative solver
             0 MiB given to the printing process from OS
             0 MiB allocation reported by mallinfo(arena+hblkhd)
         50382 MiB available memory on the node where the printing process lives
------------------
     ethr =  3.13E-04,  avg # of iterations =  1.0

     negative rho (up, down):  8.137E-01 0.000E+00

     total cpu time spent up to now is      205.8 secs

     total energy              =   -4440.31880722 Ry
     estimated scf accuracy    <       5.65561692 Ry

     iteration # 15     ecut=    60.00 Ry     beta= 0.15
     Davidson diagonalization with overlap

---- Real-time Memory Report at c_bands before calling an iterative solver
             0 MiB given to the printing process from OS
             0 MiB allocation reported by mallinfo(arena+hblkhd)
         50370 MiB available memory on the node where the printing process lives
------------------
     ethr =  3.13E-04,  avg # of iterations =  1.8

     negative rho (up, down):  8.181E-01 0.000E+00

     total cpu time spent up to now is      220.1 secs

     total energy              =   -4440.42304542 Ry
     estimated scf accuracy    <       0.47339417 Ry

     iteration # 16     ecut=    60.00 Ry     beta= 0.15
     Davidson diagonalization with overlap

---- Real-time Memory Report at c_bands before calling an iterative solver
             0 MiB given to the printing process from OS
             0 MiB allocation reported by mallinfo(arena+hblkhd)
         50377 MiB available memory on the node where the printing process lives
------------------
     ethr =  1.10E-04,  avg # of iterations =  7.8

     negative rho (up, down):  8.236E-01 0.000E+00

     total cpu time spent up to now is      236.6 secs

     total energy              =   -4440.39458610 Ry
     estimated scf accuracy    <       0.29217513 Ry

     iteration # 17     ecut=    60.00 Ry     beta= 0.15
     Davidson diagonalization with overlap

---- Real-time Memory Report at c_bands before calling an iterative solver
             0 MiB given to the printing process from OS
             0 MiB allocation reported by mallinfo(arena+hblkhd)
         50354 MiB available memory on the node where the printing process lives
------------------
     c_bands:  1 eigenvalues not converged
     ethr =  6.79E-05,  avg # of iterations = 11.8

     negative rho (up, down):  8.251E-01 0.000E+00

     total cpu time spent up to now is      255.1 secs

     total energy              =   -4440.36743744 Ry
     estimated scf accuracy    <       0.26304806 Ry

     iteration # 18     ecut=    60.00 Ry     beta= 0.15
     Davidson diagonalization with overlap

---- Real-time Memory Report at c_bands before calling an iterative solver
             0 MiB given to the printing process from OS
             0 MiB allocation reported by mallinfo(arena+hblkhd)
         50335 MiB available memory on the node where the printing process lives
------------------
     ethr =  6.12E-05,  avg # of iterations =  3.8

     negative rho (up, down):  8.171E-01 0.000E+00

     total cpu time spent up to now is      270.5 secs

     total energy              =   -4440.35358641 Ry
     estimated scf accuracy    <       0.17277610 Ry

     iteration # 19     ecut=    60.00 Ry     beta= 0.15
     Davidson diagonalization with overlap

---- Real-time Memory Report at c_bands before calling an iterative solver
             0 MiB given to the printing process from OS
             0 MiB allocation reported by mallinfo(arena+hblkhd)
         50345 MiB available memory on the node where the printing process lives
------------------
     ethr =  4.02E-05,  avg # of iterations =  3.4

     negative rho (up, down):  8.110E-01 0.000E+00

     total cpu time spent up to now is      286.0 secs

     total energy              =   -4440.33506753 Ry
     estimated scf accuracy    <       0.12657120 Ry

     iteration # 20     ecut=    60.00 Ry     beta= 0.15
     Davidson diagonalization with overlap

---- Real-time Memory Report at c_bands before calling an iterative solver
             0 MiB given to the printing process from OS
             0 MiB allocation reported by mallinfo(arena+hblkhd)
         50353 MiB available memory on the node where the printing process lives
------------------
     ethr =  2.94E-05,  avg # of iterations =  8.0

     negative rho (up, down):  8.299E-01 0.000E+00

     total cpu time spent up to now is      303.4 secs

     total energy              =   -4440.32353187 Ry
     estimated scf accuracy    <       0.16911113 Ry

     iteration # 21     ecut=    60.00 Ry     beta= 0.15
     Davidson diagonalization with overlap

---- Real-time Memory Report at c_bands before calling an iterative solver
             0 MiB given to the printing process from OS
             0 MiB allocation reported by mallinfo(arena+hblkhd)
         50345 MiB available memory on the node where the printing process lives
------------------
     ethr =  2.94E-05,  avg # of iterations =  7.7

     negative rho (up, down):  8.261E-01 0.000E+00

     total cpu time spent up to now is      320.6 secs

     total energy              =   -4440.32139401 Ry
     estimated scf accuracy    <       0.09995576 Ry

     iteration # 22     ecut=    60.00 Ry     beta= 0.15
     Davidson diagonalization with overlap

---- Real-time Memory Report at c_bands before calling an iterative solver
             0 MiB given to the printing process from OS
             0 MiB allocation reported by mallinfo(arena+hblkhd)
         50332 MiB available memory on the node where the printing process lives
------------------
     ethr =  2.32E-05,  avg # of iterations =  1.6

     negative rho (up, down):  8.061E-01 0.000E+00

     total cpu time spent up to now is      334.7 secs

     total energy              =   -4440.31530579 Ry
     estimated scf accuracy    <       0.04633801 Ry

     iteration # 23     ecut=    60.00 Ry     beta= 0.15
     Davidson diagonalization with overlap

---- Real-time Memory Report at c_bands before calling an iterative solver
             0 MiB given to the printing process from OS
             0 MiB allocation reported by mallinfo(arena+hblkhd)
         50342 MiB available memory on the node where the printing process lives
------------------
     ethr =  1.08E-05,  avg # of iterations =  9.1

     negative rho (up, down):  8.039E-01 0.000E+00

     total cpu time spent up to now is      352.6 secs

     total energy              =   -4440.31414163 Ry
     estimated scf accuracy    <       0.02492618 Ry

     iteration # 24     ecut=    60.00 Ry     beta= 0.15
     Davidson diagonalization with overlap

---- Real-time Memory Report at c_bands before calling an iterative solver
             0 MiB given to the printing process from OS
             0 MiB allocation reported by mallinfo(arena+hblkhd)
         50312 MiB available memory on the node where the printing process lives
------------------
     c_bands:  2 eigenvalues not converged
     ethr =  5.80E-06,  avg # of iterations =  9.3

     negative rho (up, down):  7.987E-01 0.000E+00

     total cpu time spent up to now is      370.5 secs

     total energy              =   -4440.31346605 Ry
     estimated scf accuracy    <       0.01744595 Ry

     iteration # 25     ecut=    60.00 Ry     beta= 0.15
     Davidson diagonalization with overlap

---- Real-time Memory Report at c_bands before calling an iterative solver
             0 MiB given to the printing process from OS
             0 MiB allocation reported by mallinfo(arena+hblkhd)
         50308 MiB available memory on the node where the printing process lives
------------------
     ethr =  4.06E-06,  avg # of iterations =  3.2

     negative rho (up, down):  7.920E-01 0.000E+00

     total cpu time spent up to now is      385.2 secs

     total energy              =   -4440.31135643 Ry
     estimated scf accuracy    <       0.01421450 Ry

     iteration # 26     ecut=    60.00 Ry     beta= 0.15
     Davidson diagonalization with overlap

---- Real-time Memory Report at c_bands before calling an iterative solver
             0 MiB given to the printing process from OS
             0 MiB allocation reported by mallinfo(arena+hblkhd)
         50317 MiB available memory on the node where the printing process lives
------------------
     ethr =  3.31E-06,  avg # of iterations =  2.6

     negative rho (up, down):  7.981E-01 0.000E+00

     total cpu time spent up to now is      399.7 secs

     total energy              =   -4440.30932592 Ry
     estimated scf accuracy    <       0.00853665 Ry

     iteration # 27     ecut=    60.00 Ry     beta= 0.15
     Davidson diagonalization with overlap

---- Real-time Memory Report at c_bands before calling an iterative solver
             0 MiB given to the printing process from OS
             0 MiB allocation reported by mallinfo(arena+hblkhd)
         50337 MiB available memory on the node where the printing process lives
------------------
     ethr =  1.99E-06,  avg # of iterations = 10.3

     negative rho (up, down):  8.036E-01 0.000E+00

     total cpu time spent up to now is      419.2 secs

     total energy              =   -4440.31003611 Ry
     estimated scf accuracy    <       0.00231847 Ry

     iteration # 28     ecut=    60.00 Ry     beta= 0.15
     Davidson diagonalization with overlap

---- Real-time Memory Report at c_bands before calling an iterative solver
             0 MiB given to the printing process from OS
             0 MiB allocation reported by mallinfo(arena+hblkhd)
         50267 MiB available memory on the node where the printing process lives
------------------
     ethr =  5.39E-07,  avg # of iterations =  5.1

     negative rho (up, down):  8.020E-01 0.000E+00

     total cpu time spent up to now is      434.8 secs

     total energy              =   -4440.31018154 Ry
     estimated scf accuracy    <       0.00092624 Ry

     iteration # 29     ecut=    60.00 Ry     beta= 0.15
     Davidson diagonalization with overlap

---- Real-time Memory Report at c_bands before calling an iterative solver
             0 MiB given to the printing process from OS
             0 MiB allocation reported by mallinfo(arena+hblkhd)
         50239 MiB available memory on the node where the printing process lives
------------------
     ethr =  2.15E-07,  avg # of iterations =  1.9

     negative rho (up, down):  8.012E-01 0.000E+00

     total cpu time spent up to now is      448.8 secs

     total energy              =   -4440.31021667 Ry
     estimated scf accuracy    <       0.00067869 Ry

     iteration # 30     ecut=    60.00 Ry     beta= 0.15
     Davidson diagonalization with overlap

---- Real-time Memory Report at c_bands before calling an iterative solver
             0 MiB given to the printing process from OS
             0 MiB allocation reported by mallinfo(arena+hblkhd)
         50263 MiB available memory on the node where the printing process lives
------------------
     c_bands:  1 eigenvalues not converged
     ethr =  1.58E-07,  avg # of iterations =  7.6

     negative rho (up, down):  7.964E-01 0.000E+00

     total cpu time spent up to now is      465.7 secs

     total energy              =   -4440.31011518 Ry
     estimated scf accuracy    <       0.00041880 Ry

     iteration # 31     ecut=    60.00 Ry     beta= 0.15
     Davidson diagonalization with overlap

---- Real-time Memory Report at c_bands before calling an iterative solver
             0 MiB given to the printing process from OS
             0 MiB allocation reported by mallinfo(arena+hblkhd)
         50342 MiB available memory on the node where the printing process lives
------------------
     c_bands:  1 eigenvalues not converged
     ethr =  9.74E-08,  avg # of iterations =  8.7

     negative rho (up, down):  7.945E-01 0.000E+00

     total cpu time spent up to now is      482.5 secs

     total energy              =   -4440.31008679 Ry
     estimated scf accuracy    <       0.00021482 Ry

     iteration # 32     ecut=    60.00 Ry     beta= 0.15
     Davidson diagonalization with overlap

---- Real-time Memory Report at c_bands before calling an iterative solver
             0 MiB given to the printing process from OS
             0 MiB allocation reported by mallinfo(arena+hblkhd)
         50463 MiB available memory on the node where the printing process lives
------------------
     ethr =  5.00E-08,  avg # of iterations =  3.9

     negative rho (up, down):  7.936E-01 0.000E+00

     total cpu time spent up to now is      497.8 secs

     total energy              =   -4440.31008904 Ry
     estimated scf accuracy    <       0.00008904 Ry

     iteration # 33     ecut=    60.00 Ry     beta= 0.15
     Davidson diagonalization with overlap

---- Real-time Memory Report at c_bands before calling an iterative solver
             0 MiB given to the printing process from OS
             0 MiB allocation reported by mallinfo(arena+hblkhd)
         50424 MiB available memory on the node where the printing process lives
------------------
     ethr =  2.07E-08,  avg # of iterations =  2.0

     negative rho (up, down):  7.930E-01 0.000E+00

     total cpu time spent up to now is      511.8 secs

     total energy              =   -4440.31008632 Ry
     estimated scf accuracy    <       0.00005759 Ry

     iteration # 34     ecut=    60.00 Ry     beta= 0.15
     Davidson diagonalization with overlap

---- Real-time Memory Report at c_bands before calling an iterative solver
             0 MiB given to the printing process from OS
             0 MiB allocation reported by mallinfo(arena+hblkhd)
         50452 MiB available memory on the node where the printing process lives
------------------
     ethr =  1.34E-08,  avg # of iterations =  1.4

     negative rho (up, down):  7.923E-01 0.000E+00

     total cpu time spent up to now is      525.0 secs

     total energy              =   -4440.31009070 Ry
     estimated scf accuracy    <       0.00003605 Ry

     iteration # 35     ecut=    60.00 Ry     beta= 0.15
     Davidson diagonalization with overlap

---- Real-time Memory Report at c_bands before calling an iterative solver
             0 MiB given to the printing process from OS
             0 MiB allocation reported by mallinfo(arena+hblkhd)
         50436 MiB available memory on the node where the printing process lives
------------------
     ethr =  8.38E-09,  avg # of iterations =  2.7

     negative rho (up, down):  7.920E-01 0.000E+00

     total cpu time spent up to now is      539.6 secs

     total energy              =   -4440.31009316 Ry
     estimated scf accuracy    <       0.00001851 Ry

     iteration # 36     ecut=    60.00 Ry     beta= 0.15
     Davidson diagonalization with overlap

---- Real-time Memory Report at c_bands before calling an iterative solver
             0 MiB given to the printing process from OS
             0 MiB allocation reported by mallinfo(arena+hblkhd)
         50445 MiB available memory on the node where the printing process lives
------------------
     ethr =  4.30E-09,  avg # of iterations =  2.6

     negative rho (up, down):  7.920E-01 0.000E+00

     total cpu time spent up to now is      553.9 secs

     total energy              =   -4440.31009276 Ry
     estimated scf accuracy    <       0.00001310 Ry

     iteration # 37     ecut=    60.00 Ry     beta= 0.15
     Davidson diagonalization with overlap

---- Real-time Memory Report at c_bands before calling an iterative solver
             0 MiB given to the printing process from OS
             0 MiB allocation reported by mallinfo(arena+hblkhd)
         50446 MiB available memory on the node where the printing process lives
------------------
     ethr =  3.05E-09,  avg # of iterations =  2.0

     negative rho (up, down):  7.920E-01 0.000E+00

     total cpu time spent up to now is      567.9 secs

     total energy              =   -4440.31009080 Ry
     estimated scf accuracy    <       0.00001023 Ry

     iteration # 38     ecut=    60.00 Ry     beta= 0.15
     Davidson diagonalization with overlap

---- Real-time Memory Report at c_bands before calling an iterative solver
             0 MiB given to the printing process from OS
             0 MiB allocation reported by mallinfo(arena+hblkhd)
         50459 MiB available memory on the node where the printing process lives
------------------
     ethr =  2.38E-09,  avg # of iterations =  2.2

     negative rho (up, down):  7.922E-01 0.000E+00

     total cpu time spent up to now is      582.1 secs

     total energy              =   -4440.31009025 Ry
     estimated scf accuracy    <       0.00000653 Ry

     iteration # 39     ecut=    60.00 Ry     beta= 0.15
     Davidson diagonalization with overlap

---- Real-time Memory Report at c_bands before calling an iterative solver
             0 MiB given to the printing process from OS
             0 MiB allocation reported by mallinfo(arena+hblkhd)
         50453 MiB available memory on the node where the printing process lives
------------------
     ethr =  1.52E-09,  avg # of iterations =  1.7

     negative rho (up, down):  7.925E-01 0.000E+00

     total cpu time spent up to now is      595.7 secs

     total energy              =   -4440.31009026 Ry
     estimated scf accuracy    <       0.00000402 Ry

     iteration # 40     ecut=    60.00 Ry     beta= 0.15
     Davidson diagonalization with overlap

---- Real-time Memory Report at c_bands before calling an iterative solver
             0 MiB given to the printing process from OS
             0 MiB allocation reported by mallinfo(arena+hblkhd)
         50458 MiB available memory on the node where the printing process lives
------------------
     ethr =  9.36E-10,  avg # of iterations =  2.0

     negative rho (up, down):  7.926E-01 0.000E+00

     total cpu time spent up to now is      610.6 secs

     total energy              =   -4440.31009111 Ry
     estimated scf accuracy    <       0.00000157 Ry

     iteration # 41     ecut=    60.00 Ry     beta= 0.15
     Davidson diagonalization with overlap

---- Real-time Memory Report at c_bands before calling an iterative solver
             0 MiB given to the printing process from OS
             0 MiB allocation reported by mallinfo(arena+hblkhd)
         50447 MiB available memory on the node where the printing process lives
------------------
     ethr =  3.65E-10,  avg # of iterations =  2.2

     negative rho (up, down):  7.926E-01 0.000E+00

     total cpu time spent up to now is      625.8 secs

     total energy              =   -4440.31009129 Ry
     estimated scf accuracy    <       0.00000068 Ry

     iteration # 42     ecut=    60.00 Ry     beta= 0.15
     Davidson diagonalization with overlap

---- Real-time Memory Report at c_bands before calling an iterative solver
             0 MiB given to the printing process from OS
             0 MiB allocation reported by mallinfo(arena+hblkhd)
         50450 MiB available memory on the node where the printing process lives
------------------
     ethr =  1.58E-10,  avg # of iterations =  1.5

     negative rho (up, down):  7.926E-01 0.000E+00

     total cpu time spent up to now is      639.6 secs

     total energy              =   -4440.31009141 Ry
     estimated scf accuracy    <       0.00000042 Ry

     iteration # 43     ecut=    60.00 Ry     beta= 0.15
     Davidson diagonalization with overlap

---- Real-time Memory Report at c_bands before calling an iterative solver
             0 MiB given to the printing process from OS
             0 MiB allocation reported by mallinfo(arena+hblkhd)
         50383 MiB available memory on the node where the printing process lives
------------------
     ethr =  9.85E-11,  avg # of iterations =  2.0

     negative rho (up, down):  7.926E-01 0.000E+00

     total cpu time spent up to now is      654.1 secs

     total energy              =   -4440.31009145 Ry
     estimated scf accuracy    <       0.00000031 Ry

     iteration # 44     ecut=    60.00 Ry     beta= 0.15
     Davidson diagonalization with overlap

---- Real-time Memory Report at c_bands before calling an iterative solver
             0 MiB given to the printing process from OS
             0 MiB allocation reported by mallinfo(arena+hblkhd)
         50385 MiB available memory on the node where the printing process lives
------------------
     ethr =  7.17E-11,  avg # of iterations =  1.9

     negative rho (up, down):  7.926E-01 0.000E+00

     total cpu time spent up to now is      668.5 secs

     total energy              =   -4440.31009145 Ry
     estimated scf accuracy    <       0.00000019 Ry

     iteration # 45     ecut=    60.00 Ry     beta= 0.15
     Davidson diagonalization with overlap

---- Real-time Memory Report at c_bands before calling an iterative solver
             0 MiB given to the printing process from OS
             0 MiB allocation reported by mallinfo(arena+hblkhd)
         50385 MiB available memory on the node where the printing process lives
------------------
     ethr =  4.50E-11,  avg # of iterations =  2.7

     negative rho (up, down):  7.926E-01 0.000E+00

     total cpu time spent up to now is      683.4 secs

     total energy              =   -4440.31009145 Ry
     estimated scf accuracy    <       0.00000007 Ry

     iteration # 46     ecut=    60.00 Ry     beta= 0.15
     Davidson diagonalization with overlap

---- Real-time Memory Report at c_bands before calling an iterative solver
             0 MiB given to the printing process from OS
             0 MiB allocation reported by mallinfo(arena+hblkhd)
         50385 MiB available memory on the node where the printing process lives
------------------
     ethr =  1.59E-11,  avg # of iterations =  2.0

     negative rho (up, down):  7.926E-01 0.000E+00

     total cpu time spent up to now is      698.2 secs

     total energy              =   -4440.31009141 Ry
     estimated scf accuracy    <       0.00000005 Ry

     iteration # 47     ecut=    60.00 Ry     beta= 0.15
     Davidson diagonalization with overlap

---- Real-time Memory Report at c_bands before calling an iterative solver
             0 MiB given to the printing process from OS
             0 MiB allocation reported by mallinfo(arena+hblkhd)
         50383 MiB available memory on the node where the printing process lives
------------------
     ethr =  1.05E-11,  avg # of iterations =  3.4

     negative rho (up, down):  7.926E-01 0.000E+00

     total cpu time spent up to now is      713.7 secs

     total energy              =   -4440.31009140 Ry
     estimated scf accuracy    <       0.00000002 Ry

     iteration # 48     ecut=    60.00 Ry     beta= 0.15
     Davidson diagonalization with overlap

---- Real-time Memory Report at c_bands before calling an iterative solver
             0 MiB given to the printing process from OS
             0 MiB allocation reported by mallinfo(arena+hblkhd)
         50366 MiB available memory on the node where the printing process lives
------------------
     ethr =  5.35E-12,  avg # of iterations =  2.0

     negative rho (up, down):  7.926E-01 0.000E+00

     total cpu time spent up to now is      728.4 secs

     total energy              =   -4440.31009140 Ry
     estimated scf accuracy    <       0.00000001 Ry

     iteration # 49     ecut=    60.00 Ry     beta= 0.15
     Davidson diagonalization with overlap

---- Real-time Memory Report at c_bands before calling an iterative solver
             0 MiB given to the printing process from OS
             0 MiB allocation reported by mallinfo(arena+hblkhd)
         50393 MiB available memory on the node where the printing process lives
------------------
     ethr =  3.22E-12,  avg # of iterations =  2.0

     negative rho (up, down):  7.926E-01 0.000E+00

     total cpu time spent up to now is      742.8 secs

     End of self-consistent calculation

          k = 0.0000 0.0000 0.0000 ( 65197 PWs)   bands (ev):

   -92.8923 -92.8426 -92.7469 -92.7006 -92.6428 -92.5990 -92.5816 -92.4625
   -56.2459 -56.2289 -56.1036 -56.0927 -56.0873 -56.0796 -56.0458 -56.0156
   -56.0005 -55.9989 -55.9928 -55.9496 -55.9314 -55.8933 -55.8739 -55.8427
   -55.8360 -55.7885 -55.7867 -55.7838 -55.7754 -55.7373 -55.7115 -55.6275
   -31.4562 -31.4358 -31.3022 -31.2941 -31.2061 -31.1292 -31.0579 -30.5413
   -30.0380 -29.9930 -29.9673 -29.8585 -15.2682 -15.2153 -15.1416 -15.0115
   -14.8096 -14.6876 -14.4052 -14.3809 -14.3559 -14.3092 -14.2579 -14.2400
   -14.2395 -14.2164 -14.2039 -14.1679 -14.1189 -13.9641 -13.7754 -13.7520
   -13.7223 -13.6827 -13.6681 -13.6115 -13.5799 -13.4982 -13.4302 -13.3114
   -13.2912 -13.2882 -13.2665 -13.2539 -13.2350 -13.1812 -13.1774 -13.1548
   -13.1318 -13.1011 -13.0944 -13.0809 -13.0680 -13.0202 -12.9786 -12.9522
   -12.9404 -12.6457 -12.6378 -12.5216 -12.4896 -12.3753 -12.1032 -12.0496
   -12.0354 -11.9767 -11.9712 -11.9647 -11.9390 -11.9211 -11.8601 -11.8426
   -11.8086 -11.7802 -11.6645 -11.5878 -11.5841  -3.1285  -2.8974  -2.6680
    -2.5191  -2.4580  -2.3166  -2.0081  -1.9933  -1.9758  -1.8872  -1.8688
    -1.8009  -1.7837  -1.7447  -1.7004  -1.5177  -1.2910  -1.2613  -1.1194
    -1.1043  -1.0553  -1.0358  -0.9905  -0.9735  -0.9222  -0.8950  -0.8177
    -0.8058  -0.7354  -0.6001  -0.5870  -0.5584  -0.4795  -0.4509  -0.4097
    -0.3779  -0.3141  -0.2607  -0.2135  -0.1883  -0.1163  -0.0484  -0.0071
     0.0220   0.0322   0.2918   0.3049   0.4797   0.5417   0.6074   0.6665
     0.7435   0.7547   0.7743   0.8376   0.8657   0.8984   0.9559   1.0851
     1.1466   1.1679   1.1975   1.2063   1.2639   1.3313   1.4478   1.4651
     1.5247   1.5309   1.5770   1.5961   1.6070   1.6612   1.7266   1.7326
     1.7719   1.8092   1.8424   1.9757   2.0636   2.1009   2.1269   2.2682
     2.2856   2.3223   2.3278   2.4405   2.4709   2.4966   2.5174   2.5220
     2.5485   2.6142   2.6342   2.6444   2.7229   2.7542   2.7631   2.7685
     2.8369   2.8434   2.8641   2.8719   2.8813   2.8935   2.9021   2.9159
     2.9219   2.9338   2.9412   2.9497   2.9681   2.9893   2.9941   3.0060
     3.0326   3.1460   3.2437   3.9286   4.2450   4.6012   4.8220   4.8609
     5.7612   5.8066   5.8198   5.8524   6.1251   6.1716   6.4276   6.4380
     6.9346   6.9802   7.0729   7.1503   7.3500   7.5270   7.5457   7.5704
     7.7094   7.8389   7.8636   7.8899   8.0255   8.1373   8.4706   8.5471
     8.7442   8.9238

     occupation numbers 
     1.0000   1.0000   1.0000   1.0000   1.0000   1.0000   1.0000   1.0000
     1.0000   1.0000   1.0000   1.0000   1.0000   1.0000   1.0000   1.0000
     1.0000   1.0000   1.0000   1.0000   1.0000   1.0000   1.0000   1.0000
     1.0000   1.0000   1.0000   1.0000   1.0000   1.0000   1.0000   1.0000
     1.0000   1.0000   1.0000   1.0000   1.0000   1.0000   1.0000   1.0000
     1.0000   1.0000   1.0000   1.0000   1.0000   1.0000   1.0000   1.0000
     1.0000   1.0000   1.0000   1.0000   1.0000   1.0000   1.0000   1.0000
     1.0000   1.0000   1.0000   1.0000   1.0000   1.0000   1.0000   1.0000
     1.0000   1.0000   1.0000   1.0000   1.0000   1.0000   1.0000   1.0000
     1.0000   1.0000   1.0000   1.0000   1.0000   1.0000   1.0000   1.0000
     1.0000   1.0000   1.0000   1.0000   1.0000   1.0000   1.0000   1.0000
     1.0000   1.0000   1.0000   1.0000   1.0000   1.0000   1.0000   1.0000
     1.0000   1.0000   1.0000   1.0000   1.0000   1.0000   1.0000   1.0000
     1.0000   1.0000   1.0000   1.0000   1.0000   1.0000   1.0000   1.0000
     1.0000   1.0000   1.0000   1.0000   1.0000   1.0000   1.0000   1.0000
     1.0000   1.0000   1.0000   1.0000   1.0000   1.0000   1.0000   1.0000
     1.0000   1.0000   1.0000   1.0000   1.0000   1.0000   1.0000   1.0000
     1.0000   1.0000   1.0000   1.0000   1.0000   1.0000   1.0000   1.0000
     1.0000   1.0000   1.0000   1.0000   1.0000   1.0000   1.0000   1.0000
     1.0000   1.0000   1.0000   1.0000   1.0000   0.9999   0.9999   0.9999
     0.9998   0.9998   0.9998   0.9997   0.9996   0.9996   0.9994   0.9988
     0.9984   0.9983   0.9980   0.9979   0.9973   0.9963   0.9939   0.9935
     0.9916   0.9914   0.9897   0.9889   0.9884   0.9858   0.9818   0.9814
     0.9786   0.9756   0.9727   0.9576   0.9444   0.9379   0.9331   0.9013
     0.8968   0.8867   0.8851   0.8493   0.8385   0.8290   0.8210   0.8192
     0.8086   0.7810   0.7721   0.7675   0.7304   0.7148   0.7103   0.7076
     0.6718   0.6683   0.6570   0.6528   0.6476   0.6408   0.6360   0.6283
     0.6249   0.6182   0.6140   0.6092   0.5987   0.5865   0.5837   0.5768
     0.5613   0.4943   0.4367   0.1197   0.0499   0.0148   0.0062   0.0052
     0.0000   0.0000   0.0000   0.0000   0.0000   0.0000   0.0000   0.0000
     0.0000   0.0000   0.0000   0.0000   0.0000   0.0000   0.0000   0.0000
     0.0000   0.0000   0.0000   0.0000   0.0000   0.0000   0.0000   0.0000
     0.0000   0.0000

          k = 0.0000 0.2500 0.0000 ( 65257 PWs)   bands (ev):

   -92.8923 -92.8426 -92.7469 -92.7006 -92.6428 -92.5990 -92.5816 -92.4625
   -56.2459 -56.2289 -56.1036 -56.0927 -56.0873 -56.0796 -56.0458 -56.0156
   -56.0005 -55.9989 -55.9928 -55.9496 -55.9314 -55.8933 -55.8739 -55.8427
   -55.8360 -55.7885 -55.7867 -55.7838 -55.7754 -55.7373 -55.7115 -55.6275
   -31.4560 -31.4357 -31.3020 -31.2943 -31.2063 -31.1294 -31.0578 -30.5414
   -30.0374 -29.9927 -29.9679 -29.8588 -15.2320 -15.1885 -15.1162 -14.9822
   -14.8534 -14.6786 -14.5490 -14.3704 -14.3307 -14.3125 -14.2847 -14.2248
   -14.2179 -14.2002 -14.1807 -14.1318 -14.0358 -13.9951 -13.8307 -13.8029
   -13.7632 -13.7244 -13.6667 -13.6352 -13.5825 -13.5242 -13.4845 -13.4172
   -13.3456 -13.3254 -13.2890 -13.2802 -13.2472 -13.1667 -13.1406 -13.1136
   -13.0934 -13.0790 -13.0484 -13.0439 -13.0090 -12.9827 -12.9722 -12.8800
   -12.8270 -12.6098 -12.5832 -12.5727 -12.4897 -12.4265 -12.1480 -12.0875
   -12.0140 -11.9751 -11.9713 -11.9425 -11.9151 -11.8985 -11.8518 -11.8408
   -11.8183 -11.7851 -11.6789 -11.6291 -11.6188  -2.9930  -2.7731  -2.6348
    -2.4526  -2.4093  -2.2465  -2.0242  -1.9433  -1.9301  -1.8675  -1.7682
    -1.7518  -1.7183  -1.6901  -1.6463  -1.4488  -1.3199  -1.3086  -1.2309
    -1.2218  -1.1190  -1.0899  -1.0288  -1.0031  -0.9657  -0.8996  -0.8722
    -0.8409  -0.8084  -0.7908  -0.7598  -0.6845  -0.6351  -0.5557  -0.4494
    -0.4207  -0.3809  -0.2751  -0.2329  -0.1691  -0.1268  -0.0584  -0.0460
    -0.0257   0.0355   0.3392   0.4253   0.4587   0.5473   0.5950   0.6237
     0.7252   0.7458   0.8398   0.8670   0.8906   1.0048   1.1053   1.1214
     1.1482   1.1706   1.1892   1.2481   1.2762   1.3047   1.3503   1.3905
     1.4217   1.5116   1.5500   1.5794   1.6307   1.6856   1.7287   1.7595
     1.7824   1.7928   1.8952   2.0115   2.0868   2.1085   2.1728   2.2208
     2.2634   2.2721   2.3318   2.3662   2.4557   2.4958   2.5092   2.5381
     2.6295   2.6383   2.6783   2.6998   2.7341   2.7561   2.7710   2.7786
     2.7853   2.7962   2.8255   2.8276   2.8456   2.8552   2.8592   2.8785
     2.8920   2.8977   2.9189   2.9301   2.9354   2.9711   2.9863   3.0463
     3.4197   3.4633   3.6947   4.1201   4.2425   4.5405   4.8779   4.9842
     5.5057   5.6398   5.8025   5.9037   5.9491   5.9986   6.0584   6.5417
     7.0193   7.0486   7.2118   7.2364   7.3375   7.3992   7.5402   7.5995
     7.7508   7.8344   8.0565   8.1647   8.2850   8.3107   8.3539   8.4947
     8.5877   8.8120

     occupation numbers 
     1.0000   1.0000   1.0000   1.0000   1.0000   1.0000   1.0000   1.0000
     1.0000   1.0000   1.0000   1.0000   1.0000   1.0000   1.0000   1.0000
     1.0000   1.0000   1.0000   1.0000   1.0000   1.0000   1.0000   1.0000
     1.0000   1.0000   1.0000   1.0000   1.0000   1.0000   1.0000   1.0000
     1.0000   1.0000   1.0000   1.0000   1.0000   1.0000   1.0000   1.0000
     1.0000   1.0000   1.0000   1.0000   1.0000   1.0000   1.0000   1.0000
     1.0000   1.0000   1.0000   1.0000   1.0000   1.0000   1.0000   1.0000
     1.0000   1.0000   1.0000   1.0000   1.0000   1.0000   1.0000   1.0000
     1.0000   1.0000   1.0000   1.0000   1.0000   1.0000   1.0000   1.0000
     1.0000   1.0000   1.0000   1.0000   1.0000   1.0000   1.0000   1.0000
     1.0000   1.0000   1.0000   1.0000   1.0000   1.0000   1.0000   1.0000
     1.0000   1.0000   1.0000   1.0000   1.0000   1.0000   1.0000   1.0000
     1.0000   1.0000   1.0000   1.0000   1.0000   1.0000   1.0000   1.0000
     1.0000   1.0000   1.0000   1.0000   1.0000   1.0000   1.0000   1.0000
     1.0000   1.0000   1.0000   1.0000   1.0000   1.0000   1.0000   1.0000
     1.0000   1.0000   1.0000   1.0000   1.0000   1.0000   1.0000   1.0000
     1.0000   1.0000   1.0000   1.0000   1.0000   1.0000   1.0000   1.0000
     1.0000   1.0000   1.0000   1.0000   1.0000   1.0000   1.0000   1.0000
     1.0000   1.0000   1.0000   1.0000   1.0000   1.0000   1.0000   1.0000
     1.0000   1.0000   1.0000   1.0000   1.0000   0.9999   0.9999   0.9999
     0.9998   0.9998   0.9997   0.9996   0.9996   0.9992   0.9987   0.9986
     0.9984   0.9982   0.9981   0.9975   0.9971   0.9967   0.9960   0.9952
     0.9946   0.9921   0.9908   0.9896   0.9873   0.9844   0.9817   0.9796
     0.9778   0.9770   0.9673   0.9526   0.9405   0.9365   0.9238   0.9130
     0.9026   0.9003   0.8839   0.8736   0.8439   0.8293   0.8242   0.8128
     0.7742   0.7703   0.7518   0.7416   0.7249   0.7139   0.7063   0.7024
     0.6989   0.6933   0.6778   0.6767   0.6671   0.6619   0.6597   0.6491
     0.6417   0.6385   0.6266   0.6204   0.6173   0.5969   0.5882   0.5532
     0.3370   0.3137   0.2035   0.0721   0.0502   0.0185   0.0049   0.0030
     0.0002   0.0001   0.0000   0.0000   0.0000   0.0000   0.0000   0.0000
     0.0000   0.0000   0.0000   0.0000   0.0000   0.0000   0.0000   0.0000
     0.0000   0.0000   0.0000   0.0000   0.0000   0.0000   0.0000   0.0000
     0.0000   0.0000

          k = 0.0000-0.5000 0.0000 ( 65180 PWs)   bands (ev):

   -92.8923 -92.8426 -92.7469 -92.7006 -92.6428 -92.5990 -92.5816 -92.4625
   -56.2459 -56.2289 -56.1036 -56.0927 -56.0873 -56.0796 -56.0458 -56.0156
   -56.0005 -55.9989 -55.9928 -55.9496 -55.9314 -55.8933 -55.8739 -55.8427
   -55.8360 -55.7885 -55.7867 -55.7838 -55.7754 -55.7373 -55.7115 -55.6275
   -31.4558 -31.4356 -31.3019 -31.2945 -31.2064 -31.1296 -31.0577 -30.5415
   -30.0368 -29.9924 -29.9686 -29.8592 -15.1932 -15.1457 -15.0861 -14.9628
   -14.8784 -14.7461 -14.5758 -14.4665 -14.3435 -14.2674 -14.2268 -14.2202
   -14.1687 -14.1556 -14.1032 -14.0772 -14.0569 -14.0263 -13.9827 -13.9357
   -13.7693 -13.7098 -13.6668 -13.6415 -13.5766 -13.5420 -13.4851 -13.4602
   -13.4370 -13.3945 -13.2910 -13.2818 -13.2361 -13.1536 -13.1413 -13.1174
   -13.1056 -13.0615 -13.0425 -12.9996 -12.9819 -12.8853 -12.8319 -12.8280
   -12.7777 -12.6935 -12.5436 -12.5019 -12.4904 -12.4636 -12.2131 -12.1619
   -11.9770 -11.9696 -11.9637 -11.9363 -11.9017 -11.8673 -11.8560 -11.8148
   -11.8107 -11.7665 -11.7008 -11.6888 -11.6755  -2.7777  -2.7199  -2.5694
    -2.4987  -2.2136  -2.1316  -2.0035  -1.8695  -1.8244  -1.8108  -1.7328
    -1.7028  -1.6172  -1.5839  -1.5033  -1.4660  -1.4295  -1.4021  -1.3351
    -1.3053  -1.2576  -1.2225  -1.1886  -1.1568  -1.0456  -1.0024  -0.9635
    -0.9592  -0.8747  -0.8449  -0.8235  -0.7720  -0.6835  -0.6126  -0.5197
    -0.4797  -0.3872  -0.3530  -0.2170  -0.1561  -0.1469  -0.0865   0.0371
     0.0922   0.2038   0.2756   0.2848   0.4094   0.4750   0.5821   0.6921
     0.7971   0.8289   0.8697   0.8853   0.9180   0.9310   0.9633   0.9801
     0.9930   1.1031   1.1662   1.2020   1.2244   1.4958   1.5187   1.5406
     1.6361   1.6620   1.6885   1.7056   1.7255   1.7525   1.7621   1.7837
     1.8179   1.8514   1.8830   1.8882   1.9148   1.9666   2.0592   2.0933
     2.2639   2.4139   2.4219   2.4478   2.4730   2.4887   2.4926   2.5430
     2.5449   2.5595   2.6111   2.6196   2.6331   2.6439   2.7101   2.7352
     2.7969   2.8009   2.8226   2.8268   2.8415   2.8468   2.8540   2.8570
     2.8600   2.8724   2.8891   2.8908   2.9565   2.9589   2.9759   3.0304
     3.9486   3.9677   4.0029   4.0867   4.5577   4.7258   4.8965   5.0025
     5.2763   5.3555   5.4858   5.5866   5.8530   5.8671   6.2457   6.6811
     6.7820   6.8903   7.1308   7.3079   7.5581   7.6371   7.6632   7.7448
     7.7756   7.8455   8.0717   8.1988   8.3358   8.3677   8.5081   8.6185
     8.6809   8.7152

     occupation numbers 
     1.0000   1.0000   1.0000   1.0000   1.0000   1.0000   1.0000   1.0000
     1.0000   1.0000   1.0000   1.0000   1.0000   1.0000   1.0000   1.0000
     1.0000   1.0000   1.0000   1.0000   1.0000   1.0000   1.0000   1.0000
     1.0000   1.0000   1.0000   1.0000   1.0000   1.0000   1.0000   1.0000
     1.0000   1.0000   1.0000   1.0000   1.0000   1.0000   1.0000   1.0000
     1.0000   1.0000   1.0000   1.0000   1.0000   1.0000   1.0000   1.0000
     1.0000   1.0000   1.0000   1.0000   1.0000   1.0000   1.0000   1.0000
     1.0000   1.0000   1.0000   1.0000   1.0000   1.0000   1.0000   1.0000
     1.0000   1.0000   1.0000   1.0000   1.0000   1.0000   1.0000   1.0000
     1.0000   1.0000   1.0000   1.0000   1.0000   1.0000   1.0000   1.0000
     1.0000   1.0000   1.0000   1.0000   1.0000   1.0000   1.0000   1.0000
     1.0000   1.0000   1.0000   1.0000   1.0000   1.0000   1.0000   1.0000
     1.0000   1.0000   1.0000   1.0000   1.0000   1.0000   1.0000   1.0000
     1.0000   1.0000   1.0000   1.0000   1.0000   1.0000   1.0000   1.0000
     1.0000   1.0000   1.0000   1.0000   1.0000   1.0000   1.0000   1.0000
     1.0000   1.0000   1.0000   1.0000   1.0000   1.0000   1.0000   1.0000
     1.0000   1.0000   1.0000   1.0000   1.0000   1.0000   1.0000   1.0000
     1.0000   1.0000   1.0000   1.0000   1.0000   1.0000   1.0000   1.0000
     1.0000   1.0000   1.0000   1.0000   1.0000   1.0000   1.0000   1.0000
     1.0000   1.0000   1.0000   1.0000   1.0000   1.0000   0.9999   0.9999
     0.9997   0.9997   0.9996   0.9996   0.9995   0.9995   0.9994   0.9993
     0.9993   0.9987   0.9983   0.9980   0.9977   0.9926   0.9918   0.9911
     0.9871   0.9857   0.9842   0.9832   0.9819   0.9801   0.9794   0.9777
     0.9749   0.9718   0.9686   0.9681   0.9652   0.9588   0.9451   0.9393
     0.9024   0.8583   0.8557   0.8467   0.8377   0.8319   0.8305   0.8109
     0.8101   0.8042   0.7823   0.7786   0.7726   0.7677   0.7366   0.7244
     0.6929   0.6908   0.6794   0.6772   0.6693   0.6664   0.6625   0.6609
     0.6592   0.6525   0.6433   0.6423   0.6053   0.6039   0.5942   0.5625
     0.1139   0.1085   0.0991   0.0791   0.0174   0.0091   0.0045   0.0028
     0.0007   0.0005   0.0002   0.0001   0.0000   0.0000   0.0000   0.0000
     0.0000   0.0000   0.0000   0.0000   0.0000   0.0000   0.0000   0.0000
     0.0000   0.0000   0.0000   0.0000   0.0000   0.0000   0.0000   0.0000
     0.0000   0.0000

          k = 0.2500 0.2500 0.0000 ( 65198 PWs)   bands (ev):

   -92.8923 -92.8426 -92.7469 -92.7006 -92.6428 -92.5990 -92.5816 -92.4625
   -56.2459 -56.2289 -56.1036 -56.0927 -56.0873 -56.0796 -56.0458 -56.0156
   -56.0005 -55.9989 -55.9928 -55.9496 -55.9314 -55.8933 -55.8739 -55.8427
   -55.8360 -55.7885 -55.7867 -55.7838 -55.7754 -55.7373 -55.7115 -55.6275
   -31.4544 -31.4373 -31.3019 -31.2939 -31.2066 -31.1294 -31.0579 -30.5415
   -30.0364 -29.9937 -29.9675 -29.8592 -15.2027 -15.1537 -15.0878 -14.9721
   -14.8466 -14.7197 -14.6561 -14.4457 -14.2934 -14.2787 -14.2431 -14.2137
   -14.1906 -14.1525 -14.1290 -14.0939 -14.0260 -14.0088 -13.8472 -13.8330
   -13.8023 -13.7842 -13.7089 -13.6928 -13.6151 -13.6073 -13.4729 -13.4218
   -13.4045 -13.3218 -13.2813 -13.2453 -13.2199 -13.1964 -13.1558 -13.1246
   -13.1036 -13.0930 -13.0325 -12.9790 -12.9562 -12.9230 -12.9196 -12.8926
   -12.7944 -12.6316 -12.6229 -12.4904 -12.4606 -12.4554 -12.1612 -12.1346
   -11.9879 -11.9731 -11.9555 -11.9436 -11.9373 -11.8747 -11.8393 -11.8334
   -11.7985 -11.7912 -11.6958 -11.6572 -11.6402  -2.8545  -2.6471  -2.5287
    -2.4330  -2.3140  -2.2497  -2.0486  -1.9071  -1.8893  -1.8551  -1.7630
    -1.7291  -1.6345  -1.6047  -1.5560  -1.4260  -1.3757  -1.3028  -1.2597
    -1.2133  -1.1917  -1.1686  -1.1249  -1.1105  -1.0195  -0.9690  -0.8988
    -0.8510  -0.8216  -0.7752  -0.7589  -0.6943  -0.6462  -0.5798  -0.5510
    -0.4598  -0.4139  -0.3812  -0.3478  -0.2918  -0.2088  -0.1796  -0.1468
    -0.0702  -0.0334   0.2254   0.3778   0.4072   0.4711   0.5114   0.5837
     0.6283   0.6874   0.7253   0.9955   1.0568   1.1300   1.1525   1.2089
     1.2329   1.2707   1.3077   1.3239   1.3505   1.4011   1.4064   1.4228
     1.4709   1.5079   1.5453   1.6126   1.6478   1.6571   1.6924   1.7267
     1.7833   1.8109   1.9325   1.9949   2.0279   2.0469   2.1241   2.1836
     2.2100   2.2445   2.2732   2.2849   2.3983   2.4354   2.5164   2.5402
     2.6273   2.6414   2.6892   2.7059   2.7107   2.7286   2.7434   2.7559
     2.7686   2.7754   2.7865   2.7998   2.8135   2.8307   2.8377   2.8481
     2.8732   2.8817   2.8913   2.9218   3.2215   3.3152   3.3653   3.4358
     3.4560   3.6796   3.7654   4.1243   4.3340   4.5482   4.7991   5.1232
     5.4924   5.5552   5.6049   5.6517   5.7138   6.0807   6.1263   6.1519
     6.8311   7.0462   7.2379   7.3772   7.4466   7.4732   7.5841   7.7531
     7.8356   8.0914   8.1602   8.2090   8.3183   8.3934   8.4509   8.4935
     8.5333   8.6982

     occupation numbers 
     1.0000   1.0000   1.0000   1.0000   1.0000   1.0000   1.0000   1.0000
     1.0000   1.0000   1.0000   1.0000   1.0000   1.0000   1.0000   1.0000
     1.0000   1.0000   1.0000   1.0000   1.0000   1.0000   1.0000   1.0000
     1.0000   1.0000   1.0000   1.0000   1.0000   1.0000   1.0000   1.0000
     1.0000   1.0000   1.0000   1.0000   1.0000   1.0000   1.0000   1.0000
     1.0000   1.0000   1.0000   1.0000   1.0000   1.0000   1.0000   1.0000
     1.0000   1.0000   1.0000   1.0000   1.0000   1.0000   1.0000   1.0000
     1.0000   1.0000   1.0000   1.0000   1.0000   1.0000   1.0000   1.0000
     1.0000   1.0000   1.0000   1.0000   1.0000   1.0000   1.0000   1.0000
     1.0000   1.0000   1.0000   1.0000   1.0000   1.0000   1.0000   1.0000
     1.0000   1.0000   1.0000   1.0000   1.0000   1.0000   1.0000   1.0000
     1.0000   1.0000   1.0000   1.0000   1.0000   1.0000   1.0000   1.0000
     1.0000   1.0000   1.0000   1.0000   1.0000   1.0000   1.0000   1.0000
     1.0000   1.0000   1.0000   1.0000   1.0000   1.0000   1.0000   1.0000
     1.0000   1.0000   1.0000   1.0000   1.0000   1.0000   1.0000   1.0000
     1.0000   1.0000   1.0000   1.0000   1.0000   1.0000   1.0000   1.0000
     1.0000   1.0000   1.0000   1.0000   1.0000   1.0000   1.0000   1.0000
     1.0000   1.0000   1.0000   1.0000   1.0000   1.0000   1.0000   1.0000
     1.0000   1.0000   1.0000   1.0000   1.0000   1.0000   1.0000   1.0000
     1.0000   1.0000   1.0000   1.0000   1.0000   1.0000   1.0000   0.9999
     0.9999   0.9999   0.9998   0.9993   0.9990   0.9986   0.9984   0.9979
     0.9976   0.9972   0.9967   0.9964   0.9960   0.9950   0.9949   0.9945
     0.9933   0.9922   0.9909   0.9882   0.9865   0.9860   0.9840   0.9818
     0.9777   0.9755   0.9631   0.9550   0.9501   0.9471   0.9336   0.9214
     0.9155   0.9073   0.9000   0.8969   0.8635   0.8510   0.8214   0.8120
     0.7752   0.7688   0.7467   0.7387   0.7364   0.7276   0.7203   0.7140
     0.7075   0.7040   0.6983   0.6914   0.6842   0.6750   0.6713   0.6657
     0.6521   0.6474   0.6420   0.6250   0.4497   0.3953   0.3670   0.3283
     0.3175   0.2100   0.1751   0.0712   0.0377   0.0180   0.0068   0.0016
     0.0002   0.0002   0.0001   0.0001   0.0001   0.0000   0.0000   0.0000
     0.0000   0.0000   0.0000   0.0000   0.0000   0.0000   0.0000   0.0000
     0.0000   0.0000   0.0000   0.0000   0.0000   0.0000   0.0000   0.0000
     0.0000   0.0000

          k = 0.2500-0.5000 0.0000 ( 65138 PWs)   bands (ev):

   -92.8923 -92.8426 -92.7469 -92.7006 -92.6428 -92.5990 -92.5816 -92.4625
   -56.2459 -56.2289 -56.1036 -56.0927 -56.0873 -56.0796 -56.0458 -56.0156
   -56.0005 -55.9989 -55.9928 -55.9496 -55.9314 -55.8933 -55.8739 -55.8427
   -55.8360 -55.7885 -55.7867 -55.7838 -55.7754 -55.7373 -55.7115 -55.6275
   -31.4542 -31.4372 -31.3017 -31.2941 -31.2068 -31.1296 -31.0579 -30.5415
   -30.0358 -29.9934 -29.9682 -29.8596 -15.1620 -15.1187 -15.0427 -14.9352
   -14.9001 -14.7860 -14.6838 -14.5624 -14.2589 -14.2020 -14.1787 -14.1532
   -14.1392 -14.1270 -14.0872 -14.0640 -14.0404 -14.0029 -13.9761 -13.9272
   -13.8500 -13.8018 -13.7259 -13.7202 -13.6495 -13.6235 -13.5273 -13.4818
   -13.3856 -13.3202 -13.3033 -13.2274 -13.2034 -13.1680 -13.1543 -13.1231
   -13.0957 -13.0873 -13.0326 -12.9870 -12.9698 -12.8683 -12.8357 -12.8327
   -12.8036 -12.7002 -12.5142 -12.4990 -12.4864 -12.4263 -12.2062 -12.1655
   -11.9754 -11.9621 -11.9495 -11.9394 -11.9122 -11.8817 -11.8522 -11.8124
   -11.7828 -11.7626 -11.7142 -11.6905 -11.6798  -2.6352  -2.5713  -2.4429
    -2.3672  -2.2340  -2.1510  -2.0278  -1.8800  -1.8216  -1.8020  -1.7410
    -1.7282  -1.6280  -1.5638  -1.4797  -1.4260  -1.4171  -1.3563  -1.3086
    -1.2792  -1.2308  -1.1936  -1.1587  -1.1198  -1.1045  -1.0625  -1.0325
    -0.9891  -0.9584  -0.8915  -0.7863  -0.7482  -0.6685  -0.6025  -0.5459
    -0.5092  -0.4934  -0.4290  -0.2754  -0.2674  -0.1470  -0.1281  -0.1192
    -0.0732  -0.0379  -0.0017   0.0268   0.0893   0.3766   0.4757   0.5473
     0.5970   0.8632   0.8777   0.9661   0.9950   1.1537   1.1931   1.2297
     1.2511   1.2645   1.2862   1.3526   1.4036   1.4352   1.5146   1.6143
     1.6495   1.6658   1.6766   1.7121   1.7239   1.7350   1.7794   1.7875
     1.8083   1.8489   1.8571   1.8752   1.9141   1.9670   2.0126   2.0932
     2.2258   2.3660   2.3845   2.4031   2.4324   2.4511   2.4791   2.5006
     2.5150   2.5326   2.5551   2.6188   2.6357   2.6479   2.6899   2.7076
     2.7196   2.7271   2.7448   2.7583   2.7786   2.7854   2.8250   2.8350
     2.8455   2.8527   2.8640   2.8716   3.3985   3.4153   3.5531   3.6065
     3.9519   4.0074   4.0108   4.1386   4.5762   4.7465   4.9154   4.9624
     5.1255   5.2997   5.4999   5.5315   5.6192   5.6674   6.3281   6.3459
     6.4469   6.7752   7.2314   7.5764   7.6577   7.7099   7.7656   7.8086
     7.9112   8.0345   8.1427   8.3190   8.3830   8.3964   8.5463   8.5819
     8.6324   8.7353

     occupation numbers 
     1.0000   1.0000   1.0000   1.0000   1.0000   1.0000   1.0000   1.0000
     1.0000   1.0000   1.0000   1.0000   1.0000   1.0000   1.0000   1.0000
     1.0000   1.0000   1.0000   1.0000   1.0000   1.0000   1.0000   1.0000
     1.0000   1.0000   1.0000   1.0000   1.0000   1.0000   1.0000   1.0000
     1.0000   1.0000   1.0000   1.0000   1.0000   1.0000   1.0000   1.0000
     1.0000   1.0000   1.0000   1.0000   1.0000   1.0000   1.0000   1.0000
     1.0000   1.0000   1.0000   1.0000   1.0000   1.0000   1.0000   1.0000
     1.0000   1.0000   1.0000   1.0000   1.0000   1.0000   1.0000   1.0000
     1.0000   1.0000   1.0000   1.0000   1.0000   1.0000   1.0000   1.0000
     1.0000   1.0000   1.0000   1.0000   1.0000   1.0000   1.0000   1.0000
     1.0000   1.0000   1.0000   1.0000   1.0000   1.0000   1.0000   1.0000
     1.0000   1.0000   1.0000   1.0000   1.0000   1.0000   1.0000   1.0000
     1.0000   1.0000   1.0000   1.0000   1.0000   1.0000   1.0000   1.0000
     1.0000   1.0000   1.0000   1.0000   1.0000   1.0000   1.0000   1.0000
     1.0000   1.0000   1.0000   1.0000   1.0000   1.0000   1.0000   1.0000
     1.0000   1.0000   1.0000   1.0000   1.0000   1.0000   1.0000   1.0000
     1.0000   1.0000   1.0000   1.0000   1.0000   1.0000   1.0000   1.0000
     1.0000   1.0000   1.0000   1.0000   1.0000   1.0000   1.0000   1.0000
     1.0000   1.0000   1.0000   1.0000   1.0000   1.0000   1.0000   1.0000
     1.0000   1.0000   1.0000   1.0000   1.0000   1.0000   1.0000   0.9999
     0.9999   0.9996   0.9996   0.9994   0.9993   0.9984   0.9980   0.9977
     0.9974   0.9973   0.9970   0.9960   0.9950   0.9942   0.9920   0.9881
     0.9864   0.9855   0.9849   0.9828   0.9820   0.9813   0.9780   0.9774
     0.9757   0.9721   0.9713   0.9694   0.9652   0.9588   0.9524   0.9393
     0.9118   0.8737   0.8679   0.8619   0.8521   0.8456   0.8355   0.8275
     0.8219   0.8150   0.8060   0.7790   0.7714   0.7659   0.7463   0.7379
     0.7320   0.7284   0.7196   0.7127   0.7024   0.6989   0.6781   0.6728
     0.6671   0.6632   0.6571   0.6529   0.3486   0.3394   0.2681   0.2426
     0.1130   0.0980   0.0971   0.0684   0.0163   0.0084   0.0041   0.0034
     0.0016   0.0007   0.0002   0.0002   0.0001   0.0001   0.0000   0.0000
     0.0000   0.0000   0.0000   0.0000   0.0000   0.0000   0.0000   0.0000
     0.0000   0.0000   0.0000   0.0000   0.0000   0.0000   0.0000   0.0000
     0.0000   0.0000

          k =-0.5000-0.5000 0.0000 ( 65132 PWs)   bands (ev):

   -92.8923 -92.8426 -92.7469 -92.7006 -92.6428 -92.5990 -92.5816 -92.4625
   -56.2459 -56.2289 -56.1036 -56.0927 -56.0873 -56.0796 -56.0458 -56.0156
   -56.0005 -55.9989 -55.9928 -55.9496 -55.9314 -55.8933 -55.8739 -55.8427
   -55.8360 -55.7885 -55.7867 -55.7838 -55.7754 -55.7373 -55.7115 -55.6275
   -31.4522 -31.4392 -31.3016 -31.2937 -31.2072 -31.1295 -31.0580 -30.5416
   -30.0349 -29.9944 -29.9678 -29.8600 -15.1134 -15.0911 -14.9755 -14.9557
   -14.8625 -14.8306 -14.7947 -14.6610 -14.1690 -14.1569 -14.1220 -14.1055
   -14.0850 -14.0595 -14.0469 -14.0323 -14.0150 -14.0109 -13.9956 -13.9168
   -13.9087 -13.8805 -13.8450 -13.8012 -13.7352 -13.6869 -13.5630 -13.5212
   -13.3360 -13.3015 -13.2285 -13.2050 -13.1963 -13.1690 -13.1623 -13.1526
   -13.1352 -13.0648 -13.0017 -12.9812 -12.9420 -12.9131 -12.9018 -12.7849
   -12.7770 -12.7164 -12.5053 -12.4957 -12.4676 -12.3932 -12.2008 -12.1679
   -11.9737 -11.9591 -11.9472 -11.9298 -11.9124 -11.8779 -11.8594 -11.8241
   -11.7612 -11.7448 -11.7377 -11.6889 -11.6858  -2.4089  -2.3361  -2.3277
    -2.2534  -2.2159  -2.1381  -2.0697  -1.9436  -1.8301  -1.8003  -1.7568
    -1.7031  -1.6323  -1.6152  -1.5473  -1.5040  -1.3860  -1.3524  -1.3077
    -1.2817  -1.2169  -1.1673  -1.1504  -1.1367  -1.0807  -1.0416  -1.0218
    -0.9110  -0.8532  -0.8035  -0.7580  -0.7275  -0.7112  -0.6796  -0.6375
    -0.5978  -0.5908  -0.5061  -0.4407  -0.3982  -0.3663  -0.2976  -0.2314
    -0.2230  -0.1629  -0.1314  -0.1179  -0.1045   0.3523   0.4005   0.4896
     0.5217   0.8886   0.9022   0.9364   0.9753   1.2427   1.2599   1.2681
     1.3115   1.4326   1.5254   1.5534   1.5904   1.6204   1.6372   1.6475
     1.6756   1.6921   1.7143   1.7199   1.7641   1.7644   1.7933   1.8218
     1.8356   1.8486   1.8879   1.9118   1.9266   1.9564   1.9917   2.0466
     2.1147   2.3784   2.4097   2.4288   2.4479   2.4485   2.4819   2.4920
     2.5098   2.5222   2.5329   2.5415   2.5703   2.5922   2.6184   2.6331
     2.6420   2.6471   2.6665   2.6825   2.6910   2.7147   2.7198   2.7278
     2.8341   2.8373   2.8583   2.8712   3.8368   3.8665   3.8784   3.9019
     4.1301   4.2056   4.2286   4.4690   4.5919   4.6741   4.8076   4.9158
     4.9223   5.0195   5.1570   5.2700   5.7976   5.8405   5.8853   6.0147
     6.5238   6.8799   6.9116   7.7132   7.8304   7.8434   7.9242   8.0759
     8.1136   8.1712   8.2027   8.2611   8.3699   8.4436   8.4840   8.5101
     8.5461   8.5805

     occupation numbers 
     1.0000   1.0000   1.0000   1.0000   1.0000   1.0000   1.0000   1.0000
     1.0000   1.0000   1.0000   1.0000   1.0000   1.0000   1.0000   1.0000
     1.0000   1.0000   1.0000   1.0000   1.0000   1.0000   1.0000   1.0000
     1.0000   1.0000   1.0000   1.0000   1.0000   1.0000   1.0000   1.0000
     1.0000   1.0000   1.0000   1.0000   1.0000   1.0000   1.0000   1.0000
     1.0000   1.0000   1.0000   1.0000   1.0000   1.0000   1.0000   1.0000
     1.0000   1.0000   1.0000   1.0000   1.0000   1.0000   1.0000   1.0000
     1.0000   1.0000   1.0000   1.0000   1.0000   1.0000   1.0000   1.0000
     1.0000   1.0000   1.0000   1.0000   1.0000   1.0000   1.0000   1.0000
     1.0000   1.0000   1.0000   1.0000   1.0000   1.0000   1.0000   1.0000
     1.0000   1.0000   1.0000   1.0000   1.0000   1.0000   1.0000   1.0000
     1.0000   1.0000   1.0000   1.0000   1.0000   1.0000   1.0000   1.0000
     1.0000   1.0000   1.0000   1.0000   1.0000   1.0000   1.0000   1.0000
     1.0000   1.0000   1.0000   1.0000   1.0000   1.0000   1.0000   1.0000
     1.0000   1.0000   1.0000   1.0000   1.0000   1.0000   1.0000   1.0000
     1.0000   1.0000   1.0000   1.0000   1.0000   1.0000   1.0000   1.0000
     1.0000   1.0000   1.0000   1.0000   1.0000   1.0000   1.0000   1.0000
     1.0000   1.0000   1.0000   1.0000   1.0000   1.0000   1.0000   1.0000
     1.0000   1.0000   1.0000   1.0000   1.0000   1.0000   1.0000   1.0000
     1.0000   1.0000   1.0000   1.0000   1.0000   1.0000   1.0000   1.0000
     0.9999   0.9996   0.9995   0.9995   0.9993   0.9975   0.9973   0.9972
     0.9966   0.9943   0.9916   0.9906   0.9892   0.9878   0.9870   0.9865
     0.9850   0.9840   0.9826   0.9823   0.9792   0.9792   0.9769   0.9745
     0.9733   0.9721   0.9681   0.9655   0.9638   0.9601   0.9554   0.9472
     0.9354   0.8698   0.8597   0.8533   0.8467   0.8465   0.8344   0.8307
     0.8239   0.8191   0.8149   0.8115   0.7997   0.7905   0.7791   0.7726
     0.7686   0.7662   0.7574   0.7499   0.7458   0.7344   0.7319   0.7280
     0.6733   0.6715   0.6602   0.6531   0.1492   0.1392   0.1353   0.1278
     0.0700   0.0562   0.0524   0.0239   0.0153   0.0112   0.0065   0.0041
     0.0040   0.0026   0.0013   0.0008   0.0000   0.0000   0.0000   0.0000
     0.0000   0.0000   0.0000   0.0000   0.0000   0.0000   0.0000   0.0000
     0.0000   0.0000   0.0000   0.0000   0.0000   0.0000   0.0000   0.0000
     0.0000   0.0000

          k = 0.2500 0.0000 0.0000 ( 65257 PWs)   bands (ev):

   -92.8923 -92.8426 -92.7469 -92.7006 -92.6428 -92.5990 -92.5816 -92.4625
   -56.2459 -56.2289 -56.1036 -56.0927 -56.0873 -56.0796 -56.0458 -56.0156
   -56.0005 -55.9989 -55.9928 -55.9496 -55.9314 -55.8933 -55.8739 -55.8427
   -55.8360 -55.7885 -55.7867 -55.7838 -55.7754 -55.7373 -55.7115 -55.6275
   -31.4546 -31.4374 -31.3021 -31.2937 -31.2065 -31.1292 -31.0580 -30.5414
   -30.0370 -29.9940 -29.9669 -29.8589 -15.2358 -15.1832 -15.1224 -14.9750
[...]
     0.6342   0.6203   0.6182   0.6141   0.6103   0.6044   0.5990   0.5254
     0.3490   0.3182   0.2032   0.0764   0.0445   0.0205   0.0049   0.0030
     0.0002   0.0001   0.0000   0.0000   0.0000   0.0000   0.0000   0.0000
     0.0000   0.0000   0.0000   0.0000   0.0000   0.0000   0.0000   0.0000
     0.0000   0.0000   0.0000   0.0000   0.0000   0.0000   0.0000   0.0000
     0.0000   0.0000

          k =-0.5000 0.0000 0.0000 ( 65180 PWs)   bands (ev):

   -92.8923 -92.8426 -92.7469 -92.7006 -92.6428 -92.5990 -92.5816 -92.4625
   -56.2459 -56.2289 -56.1036 -56.0927 -56.0873 -56.0796 -56.0458 -56.0156
   -56.0005 -55.9989 -55.9928 -55.9496 -55.9314 -55.8933 -55.8739 -55.8427
   -55.8360 -55.7885 -55.7867 -55.7838 -55.7754 -55.7373 -55.7115 -55.6275
   -31.4526 -31.4394 -31.3020 -31.2933 -31.2069 -31.1292 -31.0581 -30.5415
   -30.0360 -29.9950 -29.9665 -29.8593 -15.2007 -15.1429 -15.0821 -14.9746
   -14.8727 -14.7297 -14.5738 -14.4386 -14.3183 -14.2998 -14.2948 -14.2295
   -14.1737 -14.1409 -14.0923 -14.0816 -14.0645 -14.0205 -14.0016 -13.8885
   -13.7407 -13.6944 -13.6785 -13.6709 -13.5959 -13.5476 -13.4698 -13.4447
   -13.4207 -13.3992 -13.2611 -13.2328 -13.2178 -13.1943 -13.1844 -13.1412
   -13.1206 -13.1028 -13.0611 -13.0399 -12.9645 -12.8201 -12.8106 -12.7865
   -12.7396 -12.7195 -12.5708 -12.5058 -12.4968 -12.4842 -12.2067 -12.1576
   -11.9758 -11.9674 -11.9413 -11.9385 -11.9226 -11.9046 -11.8638 -11.8011
   -11.7842 -11.7519 -11.7036 -11.6955 -11.6808  -2.7682  -2.7306  -2.5672
    -2.5286  -2.2123  -2.1362  -1.9903  -1.8742  -1.8338  -1.7871  -1.7403
    -1.7176  -1.5926  -1.5496  -1.5309  -1.4501  -1.4166  -1.3949  -1.3688
    -1.3083  -1.2409  -1.2137  -1.1794  -1.0874  -1.0414  -0.9907  -0.9591
    -0.9380  -0.9052  -0.8593  -0.8348  -0.7933  -0.6883  -0.6225  -0.5456
    -0.4879  -0.3240  -0.2854  -0.2432  -0.1894  -0.1370  -0.1260   0.0165
     0.0445   0.0981   0.2525   0.3524   0.4005   0.5018   0.5659   0.6817
     0.6921   0.8244   0.8465   0.9012   0.9408   0.9684   0.9794   1.0237
     1.0490   1.1185   1.1665   1.2157   1.2230   1.5256   1.5329   1.5600
     1.5767   1.6749   1.6926   1.7049   1.7136   1.7463   1.7547   1.7945
     1.8129   1.8388   1.8897   1.9116   1.9607   1.9858   2.0385   2.1551
     2.2493   2.3148   2.3303   2.4117   2.4368   2.4620   2.5229   2.5410
     2.5517   2.5547   2.5821   2.6278   2.6430   2.6579   2.6966   2.7489
     2.7679   2.8122   2.8164   2.8205   2.8279   2.8457   2.8564   2.8693
     2.8759   2.8963   2.9015   2.9197   2.9398   2.9451   3.0753   3.0806
     3.8944   3.9543   4.0098   4.1431   4.6098   4.6907   4.8857   4.9125
     5.3671   5.3984   5.4828   5.5105   5.8529   5.8669   6.2566   6.6717
     6.7261   6.9443   7.1912   7.2529   7.5932   7.6198   7.6934   7.7172
     7.7682   7.8208   8.0477   8.2921   8.3580   8.4396   8.4544   8.5154
     8.6298   8.7040

     occupation numbers 
     1.0000   1.0000   1.0000   1.0000   1.0000   1.0000   1.0000   1.0000
     1.0000   1.0000   1.0000   1.0000   1.0000   1.0000   1.0000   1.0000
     1.0000   1.0000   1.0000   1.0000   1.0000   1.0000   1.0000   1.0000
     1.0000   1.0000   1.0000   1.0000   1.0000   1.0000   1.0000   1.0000
     1.0000   1.0000   1.0000   1.0000   1.0000   1.0000   1.0000   1.0000
     1.0000   1.0000   1.0000   1.0000   1.0000   1.0000   1.0000   1.0000
     1.0000   1.0000   1.0000   1.0000   1.0000   1.0000   1.0000   1.0000
     1.0000   1.0000   1.0000   1.0000   1.0000   1.0000   1.0000   1.0000
     1.0000   1.0000   1.0000   1.0000   1.0000   1.0000   1.0000   1.0000
     1.0000   1.0000   1.0000   1.0000   1.0000   1.0000   1.0000   1.0000
     1.0000   1.0000   1.0000   1.0000   1.0000   1.0000   1.0000   1.0000
     1.0000   1.0000   1.0000   1.0000   1.0000   1.0000   1.0000   1.0000
     1.0000   1.0000   1.0000   1.0000   1.0000   1.0000   1.0000   1.0000
     1.0000   1.0000   1.0000   1.0000   1.0000   1.0000   1.0000   1.0000
     1.0000   1.0000   1.0000   1.0000   1.0000   1.0000   1.0000   1.0000
     1.0000   1.0000   1.0000   1.0000   1.0000   1.0000   1.0000   1.0000
     1.0000   1.0000   1.0000   1.0000   1.0000   1.0000   1.0000   1.0000
     1.0000   1.0000   1.0000   1.0000   1.0000   1.0000   1.0000   1.0000
     1.0000   1.0000   1.0000   1.0000   1.0000   1.0000   1.0000   1.0000
     1.0000   1.0000   1.0000   1.0000   1.0000   1.0000   0.9999   0.9999
     0.9999   0.9997   0.9997   0.9995   0.9994   0.9994   0.9993   0.9991
     0.9990   0.9986   0.9983   0.9978   0.9978   0.9916   0.9914   0.9904
     0.9897   0.9850   0.9840   0.9832   0.9827   0.9805   0.9799   0.9768
     0.9753   0.9730   0.9679   0.9655   0.9596   0.9562   0.9485   0.9275
     0.9061   0.8888   0.8843   0.8591   0.8506   0.8417   0.8188   0.8117
     0.8073   0.8062   0.7948   0.7750   0.7681   0.7613   0.7432   0.7175
     0.7079   0.6849   0.6826   0.6805   0.6766   0.6670   0.6612   0.6542
     0.6505   0.6393   0.6364   0.6262   0.6148   0.6118   0.5361   0.5330
     0.1302   0.1123   0.0973   0.0675   0.0143   0.0105   0.0047   0.0042
     0.0005   0.0004   0.0002   0.0002   0.0000   0.0000   0.0000   0.0000
     0.0000   0.0000   0.0000   0.0000   0.0000   0.0000   0.0000   0.0000
     0.0000   0.0000   0.0000   0.0000   0.0000   0.0000   0.0000   0.0000
     0.0000   0.0000

          k =-0.2500 0.2500 0.0000 ( 65198 PWs)   bands (ev):

   -92.8923 -92.8426 -92.7469 -92.7006 -92.6428 -92.5990 -92.5816 -92.4625
   -56.2459 -56.2289 -56.1036 -56.0927 -56.0873 -56.0796 -56.0458 -56.0156
   -56.0005 -55.9989 -55.9928 -55.9496 -55.9314 -55.8933 -55.8739 -55.8427
   -55.8360 -55.7885 -55.7867 -55.7838 -55.7754 -55.7373 -55.7115 -55.6275
   -31.4544 -31.4373 -31.3019 -31.2939 -31.2066 -31.1294 -31.0579 -30.5415
   -30.0364 -29.9937 -29.9675 -29.8592 -15.2039 -15.1524 -15.0870 -14.9704
   -14.8520 -14.7262 -14.6476 -14.4352 -14.3001 -14.2708 -14.2542 -14.2086
   -14.1835 -14.1596 -14.1352 -14.1032 -14.0206 -14.0096 -13.8551 -13.8307
   -13.7992 -13.7790 -13.7107 -13.6814 -13.6155 -13.6038 -13.4761 -13.4319
   -13.4007 -13.3254 -13.2837 -13.2314 -13.2163 -13.1846 -13.1636 -13.1269
   -13.1053 -13.0828 -13.0540 -12.9930 -12.9816 -12.9494 -12.9210 -12.8711
   -12.7288 -12.6211 -12.5960 -12.5196 -12.4881 -12.4611 -12.1838 -12.1076
   -11.9874 -11.9735 -11.9639 -11.9363 -11.9255 -11.8842 -11.8488 -11.8269
   -11.8057 -11.7833 -11.6957 -11.6526 -11.6434  -2.8529  -2.6460  -2.5249
    -2.4342  -2.3183  -2.2526  -2.0461  -1.9041  -1.8868  -1.8532  -1.7636
    -1.7280  -1.6338  -1.5995  -1.5724  -1.4319  -1.3754  -1.3051  -1.2761
    -1.2166  -1.1986  -1.1584  -1.1300  -1.0891  -1.0256  -0.9774  -0.9096
    -0.8436  -0.8180  -0.7677  -0.7390  -0.6928  -0.6352  -0.5818  -0.5483
    -0.4413  -0.4158  -0.3973  -0.3579  -0.2948  -0.2156  -0.1766  -0.1376
    -0.0661  -0.0364   0.2070   0.3804   0.4145   0.4580   0.5206   0.5849
     0.6303   0.6959   0.7217   1.0037   1.1067   1.1466   1.1796   1.1892
     1.2288   1.2427   1.2894   1.3196   1.3324   1.3578   1.4084   1.4267
     1.4629   1.4882   1.5299   1.6234   1.6415   1.6585   1.6979   1.7214
     1.7656   1.8176   1.9221   2.0244   2.0482   2.0978   2.1196   2.1839
     2.2210   2.2472   2.2735   2.2944   2.3985   2.4338   2.5211   2.5358
     2.6272   2.6411   2.6963   2.7032   2.7177   2.7262   2.7384   2.7533
     2.7592   2.7776   2.7873   2.7993   2.8100   2.8217   2.8314   2.8413
     2.8734   2.8823   2.8901   2.9242   3.2149   3.2968   3.3671   3.4463
     3.4600   3.6639   3.7740   4.1236   4.3311   4.5504   4.8086   5.1235
     5.4939   5.5517   5.6082   5.6472   5.7145   6.0983   6.1198   6.1415
     6.8319   7.0900   7.1802   7.3736   7.4557   7.4792   7.5618   7.7630
     7.8452   8.0878   8.1980   8.2242   8.3140   8.3431   8.4520   8.4909
     8.5520   8.6915

     occupation numbers 
     1.0000   1.0000   1.0000   1.0000   1.0000   1.0000   1.0000   1.0000
     1.0000   1.0000   1.0000   1.0000   1.0000   1.0000   1.0000   1.0000
     1.0000   1.0000   1.0000   1.0000   1.0000   1.0000   1.0000   1.0000
     1.0000   1.0000   1.0000   1.0000   1.0000   1.0000   1.0000   1.0000
     1.0000   1.0000   1.0000   1.0000   1.0000   1.0000   1.0000   1.0000
     1.0000   1.0000   1.0000   1.0000   1.0000   1.0000   1.0000   1.0000
     1.0000   1.0000   1.0000   1.0000   1.0000   1.0000   1.0000   1.0000
     1.0000   1.0000   1.0000   1.0000   1.0000   1.0000   1.0000   1.0000
     1.0000   1.0000   1.0000   1.0000   1.0000   1.0000   1.0000   1.0000
     1.0000   1.0000   1.0000   1.0000   1.0000   1.0000   1.0000   1.0000
     1.0000   1.0000   1.0000   1.0000   1.0000   1.0000   1.0000   1.0000
     1.0000   1.0000   1.0000   1.0000   1.0000   1.0000   1.0000   1.0000
     1.0000   1.0000   1.0000   1.0000   1.0000   1.0000   1.0000   1.0000
     1.0000   1.0000   1.0000   1.0000   1.0000   1.0000   1.0000   1.0000
     1.0000   1.0000   1.0000   1.0000   1.0000   1.0000   1.0000   1.0000
     1.0000   1.0000   1.0000   1.0000   1.0000   1.0000   1.0000   1.0000
     1.0000   1.0000   1.0000   1.0000   1.0000   1.0000   1.0000   1.0000
     1.0000   1.0000   1.0000   1.0000   1.0000   1.0000   1.0000   1.0000
     1.0000   1.0000   1.0000   1.0000   1.0000   1.0000   1.0000   1.0000
     1.0000   1.0000   1.0000   1.0000   1.0000   1.0000   0.9999   0.9999
     0.9999   0.9999   0.9998   0.9992   0.9987   0.9984   0.9982   0.9981
     0.9977   0.9975   0.9970   0.9965   0.9963   0.9959   0.9949   0.9944
     0.9935   0.9928   0.9915   0.9877   0.9868   0.9859   0.9837   0.9822
     0.9791   0.9749   0.9643   0.9507   0.9469   0.9385   0.9345   0.9214
     0.9130   0.9067   0.9000   0.8944   0.8634   0.8516   0.8196   0.8137
     0.7752   0.7690   0.7433   0.7400   0.7329   0.7288   0.7228   0.7153
     0.7123   0.7029   0.6979   0.6917   0.6860   0.6799   0.6747   0.6694
     0.6519   0.6470   0.6427   0.6236   0.4536   0.4059   0.3660   0.3227
     0.3155   0.2167   0.1719   0.0713   0.0380   0.0179   0.0065   0.0016
     0.0002   0.0002   0.0001   0.0001   0.0001   0.0000   0.0000   0.0000
     0.0000   0.0000   0.0000   0.0000   0.0000   0.0000   0.0000   0.0000
     0.0000   0.0000   0.0000   0.0000   0.0000   0.0000   0.0000   0.0000
     0.0000   0.0000

          k =-0.5000 0.2500 0.0000 ( 65138 PWs)   bands (ev):

   -92.8923 -92.8426 -92.7469 -92.7006 -92.6428 -92.5990 -92.5816 -92.4625
   -56.2459 -56.2289 -56.1036 -56.0927 -56.0873 -56.0796 -56.0458 -56.0156
   -56.0005 -55.9989 -55.9928 -55.9496 -55.9314 -55.8933 -55.8739 -55.8427
   -55.8360 -55.7885 -55.7867 -55.7838 -55.7754 -55.7373 -55.7115 -55.6275
   -31.4524 -31.4393 -31.3018 -31.2935 -31.2070 -31.1293 -31.0581 -30.5415
   -30.0355 -29.9947 -29.9672 -29.8597 -15.1670 -15.1170 -15.0389 -14.9417
   -14.9008 -14.7771 -14.6806 -14.5557 -14.2507 -14.2196 -14.2074 -14.1596
   -14.1379 -14.1140 -14.0791 -14.0667 -14.0448 -14.0083 -13.9994 -13.8858
   -13.8212 -13.7730 -13.7644 -13.7343 -13.6506 -13.6406 -13.5141 -13.4674
   -13.3780 -13.3444 -13.2500 -13.2232 -13.2028 -13.1939 -13.1631 -13.1300
   -13.1176 -13.0876 -13.0575 -12.9970 -12.9716 -12.8468 -12.8138 -12.8012
   -12.7940 -12.7178 -12.5225 -12.5006 -12.4887 -12.4364 -12.2030 -12.1633
   -11.9746 -11.9592 -11.9460 -11.9316 -11.9205 -11.8979 -11.8686 -11.7884
   -11.7781 -11.7573 -11.7182 -11.6919 -11.6835  -2.6253  -2.5843  -2.4365
    -2.3948  -2.2320  -2.1547  -2.0145  -1.8800  -1.8215  -1.7954  -1.7566
    -1.7199  -1.6381  -1.5228  -1.4649  -1.4427  -1.4158  -1.3340  -1.3120
    -1.2711  -1.2556  -1.1946  -1.1618  -1.1270  -1.0916  -1.0626  -1.0033
    -0.9763  -0.9352  -0.8987  -0.7934  -0.7670  -0.6696  -0.6169  -0.5805
    -0.5197  -0.4434  -0.4088  -0.3087  -0.2658  -0.2069  -0.1565  -0.1206
    -0.0631  -0.0338   0.0015   0.0457   0.0848   0.4114   0.4724   0.5360
     0.5647   0.8365   0.9011   0.9674   0.9991   1.1690   1.2038   1.2413
     1.2501   1.2685   1.2863   1.3574   1.4030   1.4459   1.4787   1.5999
     1.6399   1.6649   1.6787   1.7170   1.7400   1.7569   1.7687   1.7860
     1.8089   1.8539   1.8659   1.9055   1.9291   1.9641   2.0162   2.1418
     2.2349   2.2627   2.3282   2.3637   2.4282   2.4605   2.4680   2.5099
     2.5266   2.5514   2.5669   2.6232   2.6392   2.6577   2.6937   2.7074
     2.7120   2.7314   2.7539   2.7658   2.7831   2.7930   2.8174   2.8304
     2.8382   2.8466   2.8565   2.8702   3.4026   3.4426   3.5870   3.6065
     3.9011   3.9678   4.0197   4.2237   4.6022   4.7028   4.8775   4.9271
     5.2331   5.2577   5.4832   5.5721   5.6040   5.6434   6.3244   6.3521
     6.4549   6.7601   7.2504   7.5944   7.6659   7.7189   7.7527   7.7899
     7.8987   8.0122   8.1460   8.3394   8.4066   8.4255   8.5025   8.5567
     8.6897   8.7112

     occupation numbers 
     1.0000   1.0000   1.0000   1.0000   1.0000   1.0000   1.0000   1.0000
     1.0000   1.0000   1.0000   1.0000   1.0000   1.0000   1.0000   1.0000
     1.0000   1.0000   1.0000   1.0000   1.0000   1.0000   1.0000   1.0000
     1.0000   1.0000   1.0000   1.0000   1.0000   1.0000   1.0000   1.0000
     1.0000   1.0000   1.0000   1.0000   1.0000   1.0000   1.0000   1.0000
     1.0000   1.0000   1.0000   1.0000   1.0000   1.0000   1.0000   1.0000
     1.0000   1.0000   1.0000   1.0000   1.0000   1.0000   1.0000   1.0000
     1.0000   1.0000   1.0000   1.0000   1.0000   1.0000   1.0000   1.0000
     1.0000   1.0000   1.0000   1.0000   1.0000   1.0000   1.0000   1.0000
     1.0000   1.0000   1.0000   1.0000   1.0000   1.0000   1.0000   1.0000
     1.0000   1.0000   1.0000   1.0000   1.0000   1.0000   1.0000   1.0000
     1.0000   1.0000   1.0000   1.0000   1.0000   1.0000   1.0000   1.0000
     1.0000   1.0000   1.0000   1.0000   1.0000   1.0000   1.0000   1.0000
     1.0000   1.0000   1.0000   1.0000   1.0000   1.0000   1.0000   1.0000
     1.0000   1.0000   1.0000   1.0000   1.0000   1.0000   1.0000   1.0000
     1.0000   1.0000   1.0000   1.0000   1.0000   1.0000   1.0000   1.0000
     1.0000   1.0000   1.0000   1.0000   1.0000   1.0000   1.0000   1.0000
     1.0000   1.0000   1.0000   1.0000   1.0000   1.0000   1.0000   1.0000
     1.0000   1.0000   1.0000   1.0000   1.0000   1.0000   1.0000   1.0000
     1.0000   1.0000   1.0000   1.0000   1.0000   1.0000   1.0000   0.9999
     0.9999   0.9997   0.9995   0.9994   0.9992   0.9983   0.9979   0.9976
     0.9975   0.9972   0.9970   0.9959   0.9950   0.9940   0.9931   0.9887
     0.9869   0.9856   0.9848   0.9825   0.9809   0.9797   0.9789   0.9775
     0.9756   0.9716   0.9704   0.9662   0.9635   0.9591   0.9519   0.9301
     0.9097   0.9027   0.8849   0.8744   0.8535   0.8422   0.8395   0.8239
     0.8174   0.8075   0.8011   0.7770   0.7699   0.7614   0.7446   0.7380
     0.7357   0.7262   0.7150   0.7090   0.7001   0.6949   0.6821   0.6752
     0.6711   0.6665   0.6612   0.6537   0.3463   0.3247   0.2517   0.2426
     0.1281   0.1085   0.0948   0.0532   0.0148   0.0100   0.0049   0.0039
     0.0009   0.0008   0.0002   0.0001   0.0001   0.0001   0.0000   0.0000
     0.0000   0.0000   0.0000   0.0000   0.0000   0.0000   0.0000   0.0000
     0.0000   0.0000   0.0000   0.0000   0.0000   0.0000   0.0000   0.0000
     0.0000   0.0000

     the Fermi energy is     3.1364 ev

!    total energy              =   -4440.31009141 Ry
     estimated scf accuracy    <          9.4E-09 Ry
     smearing contrib. (-TS)   =      -1.20834910 Ry
     internal energy E=F+TS    =   -4439.10174231 Ry

     The total energy is F=E-TS. E is the sum of the following terms:
     one-electron contribution =  -20889.94118471 Ry
     hartree contribution      =   10573.87164997 Ry
     xc contribution           =    -693.25214831 Ry
     ewald contribution        =    6846.41076932 Ry
     one-center paw contrib.   =    -276.19082857 Ry
      -> PAW hartree energy AE =      25.14705326 Ry
      -> PAW hartree energy PS =     -25.03109993 Ry
      -> PAW xc energy AE      =     -16.51525981 Ry
      -> PAW xc energy PS      =       6.87460969 Ry
      -> total E_H with PAW    =   10573.98760329 Ry
      -> total E_XC with PAW   =    -702.89279843 Ry

     convergence has been achieved in  49 iterations

     Writing all to output data dir /bsuhome/zayahcortright/scratch/pwscf.save/
 
     init_run     :      7.49s CPU      8.48s WALL (       1 calls)
     electrons    :    699.24s CPU    733.74s WALL (       1 calls)

     Called by init_run:
     wfcinit      :      6.16s CPU      6.41s WALL (       1 calls)
     wfcinit:atom :      0.04s CPU      0.07s WALL (       5 calls)
     wfcinit:wfcr :      5.84s CPU      6.00s WALL (       5 calls)
     potinit      :      0.19s CPU      0.22s WALL (       1 calls)
     hinit0       :      0.28s CPU      0.71s WALL (       1 calls)

     Called by electrons:
     c_bands      :    553.44s CPU    560.47s WALL (      49 calls)
     sum_band     :    109.42s CPU    124.86s WALL (      49 calls)
     v_of_rho     :      5.23s CPU      5.70s WALL (      50 calls)
     v_h          :      0.42s CPU      0.43s WALL (      50 calls)
     v_xc         :      4.81s CPU      5.27s WALL (      50 calls)
     newd         :     16.36s CPU     27.51s WALL (      50 calls)
     PAW_pot      :      1.67s CPU      1.70s WALL (      50 calls)
     mix_rho      :     12.76s CPU     13.15s WALL (      49 calls)

     Called by c_bands:
     init_us_2    :      6.84s CPU      6.94s WALL (     495 calls)
     init_us_2:cp :      6.83s CPU      6.93s WALL (     495 calls)
     cegterg      :    524.04s CPU    530.69s WALL (     245 calls)

     Called by sum_band:
     sum_band:wei :      0.35s CPU      0.35s WALL (      49 calls)
     sum_band:loo :     92.47s CPU     93.28s WALL (      49 calls)
     sum_band:buf :      1.34s CPU      1.43s WALL (     245 calls)
     sum_band:ini :      3.05s CPU      3.07s WALL (     245 calls)
     sum_band:cal :     18.93s CPU     18.99s WALL (     245 calls)
     sum_band:bec :      0.56s CPU      0.56s WALL (     245 calls)
     addusdens    :     15.34s CPU     29.89s WALL (      49 calls)
                                        0.00s GPU  (      49 calls)
     addusd:skk   :      0.32s CPU      0.97s WALL (     147 calls)
                                        0.00s GPU  (     147 calls)

     Called by *egterg:
     cdiaghg      :     52.50s CPU     52.77s WALL (    1206 calls)
     cegterg:over :     37.95s CPU     38.12s WALL (     961 calls)
     cegterg:upda :     27.65s CPU     28.18s WALL (     961 calls)
     cegterg:last :     57.15s CPU     57.40s WALL (     436 calls)
     cdiaghg:chol :      2.94s CPU      2.96s WALL (    1206 calls)
     cdiaghg:inve :      2.55s CPU      2.56s WALL (    1206 calls)
     cdiaghg:para :      6.66s CPU      6.72s WALL (    2412 calls)
     h_psi        :    294.30s CPU    297.72s WALL (    1211 calls)
     s_psi        :     39.24s CPU     39.38s WALL (    1211 calls)
     g_psi        :      1.02s CPU      1.03s WALL (     961 calls)

     Called by h_psi:
     h_psi:calbec :     43.63s CPU     44.06s WALL (    1211 calls)
     vloc_psi     :    208.81s CPU    210.86s WALL (    1211 calls)
     add_vuspsi   :     39.14s CPU     39.43s WALL (    1211 calls)

     General routines
     calbec       :     62.54s CPU     63.04s WALL (    1456 calls)
     fft          :      3.57s CPU      3.63s WALL (     648 calls)
     ffts         :      4.72s CPU      4.76s WALL (    5255 calls)
     fftw         :    176.01s CPU    177.58s WALL (  328822 calls)
     interpolate  :      0.41s CPU      0.42s WALL (      50 calls)
 
     Parallel routines

     PAW routines
     PAW_pot      :      1.67s CPU      1.70s WALL (      50 calls)
 
     PWSCF        :  11m48.77s CPU  12m27.04s WALL

 
   This run was terminated on:  16:36:51  21Jun2024            

=------------------------------------------------------------------------------=
   JOB DONE.
=------------------------------------------------------------------------------=
