
     Program PWSCF v.7.2 starts on 21Jun2024 at 17:40:51 

     This program is part of the open-source Quantum ESPRESSO suite
     for quantum simulation of materials; please cite
         "P. Giannozzi et al., J. Phys.:Condens. Matter 21 395502 (2009);
         "P. Giannozzi et al., J. Phys.:Condens. Matter 29 465901 (2017);
         "P. Giannozzi et al., J. Chem. Phys. 152 154105 (2020);
          URL http://www.quantum-espresso.org", 
     in publications or presentations arising from this work. More details at
     http://www.quantum-espresso.org/quote

     Parallel version (MPI & OpenMP), running on      48 processor cores
     Number of MPI processes:                48
     Threads/MPI process:                     1

     MPI processes distributed on     1 nodes
     60577 MiB available memory on the printing compute node when the environment starts
 
     Reading input from espresso.pwi
Warning: card &CELL ignored
Warning: card / ignored
Warning: card &FCP ignored
Warning: card / ignored
Warning: card &RISM ignored
Warning: card / ignored

     Current dimensions of program PWSCF are:
     Max number of different atomic species (ntypx) = 10
     Max number of k-points (npk) =  40000
     Max angular momentum in pseudopotentials (lmaxx) =  4
     file O.pbe-n-kjpaw_psl.0.1.UPF: wavefunction(s)  2P renormalized
     signal trapping enabled: kill the code with -SIGUSR1 to stop cleanly the simulation 
 
     K-points division:     npool     =       2
     R & G space division:  proc/nbgrp/npool/nimage =      24
     Subspace diagonalization in iterative solution of the eigenvalue problem:
     one sub-group per band group will be used
     scalapack distributed-memory algorithm (size of sub-group:  3*  3 procs)

 
     Parallelization info
     --------------------
     sticks:   dense  smooth     PW     G-vecs:    dense   smooth      PW
     Min         350     175     47                61430    21716    3036
     Max         351     177     48                61449    21727    3041
     Sum        8421    4205   1137              1474595   521381   72913
 
     Using Slab Decomposition
 


     bravais-lattice index     =            0
     lattice parameter (alat)  =      14.8599  a.u.
     unit-cell volume          =    8305.1283 (a.u.)^3
     number of atoms/cell      =           49
     number of atomic types    =            3
     number of electrons       =       430.00
     number of Kohn-Sham states=          258
     kinetic-energy cutoff     =      60.0000  Ry
     charge density cutoff     =     480.0000  Ry
     scf convergence threshold =      1.0E-08
     mixing beta               =       0.1500
     number of iterations used =            8  local-TF  mixing
     Exchange-correlation= SLA  PW   PBE  PBE
                           (   1   4   3   4   0   0   0)

     celldm(1)=  14.859904  celldm(2)=   0.000000  celldm(3)=   0.000000
     celldm(4)=   0.000000  celldm(5)=   0.000000  celldm(6)=   0.000000

     crystal axes: (cart. coord. in units of alat)
               a(1) = (   1.000000   0.000000   0.000000 )  
               a(2) = (   0.000000   1.000000   0.000000 )  
               a(3) = (   0.000000   0.000000   2.531036 )  

     reciprocal axes: (cart. coord. in units 2 pi/alat)
               b(1) = (  1.000000  0.000000  0.000000 )  
               b(2) = (  0.000000  1.000000  0.000000 )  
               b(3) = (  0.000000  0.000000  0.395095 )  


     PseudoPot. # 1 for Sr read from file:
     /bsuhome/zayahcortright/q-e/pseudo/Sr_pbe_v1.uspp.F.UPF
     MD5 check sum: 6b418c05fbe9db5448babca5e47b7a5b
     Pseudo is Ultrasoft + core correction, Zval = 10.0
     Generated by new atomic code, or converted to UPF format
     Using radial grid of  883 points,  6 beta functions with: 
                l(1) =   0
                l(2) =   0
                l(3) =   1
                l(4) =   1
                l(5) =   2
                l(6) =   2
     Q(r) pseudized with  6 coefficients,  rinner =    1.400   1.400   1.400
                                                       1.400   1.400

     PseudoPot. # 2 for O  read from file:
     /bsuhome/zayahcortright/q-e/pseudo/O.pbe-n-kjpaw_psl.0.1.UPF
     MD5 check sum: 0234752ac141de4415c5fc33072bef88
     Pseudo is Projector augmented-wave + core cor, Zval =  6.0
     Generated using "atomic" code by A. Dal Corso  v.5.0.99 svn rev. 10869
     Shape of augmentation charge: BESSEL
     Using radial grid of 1095 points,  4 beta functions with: 
                l(1) =   0
                l(2) =   0
                l(3) =   1
                l(4) =   1
     Q(r) pseudized with 0 coefficients 


     PseudoPot. # 3 for Co read from file:
     /bsuhome/zayahcortright/q-e/pseudo/Co_pbe_v1.2.uspp.F.UPF
     MD5 check sum: 5f91765df6ddd3222702df6e7b74a16d
     Pseudo is Ultrasoft + core correction, Zval = 17.0
     Generated by new atomic code, or converted to UPF format
     Using radial grid of  863 points,  6 beta functions with: 
                l(1) =   0
                l(2) =   0
                l(3) =   1
                l(4) =   1
                l(5) =   2
                l(6) =   2
     Q(r) pseudized with  8 coefficients,  rinner =    1.200   1.200   1.200
                                                       1.200   1.200

     atomic species   valence    mass     pseudopotential
        Sr            10.00    87.62000     Sr( 1.00)
        O              6.00    15.99900     O ( 1.00)
        Co            17.00    58.93319     Co( 1.00)

     No symmetry found


                                    s                        frac. trans.

      isym =  1     identity                                     

 cryst.   s( 1) = (     1          0          0      )
                  (     0          1          0      )
                  (     0          0          1      )

 cart.    s( 1) = (  1.0000000  0.0000000  0.0000000 )
                  (  0.0000000  1.0000000  0.0000000 )
                  (  0.0000000  0.0000000  1.0000000 )


   Cartesian axes

     site n.     atom                  positions (alat units)
         1           Sr  tau(   1) = (   0.2508693   0.7491307   1.7574407  )
         2           O   tau(   2) = (   0.4985141   0.5014859   1.7715967  )
         3           Sr  tau(   3) = (   0.7482398   0.7454518   1.7648669  )
         4           Sr  tau(   4) = (   0.7441748   0.2558252   1.7667843  )
         5           Sr  tau(   5) = (   0.2508693   0.7491307   1.2696799  )
         6           Sr  tau(   6) = (   0.2508693   0.7491307   0.7632319  )
         7           Co  tau(   7) = (   0.4998914   0.5001086   1.0164559  )
         8           Co  tau(   8) = (   0.4936915   0.5063085   1.5135603  )
         9           O   tau(   9) = (   0.4988895   0.7610401   1.0164559  )
        10           O   tau(  10) = (   0.2389599   0.5011105   1.0164559  )
        11           O   tau(  11) = (   0.0070918   0.7374880   1.0164559  )
        12           O   tau(  12) = (   0.0088340   0.7405089   1.5135603  )
        13           O   tau(  13) = (   0.5066944   0.7415376   1.5135603  )
        14           O   tau(  14) = (   0.2584624   0.4933056   1.5135603  )
        15           O   tau(  15) = (   0.4985141   0.5014859   0.7773880  )
        16           O   tau(  16) = (   0.4985141   0.5014859   1.2555238  )
        17           Sr  tau(  17) = (   0.7482398   0.7454518   0.7706582  )
        18           Sr  tau(  18) = (   0.7482398   0.7454518   1.2622536  )
        19           Sr  tau(  19) = (   0.7441748   0.2558252   0.7725755  )
        20           Sr  tau(  20) = (   0.7441748   0.2558252   1.2603363  )
        21           O   tau(  21) = (   0.7322655   0.0078049   1.5135603  )
        22           O   tau(  22) = (   0.7558175   0.4996027   1.5135603  )
        23           O   tau(  23) = (   0.5003973   0.2441825   1.5135603  )
        24           O   tau(  24) = (   0.7527966   0.4978604   1.0164559  )
        25           O   tau(  25) = (   0.5021396   0.2472034   1.0164559  )
        26           O   tau(  26) = (   0.7517679   0.0000000   1.0164559  )
        27           O   tau(  27) = (   0.0114961   0.4948124   1.7455321  )
        28           O   tau(  28) = (   0.0048226   0.0077944   1.7715967  )
        29           Sr  tau(  29) = (   0.2545482   0.2517602   1.7648669  )
        30           O   tau(  30) = (   0.5048017   0.0015068   1.7786929  )
        31           Co  tau(  31) = (   0.0056869   0.5006215   1.0164559  )
        32           Co  tau(  32) = (   0.0065315   0.4997770   1.5135603  )
        33           Co  tau(  33) = (   0.0061999   0.0064171   1.0164559  )
        34           Co  tau(  34) = (   0.0000000   0.0126169   1.5135603  )
        35           O   tau(  35) = (   0.0114961   0.4948124   1.2815885  )
        36           O   tau(  36) = (   0.0114961   0.4948124   0.7513233  )
        37           O   tau(  37) = (   0.0051979   0.2673486   1.0164559  )
        38           O   tau(  38) = (   0.0130029   0.2478461   1.5135603  )
        39           O   tau(  39) = (   0.0048226   0.0077944   0.7773880  )
        40           O   tau(  40) = (   0.0048226   0.0077944   1.2555238  )
        41           Sr  tau(  41) = (   0.2545482   0.2517602   0.7706582  )
        42           Sr  tau(  42) = (   0.2545482   0.2517602   1.2622536  )
        43           Co  tau(  43) = (   0.4989925   0.0073160   1.5135603  )
        44           Co  tau(  44) = (   0.4998370   0.0064714   1.0164559  )
        45           O   tau(  45) = (   0.5048017   0.0015068   0.7844841  )
        46           O   tau(  46) = (   0.5048017   0.0015068   1.2484277  )
        47           O   tau(  47) = (   0.2621260   0.0059111   1.5135603  )
        48           O   tau(  48) = (   0.2591051   0.0041689   1.0164559  )
        49           O   tau(  49) = (   0.2843291   0.0000000   2.1602013  )

   Crystallographic axes

     site n.     atom                  positions (cryst. coord.)
         1           Sr  tau(   1) = (  0.2508693  0.7491307  0.6943562  )
         2           O   tau(   2) = (  0.4985141  0.5014859  0.6999492  )
         3           Sr  tau(   3) = (  0.7482398  0.7454518  0.6972903  )
         4           Sr  tau(   4) = (  0.7441748  0.2558252  0.6980478  )
         5           Sr  tau(   5) = (  0.2508693  0.7491307  0.5016443  )
         6           Sr  tau(   6) = (  0.2508693  0.7491307  0.3015492  )
         7           Co  tau(   7) = (  0.4998914  0.5001086  0.4015968  )
         8           Co  tau(   8) = (  0.4936915  0.5063085  0.5980003  )
         9           O   tau(   9) = (  0.4988895  0.7610401  0.4015968  )
        10           O   tau(  10) = (  0.2389599  0.5011105  0.4015968  )
        11           O   tau(  11) = (  0.0070918  0.7374880  0.4015968  )
        12           O   tau(  12) = (  0.0088340  0.7405089  0.5980003  )
        13           O   tau(  13) = (  0.5066944  0.7415376  0.5980003  )
        14           O   tau(  14) = (  0.2584624  0.4933056  0.5980003  )
        15           O   tau(  15) = (  0.4985141  0.5014859  0.3071422  )
        16           O   tau(  16) = (  0.4985141  0.5014859  0.4960513  )
        17           Sr  tau(  17) = (  0.7482398  0.7454518  0.3044833  )
        18           Sr  tau(  18) = (  0.7482398  0.7454518  0.4987103  )
        19           Sr  tau(  19) = (  0.7441748  0.2558252  0.3052408  )
        20           Sr  tau(  20) = (  0.7441748  0.2558252  0.4979527  )
        21           O   tau(  21) = (  0.7322655  0.0078049  0.5980003  )
        22           O   tau(  22) = (  0.7558175  0.4996027  0.5980003  )
        23           O   tau(  23) = (  0.5003973  0.2441825  0.5980003  )
        24           O   tau(  24) = (  0.7527966  0.4978604  0.4015968  )
        25           O   tau(  25) = (  0.5021396  0.2472034  0.4015968  )
        26           O   tau(  26) = (  0.7517679  0.0000000  0.4015968  )
        27           O   tau(  27) = (  0.0114961  0.4948124  0.6896512  )
        28           O   tau(  28) = (  0.0048226  0.0077944  0.6999492  )
        29           Sr  tau(  29) = (  0.2545482  0.2517602  0.6972903  )
        30           O   tau(  30) = (  0.5048017  0.0015068  0.7027529  )
        31           Co  tau(  31) = (  0.0056869  0.5006215  0.4015968  )
        32           Co  tau(  32) = (  0.0065315  0.4997770  0.5980003  )
        33           Co  tau(  33) = (  0.0061999  0.0064171  0.4015968  )
        34           Co  tau(  34) = (  0.0000000  0.0126169  0.5980003  )
        35           O   tau(  35) = (  0.0114961  0.4948124  0.5063494  )
        36           O   tau(  36) = (  0.0114961  0.4948124  0.2968442  )
        37           O   tau(  37) = (  0.0051979  0.2673486  0.4015968  )
        38           O   tau(  38) = (  0.0130029  0.2478461  0.5980003  )
        39           O   tau(  39) = (  0.0048226  0.0077944  0.3071422  )
        40           O   tau(  40) = (  0.0048226  0.0077944  0.4960513  )
        41           Sr  tau(  41) = (  0.2545482  0.2517602  0.3044833  )
        42           Sr  tau(  42) = (  0.2545482  0.2517602  0.4987103  )
        43           Co  tau(  43) = (  0.4989925  0.0073160  0.5980003  )
        44           Co  tau(  44) = (  0.4998370  0.0064714  0.4015968  )
        45           O   tau(  45) = (  0.5048017  0.0015068  0.3099459  )
        46           O   tau(  46) = (  0.5048017  0.0015068  0.4932477  )
        47           O   tau(  47) = (  0.2621260  0.0059111  0.5980003  )
        48           O   tau(  48) = (  0.2591051  0.0041689  0.4015968  )
        49           O   tau(  49) = (  0.2843291  0.0000000  0.8534850  )

     number of k points=    10  Gaussian smearing, width (Ry)=  0.0700
                       cart. coord. in units 2pi/alat
        k(    1) = (   0.0000000   0.0000000   0.0000000), wk =   0.1250000
        k(    2) = (   0.0000000   0.2500000   0.0000000), wk =   0.2500000
        k(    3) = (   0.0000000  -0.5000000   0.0000000), wk =   0.1250000
        k(    4) = (   0.2500000   0.2500000   0.0000000), wk =   0.2500000
        k(    5) = (   0.2500000  -0.5000000   0.0000000), wk =   0.2500000
        k(    6) = (  -0.5000000  -0.5000000   0.0000000), wk =   0.1250000
        k(    7) = (   0.2500000   0.0000000   0.0000000), wk =   0.2500000
        k(    8) = (  -0.5000000   0.0000000   0.0000000), wk =   0.1250000
        k(    9) = (  -0.2500000   0.2500000   0.0000000), wk =   0.2500000
        k(   10) = (  -0.5000000   0.2500000   0.0000000), wk =   0.2500000

                       cryst. coord.
        k(    1) = (   0.0000000   0.0000000   0.0000000), wk =   0.1250000
        k(    2) = (   0.0000000   0.2500000   0.0000000), wk =   0.2500000
        k(    3) = (   0.0000000  -0.5000000   0.0000000), wk =   0.1250000
        k(    4) = (   0.2500000   0.2500000   0.0000000), wk =   0.2500000
        k(    5) = (   0.2500000  -0.5000000   0.0000000), wk =   0.2500000
        k(    6) = (  -0.5000000  -0.5000000   0.0000000), wk =   0.1250000
        k(    7) = (   0.2500000   0.0000000   0.0000000), wk =   0.2500000
        k(    8) = (  -0.5000000   0.0000000   0.0000000), wk =   0.1250000
        k(    9) = (  -0.2500000   0.2500000   0.0000000), wk =   0.2500000
        k(   10) = (  -0.5000000   0.2500000   0.0000000), wk =   0.2500000

     Dense  grid:  1474595 G-vectors     FFT dimensions: ( 108, 108, 270)

     Smooth grid:   521381 G-vectors     FFT dimensions: (  75,  75, 192)

     Dynamical RAM for                 wfc:      10.69 MB

     Dynamical RAM for     wfc (w. buffer):      64.13 MB

     Dynamical RAM for           str. fact:       2.81 MB

     Dynamical RAM for           local pot:       0.00 MB

     Dynamical RAM for          nlocal pot:      24.53 MB

     Dynamical RAM for                qrad:       5.27 MB

     Dynamical RAM for          rho,v,vnew:       6.02 MB

     Dynamical RAM for               rhoin:       2.01 MB

     Dynamical RAM for            rho*nmix:      15.00 MB

     Dynamical RAM for           G-vectors:       3.68 MB

     Dynamical RAM for          h,s,v(r/c):       1.35 MB

     Dynamical RAM for          <psi|beta>:       2.33 MB

     Dynamical RAM for                 psi:      21.38 MB

     Dynamical RAM for                hpsi:      21.38 MB

     Dynamical RAM for                spsi:      21.38 MB

     Dynamical RAM for      wfcinit/wfcrot:      34.39 MB

     Dynamical RAM for           addusdens:     101.26 MB

     Estimated static dynamical RAM per process >     117.53 MB

     Estimated max dynamical RAM per process >     233.79 MB

     Estimated total dynamical RAM >      10.61 GB

     Check: negative core charge=   -0.000004

     Initial potential from superposition of free atoms

     starting charge     421.5961, renormalised to     430.0000

     negative rho (up, down):  7.826E-01 0.000E+00
     Starting wfcs are  376 randomized atomic wfcs
     Checking if some PAW data can be deallocated... 
       PAW data deallocated on   19 nodes for type:  2

     total cpu time spent up to now is        9.4 secs

     Self-consistent Calculation

     iteration #  1     ecut=    60.00 Ry     beta= 0.15
     Davidson diagonalization with overlap

---- Real-time Memory Report at c_bands before calling an iterative solver
             0 MiB given to the printing process from OS
             0 MiB allocation reported by mallinfo(arena+hblkhd)
         51486 MiB available memory on the node where the printing process lives
------------------
     ethr =  1.00E-02,  avg # of iterations =  2.0

     negative rho (up, down):  7.717E-01 0.000E+00

     total cpu time spent up to now is       24.5 secs

     total energy              =   -4445.23968021 Ry
     estimated scf accuracy    <      53.91031334 Ry

     iteration #  2     ecut=    60.00 Ry     beta= 0.15
     Davidson diagonalization with overlap

---- Real-time Memory Report at c_bands before calling an iterative solver
             0 MiB given to the printing process from OS
             0 MiB allocation reported by mallinfo(arena+hblkhd)
         51840 MiB available memory on the node where the printing process lives
------------------
     ethr =  1.00E-02,  avg # of iterations =  1.0

     negative rho (up, down):  7.589E-01 0.000E+00

     total cpu time spent up to now is       37.2 secs

     total energy              =   -4441.86680800 Ry
     estimated scf accuracy    <      28.46499166 Ry

     iteration #  3     ecut=    60.00 Ry     beta= 0.15
     Davidson diagonalization with overlap

---- Real-time Memory Report at c_bands before calling an iterative solver
             0 MiB given to the printing process from OS
             0 MiB allocation reported by mallinfo(arena+hblkhd)
         51072 MiB available memory on the node where the printing process lives
------------------
     ethr =  6.62E-03,  avg # of iterations =  1.0

     negative rho (up, down):  7.532E-01 0.000E+00

     total cpu time spent up to now is       49.9 secs

     total energy              =   -4442.63215815 Ry
     estimated scf accuracy    <      29.56652382 Ry

     iteration #  4     ecut=    60.00 Ry     beta= 0.15
     Davidson diagonalization with overlap

---- Real-time Memory Report at c_bands before calling an iterative solver
             0 MiB given to the printing process from OS
             0 MiB allocation reported by mallinfo(arena+hblkhd)
         51026 MiB available memory on the node where the printing process lives
------------------
     ethr =  6.62E-03,  avg # of iterations =  1.0

     negative rho (up, down):  7.541E-01 0.000E+00

     total cpu time spent up to now is       62.7 secs

     total energy              =   -4442.47666551 Ry
     estimated scf accuracy    <      27.14168544 Ry

     iteration #  5     ecut=    60.00 Ry     beta= 0.15
     Davidson diagonalization with overlap

---- Real-time Memory Report at c_bands before calling an iterative solver
             0 MiB given to the printing process from OS
             0 MiB allocation reported by mallinfo(arena+hblkhd)
         51012 MiB available memory on the node where the printing process lives
------------------
     ethr =  6.31E-03,  avg # of iterations =  1.0

     negative rho (up, down):  7.377E-01 0.000E+00

     total cpu time spent up to now is       75.5 secs

     total energy              =   -4441.26768624 Ry
     estimated scf accuracy    <      19.57646855 Ry

     iteration #  6     ecut=    60.00 Ry     beta= 0.15
     Davidson diagonalization with overlap

---- Real-time Memory Report at c_bands before calling an iterative solver
             0 MiB given to the printing process from OS
             0 MiB allocation reported by mallinfo(arena+hblkhd)
         50984 MiB available memory on the node where the printing process lives
------------------
     ethr =  4.55E-03,  avg # of iterations =  1.2

     negative rho (up, down):  7.424E-01 0.000E+00

     total cpu time spent up to now is       88.6 secs

     total energy              =   -4443.20389181 Ry
     estimated scf accuracy    <      61.00386997 Ry

     iteration #  7     ecut=    60.00 Ry     beta= 0.15
     Davidson diagonalization with overlap

---- Real-time Memory Report at c_bands before calling an iterative solver
             0 MiB given to the printing process from OS
             0 MiB allocation reported by mallinfo(arena+hblkhd)
         50966 MiB available memory on the node where the printing process lives
------------------
     ethr =  4.55E-03,  avg # of iterations =  1.0

     negative rho (up, down):  7.493E-01 0.000E+00

     total cpu time spent up to now is      101.3 secs

     total energy              =   -4438.90120983 Ry
     estimated scf accuracy    <      50.25528673 Ry

     iteration #  8     ecut=    60.00 Ry     beta= 0.15
     Davidson diagonalization with overlap

---- Real-time Memory Report at c_bands before calling an iterative solver
             0 MiB given to the printing process from OS
             0 MiB allocation reported by mallinfo(arena+hblkhd)
         50955 MiB available memory on the node where the printing process lives
------------------
     ethr =  4.55E-03,  avg # of iterations =  1.1

     negative rho (up, down):  7.462E-01 0.000E+00

     total cpu time spent up to now is      114.1 secs

     total energy              =   -4441.08340830 Ry
     estimated scf accuracy    <       9.48874822 Ry

     iteration #  9     ecut=    60.00 Ry     beta= 0.15
     Davidson diagonalization with overlap

---- Real-time Memory Report at c_bands before calling an iterative solver
             0 MiB given to the printing process from OS
             0 MiB allocation reported by mallinfo(arena+hblkhd)
         50937 MiB available memory on the node where the printing process lives
------------------
     ethr =  2.21E-03,  avg # of iterations =  1.1

     negative rho (up, down):  7.544E-01 0.000E+00

     total cpu time spent up to now is      126.9 secs

     total energy              =   -4441.06276164 Ry
     estimated scf accuracy    <       5.74875087 Ry

     iteration # 10     ecut=    60.00 Ry     beta= 0.15
     Davidson diagonalization with overlap

---- Real-time Memory Report at c_bands before calling an iterative solver
             0 MiB given to the printing process from OS
             0 MiB allocation reported by mallinfo(arena+hblkhd)
         50915 MiB available memory on the node where the printing process lives
------------------
     ethr =  1.34E-03,  avg # of iterations =  2.0

     negative rho (up, down):  7.703E-01 0.000E+00

     total cpu time spent up to now is      140.9 secs

     total energy              =   -4440.44036250 Ry
     estimated scf accuracy    <       9.82234858 Ry

     iteration # 11     ecut=    60.00 Ry     beta= 0.15
     Davidson diagonalization with overlap

---- Real-time Memory Report at c_bands before calling an iterative solver
             0 MiB given to the printing process from OS
             0 MiB allocation reported by mallinfo(arena+hblkhd)
         50906 MiB available memory on the node where the printing process lives
------------------
     ethr =  1.34E-03,  avg # of iterations =  6.6

     negative rho (up, down):  7.768E-01 0.000E+00

     total cpu time spent up to now is      157.1 secs

     total energy              =   -4439.84511530 Ry
     estimated scf accuracy    <      25.23475781 Ry

     iteration # 12     ecut=    60.00 Ry     beta= 0.15
     Davidson diagonalization with overlap

---- Real-time Memory Report at c_bands before calling an iterative solver
             0 MiB given to the printing process from OS
             0 MiB allocation reported by mallinfo(arena+hblkhd)
         50758 MiB available memory on the node where the printing process lives
------------------
     ethr =  1.34E-03,  avg # of iterations =  4.3

     negative rho (up, down):  7.789E-01 0.000E+00

     total cpu time spent up to now is      172.1 secs

     total energy              =   -4440.57554529 Ry
     estimated scf accuracy    <       2.22291704 Ry

     iteration # 13     ecut=    60.00 Ry     beta= 0.15
     Davidson diagonalization with overlap

---- Real-time Memory Report at c_bands before calling an iterative solver
             0 MiB given to the printing process from OS
             0 MiB allocation reported by mallinfo(arena+hblkhd)
         50747 MiB available memory on the node where the printing process lives
------------------
     ethr =  5.17E-04,  avg # of iterations = 11.0

     negative rho (up, down):  7.889E-01 0.000E+00

     total cpu time spent up to now is      191.0 secs

     total energy              =   -4440.38912287 Ry
     estimated scf accuracy    <       2.25829803 Ry

     iteration # 14     ecut=    60.00 Ry     beta= 0.15
     Davidson diagonalization with overlap

---- Real-time Memory Report at c_bands before calling an iterative solver
             0 MiB given to the printing process from OS
             0 MiB allocation reported by mallinfo(arena+hblkhd)
         50488 MiB available memory on the node where the printing process lives
------------------
     ethr =  5.17E-04,  avg # of iterations =  2.0

     negative rho (up, down):  8.022E-01 0.000E+00

     total cpu time spent up to now is      205.3 secs

     total energy              =   -4440.46421082 Ry
     estimated scf accuracy    <       2.17213866 Ry

     iteration # 15     ecut=    60.00 Ry     beta= 0.15
     Davidson diagonalization with overlap

---- Real-time Memory Report at c_bands before calling an iterative solver
             0 MiB given to the printing process from OS
             0 MiB allocation reported by mallinfo(arena+hblkhd)
         50485 MiB available memory on the node where the printing process lives
------------------
     ethr =  5.05E-04,  avg # of iterations =  1.1

     negative rho (up, down):  8.212E-01 0.000E+00

     total cpu time spent up to now is      218.5 secs

     total energy              =   -4440.39581986 Ry
     estimated scf accuracy    <       1.29411329 Ry

     iteration # 16     ecut=    60.00 Ry     beta= 0.15
     Davidson diagonalization with overlap

---- Real-time Memory Report at c_bands before calling an iterative solver
             0 MiB given to the printing process from OS
             0 MiB allocation reported by mallinfo(arena+hblkhd)
         50526 MiB available memory on the node where the printing process lives
------------------
     ethr =  3.01E-04,  avg # of iterations =  4.4

     negative rho (up, down):  8.248E-01 0.000E+00

     total cpu time spent up to now is      234.2 secs

     total energy              =   -4440.39863868 Ry
     estimated scf accuracy    <       0.93616884 Ry

     iteration # 17     ecut=    60.00 Ry     beta= 0.15
     Davidson diagonalization with overlap

---- Real-time Memory Report at c_bands before calling an iterative solver
             0 MiB given to the printing process from OS
             0 MiB allocation reported by mallinfo(arena+hblkhd)
         50519 MiB available memory on the node where the printing process lives
------------------
     ethr =  2.18E-04,  avg # of iterations =  9.1

     negative rho (up, down):  8.255E-01 0.000E+00

     total cpu time spent up to now is      251.7 secs

     total energy              =   -4440.31677960 Ry
     estimated scf accuracy    <       1.16715495 Ry

     iteration # 18     ecut=    60.00 Ry     beta= 0.15
     Davidson diagonalization with overlap

---- Real-time Memory Report at c_bands before calling an iterative solver
             0 MiB given to the printing process from OS
             0 MiB allocation reported by mallinfo(arena+hblkhd)
         50504 MiB available memory on the node where the printing process lives
------------------
     ethr =  2.18E-04,  avg # of iterations =  1.4

     negative rho (up, down):  8.274E-01 0.000E+00

     total cpu time spent up to now is      265.4 secs

     total energy              =   -4440.33671072 Ry
     estimated scf accuracy    <       0.20747906 Ry

     iteration # 19     ecut=    60.00 Ry     beta= 0.15
     Davidson diagonalization with overlap

---- Real-time Memory Report at c_bands before calling an iterative solver
             0 MiB given to the printing process from OS
             0 MiB allocation reported by mallinfo(arena+hblkhd)
         50515 MiB available memory on the node where the printing process lives
------------------
     ethr =  4.83E-05,  avg # of iterations = 13.9

     negative rho (up, down):  8.322E-01 0.000E+00

     total cpu time spent up to now is      284.7 secs

     total energy              =   -4440.31810317 Ry
     estimated scf accuracy    <       0.31114426 Ry

     iteration # 20     ecut=    60.00 Ry     beta= 0.15
     Davidson diagonalization with overlap

---- Real-time Memory Report at c_bands before calling an iterative solver
             0 MiB given to the printing process from OS
             0 MiB allocation reported by mallinfo(arena+hblkhd)
         50430 MiB available memory on the node where the printing process lives
------------------
     ethr =  4.83E-05,  avg # of iterations =  5.9

     negative rho (up, down):  8.307E-01 0.000E+00

     total cpu time spent up to now is      301.3 secs

     total energy              =   -4440.30291494 Ry
     estimated scf accuracy    <       0.20675339 Ry

     iteration # 21     ecut=    60.00 Ry     beta= 0.15
     Davidson diagonalization with overlap

---- Real-time Memory Report at c_bands before calling an iterative solver
             0 MiB given to the printing process from OS
             0 MiB allocation reported by mallinfo(arena+hblkhd)
         50412 MiB available memory on the node where the printing process lives
------------------
     ethr =  4.81E-05,  avg # of iterations =  6.2

     negative rho (up, down):  8.431E-01 0.000E+00

     total cpu time spent up to now is      317.5 secs

     total energy              =   -4440.30371186 Ry
     estimated scf accuracy    <       0.04334384 Ry

     iteration # 22     ecut=    60.00 Ry     beta= 0.15
     Davidson diagonalization with overlap

---- Real-time Memory Report at c_bands before calling an iterative solver
             0 MiB given to the printing process from OS
             0 MiB allocation reported by mallinfo(arena+hblkhd)
         50421 MiB available memory on the node where the printing process lives
------------------
     c_bands:  1 eigenvalues not converged
     ethr =  1.01E-05,  avg # of iterations = 10.9

     negative rho (up, down):  8.148E-01 0.000E+00

     total cpu time spent up to now is      336.7 secs

     total energy              =   -4440.29984772 Ry
     estimated scf accuracy    <       0.11464986 Ry

     iteration # 23     ecut=    60.00 Ry     beta= 0.15
     Davidson diagonalization with overlap

---- Real-time Memory Report at c_bands before calling an iterative solver
             0 MiB given to the printing process from OS
             0 MiB allocation reported by mallinfo(arena+hblkhd)
         50280 MiB available memory on the node where the printing process lives
------------------
     ethr =  1.01E-05,  avg # of iterations =  1.9

     negative rho (up, down):  8.039E-01 0.000E+00

     total cpu time spent up to now is      350.5 secs

     total energy              =   -4440.30043911 Ry
     estimated scf accuracy    <       0.02290060 Ry

     iteration # 24     ecut=    60.00 Ry     beta= 0.15
     Davidson diagonalization with overlap

---- Real-time Memory Report at c_bands before calling an iterative solver
             0 MiB given to the printing process from OS
             0 MiB allocation reported by mallinfo(arena+hblkhd)
         50315 MiB available memory on the node where the printing process lives
------------------
     ethr =  5.33E-06,  avg # of iterations =  4.1

     negative rho (up, down):  8.003E-01 0.000E+00

     total cpu time spent up to now is      365.5 secs

     total energy              =   -4440.29990757 Ry
     estimated scf accuracy    <       0.01647825 Ry

     iteration # 25     ecut=    60.00 Ry     beta= 0.15
     Davidson diagonalization with overlap

---- Real-time Memory Report at c_bands before calling an iterative solver
             0 MiB given to the printing process from OS
             0 MiB allocation reported by mallinfo(arena+hblkhd)
         50325 MiB available memory on the node where the printing process lives
------------------
     ethr =  3.83E-06,  avg # of iterations =  4.2

     negative rho (up, down):  7.917E-01 0.000E+00

     total cpu time spent up to now is      380.6 secs

     total energy              =   -4440.29662986 Ry
     estimated scf accuracy    <       0.01587156 Ry

     iteration # 26     ecut=    60.00 Ry     beta= 0.15
     Davidson diagonalization with overlap

---- Real-time Memory Report at c_bands before calling an iterative solver
             0 MiB given to the printing process from OS
             0 MiB allocation reported by mallinfo(arena+hblkhd)
         50367 MiB available memory on the node where the printing process lives
------------------
     ethr =  3.69E-06,  avg # of iterations = 11.1

     negative rho (up, down):  7.948E-01 0.000E+00

     total cpu time spent up to now is      398.7 secs

     total energy              =   -4440.29688681 Ry
     estimated scf accuracy    <       0.00684160 Ry

     iteration # 27     ecut=    60.00 Ry     beta= 0.15
     Davidson diagonalization with overlap

---- Real-time Memory Report at c_bands before calling an iterative solver
             0 MiB given to the printing process from OS
             0 MiB allocation reported by mallinfo(arena+hblkhd)
         50339 MiB available memory on the node where the printing process lives
------------------
     c_bands:  1 eigenvalues not converged
     ethr =  1.59E-06,  avg # of iterations =  9.0

     negative rho (up, down):  7.963E-01 0.000E+00

     total cpu time spent up to now is      416.0 secs

     total energy              =   -4440.29672969 Ry
     estimated scf accuracy    <       0.00353249 Ry

     iteration # 28     ecut=    60.00 Ry     beta= 0.15
     Davidson diagonalization with overlap

---- Real-time Memory Report at c_bands before calling an iterative solver
             0 MiB given to the printing process from OS
             0 MiB allocation reported by mallinfo(arena+hblkhd)
         50369 MiB available memory on the node where the printing process lives
------------------
     ethr =  8.22E-07,  avg # of iterations = 11.2

     negative rho (up, down):  7.945E-01 0.000E+00

     total cpu time spent up to now is      433.9 secs

     total energy              =   -4440.29659821 Ry
     estimated scf accuracy    <       0.00227525 Ry

     iteration # 29     ecut=    60.00 Ry     beta= 0.15
     Davidson diagonalization with overlap

---- Real-time Memory Report at c_bands before calling an iterative solver
             0 MiB given to the printing process from OS
             0 MiB allocation reported by mallinfo(arena+hblkhd)
         50338 MiB available memory on the node where the printing process lives
------------------
     ethr =  5.29E-07,  avg # of iterations =  8.5

     negative rho (up, down):  7.958E-01 0.000E+00

     total cpu time spent up to now is      451.3 secs

     total energy              =   -4440.29667930 Ry
     estimated scf accuracy    <       0.00078708 Ry

     iteration # 30     ecut=    60.00 Ry     beta= 0.15
     Davidson diagonalization with overlap

---- Real-time Memory Report at c_bands before calling an iterative solver
             0 MiB given to the printing process from OS
             0 MiB allocation reported by mallinfo(arena+hblkhd)
         50361 MiB available memory on the node where the printing process lives
------------------
     ethr =  1.83E-07,  avg # of iterations =  2.2

     negative rho (up, down):  7.956E-01 0.000E+00

     total cpu time spent up to now is      465.3 secs

     total energy              =   -4440.29665068 Ry
     estimated scf accuracy    <       0.00033823 Ry

     iteration # 31     ecut=    60.00 Ry     beta= 0.15
     Davidson diagonalization with overlap

---- Real-time Memory Report at c_bands before calling an iterative solver
             0 MiB given to the printing process from OS
             0 MiB allocation reported by mallinfo(arena+hblkhd)
         50366 MiB available memory on the node where the printing process lives
------------------
     ethr =  7.87E-08,  avg # of iterations =  2.0

     negative rho (up, down):  7.945E-01 0.000E+00

     total cpu time spent up to now is      479.3 secs

     total energy              =   -4440.29665449 Ry
     estimated scf accuracy    <       0.00009607 Ry

     iteration # 32     ecut=    60.00 Ry     beta= 0.15
     Davidson diagonalization with overlap

---- Real-time Memory Report at c_bands before calling an iterative solver
             0 MiB given to the printing process from OS
             0 MiB allocation reported by mallinfo(arena+hblkhd)
         50368 MiB available memory on the node where the printing process lives
------------------
     ethr =  2.23E-08,  avg # of iterations =  2.0

     negative rho (up, down):  7.936E-01 0.000E+00

     total cpu time spent up to now is      493.2 secs

     total energy              =   -4440.29665818 Ry
     estimated scf accuracy    <       0.00006590 Ry

     iteration # 33     ecut=    60.00 Ry     beta= 0.15
     Davidson diagonalization with overlap

---- Real-time Memory Report at c_bands before calling an iterative solver
             0 MiB given to the printing process from OS
             0 MiB allocation reported by mallinfo(arena+hblkhd)
         50372 MiB available memory on the node where the printing process lives
------------------
     ethr =  1.53E-08,  avg # of iterations =  2.0

     negative rho (up, down):  7.928E-01 0.000E+00

     total cpu time spent up to now is      507.3 secs

     total energy              =   -4440.29666702 Ry
     estimated scf accuracy    <       0.00003977 Ry

     iteration # 34     ecut=    60.00 Ry     beta= 0.15
     Davidson diagonalization with overlap

---- Real-time Memory Report at c_bands before calling an iterative solver
             0 MiB given to the printing process from OS
             0 MiB allocation reported by mallinfo(arena+hblkhd)
         50384 MiB available memory on the node where the printing process lives
------------------
     ethr =  9.25E-09,  avg # of iterations =  2.0

     negative rho (up, down):  7.930E-01 0.000E+00

     total cpu time spent up to now is      521.3 secs

     total energy              =   -4440.29666860 Ry
     estimated scf accuracy    <       0.00002504 Ry

     iteration # 35     ecut=    60.00 Ry     beta= 0.15
     Davidson diagonalization with overlap

---- Real-time Memory Report at c_bands before calling an iterative solver
             0 MiB given to the printing process from OS
             0 MiB allocation reported by mallinfo(arena+hblkhd)
         50391 MiB available memory on the node where the printing process lives
------------------
     ethr =  5.82E-09,  avg # of iterations =  2.7

     negative rho (up, down):  7.931E-01 0.000E+00

     total cpu time spent up to now is      535.6 secs

     total energy              =   -4440.29667098 Ry
     estimated scf accuracy    <       0.00001555 Ry

     iteration # 36     ecut=    60.00 Ry     beta= 0.15
     Davidson diagonalization with overlap

---- Real-time Memory Report at c_bands before calling an iterative solver
             0 MiB given to the printing process from OS
             0 MiB allocation reported by mallinfo(arena+hblkhd)
         50400 MiB available memory on the node where the printing process lives
------------------
     ethr =  3.62E-09,  avg # of iterations =  2.0

     negative rho (up, down):  7.928E-01 0.000E+00

     total cpu time spent up to now is      549.7 secs

     total energy              =   -4440.29667339 Ry
     estimated scf accuracy    <       0.00001062 Ry

     iteration # 37     ecut=    60.00 Ry     beta= 0.15
     Davidson diagonalization with overlap

---- Real-time Memory Report at c_bands before calling an iterative solver
             0 MiB given to the printing process from OS
             0 MiB allocation reported by mallinfo(arena+hblkhd)
         50393 MiB available memory on the node where the printing process lives
------------------
     ethr =  2.47E-09,  avg # of iterations =  2.0

     negative rho (up, down):  7.927E-01 0.000E+00

     total cpu time spent up to now is      564.0 secs

     total energy              =   -4440.29667461 Ry
     estimated scf accuracy    <       0.00000666 Ry

     iteration # 38     ecut=    60.00 Ry     beta= 0.15
     Davidson diagonalization with overlap

---- Real-time Memory Report at c_bands before calling an iterative solver
             0 MiB given to the printing process from OS
             0 MiB allocation reported by mallinfo(arena+hblkhd)
         50403 MiB available memory on the node where the printing process lives
------------------
     ethr =  1.55E-09,  avg # of iterations =  2.0

     negative rho (up, down):  7.927E-01 0.000E+00

     total cpu time spent up to now is      578.2 secs

     total energy              =   -4440.29667469 Ry
     estimated scf accuracy    <       0.00000323 Ry

     iteration # 39     ecut=    60.00 Ry     beta= 0.15
     Davidson diagonalization with overlap

---- Real-time Memory Report at c_bands before calling an iterative solver
             0 MiB given to the printing process from OS
             0 MiB allocation reported by mallinfo(arena+hblkhd)
         50409 MiB available memory on the node where the printing process lives
------------------
     ethr =  7.50E-10,  avg # of iterations =  2.4

     negative rho (up, down):  7.927E-01 0.000E+00

     total cpu time spent up to now is      592.5 secs

     total energy              =   -4440.29667447 Ry
     estimated scf accuracy    <       0.00000222 Ry

     iteration # 40     ecut=    60.00 Ry     beta= 0.15
     Davidson diagonalization with overlap

---- Real-time Memory Report at c_bands before calling an iterative solver
             0 MiB given to the printing process from OS
             0 MiB allocation reported by mallinfo(arena+hblkhd)
         50407 MiB available memory on the node where the printing process lives
------------------
     ethr =  5.16E-10,  avg # of iterations =  2.0

     negative rho (up, down):  7.927E-01 0.000E+00

     total cpu time spent up to now is      607.0 secs

     total energy              =   -4440.29667407 Ry
     estimated scf accuracy    <       0.00000154 Ry

     iteration # 41     ecut=    60.00 Ry     beta= 0.15
     Davidson diagonalization with overlap

---- Real-time Memory Report at c_bands before calling an iterative solver
             0 MiB given to the printing process from OS
             0 MiB allocation reported by mallinfo(arena+hblkhd)
         50406 MiB available memory on the node where the printing process lives
------------------
     ethr =  3.58E-10,  avg # of iterations =  2.0

     negative rho (up, down):  7.927E-01 0.000E+00

     total cpu time spent up to now is      621.0 secs

     total energy              =   -4440.29667409 Ry
     estimated scf accuracy    <       0.00000069 Ry

     iteration # 42     ecut=    60.00 Ry     beta= 0.15
     Davidson diagonalization with overlap

---- Real-time Memory Report at c_bands before calling an iterative solver
             0 MiB given to the printing process from OS
             0 MiB allocation reported by mallinfo(arena+hblkhd)
         50407 MiB available memory on the node where the printing process lives
------------------
     ethr =  1.60E-10,  avg # of iterations =  1.5

     negative rho (up, down):  7.927E-01 0.000E+00

     total cpu time spent up to now is      634.5 secs

     total energy              =   -4440.29667420 Ry
     estimated scf accuracy    <       0.00000042 Ry

     iteration # 43     ecut=    60.00 Ry     beta= 0.15
     Davidson diagonalization with overlap

---- Real-time Memory Report at c_bands before calling an iterative solver
             0 MiB given to the printing process from OS
             0 MiB allocation reported by mallinfo(arena+hblkhd)
         50414 MiB available memory on the node where the printing process lives
------------------
     ethr =  9.85E-11,  avg # of iterations =  2.0

     negative rho (up, down):  7.927E-01 0.000E+00

     total cpu time spent up to now is      648.6 secs

     total energy              =   -4440.29667436 Ry
     estimated scf accuracy    <       0.00000022 Ry

     iteration # 44     ecut=    60.00 Ry     beta= 0.15
     Davidson diagonalization with overlap

---- Real-time Memory Report at c_bands before calling an iterative solver
             0 MiB given to the printing process from OS
             0 MiB allocation reported by mallinfo(arena+hblkhd)
         50419 MiB available memory on the node where the printing process lives
------------------
     ethr =  5.07E-11,  avg # of iterations =  2.5

     negative rho (up, down):  7.927E-01 0.000E+00

     total cpu time spent up to now is      662.8 secs

     total energy              =   -4440.29667453 Ry
     estimated scf accuracy    <       0.00000017 Ry

     iteration # 45     ecut=    60.00 Ry     beta= 0.15
     Davidson diagonalization with overlap

---- Real-time Memory Report at c_bands before calling an iterative solver
             0 MiB given to the printing process from OS
             0 MiB allocation reported by mallinfo(arena+hblkhd)
         50426 MiB available memory on the node where the printing process lives
------------------
     ethr =  3.84E-11,  avg # of iterations =  3.3

     negative rho (up, down):  7.927E-01 0.000E+00

     total cpu time spent up to now is      677.5 secs

     total energy              =   -4440.29667464 Ry
     estimated scf accuracy    <       0.00000011 Ry

     iteration # 46     ecut=    60.00 Ry     beta= 0.15
     Davidson diagonalization with overlap

---- Real-time Memory Report at c_bands before calling an iterative solver
             0 MiB given to the printing process from OS
             0 MiB allocation reported by mallinfo(arena+hblkhd)
         50425 MiB available memory on the node where the printing process lives
------------------
     ethr =  2.60E-11,  avg # of iterations =  3.3

     negative rho (up, down):  7.926E-01 0.000E+00

     total cpu time spent up to now is      692.2 secs

     total energy              =   -4440.29667470 Ry
     estimated scf accuracy    <       0.00000008 Ry

     iteration # 47     ecut=    60.00 Ry     beta= 0.15
     Davidson diagonalization with overlap

---- Real-time Memory Report at c_bands before calling an iterative solver
             0 MiB given to the printing process from OS
             0 MiB allocation reported by mallinfo(arena+hblkhd)
         50423 MiB available memory on the node where the printing process lives
------------------
     ethr =  1.75E-11,  avg # of iterations =  2.9

     negative rho (up, down):  7.926E-01 0.000E+00

     total cpu time spent up to now is      706.6 secs

     total energy              =   -4440.29667473 Ry
     estimated scf accuracy    <       0.00000004 Ry

     iteration # 48     ecut=    60.00 Ry     beta= 0.15
     Davidson diagonalization with overlap

---- Real-time Memory Report at c_bands before calling an iterative solver
             0 MiB given to the printing process from OS
             0 MiB allocation reported by mallinfo(arena+hblkhd)
         50426 MiB available memory on the node where the printing process lives
------------------
     ethr =  1.03E-11,  avg # of iterations =  2.1

     negative rho (up, down):  7.926E-01 0.000E+00

     total cpu time spent up to now is      720.6 secs

     total energy              =   -4440.29667473 Ry
     estimated scf accuracy    <       0.00000003 Ry

     iteration # 49     ecut=    60.00 Ry     beta= 0.15
     Davidson diagonalization with overlap

---- Real-time Memory Report at c_bands before calling an iterative solver
             0 MiB given to the printing process from OS
             0 MiB allocation reported by mallinfo(arena+hblkhd)
         50426 MiB available memory on the node where the printing process lives
------------------
     ethr =  7.39E-12,  avg # of iterations =  1.9

     negative rho (up, down):  7.926E-01 0.000E+00

     total cpu time spent up to now is      734.6 secs

     total energy              =   -4440.29667474 Ry
     estimated scf accuracy    <       0.00000002 Ry

     iteration # 50     ecut=    60.00 Ry     beta= 0.15
     Davidson diagonalization with overlap

---- Real-time Memory Report at c_bands before calling an iterative solver
             0 MiB given to the printing process from OS
             0 MiB allocation reported by mallinfo(arena+hblkhd)
         50425 MiB available memory on the node where the printing process lives
------------------
     ethr =  5.26E-12,  avg # of iterations =  2.0

     negative rho (up, down):  7.926E-01 0.000E+00

     total cpu time spent up to now is      748.9 secs

     total energy              =   -4440.29667475 Ry
     estimated scf accuracy    <       0.00000001 Ry

     iteration # 51     ecut=    60.00 Ry     beta= 0.15
     Davidson diagonalization with overlap

---- Real-time Memory Report at c_bands before calling an iterative solver
             0 MiB given to the printing process from OS
             0 MiB allocation reported by mallinfo(arena+hblkhd)
         50424 MiB available memory on the node where the printing process lives
------------------
     ethr =  3.44E-12,  avg # of iterations =  3.0

     negative rho (up, down):  7.926E-01 0.000E+00

     total cpu time spent up to now is      763.2 secs

     End of self-consistent calculation

          k = 0.0000 0.0000 0.0000 ( 65197 PWs)   bands (ev):

   -92.8605 -92.8074 -92.7141 -92.6663 -92.6095 -92.5667 -92.5495 -92.4289
   -56.2141 -56.1940 -56.0711 -56.0608 -56.0530 -56.0477 -56.0118 -55.9831
   -55.9685 -55.9665 -55.9575 -55.9167 -55.8980 -55.8603 -55.8407 -55.8095
   -55.8007 -55.7547 -55.7534 -55.7517 -55.7433 -55.7038 -55.6796 -55.5957
   -31.4251 -31.4045 -31.2641 -31.2640 -31.1764 -31.1760 -30.8856 -30.7575
   -30.0060 -29.9616 -29.9372 -29.8275 -15.2368 -15.1892 -15.1122 -14.9815
   -14.7859 -14.6605 -14.3739 -14.3537 -14.3241 -14.2795 -14.2301 -14.2201
   -14.2110 -14.1927 -14.1681 -14.1415 -14.0867 -13.9343 -13.7551 -13.7224
   -13.6917 -13.6624 -13.6432 -13.5846 -13.5533 -13.4674 -13.3999 -13.2814
   -13.2620 -13.2568 -13.2361 -13.2225 -13.2051 -13.1589 -13.1512 -13.1273
   -13.1054 -13.0775 -13.0706 -13.0592 -13.0463 -13.0308 -12.9140 -12.8797
   -12.8256 -12.7064 -12.6969 -12.6681 -12.4909 -12.3451 -12.1367 -12.0697
   -12.0184 -11.9682 -11.9449 -11.9341 -11.9099 -11.8928 -11.8293 -11.8121
   -11.7772 -11.7490 -11.6358 -11.5569 -11.5533  -3.0983  -2.8663  -2.6368
    -2.4896  -2.4270  -2.2851  -1.9777  -1.9636  -1.9445  -1.8597  -1.8392
    -1.7712  -1.7543  -1.7141  -1.6697  -1.4877  -1.2635  -1.2337  -1.0878
    -1.0733  -1.0258  -1.0085  -0.9614  -0.9446  -0.8908  -0.8642  -0.7895
    -0.7751  -0.7041  -0.5692  -0.5549  -0.5292  -0.4488  -0.4285  -0.4203
    -0.3507  -0.2843  -0.2285  -0.1854  -0.1542  -0.0867  -0.0154   0.0244
     0.0520   0.0613   0.3186   0.3334   0.5080   0.5715   0.6406   0.6919
     0.7713   0.7864   0.8045   0.8681   0.8946   0.9292   0.9865   1.1161
     1.1791   1.1986   1.2208   1.2315   1.2950   1.3634   1.4737   1.4857
     1.5536   1.5658   1.6072   1.6244   1.6314   1.6897   1.7459   1.7662
     1.8029   1.8427   1.8723   2.0048   2.0902   2.1295   2.1576   2.3043
     2.3192   2.3543   2.3580   2.4647   2.5010   2.5276   2.5462   2.5604
     2.6150   2.6276   2.6551   2.6827   2.7570   2.7818   2.7944   2.8002
     2.8689   2.8745   2.8957   2.9035   2.9134   2.9282   2.9322   2.9461
     2.9516   2.9646   2.9731   2.9809   2.9993   3.0200   3.0252   3.0375
     3.0783   3.1786   3.2726   3.9605   4.2842   4.6342   4.8396   4.8905
     5.7376   5.7930   5.8488   5.8747   6.1565   6.2036   6.4470   6.4573
     6.9545   6.9744   7.0851   7.1791   7.4209   7.4902   7.5625   7.5702
     7.5894   7.8077   7.8941   7.9306   8.0470   8.1321   8.2151   8.6887
     8.8144   8.9470

     occupation numbers 
     1.0000   1.0000   1.0000   1.0000   1.0000   1.0000   1.0000   1.0000
     1.0000   1.0000   1.0000   1.0000   1.0000   1.0000   1.0000   1.0000
     1.0000   1.0000   1.0000   1.0000   1.0000   1.0000   1.0000   1.0000
     1.0000   1.0000   1.0000   1.0000   1.0000   1.0000   1.0000   1.0000
     1.0000   1.0000   1.0000   1.0000   1.0000   1.0000   1.0000   1.0000
     1.0000   1.0000   1.0000   1.0000   1.0000   1.0000   1.0000   1.0000
     1.0000   1.0000   1.0000   1.0000   1.0000   1.0000   1.0000   1.0000
     1.0000   1.0000   1.0000   1.0000   1.0000   1.0000   1.0000   1.0000
     1.0000   1.0000   1.0000   1.0000   1.0000   1.0000   1.0000   1.0000
     1.0000   1.0000   1.0000   1.0000   1.0000   1.0000   1.0000   1.0000
     1.0000   1.0000   1.0000   1.0000   1.0000   1.0000   1.0000   1.0000
     1.0000   1.0000   1.0000   1.0000   1.0000   1.0000   1.0000   1.0000
     1.0000   1.0000   1.0000   1.0000   1.0000   1.0000   1.0000   1.0000
     1.0000   1.0000   1.0000   1.0000   1.0000   1.0000   1.0000   1.0000
     1.0000   1.0000   1.0000   1.0000   1.0000   1.0000   1.0000   1.0000
     1.0000   1.0000   1.0000   1.0000   1.0000   1.0000   1.0000   1.0000
     1.0000   1.0000   1.0000   1.0000   1.0000   1.0000   1.0000   1.0000
     1.0000   1.0000   1.0000   1.0000   1.0000   1.0000   1.0000   1.0000
     1.0000   1.0000   1.0000   1.0000   1.0000   1.0000   1.0000   1.0000
     1.0000   1.0000   1.0000   1.0000   1.0000   0.9999   0.9999   0.9999
     0.9998   0.9998   0.9998   0.9997   0.9996   0.9996   0.9994   0.9988
     0.9984   0.9983   0.9981   0.9980   0.9973   0.9963   0.9941   0.9938
     0.9918   0.9913   0.9898   0.9891   0.9888   0.9859   0.9827   0.9813
     0.9787   0.9755   0.9729   0.9580   0.9453   0.9385   0.9333   0.9003
     0.8963   0.8866   0.8856   0.8519   0.8392   0.8293   0.8222   0.8167
     0.7944   0.7890   0.7770   0.7646   0.7294   0.7170   0.7107   0.7077
     0.6717   0.6687   0.6572   0.6530   0.6475   0.6393   0.6371   0.6293
     0.6262   0.6189   0.6141   0.6096   0.5991   0.5872   0.5842   0.5770
     0.5532   0.4940   0.4385   0.1198   0.0488   0.0148   0.0065   0.0053
     0.0001   0.0000   0.0000   0.0000   0.0000   0.0000   0.0000   0.0000
     0.0000   0.0000   0.0000   0.0000   0.0000   0.0000   0.0000   0.0000
     0.0000   0.0000   0.0000   0.0000   0.0000   0.0000   0.0000   0.0000
     0.0000   0.0000

          k = 0.0000 0.2500 0.0000 ( 65257 PWs)   bands (ev):

   -92.8605 -92.8074 -92.7141 -92.6663 -92.6095 -92.5667 -92.5495 -92.4289
   -56.2141 -56.1940 -56.0711 -56.0608 -56.0530 -56.0477 -56.0118 -55.9831
   -55.9685 -55.9665 -55.9575 -55.9167 -55.8980 -55.8603 -55.8407 -55.8095
   -55.8007 -55.7547 -55.7534 -55.7517 -55.7433 -55.7038 -55.6796 -55.5957
   -31.4249 -31.4043 -31.2642 -31.2638 -31.1767 -31.1761 -30.8853 -30.7578
   -30.0054 -29.9613 -29.9379 -29.8278 -15.2004 -15.1627 -15.0868 -14.9523
   -14.8271 -14.6530 -14.5193 -14.3398 -14.3027 -14.2827 -14.2554 -14.1957
   -14.1900 -14.1733 -14.1544 -14.1088 -14.0049 -13.9646 -13.8001 -13.7809
   -13.7325 -13.6965 -13.6531 -13.6058 -13.5616 -13.4934 -13.4537 -13.3884
   -13.3252 -13.2947 -13.2581 -13.2498 -13.2176 -13.1440 -13.1208 -13.0900
   -13.0769 -13.0497 -13.0150 -12.9923 -12.9644 -12.9466 -12.8917 -12.8640
   -12.8101 -12.7066 -12.6185 -12.5647 -12.5521 -12.3964 -12.1922 -12.1336
   -11.9840 -11.9681 -11.9416 -11.9134 -11.8855 -11.8687 -11.8211 -11.8100
   -11.7875 -11.7531 -11.6503 -11.5985 -11.5879  -2.9629  -2.7420  -2.6041
    -2.4222  -2.3788  -2.2154  -1.9953  -1.9119  -1.8989  -1.8411  -1.7381
    -1.7213  -1.6876  -1.6604  -1.6165  -1.4189  -1.2904  -1.2788  -1.2021
    -1.1922  -1.0882  -1.0586  -1.0002  -0.9747  -0.9351  -0.8702  -0.8428
    -0.8117  -0.7773  -0.7605  -0.7293  -0.6538  -0.6048  -0.5381  -0.4234
    -0.4058  -0.3609  -0.2446  -0.2067  -0.1395  -0.0979  -0.0264  -0.0152
     0.0058   0.0682   0.3675   0.4535   0.4840   0.5760   0.6244   0.6508
     0.7567   0.7774   0.8704   0.8970   0.9202   1.0352   1.1317   1.1528
     1.1759   1.1956   1.2199   1.2788   1.3064   1.3337   1.3812   1.4202
     1.4490   1.5334   1.5675   1.6119   1.6563   1.7142   1.7641   1.7908
     1.8109   1.8288   1.9216   2.0383   2.1139   2.1375   2.2035   2.2545
     2.2943   2.3057   2.3620   2.3975   2.4820   2.5216   2.5373   2.6139
     2.6320   2.6866   2.7098   2.7354   2.7642   2.7846   2.8020   2.8095
     2.8173   2.8313   2.8568   2.8583   2.8785   2.8814   2.8913   2.9102
     2.9242   2.9286   2.9505   2.9618   2.9661   3.0011   3.0178   3.0792
     3.4602   3.4950   3.7250   4.1506   4.2858   4.5655   4.9098   5.0032
     5.5300   5.6458   5.8286   5.9176   5.9556   5.9940   6.0820   6.5619
     7.0020   7.0427   7.1959   7.2569   7.3636   7.4220   7.5394   7.5632
     7.7467   7.9321   8.0853   8.1156   8.1945   8.2980   8.3123   8.3804
     8.7255   8.8326

     occupation numbers 
     1.0000   1.0000   1.0000   1.0000   1.0000   1.0000   1.0000   1.0000
     1.0000   1.0000   1.0000   1.0000   1.0000   1.0000   1.0000   1.0000
     1.0000   1.0000   1.0000   1.0000   1.0000   1.0000   1.0000   1.0000
     1.0000   1.0000   1.0000   1.0000   1.0000   1.0000   1.0000   1.0000
     1.0000   1.0000   1.0000   1.0000   1.0000   1.0000   1.0000   1.0000
     1.0000   1.0000   1.0000   1.0000   1.0000   1.0000   1.0000   1.0000
     1.0000   1.0000   1.0000   1.0000   1.0000   1.0000   1.0000   1.0000
     1.0000   1.0000   1.0000   1.0000   1.0000   1.0000   1.0000   1.0000
     1.0000   1.0000   1.0000   1.0000   1.0000   1.0000   1.0000   1.0000
     1.0000   1.0000   1.0000   1.0000   1.0000   1.0000   1.0000   1.0000
     1.0000   1.0000   1.0000   1.0000   1.0000   1.0000   1.0000   1.0000
     1.0000   1.0000   1.0000   1.0000   1.0000   1.0000   1.0000   1.0000
     1.0000   1.0000   1.0000   1.0000   1.0000   1.0000   1.0000   1.0000
     1.0000   1.0000   1.0000   1.0000   1.0000   1.0000   1.0000   1.0000
     1.0000   1.0000   1.0000   1.0000   1.0000   1.0000   1.0000   1.0000
     1.0000   1.0000   1.0000   1.0000   1.0000   1.0000   1.0000   1.0000
     1.0000   1.0000   1.0000   1.0000   1.0000   1.0000   1.0000   1.0000
     1.0000   1.0000   1.0000   1.0000   1.0000   1.0000   1.0000   1.0000
     1.0000   1.0000   1.0000   1.0000   1.0000   1.0000   1.0000   1.0000
     1.0000   1.0000   1.0000   1.0000   1.0000   0.9999   0.9999   0.9999
     0.9998   0.9998   0.9997   0.9996   0.9996   0.9992   0.9988   0.9986
     0.9985   0.9983   0.9981   0.9975   0.9972   0.9968   0.9960   0.9953
     0.9947   0.9924   0.9913   0.9896   0.9876   0.9846   0.9815   0.9796
     0.9781   0.9767   0.9679   0.9533   0.9413   0.9371   0.9240   0.9126
     0.9028   0.8999   0.8844   0.8738   0.8460   0.8316   0.8256   0.7949
     0.7871   0.7628   0.7521   0.7399   0.7258   0.7156   0.7068   0.7030
     0.6989   0.6916   0.6782   0.6774   0.6666   0.6650   0.6596   0.6493
     0.6416   0.6391   0.6268   0.6205   0.6181   0.5981   0.5885   0.5526
     0.3324   0.3139   0.2043   0.0723   0.0485   0.0190   0.0049   0.0032
     0.0002   0.0001   0.0000   0.0000   0.0000   0.0000   0.0000   0.0000
     0.0000   0.0000   0.0000   0.0000   0.0000   0.0000   0.0000   0.0000
     0.0000   0.0000   0.0000   0.0000   0.0000   0.0000   0.0000   0.0000
     0.0000   0.0000

          k = 0.0000-0.5000 0.0000 ( 65180 PWs)   bands (ev):

   -92.8605 -92.8074 -92.7141 -92.6663 -92.6095 -92.5667 -92.5495 -92.4289
   -56.2141 -56.1940 -56.0711 -56.0608 -56.0530 -56.0477 -56.0118 -55.9831
   -55.9685 -55.9665 -55.9575 -55.9167 -55.8980 -55.8603 -55.8407 -55.8095
   -55.8007 -55.7547 -55.7534 -55.7517 -55.7433 -55.7038 -55.6796 -55.5957
   -31.4247 -31.4042 -31.2644 -31.2634 -31.1771 -31.1762 -30.8851 -30.7581
   -30.0048 -29.9610 -29.9385 -29.8282 -15.1639 -15.1153 -15.0606 -14.9327
   -14.8511 -14.7132 -14.5574 -14.4328 -14.3121 -14.2410 -14.1971 -14.1923
   -14.1394 -14.1242 -14.0760 -14.0536 -14.0299 -13.9941 -13.9551 -13.9144
   -13.7381 -13.6795 -13.6596 -13.6102 -13.5598 -13.5112 -13.4589 -13.4291
   -13.4096 -13.3640 -13.2595 -13.2502 -13.1968 -13.1599 -13.1142 -13.0954
   -13.0758 -13.0306 -12.9715 -12.9538 -12.8875 -12.8544 -12.8512 -12.8006
   -12.7911 -12.7088 -12.6629 -12.4962 -12.4715 -12.3881 -12.2969 -12.2504
   -11.9686 -11.9385 -11.9355 -11.9080 -11.8717 -11.8371 -11.8260 -11.7830
   -11.7792 -11.7341 -11.6724 -11.6589 -11.6448  -2.7486  -2.6886  -2.5387
    -2.4671  -2.1854  -2.1000  -1.9746  -1.8376  -1.8005  -1.7802  -1.7016
    -1.6704  -1.5881  -1.5527  -1.4749  -1.4353  -1.3975  -1.3701  -1.3095
    -1.2750  -1.2265  -1.1924  -1.1591  -1.1241  -1.0154  -0.9707  -0.9346
    -0.9330  -0.8466  -0.8146  -0.7924  -0.7399  -0.6576  -0.5823  -0.4990
    -0.4727  -0.3621  -0.3156  -0.1852  -0.1440  -0.1202  -0.0513   0.0794
     0.1172   0.2354   0.3056   0.3126   0.4397   0.4933   0.6188   0.7201
     0.8303   0.8597   0.8990   0.9047   0.9485   0.9603   0.9942   1.0144
     1.0207   1.1333   1.1968   1.2233   1.2480   1.5101   1.5453   1.5695
     1.6668   1.6961   1.7172   1.7329   1.7572   1.7771   1.8002   1.8214
     1.8475   1.8804   1.9127   1.9159   1.9451   1.9989   2.0830   2.1145
     2.3010   2.4452   2.4559   2.4743   2.5101   2.5151   2.5235   2.5745
     2.5874   2.6127   2.6287   2.6442   2.6646   2.6940   2.7461   2.7571
     2.8218   2.8360   2.8518   2.8550   2.8732   2.8817   2.8861   2.8888
     2.8914   2.9065   2.9208   2.9240   2.9861   2.9914   3.0075   3.0608
     3.9879   4.0171   4.0359   4.1085   4.5906   4.7533   4.9293   5.0139
     5.3081   5.3758   5.5117   5.5938   5.8727   5.9013   6.2259   6.5907
     6.8089   6.9039   7.1580   7.3198   7.5649   7.6253   7.6794   7.7176
     7.7953   7.9487   8.0465   8.1436   8.2007   8.3667   8.5368   8.6099
     8.7075   8.7559

     occupation numbers 
     1.0000   1.0000   1.0000   1.0000   1.0000   1.0000   1.0000   1.0000
     1.0000   1.0000   1.0000   1.0000   1.0000   1.0000   1.0000   1.0000
     1.0000   1.0000   1.0000   1.0000   1.0000   1.0000   1.0000   1.0000
     1.0000   1.0000   1.0000   1.0000   1.0000   1.0000   1.0000   1.0000
     1.0000   1.0000   1.0000   1.0000   1.0000   1.0000   1.0000   1.0000
     1.0000   1.0000   1.0000   1.0000   1.0000   1.0000   1.0000   1.0000
     1.0000   1.0000   1.0000   1.0000   1.0000   1.0000   1.0000   1.0000
     1.0000   1.0000   1.0000   1.0000   1.0000   1.0000   1.0000   1.0000
     1.0000   1.0000   1.0000   1.0000   1.0000   1.0000   1.0000   1.0000
     1.0000   1.0000   1.0000   1.0000   1.0000   1.0000   1.0000   1.0000
     1.0000   1.0000   1.0000   1.0000   1.0000   1.0000   1.0000   1.0000
     1.0000   1.0000   1.0000   1.0000   1.0000   1.0000   1.0000   1.0000
     1.0000   1.0000   1.0000   1.0000   1.0000   1.0000   1.0000   1.0000
     1.0000   1.0000   1.0000   1.0000   1.0000   1.0000   1.0000   1.0000
     1.0000   1.0000   1.0000   1.0000   1.0000   1.0000   1.0000   1.0000
     1.0000   1.0000   1.0000   1.0000   1.0000   1.0000   1.0000   1.0000
     1.0000   1.0000   1.0000   1.0000   1.0000   1.0000   1.0000   1.0000
     1.0000   1.0000   1.0000   1.0000   1.0000   1.0000   1.0000   1.0000
     1.0000   1.0000   1.0000   1.0000   1.0000   1.0000   1.0000   1.0000
     1.0000   1.0000   1.0000   1.0000   1.0000   1.0000   0.9999   0.9999
     0.9997   0.9997   0.9996   0.9996   0.9995   0.9995   0.9994   0.9993
     0.9993   0.9987   0.9983   0.9981   0.9978   0.9931   0.9920   0.9912
     0.9871   0.9856   0.9844   0.9835   0.9819   0.9806   0.9789   0.9773
     0.9751   0.9721   0.9689   0.9685   0.9653   0.9588   0.9465   0.9412
     0.9011   0.8586   0.8549   0.8486   0.8358   0.8340   0.8309   0.8111
     0.8059   0.7953   0.7886   0.7818   0.7728   0.7594   0.7347   0.7293
     0.6966   0.6892   0.6809   0.6792   0.6694   0.6648   0.6624   0.6610
     0.6596   0.6513   0.6434   0.6416   0.6067   0.6037   0.5944   0.5634
     0.1118   0.1038   0.0988   0.0814   0.0173   0.0093   0.0045   0.0031
     0.0007   0.0005   0.0003   0.0002   0.0000   0.0000   0.0000   0.0000
     0.0000   0.0000   0.0000   0.0000   0.0000   0.0000   0.0000   0.0000
     0.0000   0.0000   0.0000   0.0000   0.0000   0.0000   0.0000   0.0000
     0.0000   0.0000

          k = 0.2500 0.2500 0.0000 ( 65198 PWs)   bands (ev):

   -92.8605 -92.8074 -92.7141 -92.6663 -92.6095 -92.5667 -92.5495 -92.4289
   -56.2141 -56.1940 -56.0711 -56.0608 -56.0530 -56.0477 -56.0118 -55.9831
   -55.9685 -55.9665 -55.9575 -55.9167 -55.8980 -55.8603 -55.8407 -55.8095
   -55.8007 -55.7547 -55.7534 -55.7517 -55.7433 -55.7038 -55.6796 -55.5957
   -31.4233 -31.4059 -31.2638 -31.2637 -31.1767 -31.1765 -30.8854 -30.7579
   -30.0045 -29.9623 -29.9375 -29.8283 -15.1715 -15.1276 -15.0589 -14.9419
   -14.8206 -14.6936 -14.6257 -14.4173 -14.2631 -14.2485 -14.2130 -14.1838
   -14.1605 -14.1294 -14.1007 -14.0742 -13.9957 -13.9786 -13.8171 -13.8022
   -13.7744 -13.7527 -13.7025 -13.6636 -13.5938 -13.5769 -13.4358 -13.4031
   -13.3759 -13.2902 -13.2504 -13.2146 -13.1922 -13.1660 -13.1382 -13.0984
   -13.0918 -13.0655 -13.0170 -12.9739 -12.8926 -12.8637 -12.8575 -12.8306
   -12.7865 -12.7073 -12.6006 -12.5875 -12.4887 -12.4254 -12.2181 -12.1791
   -11.9685 -11.9561 -11.9248 -11.9137 -11.9073 -11.8440 -11.8097 -11.8028
   -11.7672 -11.7602 -11.6669 -11.6267 -11.6092  -2.8246  -2.6161  -2.4980
    -2.4036  -2.2833  -2.2184  -2.0201  -1.8764  -1.8576  -1.8277  -1.7331
    -1.6983  -1.6040  -1.5755  -1.5258  -1.3953  -1.3462  -1.2740  -1.2292
    -1.1848  -1.1620  -1.1379  -1.0950  -1.0797  -0.9887  -0.9384  -0.8724
    -0.8227  -0.7917  -0.7442  -0.7267  -0.6647  -0.6172  -0.5596  -0.5244
    -0.4387  -0.3851  -0.3560  -0.3194  -0.2632  -0.1817  -0.1492  -0.1217
    -0.0377  -0.0046   0.2547   0.4021   0.4366   0.4986   0.5393   0.6132
     0.6675   0.7162   0.7507   1.0212   1.0853   1.1588   1.1835   1.2343
     1.2642   1.2993   1.3365   1.3536   1.3802   1.4278   1.4350   1.4490
     1.4951   1.5385   1.5730   1.6371   1.6799   1.6836   1.7269   1.7556
     1.8134   1.8451   1.9626   2.0232   2.0548   2.0782   2.1519   2.2180
     2.2411   2.2753   2.3028   2.3172   2.4259   2.4607   2.5489   2.6139
     2.6421   2.6847   2.7200   2.7364   2.7425   2.7592   2.7734   2.7860
     2.8008   2.8075   2.8181   2.8301   2.8429   2.8613   2.8670   2.8790
     2.9017   2.9130   2.9214   2.9532   3.2534   3.3493   3.3922   3.4653
     3.5095   3.7042   3.7975   4.1560   4.3770   4.5747   4.8289   5.1423
     5.5186   5.5764   5.6124   5.6823   5.7440   6.0590   6.1174   6.1720
     6.8490   7.0599   7.1470   7.3599   7.4714   7.4998   7.6101   7.7762
     7.8591   7.9754   8.1788   8.2213   8.3101   8.3440   8.4153   8.4555
     8.5454   8.8181

     occupation numbers 
     1.0000   1.0000   1.0000   1.0000   1.0000   1.0000   1.0000   1.0000
     1.0000   1.0000   1.0000   1.0000   1.0000   1.0000   1.0000   1.0000
     1.0000   1.0000   1.0000   1.0000   1.0000   1.0000   1.0000   1.0000
     1.0000   1.0000   1.0000   1.0000   1.0000   1.0000   1.0000   1.0000
     1.0000   1.0000   1.0000   1.0000   1.0000   1.0000   1.0000   1.0000
     1.0000   1.0000   1.0000   1.0000   1.0000   1.0000   1.0000   1.0000
     1.0000   1.0000   1.0000   1.0000   1.0000   1.0000   1.0000   1.0000
     1.0000   1.0000   1.0000   1.0000   1.0000   1.0000   1.0000   1.0000
     1.0000   1.0000   1.0000   1.0000   1.0000   1.0000   1.0000   1.0000
     1.0000   1.0000   1.0000   1.0000   1.0000   1.0000   1.0000   1.0000
     1.0000   1.0000   1.0000   1.0000   1.0000   1.0000   1.0000   1.0000
     1.0000   1.0000   1.0000   1.0000   1.0000   1.0000   1.0000   1.0000
     1.0000   1.0000   1.0000   1.0000   1.0000   1.0000   1.0000   1.0000
     1.0000   1.0000   1.0000   1.0000   1.0000   1.0000   1.0000   1.0000
     1.0000   1.0000   1.0000   1.0000   1.0000   1.0000   1.0000   1.0000
     1.0000   1.0000   1.0000   1.0000   1.0000   1.0000   1.0000   1.0000
     1.0000   1.0000   1.0000   1.0000   1.0000   1.0000   1.0000   1.0000
     1.0000   1.0000   1.0000   1.0000   1.0000   1.0000   1.0000   1.0000
     1.0000   1.0000   1.0000   1.0000   1.0000   1.0000   1.0000   1.0000
     1.0000   1.0000   1.0000   1.0000   1.0000   1.0000   1.0000   0.9999
     0.9999   0.9999   0.9998   0.9993   0.9990   0.9986   0.9984   0.9980
     0.9977   0.9972   0.9967   0.9965   0.9960   0.9951   0.9950   0.9947
     0.9935   0.9922   0.9911   0.9885   0.9865   0.9863   0.9838   0.9820
     0.9779   0.9753   0.9633   0.9555   0.9509   0.9473   0.9344   0.9209
     0.9157   0.9076   0.9007   0.8969   0.8649   0.8533   0.8212   0.7949
     0.7827   0.7637   0.7472   0.7394   0.7364   0.7283   0.7212   0.7149
     0.7074   0.7040   0.6985   0.6923   0.6855   0.6758   0.6727   0.6663
     0.6539   0.6477   0.6431   0.6253   0.4498   0.3941   0.3698   0.3296
     0.3063   0.2131   0.1751   0.0713   0.0363   0.0184   0.0068   0.0017
     0.0002   0.0002   0.0001   0.0001   0.0001   0.0000   0.0000   0.0000
     0.0000   0.0000   0.0000   0.0000   0.0000   0.0000   0.0000   0.0000
     0.0000   0.0000   0.0000   0.0000   0.0000   0.0000   0.0000   0.0000
     0.0000   0.0000

          k = 0.2500-0.5000 0.0000 ( 65138 PWs)   bands (ev):

   -92.8605 -92.8074 -92.7141 -92.6663 -92.6095 -92.5667 -92.5495 -92.4289
   -56.2141 -56.1940 -56.0711 -56.0608 -56.0530 -56.0477 -56.0118 -55.9831
   -55.9685 -55.9665 -55.9575 -55.9167 -55.8980 -55.8603 -55.8407 -55.8095
   -55.8007 -55.7547 -55.7534 -55.7517 -55.7433 -55.7038 -55.6796 -55.5957
   -31.4231 -31.4058 -31.2640 -31.2634 -31.1770 -31.1766 -30.8852 -30.7581
   -30.0038 -29.9619 -29.9381 -29.8286 -15.1329 -15.0883 -15.0171 -14.9035
   -14.8735 -14.7540 -14.6619 -14.5312 -14.2281 -14.1740 -14.1481 -14.1247
   -14.1101 -14.0964 -14.0603 -14.0426 -14.0106 -13.9715 -13.9464 -13.9060
   -13.8196 -13.7700 -13.7192 -13.6910 -13.6209 -13.6063 -13.4936 -13.4575
   -13.3542 -13.2895 -13.2712 -13.1943 -13.1691 -13.1484 -13.1314 -13.1095
   -13.0894 -13.0596 -12.9732 -12.9483 -12.8885 -12.8663 -12.8061 -12.7990
   -12.7731 -12.7123 -12.6694 -12.4771 -12.4682 -12.3639 -12.2864 -12.2543
   -11.9685 -11.9321 -11.9199 -11.9091 -11.8822 -11.8505 -11.8224 -11.7807
   -11.7532 -11.7310 -11.6853 -11.6603 -11.6488  -2.6066  -2.5400  -2.4123
    -2.3357  -2.2057  -2.1200  -1.9988  -1.8488  -1.7951  -1.7726  -1.7093
    -1.6968  -1.5990  -1.5321  -1.4478  -1.3967  -1.3873  -1.3254  -1.2808
    -1.2479  -1.2008  -1.1632  -1.1282  -1.0886  -1.0767  -1.0315  -1.0014
    -0.9604  -0.9287  -0.8619  -0.7604  -0.7165  -0.6407  -0.5750  -0.5262
    -0.4833  -0.4628  -0.4092  -0.2464  -0.2339  -0.1325  -0.0957  -0.0856
    -0.0422  -0.0121   0.0338   0.0559   0.1190   0.3957   0.4939   0.5845
     0.6374   0.8821   0.9104   0.9945   1.0204   1.1823   1.2172   1.2595
     1.2796   1.2958   1.3158   1.3789   1.4261   1.4609   1.5468   1.6370
     1.6793   1.6948   1.7079   1.7433   1.7567   1.7622   1.8096   1.8180
     1.8460   1.8768   1.8913   1.9043   1.9434   1.9992   2.0368   2.1174
     2.2573   2.3974   2.4148   2.4335   2.4618   2.4859   2.5118   2.5338
     2.5435   2.5681   2.6142   2.6396   2.6744   2.6941   2.7234   2.7379
     2.7437   2.7560   2.7760   2.7895   2.8091   2.8165   2.8494   2.8612
     2.8747   2.8858   2.8937   2.9044   3.4379   3.4448   3.5853   3.6362
     4.0014   4.0338   4.0532   4.1644   4.6092   4.7744   4.9481   4.9812
     5.1588   5.3194   5.5200   5.5402   5.6494   5.6858   6.3036   6.3594
     6.4577   6.6870   7.2718   7.6039   7.6738   7.7133   7.7466   7.8089
     7.8878   7.9499   8.1221   8.3122   8.3930   8.4289   8.5666   8.6057
     8.6549   8.7153

     occupation numbers 
     1.0000   1.0000   1.0000   1.0000   1.0000   1.0000   1.0000   1.0000
     1.0000   1.0000   1.0000   1.0000   1.0000   1.0000   1.0000   1.0000
     1.0000   1.0000   1.0000   1.0000   1.0000   1.0000   1.0000   1.0000
     1.0000   1.0000   1.0000   1.0000   1.0000   1.0000   1.0000   1.0000
     1.0000   1.0000   1.0000   1.0000   1.0000   1.0000   1.0000   1.0000
     1.0000   1.0000   1.0000   1.0000   1.0000   1.0000   1.0000   1.0000
     1.0000   1.0000   1.0000   1.0000   1.0000   1.0000   1.0000   1.0000
     1.0000   1.0000   1.0000   1.0000   1.0000   1.0000   1.0000   1.0000
     1.0000   1.0000   1.0000   1.0000   1.0000   1.0000   1.0000   1.0000
     1.0000   1.0000   1.0000   1.0000   1.0000   1.0000   1.0000   1.0000
     1.0000   1.0000   1.0000   1.0000   1.0000   1.0000   1.0000   1.0000
     1.0000   1.0000   1.0000   1.0000   1.0000   1.0000   1.0000   1.0000
     1.0000   1.0000   1.0000   1.0000   1.0000   1.0000   1.0000   1.0000
     1.0000   1.0000   1.0000   1.0000   1.0000   1.0000   1.0000   1.0000
     1.0000   1.0000   1.0000   1.0000   1.0000   1.0000   1.0000   1.0000
     1.0000   1.0000   1.0000   1.0000   1.0000   1.0000   1.0000   1.0000
     1.0000   1.0000   1.0000   1.0000   1.0000   1.0000   1.0000   1.0000
     1.0000   1.0000   1.0000   1.0000   1.0000   1.0000   1.0000   1.0000
     1.0000   1.0000   1.0000   1.0000   1.0000   1.0000   1.0000   1.0000
     1.0000   1.0000   1.0000   1.0000   1.0000   1.0000   1.0000   0.9999
     0.9999   0.9997   0.9996   0.9994   0.9993   0.9984   0.9981   0.9977
     0.9975   0.9973   0.9970   0.9961   0.9952   0.9944   0.9920   0.9885
     0.9865   0.9857   0.9849   0.9828   0.9820   0.9816   0.9782   0.9775
     0.9752   0.9724   0.9710   0.9697   0.9655   0.9587   0.9535   0.9407
     0.9120   0.8739   0.8684   0.8624   0.8530   0.8446   0.8352   0.8270
     0.8233   0.8136   0.7947   0.7838   0.7684   0.7594   0.7456   0.7387
     0.7358   0.7299   0.7200   0.7132   0.7032   0.6993   0.6821   0.6758
     0.6686   0.6626   0.6583   0.6525   0.3445   0.3408   0.2680   0.2436
     0.1080   0.0994   0.0944   0.0696   0.0162   0.0085   0.0041   0.0036
     0.0016   0.0007   0.0002   0.0002   0.0001   0.0001   0.0000   0.0000
     0.0000   0.0000   0.0000   0.0000   0.0000   0.0000   0.0000   0.0000
     0.0000   0.0000   0.0000   0.0000   0.0000   0.0000   0.0000   0.0000
     0.0000   0.0000

          k =-0.5000-0.5000 0.0000 ( 65132 PWs)   bands (ev):

   -92.8605 -92.8074 -92.7141 -92.6663 -92.6095 -92.5667 -92.5495 -92.4289
   -56.2141 -56.1940 -56.0711 -56.0608 -56.0530 -56.0477 -56.0118 -55.9831
   -55.9685 -55.9665 -55.9575 -55.9167 -55.8980 -55.8603 -55.8407 -55.8095
   -55.8007 -55.7547 -55.7534 -55.7517 -55.7433 -55.7038 -55.6796 -55.5957
   -31.4211 -31.4078 -31.2637 -31.2633 -31.1770 -31.1769 -30.8853 -30.7582
   -30.0029 -29.9630 -29.9377 -29.8290 -15.0851 -15.0614 -14.9438 -14.9295
   -14.8369 -14.8001 -14.7673 -14.6317 -14.1390 -14.1255 -14.0922 -14.0748
   -14.0549 -14.0407 -14.0144 -14.0019 -13.9896 -13.9798 -13.9657 -13.8874
   -13.8765 -13.8521 -13.8135 -13.8026 -13.7066 -13.6708 -13.5291 -13.4971
   -13.3037 -13.2697 -13.1989 -13.1738 -13.1650 -13.1438 -13.1320 -13.1223
   -13.1074 -13.0972 -12.9757 -12.9371 -12.8964 -12.8724 -12.8132 -12.7555
   -12.7476 -12.7153 -12.6856 -12.4667 -12.4562 -12.3382 -12.2740 -12.2619
   -11.9685 -11.9284 -11.9166 -11.8987 -11.8817 -11.8468 -11.8281 -11.7951
   -11.7331 -11.7140 -11.7076 -11.6580 -11.6545  -2.3822  -2.3070  -2.2951
    -2.2233  -2.1859  -2.1078  -2.0400  -1.9144  -1.7994  -1.7684  -1.7298
    -1.6721  -1.6007  -1.5857  -1.5154  -1.4727  -1.3554  -1.3245  -1.2775
    -1.2500  -1.1856  -1.1377  -1.1196  -1.1061  -1.0532  -1.0101  -0.9941
    -0.8808  -0.8220  -0.7753  -0.7269  -0.6981  -0.6878  -0.6524  -0.6067
    -0.5734  -0.5642  -0.4764  -0.4109  -0.3670  -0.3383  -0.2667  -0.2081
    -0.1841  -0.1345  -0.1096  -0.0966  -0.0772   0.3680   0.4159   0.5323
     0.5633   0.9159   0.9281   0.9600   0.9992   1.2689   1.2886   1.2953
     1.3343   1.4610   1.5568   1.5835   1.6203   1.6443   1.6697   1.6762
     1.7052   1.7194   1.7409   1.7479   1.7938   1.7943   1.8247   1.8619
     1.8667   1.8815   1.9190   1.9401   1.9573   1.9875   2.0171   2.0760
     2.1438   2.4066   2.4401   2.4603   2.4799   2.4835   2.5208   2.5233
     2.5423   2.5534   2.5689   2.5883   2.6041   2.6185   2.6375   2.6699
     2.6776   2.6830   2.7011   2.7218   2.7258   2.7422   2.7484   2.7550
     2.8579   2.8630   2.8919   2.9010   3.8680   3.8858   3.9226   3.9558
     4.1619   4.2379   4.2604   4.5013   4.6236   4.7062   4.8393   4.9428
     4.9532   5.0488   5.1953   5.2532   5.8178   5.8649   5.9091   6.0166
     6.4341   6.8234   6.9925   7.5330   7.8591   7.8689   7.9488   8.0743
     8.1083   8.1733   8.2091   8.2493   8.3035   8.4728   8.4991   8.5213
     8.5490   8.6014

     occupation numbers 
     1.0000   1.0000   1.0000   1.0000   1.0000   1.0000   1.0000   1.0000
     1.0000   1.0000   1.0000   1.0000   1.0000   1.0000   1.0000   1.0000
     1.0000   1.0000   1.0000   1.0000   1.0000   1.0000   1.0000   1.0000
     1.0000   1.0000   1.0000   1.0000   1.0000   1.0000   1.0000   1.0000
     1.0000   1.0000   1.0000   1.0000   1.0000   1.0000   1.0000   1.0000
     1.0000   1.0000   1.0000   1.0000   1.0000   1.0000   1.0000   1.0000
     1.0000   1.0000   1.0000   1.0000   1.0000   1.0000   1.0000   1.0000
     1.0000   1.0000   1.0000   1.0000   1.0000   1.0000   1.0000   1.0000
     1.0000   1.0000   1.0000   1.0000   1.0000   1.0000   1.0000   1.0000
     1.0000   1.0000   1.0000   1.0000   1.0000   1.0000   1.0000   1.0000
     1.0000   1.0000   1.0000   1.0000   1.0000   1.0000   1.0000   1.0000
     1.0000   1.0000   1.0000   1.0000   1.0000   1.0000   1.0000   1.0000
     1.0000   1.0000   1.0000   1.0000   1.0000   1.0000   1.0000   1.0000
     1.0000   1.0000   1.0000   1.0000   1.0000   1.0000   1.0000   1.0000
     1.0000   1.0000   1.0000   1.0000   1.0000   1.0000   1.0000   1.0000
     1.0000   1.0000   1.0000   1.0000   1.0000   1.0000   1.0000   1.0000
     1.0000   1.0000   1.0000   1.0000   1.0000   1.0000   1.0000   1.0000
     1.0000   1.0000   1.0000   1.0000   1.0000   1.0000   1.0000   1.0000
     1.0000   1.0000   1.0000   1.0000   1.0000   1.0000   1.0000   1.0000
     1.0000   1.0000   1.0000   1.0000   1.0000   1.0000   1.0000   1.0000
     0.9999   0.9996   0.9996   0.9995   0.9994   0.9976   0.9974   0.9973
     0.9968   0.9944   0.9916   0.9907   0.9892   0.9882   0.9870   0.9866
[...]
     0.6337   0.6207   0.6183   0.6142   0.6104   0.6047   0.5994   0.5220
     0.3468   0.3188   0.2043   0.0768   0.0429   0.0205   0.0050   0.0031
     0.0002   0.0001   0.0000   0.0000   0.0000   0.0000   0.0000   0.0000
     0.0000   0.0000   0.0000   0.0000   0.0000   0.0000   0.0000   0.0000
     0.0000   0.0000   0.0000   0.0000   0.0000   0.0000   0.0000   0.0000
     0.0000   0.0000

          k =-0.5000 0.0000 0.0000 ( 65180 PWs)   bands (ev):

   -92.8605 -92.8074 -92.7141 -92.6663 -92.6095 -92.5667 -92.5495 -92.4289
   -56.2141 -56.1940 -56.0711 -56.0608 -56.0530 -56.0477 -56.0118 -55.9831
   -55.9685 -55.9665 -55.9575 -55.9167 -55.8980 -55.8603 -55.8407 -55.8095
   -55.8007 -55.7547 -55.7534 -55.7517 -55.7433 -55.7038 -55.6796 -55.5957
   -31.4215 -31.4080 -31.2639 -31.2633 -31.1767 -31.1762 -30.8858 -30.7577
   -30.0041 -29.9636 -29.9365 -29.8283 -15.1697 -15.1153 -15.0536 -14.9488
   -14.8423 -14.7002 -14.5454 -14.4150 -14.2868 -14.2756 -14.2633 -14.1956
   -14.1429 -14.1106 -14.0615 -14.0601 -14.0405 -13.9909 -13.9793 -13.8603
   -13.7089 -13.6819 -13.6485 -13.6424 -13.5754 -13.5169 -13.4332 -13.4138
   -13.3899 -13.3691 -13.2439 -13.2022 -13.1897 -13.1681 -13.1571 -13.1190
   -13.0944 -13.0759 -13.0612 -13.0471 -12.8307 -12.7893 -12.7798 -12.7124
   -12.7098 -12.6890 -12.6845 -12.5981 -12.4890 -12.4752 -12.2639 -12.2241
   -11.9681 -11.9362 -11.9140 -11.9076 -11.8920 -11.8741 -11.8326 -11.7710
   -11.7539 -11.7213 -11.6741 -11.6650 -11.6500  -2.7381  -2.7001  -2.5364
    -2.4976  -2.1828  -2.1087  -1.9592  -1.8434  -1.8041  -1.7585  -1.7101
    -1.6862  -1.5619  -1.5182  -1.5015  -1.4196  -1.3852  -1.3671  -1.3379
    -1.2788  -1.2108  -1.1822  -1.1525  -1.0572  -1.0107  -0.9607  -0.9283
    -0.9070  -0.8776  -0.8293  -0.8047  -0.7637  -0.6670  -0.5896  -0.5277
    -0.4656  -0.2902  -0.2582  -0.2113  -0.1769  -0.1048  -0.1003   0.0458
     0.0726   0.1253   0.2842   0.3835   0.4308   0.5241   0.6034   0.7142
     0.7207   0.8566   0.8763   0.9306   0.9602   0.9993   1.0090   1.0519
     1.0784   1.1464   1.1955   1.2423   1.2501   1.5563   1.5594   1.5821
     1.6021   1.7037   1.7191   1.7352   1.7470   1.7722   1.7819   1.8257
     1.8441   1.8757   1.9212   1.9416   1.9879   2.0177   2.0667   2.1848
     2.2853   2.3455   2.3608   2.4346   2.4687   2.4950   2.5663   2.5720
     2.5816   2.6109   2.6200   2.6296   2.6817   2.6962   2.7281   2.7725
     2.8048   2.8437   2.8480   2.8488   2.8602   2.8776   2.8867   2.9011
     2.9065   2.9299   2.9309   2.9520   2.9714   2.9768   3.1098   3.1157
     3.9307   3.9742   4.0363   4.2019   4.6398   4.7192   4.9019   4.9465
     5.3903   5.4264   5.5078   5.5242   5.8772   5.8842   6.1761   6.6913
     6.7494   6.9599   7.2148   7.2727   7.5747   7.6001   7.6477   7.7118
     7.7769   7.8154   8.0469   8.1337   8.2354   8.3883   8.5080   8.6550
     8.7252   8.8142

     occupation numbers 
     1.0000   1.0000   1.0000   1.0000   1.0000   1.0000   1.0000   1.0000
     1.0000   1.0000   1.0000   1.0000   1.0000   1.0000   1.0000   1.0000
     1.0000   1.0000   1.0000   1.0000   1.0000   1.0000   1.0000   1.0000
     1.0000   1.0000   1.0000   1.0000   1.0000   1.0000   1.0000   1.0000
     1.0000   1.0000   1.0000   1.0000   1.0000   1.0000   1.0000   1.0000
     1.0000   1.0000   1.0000   1.0000   1.0000   1.0000   1.0000   1.0000
     1.0000   1.0000   1.0000   1.0000   1.0000   1.0000   1.0000   1.0000
     1.0000   1.0000   1.0000   1.0000   1.0000   1.0000   1.0000   1.0000
     1.0000   1.0000   1.0000   1.0000   1.0000   1.0000   1.0000   1.0000
     1.0000   1.0000   1.0000   1.0000   1.0000   1.0000   1.0000   1.0000
     1.0000   1.0000   1.0000   1.0000   1.0000   1.0000   1.0000   1.0000
     1.0000   1.0000   1.0000   1.0000   1.0000   1.0000   1.0000   1.0000
     1.0000   1.0000   1.0000   1.0000   1.0000   1.0000   1.0000   1.0000
     1.0000   1.0000   1.0000   1.0000   1.0000   1.0000   1.0000   1.0000
     1.0000   1.0000   1.0000   1.0000   1.0000   1.0000   1.0000   1.0000
     1.0000   1.0000   1.0000   1.0000   1.0000   1.0000   1.0000   1.0000
     1.0000   1.0000   1.0000   1.0000   1.0000   1.0000   1.0000   1.0000
     1.0000   1.0000   1.0000   1.0000   1.0000   1.0000   1.0000   1.0000
     1.0000   1.0000   1.0000   1.0000   1.0000   1.0000   1.0000   1.0000
     1.0000   1.0000   1.0000   1.0000   1.0000   1.0000   0.9999   0.9999
     0.9999   0.9997   0.9997   0.9996   0.9995   0.9994   0.9993   0.9992
     0.9990   0.9987   0.9983   0.9979   0.9978   0.9917   0.9916   0.9908
     0.9900   0.9852   0.9843   0.9833   0.9826   0.9809   0.9802   0.9769
     0.9754   0.9725   0.9680   0.9657   0.9602   0.9562   0.9491   0.9279
     0.9051   0.8891   0.8848   0.8620   0.8506   0.8413   0.8143   0.8121
     0.8082   0.7961   0.7923   0.7881   0.7651   0.7584   0.7433   0.7217
     0.7054   0.6851   0.6829   0.6824   0.6764   0.6671   0.6621   0.6543
     0.6513   0.6384   0.6378   0.6260   0.6150   0.6120   0.5346   0.5312
     0.1288   0.1157   0.0987   0.0624   0.0144   0.0106   0.0050   0.0041
     0.0005   0.0004   0.0003   0.0002   0.0000   0.0000   0.0000   0.0000
     0.0000   0.0000   0.0000   0.0000   0.0000   0.0000   0.0000   0.0000
     0.0000   0.0000   0.0000   0.0000   0.0000   0.0000   0.0000   0.0000
     0.0000   0.0000

          k =-0.2500 0.2500 0.0000 ( 65198 PWs)   bands (ev):

   -92.8605 -92.8074 -92.7141 -92.6663 -92.6095 -92.5667 -92.5495 -92.4289
   -56.2141 -56.1940 -56.0711 -56.0608 -56.0530 -56.0477 -56.0118 -55.9831
   -55.9685 -55.9665 -55.9575 -55.9167 -55.8980 -55.8603 -55.8407 -55.8095
   -55.8007 -55.7547 -55.7534 -55.7517 -55.7433 -55.7038 -55.6796 -55.5957
   -31.4233 -31.4059 -31.2638 -31.2637 -31.1767 -31.1765 -30.8854 -30.7579
   -30.0045 -29.9623 -29.9375 -29.8283 -15.1727 -15.1265 -15.0575 -14.9403
   -14.8268 -14.6981 -14.6177 -14.4081 -14.2697 -14.2392 -14.2262 -14.1781
   -14.1554 -14.1340 -14.1129 -14.0756 -13.9914 -13.9797 -13.8241 -13.8003
   -13.7709 -13.7492 -13.7050 -13.6507 -13.5882 -13.5848 -13.4441 -13.4023
   -13.3704 -13.2938 -13.2527 -13.2027 -13.1863 -13.1589 -13.1380 -13.1082
   -13.0767 -13.0741 -13.0317 -12.9905 -12.9192 -12.8724 -12.8407 -12.8181
   -12.7679 -12.7067 -12.5903 -12.5679 -12.5149 -12.4312 -12.2235 -12.1721
   -11.9685 -11.9554 -11.9343 -11.9067 -11.8951 -11.8536 -11.8194 -11.7958
   -11.7751 -11.7521 -11.6666 -11.6221 -11.6125  -2.8230  -2.6150  -2.4939
    -2.4052  -2.2875  -2.2212  -2.0177  -1.8733  -1.8553  -1.8258  -1.7336
    -1.6971  -1.6035  -1.5694  -1.5430  -1.4009  -1.3449  -1.2768  -1.2479
    -1.1880  -1.1677  -1.1278  -1.0989  -1.0586  -0.9950  -0.9470  -0.8840
    -0.8143  -0.7873  -0.7373  -0.7079  -0.6624  -0.6070  -0.5627  -0.5194
    -0.4199  -0.3868  -0.3731  -0.3328  -0.2646  -0.1874  -0.1434  -0.1143
    -0.0356  -0.0063   0.2360   0.4045   0.4447   0.4854   0.5476   0.6181
     0.6659   0.7230   0.7491   1.0292   1.1354   1.1760   1.2085   1.2145
     1.2583   1.2739   1.3183   1.3488   1.3630   1.3883   1.4352   1.4521
     1.4935   1.5120   1.5573   1.6508   1.6724   1.6826   1.7323   1.7515
     1.7921   1.8549   1.9531   2.0511   2.0775   2.1272   2.1485   2.2162
     2.2526   2.2780   2.3050   2.3259   2.4249   2.4601   2.5501   2.6138
     2.6410   2.6845   2.7265   2.7356   2.7484   2.7577   2.7694   2.7834
     2.7899   2.8075   2.8184   2.8306   2.8405   2.8525   2.8624   2.8697
     2.9032   2.9128   2.9205   2.9556   3.2467   3.3296   3.3963   3.4844
     3.5027   3.6891   3.8060   4.1552   4.3754   4.5760   4.8388   5.1426
     5.5200   5.5722   5.6159   5.6792   5.7450   6.0632   6.1252   6.1581
     6.8498   7.0693   7.1369   7.3659   7.4808   7.5059   7.5853   7.7861
     7.8398   7.9919   8.2128   8.2234   8.2629   8.3451   8.4369   8.4459
     8.5370   8.8245

     occupation numbers 
     1.0000   1.0000   1.0000   1.0000   1.0000   1.0000   1.0000   1.0000
     1.0000   1.0000   1.0000   1.0000   1.0000   1.0000   1.0000   1.0000
     1.0000   1.0000   1.0000   1.0000   1.0000   1.0000   1.0000   1.0000
     1.0000   1.0000   1.0000   1.0000   1.0000   1.0000   1.0000   1.0000
     1.0000   1.0000   1.0000   1.0000   1.0000   1.0000   1.0000   1.0000
     1.0000   1.0000   1.0000   1.0000   1.0000   1.0000   1.0000   1.0000
     1.0000   1.0000   1.0000   1.0000   1.0000   1.0000   1.0000   1.0000
     1.0000   1.0000   1.0000   1.0000   1.0000   1.0000   1.0000   1.0000
     1.0000   1.0000   1.0000   1.0000   1.0000   1.0000   1.0000   1.0000
     1.0000   1.0000   1.0000   1.0000   1.0000   1.0000   1.0000   1.0000
     1.0000   1.0000   1.0000   1.0000   1.0000   1.0000   1.0000   1.0000
     1.0000   1.0000   1.0000   1.0000   1.0000   1.0000   1.0000   1.0000
     1.0000   1.0000   1.0000   1.0000   1.0000   1.0000   1.0000   1.0000
     1.0000   1.0000   1.0000   1.0000   1.0000   1.0000   1.0000   1.0000
     1.0000   1.0000   1.0000   1.0000   1.0000   1.0000   1.0000   1.0000
     1.0000   1.0000   1.0000   1.0000   1.0000   1.0000   1.0000   1.0000
     1.0000   1.0000   1.0000   1.0000   1.0000   1.0000   1.0000   1.0000
     1.0000   1.0000   1.0000   1.0000   1.0000   1.0000   1.0000   1.0000
     1.0000   1.0000   1.0000   1.0000   1.0000   1.0000   1.0000   1.0000
     1.0000   1.0000   1.0000   1.0000   1.0000   1.0000   1.0000   0.9999
     0.9999   0.9999   0.9998   0.9993   0.9987   0.9985   0.9982   0.9981
     0.9977   0.9975   0.9970   0.9966   0.9963   0.9959   0.9950   0.9946
     0.9936   0.9930   0.9916   0.9879   0.9868   0.9863   0.9835   0.9823
     0.9795   0.9744   0.9644   0.9514   0.9474   0.9390   0.9350   0.9213
     0.9131   0.9069   0.9001   0.8945   0.8652   0.8535   0.8207   0.7949
     0.7832   0.7638   0.7441   0.7398   0.7336   0.7290   0.7232   0.7162
     0.7130   0.7040   0.6984   0.6920   0.6868   0.6805   0.6752   0.6713
     0.6531   0.6478   0.6436   0.6240   0.4537   0.4054   0.3675   0.3194
     0.3098   0.2197   0.1719   0.0714   0.0365   0.0183   0.0066   0.0017
     0.0002   0.0002   0.0001   0.0001   0.0001   0.0000   0.0000   0.0000
     0.0000   0.0000   0.0000   0.0000   0.0000   0.0000   0.0000   0.0000
     0.0000   0.0000   0.0000   0.0000   0.0000   0.0000   0.0000   0.0000
     0.0000   0.0000

          k =-0.5000 0.2500 0.0000 ( 65138 PWs)   bands (ev):

   -92.8605 -92.8074 -92.7141 -92.6663 -92.6095 -92.5667 -92.5495 -92.4289
   -56.2141 -56.1940 -56.0711 -56.0608 -56.0530 -56.0477 -56.0118 -55.9831
   -55.9685 -55.9665 -55.9575 -55.9167 -55.8980 -55.8603 -55.8407 -55.8095
   -55.8007 -55.7547 -55.7534 -55.7517 -55.7433 -55.7038 -55.6796 -55.5957
   -31.4213 -31.4079 -31.2636 -31.2635 -31.1769 -31.1766 -30.8855 -30.7580
   -30.0035 -29.9633 -29.9371 -29.8287 -15.1364 -15.0894 -15.0104 -14.9144
   -14.8726 -14.7467 -14.6522 -14.5294 -14.2207 -14.1892 -14.1770 -14.1288
   -14.1091 -14.0842 -14.0482 -14.0463 -14.0183 -13.9829 -13.9715 -13.8562
   -13.7900 -13.7422 -13.7385 -13.7240 -13.6253 -13.6175 -13.4765 -13.4443
   -13.3465 -13.3134 -13.2191 -13.1996 -13.1733 -13.1635 -13.1407 -13.1099
   -13.0896 -13.0792 -13.0459 -12.9969 -12.8429 -12.7920 -12.7807 -12.7708
   -12.7636 -12.7066 -12.6870 -12.5137 -12.4705 -12.4097 -12.2647 -12.2397
   -11.9684 -11.9287 -11.9155 -11.9015 -11.8898 -11.8676 -11.8375 -11.7582
   -11.7490 -11.7266 -11.6886 -11.6610 -11.6526  -2.5956  -2.5541  -2.4059
    -2.3639  -2.2019  -2.1271  -1.9836  -1.8496  -1.7927  -1.7658  -1.7264
    -1.6884  -1.6072  -1.4920  -1.4343  -1.4117  -1.3862  -1.3066  -1.2814
    -1.2407  -1.2250  -1.1637  -1.1345  -1.0959  -1.0605  -1.0316  -0.9735
    -0.9463  -0.9050  -0.8699  -0.7656  -0.7370  -0.6494  -0.5856  -0.5535
    -0.5005  -0.4131  -0.3777  -0.2804  -0.2347  -0.1802  -0.1244  -0.1070
    -0.0341  -0.0042   0.0318   0.0762   0.1152   0.4307   0.4938   0.5759
     0.6030   0.8670   0.9223   0.9941   1.0220   1.1960   1.2329   1.2704
     1.2808   1.2992   1.3171   1.3878   1.4293   1.4747   1.4997   1.6323
     1.6627   1.6924   1.7067   1.7541   1.7672   1.7829   1.7990   1.8173
     1.8383   1.8900   1.8981   1.9353   1.9567   1.9947   2.0464   2.1711
     2.2690   2.2930   2.3601   2.3954   2.4502   2.4947   2.4989   2.5380
     2.5717   2.5936   2.6166   2.6302   2.6852   2.6963   2.7238   2.7377
     2.7427   2.7621   2.7854   2.7971   2.8132   2.8236   2.8460   2.8588
     2.8687   2.8758   2.8895   2.8992   3.4310   3.4852   3.6179   3.6414
     3.9356   3.9964   4.0476   4.2720   4.6327   4.7317   4.9001   4.9594
     5.2546   5.2878   5.5103   5.5785   5.6326   5.6579   6.2632   6.3491
     6.4679   6.8068   7.1598   7.6204   7.6906   7.7228   7.7461   7.7858
     7.8962   7.9455   8.0885   8.2833   8.3972   8.4390   8.5238   8.5820
     8.7141   8.7965

     occupation numbers 
     1.0000   1.0000   1.0000   1.0000   1.0000   1.0000   1.0000   1.0000
     1.0000   1.0000   1.0000   1.0000   1.0000   1.0000   1.0000   1.0000
     1.0000   1.0000   1.0000   1.0000   1.0000   1.0000   1.0000   1.0000
     1.0000   1.0000   1.0000   1.0000   1.0000   1.0000   1.0000   1.0000
     1.0000   1.0000   1.0000   1.0000   1.0000   1.0000   1.0000   1.0000
     1.0000   1.0000   1.0000   1.0000   1.0000   1.0000   1.0000   1.0000
     1.0000   1.0000   1.0000   1.0000   1.0000   1.0000   1.0000   1.0000
     1.0000   1.0000   1.0000   1.0000   1.0000   1.0000   1.0000   1.0000
     1.0000   1.0000   1.0000   1.0000   1.0000   1.0000   1.0000   1.0000
     1.0000   1.0000   1.0000   1.0000   1.0000   1.0000   1.0000   1.0000
     1.0000   1.0000   1.0000   1.0000   1.0000   1.0000   1.0000   1.0000
     1.0000   1.0000   1.0000   1.0000   1.0000   1.0000   1.0000   1.0000
     1.0000   1.0000   1.0000   1.0000   1.0000   1.0000   1.0000   1.0000
     1.0000   1.0000   1.0000   1.0000   1.0000   1.0000   1.0000   1.0000
     1.0000   1.0000   1.0000   1.0000   1.0000   1.0000   1.0000   1.0000
     1.0000   1.0000   1.0000   1.0000   1.0000   1.0000   1.0000   1.0000
     1.0000   1.0000   1.0000   1.0000   1.0000   1.0000   1.0000   1.0000
     1.0000   1.0000   1.0000   1.0000   1.0000   1.0000   1.0000   1.0000
     1.0000   1.0000   1.0000   1.0000   1.0000   1.0000   1.0000   1.0000
     1.0000   1.0000   1.0000   1.0000   1.0000   1.0000   1.0000   0.9999
     0.9999   0.9997   0.9996   0.9994   0.9993   0.9983   0.9980   0.9976
     0.9975   0.9972   0.9970   0.9959   0.9951   0.9940   0.9934   0.9887
     0.9873   0.9858   0.9850   0.9821   0.9813   0.9802   0.9790   0.9776
     0.9759   0.9712   0.9704   0.9664   0.9640   0.9593   0.9522   0.9307
     0.9092   0.9032   0.8850   0.8745   0.8569   0.8414   0.8399   0.8254
     0.8122   0.8033   0.7937   0.7879   0.7635   0.7583   0.7454   0.7388
     0.7363   0.7268   0.7152   0.7093   0.7010   0.6957   0.6839   0.6771
     0.6718   0.6680   0.6606   0.6553   0.3483   0.3190   0.2522   0.2412
     0.1273   0.1094   0.0959   0.0506   0.0148   0.0101   0.0051   0.0039
     0.0010   0.0008   0.0003   0.0002   0.0001   0.0001   0.0000   0.0000
     0.0000   0.0000   0.0000   0.0000   0.0000   0.0000   0.0000   0.0000
     0.0000   0.0000   0.0000   0.0000   0.0000   0.0000   0.0000   0.0000
     0.0000   0.0000

     the Fermi energy is     3.1684 ev

!    total energy              =   -4440.29667475 Ry
     estimated scf accuracy    <          5.2E-09 Ry
     smearing contrib. (-TS)   =      -1.20746825 Ry
     internal energy E=F+TS    =   -4439.08920650 Ry

     The total energy is F=E-TS. E is the sum of the following terms:
     one-electron contribution =  -20890.55314300 Ry
     hartree contribution      =   10574.60128203 Ry
     xc contribution           =    -693.24544366 Ry
     ewald contribution        =    6846.29969482 Ry
     one-center paw contrib.   =    -276.19159668 Ry
      -> PAW hartree energy AE =      25.16324818 Ry
      -> PAW hartree energy PS =     -25.04713257 Ry
      -> PAW xc energy AE      =     -16.51756748 Ry
      -> PAW xc energy PS      =       6.87702502 Ry
      -> total E_H with PAW    =   10574.71739764 Ry
      -> total E_XC with PAW   =    -702.88598612 Ry

     convergence has been achieved in  51 iterations

     Writing all to output data dir /bsuhome/zayahcortright/scratch/pwscf.save/
 
     init_run     :      8.12s CPU      8.72s WALL (       1 calls)
     electrons    :    718.80s CPU    754.03s WALL (       1 calls)

     Called by init_run:
     wfcinit      :      6.41s CPU      6.62s WALL (       1 calls)
     wfcinit:atom :      0.05s CPU      0.07s WALL (       5 calls)
     wfcinit:wfcr :      6.08s CPU      6.22s WALL (       5 calls)
     potinit      :      0.16s CPU      0.18s WALL (       1 calls)
     hinit0       :      0.62s CPU      0.71s WALL (       1 calls)

     Called by electrons:
     c_bands      :    568.61s CPU    575.65s WALL (      51 calls)
     sum_band     :    112.44s CPU    128.15s WALL (      51 calls)
     v_of_rho     :      5.56s CPU      5.94s WALL (      52 calls)
     v_h          :      0.44s CPU      0.45s WALL (      52 calls)
     v_xc         :      5.11s CPU      5.50s WALL (      52 calls)
     newd         :     16.88s CPU     28.63s WALL (      52 calls)
     PAW_pot      :      1.64s CPU      1.68s WALL (      52 calls)
     mix_rho      :     13.32s CPU     13.71s WALL (      51 calls)

     Called by c_bands:
     init_us_2    :      7.00s CPU      7.08s WALL (     515 calls)
     init_us_2:cp :      6.99s CPU      7.08s WALL (     515 calls)
     cegterg      :    538.24s CPU    544.93s WALL (     255 calls)

     Called by sum_band:
     sum_band:wei :      0.36s CPU      0.37s WALL (      51 calls)
     sum_band:loo :     94.61s CPU     95.37s WALL (      51 calls)
     sum_band:buf :      1.46s CPU      1.53s WALL (     255 calls)
     sum_band:ini :      3.20s CPU      3.22s WALL (     255 calls)
     sum_band:cal :     20.09s CPU     20.15s WALL (     255 calls)
     sum_band:bec :      0.56s CPU      0.57s WALL (     255 calls)
     addusdens    :     16.26s CPU     31.15s WALL (      51 calls)
                                        0.00s GPU  (      51 calls)
     addusd:skk   :      0.33s CPU      1.01s WALL (     153 calls)
                                        0.00s GPU  (     153 calls)

     Called by *egterg:
     cdiaghg      :     54.00s CPU     54.22s WALL (    1212 calls)
     cegterg:over :     39.40s CPU     39.55s WALL (     957 calls)
     cegterg:upda :     28.33s CPU     28.85s WALL (     957 calls)
     cegterg:last :     60.76s CPU     61.04s WALL (     462 calls)
     cdiaghg:chol :      3.12s CPU      3.13s WALL (    1212 calls)
     cdiaghg:inve :      2.86s CPU      2.88s WALL (    1212 calls)
     cdiaghg:para :      6.84s CPU      6.89s WALL (    2424 calls)
     h_psi        :    299.90s CPU    303.17s WALL (    1217 calls)
     s_psi        :     39.72s CPU     39.86s WALL (    1217 calls)
     g_psi        :      1.07s CPU      1.08s WALL (     957 calls)

     Called by h_psi:
     h_psi:calbec :     45.71s CPU     45.94s WALL (    1217 calls)
     vloc_psi     :    211.56s CPU    213.66s WALL (    1217 calls)
     add_vuspsi   :     39.81s CPU     40.02s WALL (    1217 calls)

     General routines
     calbec       :     65.79s CPU     66.09s WALL (    1472 calls)
     fft          :      3.94s CPU      3.99s WALL (     674 calls)
     ffts         :      4.94s CPU      4.98s WALL (    5525 calls)
     fftw         :    185.49s CPU    187.03s WALL (  340878 calls)
     interpolate  :      0.43s CPU      0.44s WALL (      52 calls)
 
     Parallel routines

     PAW routines
     PAW_pot      :      1.64s CPU      1.68s WALL (      52 calls)
 
     PWSCF        :  12m 8.65s CPU  12m48.28s WALL

 
   This run was terminated on:  17:53:40  21Jun2024            

=------------------------------------------------------------------------------=
   JOB DONE.
=------------------------------------------------------------------------------=
