
     Program PWSCF v.7.2 starts on 20Jun2024 at 17:34:26 

     This program is part of the open-source Quantum ESPRESSO suite
     for quantum simulation of materials; please cite
         "P. Giannozzi et al., J. Phys.:Condens. Matter 21 395502 (2009);
         "P. Giannozzi et al., J. Phys.:Condens. Matter 29 465901 (2017);
         "P. Giannozzi et al., J. Chem. Phys. 152 154105 (2020);
          URL http://www.quantum-espresso.org", 
     in publications or presentations arising from this work. More details at
     http://www.quantum-espresso.org/quote

     Parallel version (MPI & OpenMP), running on      48 processor cores
     Number of MPI processes:                48
     Threads/MPI process:                     1

     MPI processes distributed on     1 nodes
     41839 MiB available memory on the printing compute node when the environment starts
 
     Reading input from espresso.pwi
Warning: card &CELL ignored
Warning: card / ignored
Warning: card &FCP ignored
Warning: card / ignored
Warning: card &RISM ignored
Warning: card / ignored

     Current dimensions of program PWSCF are:
     Max number of different atomic species (ntypx) = 10
     Max number of k-points (npk) =  40000
     Max angular momentum in pseudopotentials (lmaxx) =  4
     file O.pbe-n-kjpaw_psl.0.1.UPF: wavefunction(s)  2P renormalized
     signal trapping enabled: kill the code with -SIGUSR1 to stop cleanly the simulation 
 
     K-points division:     npool     =       2
     R & G space division:  proc/nbgrp/npool/nimage =      24
     Subspace diagonalization in iterative solution of the eigenvalue problem:
     one sub-group per band group will be used
     scalapack distributed-memory algorithm (size of sub-group:  3*  3 procs)

 
     Parallelization info
     --------------------
     sticks:   dense  smooth     PW     G-vecs:    dense   smooth      PW
     Min         350     175     47                61430    21716    3036
     Max         351     177     48                61449    21727    3041
     Sum        8421    4205   1137              1474595   521381   72913
 
     Using Slab Decomposition
 


     bravais-lattice index     =            0
     lattice parameter (alat)  =      14.8599  a.u.
     unit-cell volume          =    8305.1283 (a.u.)^3
     number of atoms/cell      =           51
     number of atomic types    =            4
     number of electrons       =       437.00
     number of Kohn-Sham states=          263
     kinetic-energy cutoff     =      60.0000  Ry
     charge density cutoff     =     480.0000  Ry
     scf convergence threshold =      1.0E-08
     mixing beta               =       0.1500
     number of iterations used =            8  local-TF  mixing
     Exchange-correlation= PBE
                           (   1   4   3   4   0   0   0)

     celldm(1)=  14.859904  celldm(2)=   0.000000  celldm(3)=   0.000000
     celldm(4)=   0.000000  celldm(5)=   0.000000  celldm(6)=   0.000000

     crystal axes: (cart. coord. in units of alat)
               a(1) = (   1.000000   0.000000   0.000000 )  
               a(2) = (   0.000000   1.000000   0.000000 )  
               a(3) = (   0.000000   0.000000   2.531036 )  

     reciprocal axes: (cart. coord. in units 2 pi/alat)
               b(1) = (  1.000000  0.000000  0.000000 )  
               b(2) = (  0.000000  1.000000  0.000000 )  
               b(3) = (  0.000000  0.000000  0.395095 )  


     PseudoPot. # 1 for Sr read from file:
     /bsuhome/zayahcortright/q-e/pseudo/Sr_pbe_v1.uspp.F.UPF
     MD5 check sum: 6b418c05fbe9db5448babca5e47b7a5b
     Pseudo is Ultrasoft + core correction, Zval = 10.0
     Generated by new atomic code, or converted to UPF format
     Using radial grid of  883 points,  6 beta functions with: 
                l(1) =   0
                l(2) =   0
                l(3) =   1
                l(4) =   1
                l(5) =   2
                l(6) =   2
     Q(r) pseudized with  6 coefficients,  rinner =    1.400   1.400   1.400
                                                       1.400   1.400

     PseudoPot. # 2 for O  read from file:
     /bsuhome/zayahcortright/q-e/pseudo/O.pbe-n-kjpaw_psl.0.1.UPF
     MD5 check sum: 0234752ac141de4415c5fc33072bef88
     Pseudo is Projector augmented-wave + core cor, Zval =  6.0
     Generated using "atomic" code by A. Dal Corso  v.5.0.99 svn rev. 10869
     Shape of augmentation charge: BESSEL
     Using radial grid of 1095 points,  4 beta functions with: 
                l(1) =   0
                l(2) =   0
                l(3) =   1
                l(4) =   1
     Q(r) pseudized with 0 coefficients 


     PseudoPot. # 3 for Co read from file:
     /bsuhome/zayahcortright/q-e/pseudo/Co_pbe_v1.2.uspp.F.UPF
     MD5 check sum: 5f91765df6ddd3222702df6e7b74a16d
     Pseudo is Ultrasoft + core correction, Zval = 17.0
     Generated by new atomic code, or converted to UPF format
     Using radial grid of  863 points,  6 beta functions with: 
                l(1) =   0
                l(2) =   0
                l(3) =   1
                l(4) =   1
                l(5) =   2
                l(6) =   2
     Q(r) pseudized with  8 coefficients,  rinner =    1.200   1.200   1.200
                                                       1.200   1.200

     PseudoPot. # 4 for H  read from file:
     /bsuhome/zayahcortright/q-e/pseudo/H.pbe-rrkjus_psl.1.0.0.UPF
     MD5 check sum: f52b6d4d1c606e5624b1dc7b2218f220
     Pseudo is Ultrasoft, Zval =  1.0
     Generated using "atomic" code by A. Dal Corso  v.5.1
     Using radial grid of  929 points,  2 beta functions with: 
                l(1) =   0
                l(2) =   0
     Q(r) pseudized with 0 coefficients 


     atomic species   valence    mass     pseudopotential
        Sr            10.00    87.62000     Sr( 1.00)
        O              6.00    15.99900     O ( 1.00)
        Co            17.00    58.93319     Co( 1.00)
        H              1.00     1.00800     H ( 1.00)

     No symmetry found


                                    s                        frac. trans.

      isym =  1     identity                                     

 cryst.   s( 1) = (     1          0          0      )
                  (     0          1          0      )
                  (     0          0          1      )

 cart.    s( 1) = (  1.0000000  0.0000000  0.0000000 )
                  (  0.0000000  1.0000000  0.0000000 )
                  (  0.0000000  0.0000000  1.0000000 )


   Cartesian axes

     site n.     atom                  positions (alat units)
         1           Sr  tau(   1) = (   0.2508693   0.7491307   1.7574407  )
         2           O   tau(   2) = (   0.4985141   0.5014859   1.7715967  )
         3           Sr  tau(   3) = (   0.7482398   0.7454518   1.7648669  )
         4           Sr  tau(   4) = (   0.7441748   0.2558252   1.7667843  )
         5           Sr  tau(   5) = (   0.2508693   0.7491307   1.2696799  )
         6           Sr  tau(   6) = (   0.2508693   0.7491307   0.7632319  )
         7           Co  tau(   7) = (   0.4998914   0.5001086   1.0164559  )
         8           Co  tau(   8) = (   0.4936915   0.5063085   1.5135603  )
         9           O   tau(   9) = (   0.4988895   0.7610401   1.0164559  )
        10           O   tau(  10) = (   0.2389599   0.5011105   1.0164559  )
        11           O   tau(  11) = (   0.0070918   0.7374880   1.0164559  )
        12           O   tau(  12) = (   0.0088340   0.7405089   1.5135603  )
        13           O   tau(  13) = (   0.5066944   0.7415376   1.5135603  )
        14           O   tau(  14) = (   0.2584624   0.4933056   1.5135603  )
        15           O   tau(  15) = (   0.4985141   0.5014859   0.7773880  )
        16           O   tau(  16) = (   0.4985141   0.5014859   1.2555238  )
        17           Sr  tau(  17) = (   0.7482398   0.7454518   0.7706582  )
        18           Sr  tau(  18) = (   0.7482398   0.7454518   1.2622536  )
        19           Sr  tau(  19) = (   0.7441748   0.2558252   0.7725755  )
        20           Sr  tau(  20) = (   0.7441748   0.2558252   1.2603363  )
        21           O   tau(  21) = (   0.7322655   0.0078049   1.5135603  )
        22           O   tau(  22) = (   0.7558175   0.4996027   1.5135603  )
        23           O   tau(  23) = (   0.5003973   0.2441825   1.5135603  )
        24           O   tau(  24) = (   0.7527966   0.4978604   1.0164559  )
        25           O   tau(  25) = (   0.5021396   0.2472034   1.0164559  )
        26           O   tau(  26) = (   0.7517679   0.0000000   1.0164559  )
        27           O   tau(  27) = (   0.0114961   0.4948124   1.7455321  )
        28           O   tau(  28) = (   0.0048226   0.0077944   1.7715967  )
        29           Sr  tau(  29) = (   0.2545482   0.2517602   1.7648669  )
        30           O   tau(  30) = (   0.5048017   0.0015068   1.7786929  )
        31           Co  tau(  31) = (   0.0056869   0.5006215   1.0164559  )
        32           Co  tau(  32) = (   0.0065315   0.4997770   1.5135603  )
        33           Co  tau(  33) = (   0.0061999   0.0064171   1.0164559  )
        34           Co  tau(  34) = (   0.0000000   0.0126169   1.5135603  )
        35           O   tau(  35) = (   0.0114961   0.4948124   1.2815885  )
        36           O   tau(  36) = (   0.0114961   0.4948124   0.7513233  )
        37           O   tau(  37) = (   0.0051979   0.2673486   1.0164559  )
        38           O   tau(  38) = (   0.0130029   0.2478461   1.5135603  )
        39           O   tau(  39) = (   0.0048226   0.0077944   0.7773880  )
        40           O   tau(  40) = (   0.0048226   0.0077944   1.2555238  )
        41           Sr  tau(  41) = (   0.2545482   0.2517602   0.7706582  )
        42           Sr  tau(  42) = (   0.2545482   0.2517602   1.2622536  )
        43           Co  tau(  43) = (   0.4989925   0.0073160   1.5135603  )
        44           Co  tau(  44) = (   0.4998370   0.0064714   1.0164559  )
        45           O   tau(  45) = (   0.5048017   0.0015068   0.7844841  )
        46           O   tau(  46) = (   0.5048017   0.0015068   1.2484277  )
        47           O   tau(  47) = (   0.2621260   0.0059111   1.5135603  )
        48           O   tau(  48) = (   0.2591051   0.0041689   1.0164559  )
        49           O   tau(  49) = (   0.8529874   0.1421646   2.1602013  )
        50           O   tau(  50) = (   0.8529874   0.1421646   2.3186489  )
        51           H   tau(  51) = (   0.8529874   0.1421646   2.4431567  )

   Crystallographic axes

     site n.     atom                  positions (cryst. coord.)
         1           Sr  tau(   1) = (  0.2508693  0.7491307  0.6943562  )
         2           O   tau(   2) = (  0.4985141  0.5014859  0.6999492  )
         3           Sr  tau(   3) = (  0.7482398  0.7454518  0.6972903  )
         4           Sr  tau(   4) = (  0.7441748  0.2558252  0.6980478  )
         5           Sr  tau(   5) = (  0.2508693  0.7491307  0.5016443  )
         6           Sr  tau(   6) = (  0.2508693  0.7491307  0.3015492  )
         7           Co  tau(   7) = (  0.4998914  0.5001086  0.4015968  )
         8           Co  tau(   8) = (  0.4936915  0.5063085  0.5980003  )
         9           O   tau(   9) = (  0.4988895  0.7610401  0.4015968  )
        10           O   tau(  10) = (  0.2389599  0.5011105  0.4015968  )
        11           O   tau(  11) = (  0.0070918  0.7374880  0.4015968  )
        12           O   tau(  12) = (  0.0088340  0.7405089  0.5980003  )
        13           O   tau(  13) = (  0.5066944  0.7415376  0.5980003  )
        14           O   tau(  14) = (  0.2584624  0.4933056  0.5980003  )
        15           O   tau(  15) = (  0.4985141  0.5014859  0.3071422  )
        16           O   tau(  16) = (  0.4985141  0.5014859  0.4960513  )
        17           Sr  tau(  17) = (  0.7482398  0.7454518  0.3044833  )
        18           Sr  tau(  18) = (  0.7482398  0.7454518  0.4987103  )
        19           Sr  tau(  19) = (  0.7441748  0.2558252  0.3052408  )
        20           Sr  tau(  20) = (  0.7441748  0.2558252  0.4979527  )
        21           O   tau(  21) = (  0.7322655  0.0078049  0.5980003  )
        22           O   tau(  22) = (  0.7558175  0.4996027  0.5980003  )
        23           O   tau(  23) = (  0.5003973  0.2441825  0.5980003  )
        24           O   tau(  24) = (  0.7527966  0.4978604  0.4015968  )
        25           O   tau(  25) = (  0.5021396  0.2472034  0.4015968  )
        26           O   tau(  26) = (  0.7517679  0.0000000  0.4015968  )
        27           O   tau(  27) = (  0.0114961  0.4948124  0.6896512  )
        28           O   tau(  28) = (  0.0048226  0.0077944  0.6999492  )
        29           Sr  tau(  29) = (  0.2545482  0.2517602  0.6972903  )
        30           O   tau(  30) = (  0.5048017  0.0015068  0.7027529  )
        31           Co  tau(  31) = (  0.0056869  0.5006215  0.4015968  )
        32           Co  tau(  32) = (  0.0065315  0.4997770  0.5980003  )
        33           Co  tau(  33) = (  0.0061999  0.0064171  0.4015968  )
        34           Co  tau(  34) = (  0.0000000  0.0126169  0.5980003  )
        35           O   tau(  35) = (  0.0114961  0.4948124  0.5063494  )
        36           O   tau(  36) = (  0.0114961  0.4948124  0.2968442  )
        37           O   tau(  37) = (  0.0051979  0.2673486  0.4015968  )
        38           O   tau(  38) = (  0.0130029  0.2478461  0.5980003  )
        39           O   tau(  39) = (  0.0048226  0.0077944  0.3071422  )
        40           O   tau(  40) = (  0.0048226  0.0077944  0.4960513  )
        41           Sr  tau(  41) = (  0.2545482  0.2517602  0.3044833  )
        42           Sr  tau(  42) = (  0.2545482  0.2517602  0.4987103  )
        43           Co  tau(  43) = (  0.4989925  0.0073160  0.5980003  )
        44           Co  tau(  44) = (  0.4998370  0.0064714  0.4015968  )
        45           O   tau(  45) = (  0.5048017  0.0015068  0.3099459  )
        46           O   tau(  46) = (  0.5048017  0.0015068  0.4932477  )
        47           O   tau(  47) = (  0.2621260  0.0059111  0.5980003  )
        48           O   tau(  48) = (  0.2591051  0.0041689  0.4015968  )
        49           O   tau(  49) = (  0.8529874  0.1421646  0.8534850  )
        50           O   tau(  50) = (  0.8529874  0.1421646  0.9160869  )
        51           H   tau(  51) = (  0.8529874  0.1421646  0.9652793  )

     number of k points=    10  Gaussian smearing, width (Ry)=  0.0700
                       cart. coord. in units 2pi/alat
        k(    1) = (   0.0000000   0.0000000   0.0000000), wk =   0.1250000
        k(    2) = (   0.0000000   0.2500000   0.0000000), wk =   0.2500000
        k(    3) = (   0.0000000  -0.5000000   0.0000000), wk =   0.1250000
        k(    4) = (   0.2500000   0.2500000   0.0000000), wk =   0.2500000
        k(    5) = (   0.2500000  -0.5000000   0.0000000), wk =   0.2500000
        k(    6) = (  -0.5000000  -0.5000000   0.0000000), wk =   0.1250000
        k(    7) = (   0.2500000   0.0000000   0.0000000), wk =   0.2500000
        k(    8) = (  -0.5000000   0.0000000   0.0000000), wk =   0.1250000
        k(    9) = (  -0.2500000   0.2500000   0.0000000), wk =   0.2500000
        k(   10) = (  -0.5000000   0.2500000   0.0000000), wk =   0.2500000

                       cryst. coord.
        k(    1) = (   0.0000000   0.0000000   0.0000000), wk =   0.1250000
        k(    2) = (   0.0000000   0.2500000   0.0000000), wk =   0.2500000
        k(    3) = (   0.0000000  -0.5000000   0.0000000), wk =   0.1250000
        k(    4) = (   0.2500000   0.2500000   0.0000000), wk =   0.2500000
        k(    5) = (   0.2500000  -0.5000000   0.0000000), wk =   0.2500000
        k(    6) = (  -0.5000000  -0.5000000   0.0000000), wk =   0.1250000
        k(    7) = (   0.2500000   0.0000000   0.0000000), wk =   0.2500000
        k(    8) = (  -0.5000000   0.0000000   0.0000000), wk =   0.1250000
        k(    9) = (  -0.2500000   0.2500000   0.0000000), wk =   0.2500000
        k(   10) = (  -0.5000000   0.2500000   0.0000000), wk =   0.2500000

     Dense  grid:  1474595 G-vectors     FFT dimensions: ( 108, 108, 270)

     Smooth grid:   521381 G-vectors     FFT dimensions: (  75,  75, 192)

     Dynamical RAM for                 wfc:      10.90 MB

     Dynamical RAM for     wfc (w. buffer):      65.37 MB

     Dynamical RAM for           str. fact:       3.75 MB

     Dynamical RAM for           local pot:       0.00 MB

     Dynamical RAM for          nlocal pot:      24.94 MB

     Dynamical RAM for                qrad:       7.03 MB

     Dynamical RAM for          rho,v,vnew:       6.02 MB

     Dynamical RAM for               rhoin:       2.01 MB

     Dynamical RAM for            rho*nmix:      15.00 MB

     Dynamical RAM for           G-vectors:       3.68 MB

     Dynamical RAM for          h,s,v(r/c):       1.40 MB

     Dynamical RAM for          <psi|beta>:       2.42 MB

     Dynamical RAM for                 psi:      21.79 MB

     Dynamical RAM for                hpsi:      21.79 MB

     Dynamical RAM for                spsi:      21.79 MB

     Dynamical RAM for      wfcinit/wfcrot:      34.89 MB

     Dynamical RAM for           addusdens:     101.73 MB

     Estimated static dynamical RAM per process >     122.82 MB

     Estimated max dynamical RAM per process >     239.55 MB

     Estimated total dynamical RAM >      10.88 GB

     Check: negative core charge=   -0.000004

     Initial potential from superposition of free atoms

     starting charge     428.5961, renormalised to     437.0000

     negative rho (up, down):  7.813E-01 0.000E+00
     Starting wfcs are  381 randomized atomic wfcs
     Checking if some PAW data can be deallocated... 
       PAW data deallocated on   18 nodes for type:  2

     total cpu time spent up to now is        9.9 secs

     Self-consistent Calculation

     iteration #  1     ecut=    60.00 Ry     beta= 0.15
     Davidson diagonalization with overlap

---- Real-time Memory Report at c_bands before calling an iterative solver
             0 MiB given to the printing process from OS
             0 MiB allocation reported by mallinfo(arena+hblkhd)
         32089 MiB available memory on the node where the printing process lives
------------------
     ethr =  1.00E-02,  avg # of iterations =  2.0

     negative rho (up, down):  7.715E-01 0.000E+00

     total cpu time spent up to now is       25.8 secs

     total energy              =   -4489.28240345 Ry
     estimated scf accuracy    <      49.70653435 Ry

     iteration #  2     ecut=    60.00 Ry     beta= 0.15
     Davidson diagonalization with overlap

---- Real-time Memory Report at c_bands before calling an iterative solver
             0 MiB given to the printing process from OS
             0 MiB allocation reported by mallinfo(arena+hblkhd)
         32446 MiB available memory on the node where the printing process lives
------------------
     ethr =  1.00E-02,  avg # of iterations =  1.0

     negative rho (up, down):  7.612E-01 0.000E+00

     total cpu time spent up to now is       39.1 secs

     total energy              =   -4486.79641438 Ry
     estimated scf accuracy    <      35.27140647 Ry

     iteration #  3     ecut=    60.00 Ry     beta= 0.15
     Davidson diagonalization with overlap

---- Real-time Memory Report at c_bands before calling an iterative solver
             0 MiB given to the printing process from OS
             0 MiB allocation reported by mallinfo(arena+hblkhd)
         31701 MiB available memory on the node where the printing process lives
------------------
     ethr =  8.07E-03,  avg # of iterations =  1.0

     negative rho (up, down):  7.562E-01 0.000E+00

     total cpu time spent up to now is       52.3 secs

     total energy              =   -4486.77007665 Ry
     estimated scf accuracy    <      35.40426261 Ry

     iteration #  4     ecut=    60.00 Ry     beta= 0.15
     Davidson diagonalization with overlap

---- Real-time Memory Report at c_bands before calling an iterative solver
             0 MiB given to the printing process from OS
             0 MiB allocation reported by mallinfo(arena+hblkhd)
         31692 MiB available memory on the node where the printing process lives
------------------
     ethr =  8.07E-03,  avg # of iterations =  1.0

     negative rho (up, down):  7.575E-01 0.000E+00

     total cpu time spent up to now is       65.5 secs

     total energy              =   -4486.59050907 Ry
     estimated scf accuracy    <      34.23346077 Ry

     iteration #  5     ecut=    60.00 Ry     beta= 0.15
     Davidson diagonalization with overlap

---- Real-time Memory Report at c_bands before calling an iterative solver
             0 MiB given to the printing process from OS
             0 MiB allocation reported by mallinfo(arena+hblkhd)
         31678 MiB available memory on the node where the printing process lives
------------------
     ethr =  7.83E-03,  avg # of iterations =  1.0

     negative rho (up, down):  7.339E-01 0.000E+00

     total cpu time spent up to now is       78.5 secs

     total energy              =   -4482.53992387 Ry
     estimated scf accuracy    <      22.68098725 Ry

     iteration #  6     ecut=    60.00 Ry     beta= 0.15
     Davidson diagonalization with overlap

---- Real-time Memory Report at c_bands before calling an iterative solver
             0 MiB given to the printing process from OS
             0 MiB allocation reported by mallinfo(arena+hblkhd)
         31660 MiB available memory on the node where the printing process lives
------------------
     ethr =  5.19E-03,  avg # of iterations =  2.0

     negative rho (up, down):  7.488E-01 0.000E+00

     total cpu time spent up to now is       93.0 secs

     total energy              =   -4483.64627046 Ry
     estimated scf accuracy    <      34.92913558 Ry

     iteration #  7     ecut=    60.00 Ry     beta= 0.15
     Davidson diagonalization with overlap

---- Real-time Memory Report at c_bands before calling an iterative solver
             0 MiB given to the printing process from OS
             0 MiB allocation reported by mallinfo(arena+hblkhd)
         31643 MiB available memory on the node where the printing process lives
------------------
     ethr =  5.19E-03,  avg # of iterations =  1.0

     negative rho (up, down):  7.538E-01 0.000E+00

     total cpu time spent up to now is      106.4 secs

     total energy              =   -4483.60750678 Ry
     estimated scf accuracy    <      35.68848950 Ry

     iteration #  8     ecut=    60.00 Ry     beta= 0.15
     Davidson diagonalization with overlap

---- Real-time Memory Report at c_bands before calling an iterative solver
             0 MiB given to the printing process from OS
             0 MiB allocation reported by mallinfo(arena+hblkhd)
         31615 MiB available memory on the node where the printing process lives
------------------
     ethr =  5.19E-03,  avg # of iterations =  1.0

     negative rho (up, down):  7.514E-01 0.000E+00

     total cpu time spent up to now is      119.4 secs

     total energy              =   -4483.84119996 Ry
     estimated scf accuracy    <       6.15442381 Ry

     iteration #  9     ecut=    60.00 Ry     beta= 0.15
     Davidson diagonalization with overlap

---- Real-time Memory Report at c_bands before calling an iterative solver
             0 MiB given to the printing process from OS
             0 MiB allocation reported by mallinfo(arena+hblkhd)
         31600 MiB available memory on the node where the printing process lives
------------------
     ethr =  1.41E-03,  avg # of iterations =  4.0

     negative rho (up, down):  7.660E-01 0.000E+00

     total cpu time spent up to now is      135.0 secs

     total energy              =   -4483.74214714 Ry
     estimated scf accuracy    <       3.67368653 Ry

     iteration # 10     ecut=    60.00 Ry     beta= 0.15
     Davidson diagonalization with overlap

---- Real-time Memory Report at c_bands before calling an iterative solver
             0 MiB given to the printing process from OS
             0 MiB allocation reported by mallinfo(arena+hblkhd)
         31568 MiB available memory on the node where the printing process lives
------------------
     ethr =  8.41E-04,  avg # of iterations =  9.7

     negative rho (up, down):  7.885E-01 0.000E+00

     total cpu time spent up to now is      154.2 secs

     total energy              =   -4483.51441408 Ry
     estimated scf accuracy    <       4.46371483 Ry

     iteration # 11     ecut=    60.00 Ry     beta= 0.15
     Davidson diagonalization with overlap

---- Real-time Memory Report at c_bands before calling an iterative solver
             0 MiB given to the printing process from OS
             0 MiB allocation reported by mallinfo(arena+hblkhd)
         31179 MiB available memory on the node where the printing process lives
------------------
     ethr =  8.41E-04,  avg # of iterations =  6.6

     negative rho (up, down):  7.913E-01 0.000E+00

     total cpu time spent up to now is      171.5 secs

     total energy              =   -4483.19499373 Ry
     estimated scf accuracy    <       4.21184591 Ry

     iteration # 12     ecut=    60.00 Ry     beta= 0.15
     Davidson diagonalization with overlap

---- Real-time Memory Report at c_bands before calling an iterative solver
             0 MiB given to the printing process from OS
             0 MiB allocation reported by mallinfo(arena+hblkhd)
         31134 MiB available memory on the node where the printing process lives
------------------
     ethr =  8.41E-04,  avg # of iterations =  8.6

     negative rho (up, down):  8.015E-01 0.000E+00

     total cpu time spent up to now is      189.3 secs

     total energy              =   -4483.21657489 Ry
     estimated scf accuracy    <       2.07314291 Ry

     iteration # 13     ecut=    60.00 Ry     beta= 0.15
     Davidson diagonalization with overlap

---- Real-time Memory Report at c_bands before calling an iterative solver
             0 MiB given to the printing process from OS
             0 MiB allocation reported by mallinfo(arena+hblkhd)
         31111 MiB available memory on the node where the printing process lives
------------------
     ethr =  4.74E-04,  avg # of iterations =  4.0

     negative rho (up, down):  8.038E-01 0.000E+00

     total cpu time spent up to now is      204.8 secs

     total energy              =   -4483.25157019 Ry
     estimated scf accuracy    <       1.02989092 Ry

     iteration # 14     ecut=    60.00 Ry     beta= 0.15
     Davidson diagonalization with overlap

---- Real-time Memory Report at c_bands before calling an iterative solver
             0 MiB given to the printing process from OS
             0 MiB allocation reported by mallinfo(arena+hblkhd)
         31113 MiB available memory on the node where the printing process lives
------------------
     ethr =  2.36E-04,  avg # of iterations =  8.0

     negative rho (up, down):  8.160E-01 0.000E+00

     total cpu time spent up to now is      222.0 secs

     total energy              =   -4483.10840610 Ry
     estimated scf accuracy    <       0.69534792 Ry

     iteration # 15     ecut=    60.00 Ry     beta= 0.15
     Davidson diagonalization with overlap

---- Real-time Memory Report at c_bands before calling an iterative solver
             0 MiB given to the printing process from OS
             0 MiB allocation reported by mallinfo(arena+hblkhd)
         31098 MiB available memory on the node where the printing process lives
------------------
     c_bands:  1 eigenvalues not converged
     ethr =  1.59E-04,  avg # of iterations =  7.6

     negative rho (up, down):  8.188E-01 0.000E+00

     total cpu time spent up to now is      239.1 secs

     total energy              =   -4483.13796863 Ry
     estimated scf accuracy    <       3.38361344 Ry

     iteration # 16     ecut=    60.00 Ry     beta= 0.15
     Davidson diagonalization with overlap

---- Real-time Memory Report at c_bands before calling an iterative solver
             0 MiB given to the printing process from OS
             0 MiB allocation reported by mallinfo(arena+hblkhd)
         31031 MiB available memory on the node where the printing process lives
------------------
     ethr =  1.59E-04,  avg # of iterations =  3.2

     negative rho (up, down):  8.150E-01 0.000E+00

     total cpu time spent up to now is      254.1 secs

     total energy              =   -4483.10729112 Ry
     estimated scf accuracy    <       1.35302343 Ry

     iteration # 17     ecut=    60.00 Ry     beta= 0.15
     Davidson diagonalization with overlap

---- Real-time Memory Report at c_bands before calling an iterative solver
             0 MiB given to the printing process from OS
             0 MiB allocation reported by mallinfo(arena+hblkhd)
         31051 MiB available memory on the node where the printing process lives
------------------
     ethr =  1.59E-04,  avg # of iterations =  1.8

     negative rho (up, down):  8.195E-01 0.000E+00

     total cpu time spent up to now is      269.2 secs

     total energy              =   -4483.05493965 Ry
     estimated scf accuracy    <       0.37939422 Ry

     iteration # 18     ecut=    60.00 Ry     beta= 0.15
     Davidson diagonalization with overlap

---- Real-time Memory Report at c_bands before calling an iterative solver
             0 MiB given to the printing process from OS
             0 MiB allocation reported by mallinfo(arena+hblkhd)
         31050 MiB available memory on the node where the printing process lives
------------------
     ethr =  8.68E-05,  avg # of iterations = 13.7

     negative rho (up, down):  8.201E-01 0.000E+00

     total cpu time spent up to now is      289.7 secs

     total energy              =   -4483.03735659 Ry
     estimated scf accuracy    <       1.53800305 Ry

     iteration # 19     ecut=    60.00 Ry     beta= 0.15
     Davidson diagonalization with overlap

---- Real-time Memory Report at c_bands before calling an iterative solver
             0 MiB given to the printing process from OS
             0 MiB allocation reported by mallinfo(arena+hblkhd)
         30988 MiB available memory on the node where the printing process lives
------------------
     ethr =  8.68E-05,  avg # of iterations =  2.1

     negative rho (up, down):  8.292E-01 0.000E+00

     total cpu time spent up to now is      304.2 secs

     total energy              =   -4483.03184436 Ry
     estimated scf accuracy    <       0.49167432 Ry

     iteration # 20     ecut=    60.00 Ry     beta= 0.15
     Davidson diagonalization with overlap

---- Real-time Memory Report at c_bands before calling an iterative solver
             0 MiB given to the printing process from OS
             0 MiB allocation reported by mallinfo(arena+hblkhd)
         30994 MiB available memory on the node where the printing process lives
------------------
     ethr =  8.68E-05,  avg # of iterations =  5.2

     negative rho (up, down):  8.253E-01 0.000E+00

     total cpu time spent up to now is      320.7 secs

     total energy              =   -4482.99236733 Ry
     estimated scf accuracy    <       0.83356812 Ry

     iteration # 21     ecut=    60.00 Ry     beta= 0.15
     Davidson diagonalization with overlap

---- Real-time Memory Report at c_bands before calling an iterative solver
             0 MiB given to the printing process from OS
             0 MiB allocation reported by mallinfo(arena+hblkhd)
         30988 MiB available memory on the node where the printing process lives
------------------
     ethr =  8.68E-05,  avg # of iterations =  7.5

     negative rho (up, down):  8.425E-01 0.000E+00

     total cpu time spent up to now is      338.7 secs

     total energy              =   -4482.98262180 Ry
     estimated scf accuracy    <       0.19185798 Ry

     iteration # 22     ecut=    60.00 Ry     beta= 0.15
     Davidson diagonalization with overlap

---- Real-time Memory Report at c_bands before calling an iterative solver
             0 MiB given to the printing process from OS
             0 MiB allocation reported by mallinfo(arena+hblkhd)
         30955 MiB available memory on the node where the printing process lives
------------------
     ethr =  4.39E-05,  avg # of iterations = 10.7

     negative rho (up, down):  8.472E-01 0.000E+00

     total cpu time spent up to now is      358.3 secs

     total energy              =   -4482.98188732 Ry
     estimated scf accuracy    <       0.05095357 Ry

     iteration # 23     ecut=    60.00 Ry     beta= 0.15
     Davidson diagonalization with overlap

---- Real-time Memory Report at c_bands before calling an iterative solver
             0 MiB given to the printing process from OS
             0 MiB allocation reported by mallinfo(arena+hblkhd)
         30891 MiB available memory on the node where the printing process lives
------------------
     c_bands:  1 eigenvalues not converged
     ethr =  1.17E-05,  avg # of iterations = 11.2

     negative rho (up, down):  8.304E-01 0.000E+00

     total cpu time spent up to now is      377.8 secs

     total energy              =   -4482.97779661 Ry
     estimated scf accuracy    <       0.02980180 Ry

     iteration # 24     ecut=    60.00 Ry     beta= 0.15
     Davidson diagonalization with overlap

---- Real-time Memory Report at c_bands before calling an iterative solver
             0 MiB given to the printing process from OS
             0 MiB allocation reported by mallinfo(arena+hblkhd)
         30835 MiB available memory on the node where the printing process lives
------------------
     ethr =  6.82E-06,  avg # of iterations = 10.5

     negative rho (up, down):  8.207E-01 0.000E+00

     total cpu time spent up to now is      397.1 secs

     total energy              =   -4482.97748451 Ry
     estimated scf accuracy    <       0.01747911 Ry

     iteration # 25     ecut=    60.00 Ry     beta= 0.15
     Davidson diagonalization with overlap

---- Real-time Memory Report at c_bands before calling an iterative solver
             0 MiB given to the printing process from OS
             0 MiB allocation reported by mallinfo(arena+hblkhd)
         30798 MiB available memory on the node where the printing process lives
------------------
     ethr =  4.00E-06,  avg # of iterations =  2.9

     negative rho (up, down):  8.125E-01 0.000E+00

     total cpu time spent up to now is      412.3 secs

     total energy              =   -4482.97556907 Ry
     estimated scf accuracy    <       0.01241067 Ry

     iteration # 26     ecut=    60.00 Ry     beta= 0.15
     Davidson diagonalization with overlap

---- Real-time Memory Report at c_bands before calling an iterative solver
             0 MiB given to the printing process from OS
             0 MiB allocation reported by mallinfo(arena+hblkhd)
         30812 MiB available memory on the node where the printing process lives
------------------
     ethr =  2.84E-06,  avg # of iterations =  7.8

     negative rho (up, down):  7.974E-01 0.000E+00

     total cpu time spent up to now is      430.7 secs

     total energy              =   -4482.97445002 Ry
     estimated scf accuracy    <       0.00560581 Ry

     iteration # 27     ecut=    60.00 Ry     beta= 0.15
     Davidson diagonalization with overlap

---- Real-time Memory Report at c_bands before calling an iterative solver
             0 MiB given to the printing process from OS
             0 MiB allocation reported by mallinfo(arena+hblkhd)
         30788 MiB available memory on the node where the printing process lives
------------------
     ethr =  1.28E-06,  avg # of iterations =  9.0

     negative rho (up, down):  8.000E-01 0.000E+00

     total cpu time spent up to now is      451.0 secs

     total energy              =   -4482.97474311 Ry
     estimated scf accuracy    <       0.00203861 Ry

     iteration # 28     ecut=    60.00 Ry     beta= 0.15
     Davidson diagonalization with overlap

---- Real-time Memory Report at c_bands before calling an iterative solver
             0 MiB given to the printing process from OS
             0 MiB allocation reported by mallinfo(arena+hblkhd)
         30640 MiB available memory on the node where the printing process lives
------------------
     ethr =  4.67E-07,  avg # of iterations =  7.0

     negative rho (up, down):  7.961E-01 0.000E+00

     total cpu time spent up to now is      469.0 secs

     total energy              =   -4482.97476764 Ry
     estimated scf accuracy    <       0.00110844 Ry

     iteration # 29     ecut=    60.00 Ry     beta= 0.15
     Davidson diagonalization with overlap

---- Real-time Memory Report at c_bands before calling an iterative solver
             0 MiB given to the printing process from OS
             0 MiB allocation reported by mallinfo(arena+hblkhd)
         30642 MiB available memory on the node where the printing process lives
------------------
     ethr =  2.54E-07,  avg # of iterations =  4.8

     negative rho (up, down):  7.921E-01 0.000E+00

     total cpu time spent up to now is      485.2 secs

     total energy              =   -4482.97461385 Ry
     estimated scf accuracy    <       0.00069190 Ry

     iteration # 30     ecut=    60.00 Ry     beta= 0.15
     Davidson diagonalization with overlap

---- Real-time Memory Report at c_bands before calling an iterative solver
             0 MiB given to the printing process from OS
             0 MiB allocation reported by mallinfo(arena+hblkhd)
         30644 MiB available memory on the node where the printing process lives
------------------
     ethr =  1.58E-07,  avg # of iterations =  7.8

     negative rho (up, down):  7.920E-01 0.000E+00

     total cpu time spent up to now is      503.5 secs

     total energy              =   -4482.97464698 Ry
     estimated scf accuracy    <       0.00023768 Ry

     iteration # 31     ecut=    60.00 Ry     beta= 0.15
     Davidson diagonalization with overlap

---- Real-time Memory Report at c_bands before calling an iterative solver
             0 MiB given to the printing process from OS
             0 MiB allocation reported by mallinfo(arena+hblkhd)
         30630 MiB available memory on the node where the printing process lives
------------------
     ethr =  5.44E-08,  avg # of iterations =  3.8

     negative rho (up, down):  7.923E-01 0.000E+00

     total cpu time spent up to now is      519.2 secs

     total energy              =   -4482.97462219 Ry
     estimated scf accuracy    <       0.00013623 Ry

     iteration # 32     ecut=    60.00 Ry     beta= 0.15
     Davidson diagonalization with overlap

---- Real-time Memory Report at c_bands before calling an iterative solver
             0 MiB given to the printing process from OS
             0 MiB allocation reported by mallinfo(arena+hblkhd)
         30662 MiB available memory on the node where the printing process lives
------------------
     ethr =  3.12E-08,  avg # of iterations =  5.3

     negative rho (up, down):  7.924E-01 0.000E+00

     total cpu time spent up to now is      535.9 secs

     total energy              =   -4482.97461816 Ry
     estimated scf accuracy    <       0.00006799 Ry

     iteration # 33     ecut=    60.00 Ry     beta= 0.15
     Davidson diagonalization with overlap

---- Real-time Memory Report at c_bands before calling an iterative solver
             0 MiB given to the printing process from OS
             0 MiB allocation reported by mallinfo(arena+hblkhd)
         30608 MiB available memory on the node where the printing process lives
------------------
     ethr =  1.56E-08,  avg # of iterations =  3.6

     negative rho (up, down):  7.924E-01 0.000E+00

     total cpu time spent up to now is      551.4 secs

     total energy              =   -4482.97462535 Ry
     estimated scf accuracy    <       0.00004821 Ry

     iteration # 34     ecut=    60.00 Ry     beta= 0.15
     Davidson diagonalization with overlap

---- Real-time Memory Report at c_bands before calling an iterative solver
             0 MiB given to the printing process from OS
             0 MiB allocation reported by mallinfo(arena+hblkhd)
         30634 MiB available memory on the node where the printing process lives
------------------
     ethr =  1.10E-08,  avg # of iterations =  2.0

     negative rho (up, down):  7.923E-01 0.000E+00

     total cpu time spent up to now is      566.2 secs

     total energy              =   -4482.97463889 Ry
     estimated scf accuracy    <       0.00003577 Ry

     iteration # 35     ecut=    60.00 Ry     beta= 0.15
     Davidson diagonalization with overlap

---- Real-time Memory Report at c_bands before calling an iterative solver
             0 MiB given to the printing process from OS
             0 MiB allocation reported by mallinfo(arena+hblkhd)
         30637 MiB available memory on the node where the printing process lives
------------------
     ethr =  8.18E-09,  avg # of iterations =  3.8

     negative rho (up, down):  7.924E-01 0.000E+00

     total cpu time spent up to now is      582.0 secs

     total energy              =   -4482.97464829 Ry
     estimated scf accuracy    <       0.00002281 Ry

     iteration # 36     ecut=    60.00 Ry     beta= 0.15
     Davidson diagonalization with overlap

---- Real-time Memory Report at c_bands before calling an iterative solver
             0 MiB given to the printing process from OS
             0 MiB allocation reported by mallinfo(arena+hblkhd)
         30646 MiB available memory on the node where the printing process lives
------------------
     ethr =  5.22E-09,  avg # of iterations =  4.3

     negative rho (up, down):  7.925E-01 0.000E+00

     total cpu time spent up to now is      597.8 secs

     total energy              =   -4482.97464785 Ry
     estimated scf accuracy    <       0.00001500 Ry

     iteration # 37     ecut=    60.00 Ry     beta= 0.15
     Davidson diagonalization with overlap

---- Real-time Memory Report at c_bands before calling an iterative solver
             0 MiB given to the printing process from OS
             0 MiB allocation reported by mallinfo(arena+hblkhd)
         30649 MiB available memory on the node where the printing process lives
------------------
     ethr =  3.43E-09,  avg # of iterations =  3.8

     negative rho (up, down):  7.925E-01 0.000E+00

     total cpu time spent up to now is      613.3 secs

     total energy              =   -4482.97465167 Ry
     estimated scf accuracy    <       0.00001126 Ry

     iteration # 38     ecut=    60.00 Ry     beta= 0.15
     Davidson diagonalization with overlap

---- Real-time Memory Report at c_bands before calling an iterative solver
             0 MiB given to the printing process from OS
             0 MiB allocation reported by mallinfo(arena+hblkhd)
         30653 MiB available memory on the node where the printing process lives
------------------
     ethr =  2.58E-09,  avg # of iterations =  4.9

     negative rho (up, down):  7.925E-01 0.000E+00

     total cpu time spent up to now is      629.7 secs

     total energy              =   -4482.97465311 Ry
     estimated scf accuracy    <       0.00000402 Ry

     iteration # 39     ecut=    60.00 Ry     beta= 0.15
     Davidson diagonalization with overlap

---- Real-time Memory Report at c_bands before calling an iterative solver
             0 MiB given to the printing process from OS
             0 MiB allocation reported by mallinfo(arena+hblkhd)
         30656 MiB available memory on the node where the printing process lives
------------------
     ethr =  9.20E-10,  avg # of iterations =  3.8

     negative rho (up, down):  7.925E-01 0.000E+00

     total cpu time spent up to now is      645.1 secs

     total energy              =   -4482.97465302 Ry
     estimated scf accuracy    <       0.00000347 Ry

     iteration # 40     ecut=    60.00 Ry     beta= 0.15
     Davidson diagonalization with overlap

---- Real-time Memory Report at c_bands before calling an iterative solver
             0 MiB given to the printing process from OS
             0 MiB allocation reported by mallinfo(arena+hblkhd)
         30650 MiB available memory on the node where the printing process lives
------------------
     ethr =  7.94E-10,  avg # of iterations =  4.5

     negative rho (up, down):  7.924E-01 0.000E+00

     total cpu time spent up to now is      661.0 secs

     total energy              =   -4482.97465269 Ry
     estimated scf accuracy    <       0.00000202 Ry

     iteration # 41     ecut=    60.00 Ry     beta= 0.15
     Davidson diagonalization with overlap

---- Real-time Memory Report at c_bands before calling an iterative solver
             0 MiB given to the printing process from OS
             0 MiB allocation reported by mallinfo(arena+hblkhd)
         30645 MiB available memory on the node where the printing process lives
------------------
     ethr =  4.63E-10,  avg # of iterations =  5.5

     negative rho (up, down):  7.923E-01 0.000E+00

     total cpu time spent up to now is      677.5 secs

     total energy              =   -4482.97465290 Ry
     estimated scf accuracy    <       0.00000068 Ry

     iteration # 42     ecut=    60.00 Ry     beta= 0.15
     Davidson diagonalization with overlap

---- Real-time Memory Report at c_bands before calling an iterative solver
             0 MiB given to the printing process from OS
             0 MiB allocation reported by mallinfo(arena+hblkhd)
         30641 MiB available memory on the node where the printing process lives
------------------
     ethr =  1.56E-10,  avg # of iterations =  2.3

     negative rho (up, down):  7.923E-01 0.000E+00

     total cpu time spent up to now is      692.3 secs

     total energy              =   -4482.97465305 Ry
     estimated scf accuracy    <       0.00000043 Ry

     iteration # 43     ecut=    60.00 Ry     beta= 0.15
     Davidson diagonalization with overlap

---- Real-time Memory Report at c_bands before calling an iterative solver
             0 MiB given to the printing process from OS
             0 MiB allocation reported by mallinfo(arena+hblkhd)
         30648 MiB available memory on the node where the printing process lives
------------------
     ethr =  9.73E-11,  avg # of iterations =  3.0

     negative rho (up, down):  7.923E-01 0.000E+00

     total cpu time spent up to now is      707.7 secs

     total energy              =   -4482.97465355 Ry
     estimated scf accuracy    <       0.00000032 Ry

     iteration # 44     ecut=    60.00 Ry     beta= 0.15
     Davidson diagonalization with overlap

---- Real-time Memory Report at c_bands before calling an iterative solver
             0 MiB given to the printing process from OS
             0 MiB allocation reported by mallinfo(arena+hblkhd)
         30661 MiB available memory on the node where the printing process lives
------------------
     ethr =  7.41E-11,  avg # of iterations =  4.9

     negative rho (up, down):  7.923E-01 0.000E+00

     total cpu time spent up to now is      723.9 secs

     total energy              =   -4482.97465376 Ry
     estimated scf accuracy    <       0.00000025 Ry

     iteration # 45     ecut=    60.00 Ry     beta= 0.15
     Davidson diagonalization with overlap

---- Real-time Memory Report at c_bands before calling an iterative solver
             0 MiB given to the printing process from OS
             0 MiB allocation reported by mallinfo(arena+hblkhd)
         30668 MiB available memory on the node where the printing process lives
------------------
     ethr =  5.64E-11,  avg # of iterations =  4.7

     negative rho (up, down):  7.923E-01 0.000E+00

     total cpu time spent up to now is      739.8 secs

     total energy              =   -4482.97465385 Ry
     estimated scf accuracy    <       0.00000016 Ry

     iteration # 46     ecut=    60.00 Ry     beta= 0.15
     Davidson diagonalization with overlap

---- Real-time Memory Report at c_bands before calling an iterative solver
             0 MiB given to the printing process from OS
             0 MiB allocation reported by mallinfo(arena+hblkhd)
         30686 MiB available memory on the node where the printing process lives
------------------
     ethr =  3.60E-11,  avg # of iterations =  4.9

     negative rho (up, down):  7.923E-01 0.000E+00

     total cpu time spent up to now is      755.8 secs

     total energy              =   -4482.97465389 Ry
     estimated scf accuracy    <       0.00000011 Ry

     iteration # 47     ecut=    60.00 Ry     beta= 0.15
     Davidson diagonalization with overlap

---- Real-time Memory Report at c_bands before calling an iterative solver
             0 MiB given to the printing process from OS
             0 MiB allocation reported by mallinfo(arena+hblkhd)
         30700 MiB available memory on the node where the printing process lives
------------------
     ethr =  2.41E-11,  avg # of iterations =  5.3

     negative rho (up, down):  7.923E-01 0.000E+00

     total cpu time spent up to now is      772.2 secs

     total energy              =   -4482.97465388 Ry
     estimated scf accuracy    <       0.00000004 Ry

     iteration # 48     ecut=    60.00 Ry     beta= 0.15
     Davidson diagonalization with overlap

---- Real-time Memory Report at c_bands before calling an iterative solver
             0 MiB given to the printing process from OS
             0 MiB allocation reported by mallinfo(arena+hblkhd)
         30693 MiB available memory on the node where the printing process lives
------------------
     ethr =  8.58E-12,  avg # of iterations =  5.0

     negative rho (up, down):  7.923E-01 0.000E+00

     total cpu time spent up to now is      788.2 secs

     total energy              =   -4482.97465389 Ry
     estimated scf accuracy    <       0.00000002 Ry

     iteration # 49     ecut=    60.00 Ry     beta= 0.15
     Davidson diagonalization with overlap

---- Real-time Memory Report at c_bands before calling an iterative solver
             0 MiB given to the printing process from OS
             0 MiB allocation reported by mallinfo(arena+hblkhd)
         30693 MiB available memory on the node where the printing process lives
------------------
     ethr =  3.50E-12,  avg # of iterations =  4.6

     negative rho (up, down):  7.923E-01 0.000E+00

     total cpu time spent up to now is      803.7 secs

     End of self-consistent calculation

          k = 0.0000 0.0000 0.0000 ( 65197 PWs)   bands (ev):

   -92.3395 -92.2845 -92.1933 -92.1449 -92.0852 -92.0457 -92.0285 -91.9064
   -55.6926 -55.6708 -55.5512 -55.5406 -55.5332 -55.5273 -55.4895 -55.4629
   -55.4466 -55.4447 -55.4357 -55.3936 -55.3759 -55.3372 -55.3192 -55.2849
   -55.2802 -55.2347 -55.2329 -55.2315 -55.2230 -55.1810 -55.1593 -55.0731
   -30.9266 -30.9077 -30.7990 -30.7666 -30.6799 -30.6329 -30.5514 -30.4859
   -29.4907 -29.4482 -29.4214 -29.3130 -22.2534 -14.7247 -14.6889 -14.6023
   -14.4722 -14.2883 -14.1663 -13.8646 -13.8500 -13.8168 -13.7814 -13.7700
   -13.7318 -13.7220 -13.7064 -13.6915 -13.6760 -13.6297 -13.5744 -13.4258
   -13.2550 -13.2153 -13.1823 -13.1557 -13.1369 -13.0906 -13.0522 -12.9736
   -12.9007 -12.8061 -12.7920 -12.7595 -12.7474 -12.7244 -12.7059 -12.6781
   -12.6526 -12.6413 -12.6094 -12.5892 -12.5836 -12.5683 -12.5430 -12.5317
   -12.4845 -12.4642 -12.4457 -12.4057 -12.3641 -12.3518 -11.9917 -11.8469
   -11.7218 -11.6495 -11.5049 -11.4303 -11.4188 -11.3971 -11.3794 -11.3152
   -11.2977 -11.2637 -11.2340 -11.1229 -11.0424 -11.0389  -5.9089  -3.1565
    -3.1527  -2.5850  -2.3515  -2.1220  -1.9763  -1.9118  -1.7690  -1.4630
    -1.4487  -1.4274  -1.3457  -1.3269  -1.2587  -1.2434  -1.2011  -1.1556
    -0.9755  -0.7530  -0.7237  -0.5728  -0.5591  -0.5162  -0.4963  -0.4530
    -0.4382  -0.3765  -0.3499  -0.2824  -0.2697  -0.1890  -0.0634  -0.0484
    -0.0192   0.0628   0.0656   0.0783   0.1488   0.2269   0.2526   0.3199
     0.3428   0.3977   0.4829   0.5364   0.5592   0.5648   0.8189   0.8358
     1.0048   1.0759   1.1377   1.1811   1.2768   1.2886   1.3059   1.3745
     1.4023   1.4376   1.4959   1.6312   1.6825   1.7050   1.7225   1.7329
     1.8024   1.8809   1.9723   1.9887   2.0441   2.0662   2.1041   2.1277
     2.1318   2.1881   2.2403   2.2543   2.2786   2.3109   2.3805   2.5088
     2.5863   2.6370   2.6533   2.8016   2.8151   2.8617   2.8728   2.9718
     3.0135   3.0383   3.0480   3.0587   3.0622   3.0741   3.1509   3.2619
     3.2957   3.3099   3.3170   3.3832   3.3871   3.4125   3.4206   3.4284
     3.4379   3.4468   3.4592   3.4651   3.4794   3.4873   3.4949   3.5154
     3.5367   3.5420   3.5535   3.5722   3.6944   3.7459   4.4211   4.7564
     4.7910   5.1390   5.3858   5.4713   5.7185   6.2762   6.3183   6.3530
     6.6230   6.6333   6.6733   6.7222   6.9753   7.1809   7.2171   7.3234
     7.5778   7.6518   7.8141   7.9029   7.9301   7.9706   8.0330   8.0497
     8.3192   8.3689   8.3964   8.4226   8.5204   8.5712   8.6248

     occupation numbers 
     1.0000   1.0000   1.0000   1.0000   1.0000   1.0000   1.0000   1.0000
     1.0000   1.0000   1.0000   1.0000   1.0000   1.0000   1.0000   1.0000
     1.0000   1.0000   1.0000   1.0000   1.0000   1.0000   1.0000   1.0000
     1.0000   1.0000   1.0000   1.0000   1.0000   1.0000   1.0000   1.0000
     1.0000   1.0000   1.0000   1.0000   1.0000   1.0000   1.0000   1.0000
     1.0000   1.0000   1.0000   1.0000   1.0000   1.0000   1.0000   1.0000
     1.0000   1.0000   1.0000   1.0000   1.0000   1.0000   1.0000   1.0000
     1.0000   1.0000   1.0000   1.0000   1.0000   1.0000   1.0000   1.0000
     1.0000   1.0000   1.0000   1.0000   1.0000   1.0000   1.0000   1.0000
     1.0000   1.0000   1.0000   1.0000   1.0000   1.0000   1.0000   1.0000
     1.0000   1.0000   1.0000   1.0000   1.0000   1.0000   1.0000   1.0000
     1.0000   1.0000   1.0000   1.0000   1.0000   1.0000   1.0000   1.0000
     1.0000   1.0000   1.0000   1.0000   1.0000   1.0000   1.0000   1.0000
     1.0000   1.0000   1.0000   1.0000   1.0000   1.0000   1.0000   1.0000
     1.0000   1.0000   1.0000   1.0000   1.0000   1.0000   1.0000   1.0000
     1.0000   1.0000   1.0000   1.0000   1.0000   1.0000   1.0000   1.0000
     1.0000   1.0000   1.0000   1.0000   1.0000   1.0000   1.0000   1.0000
     1.0000   1.0000   1.0000   1.0000   1.0000   1.0000   1.0000   1.0000
     1.0000   1.0000   1.0000   1.0000   1.0000   1.0000   1.0000   1.0000
     1.0000   1.0000   1.0000   1.0000   1.0000   1.0000   1.0000   1.0000
     1.0000   0.9999   0.9999   0.9999   0.9998   0.9998   0.9998   0.9997
     0.9997   0.9996   0.9994   0.9989   0.9985   0.9984   0.9982   0.9981
     0.9974   0.9963   0.9946   0.9942   0.9926   0.9919   0.9906   0.9897
     0.9895   0.9870   0.9841   0.9833   0.9817   0.9795   0.9738   0.9599
     0.9489   0.9405   0.9376   0.9057   0.9023   0.8898   0.8866   0.8558
     0.8413   0.8322   0.8286   0.8245   0.8232   0.8186   0.7869   0.7360
     0.7193   0.7122   0.7086   0.6740   0.6719   0.6582   0.6537   0.6495
     0.6442   0.6393   0.6323   0.6291   0.6210   0.6165   0.6122   0.6005
     0.5882   0.5851   0.5785   0.5676   0.4955   0.4651   0.1378   0.0561
     0.0505   0.0155   0.0058   0.0040   0.0013   0.0001   0.0000   0.0000
     0.0000   0.0000   0.0000   0.0000   0.0000   0.0000   0.0000   0.0000
     0.0000   0.0000   0.0000   0.0000   0.0000   0.0000   0.0000   0.0000
     0.0000   0.0000   0.0000   0.0000   0.0000   0.0000   0.0000

          k = 0.0000 0.2500 0.0000 ( 65257 PWs)   bands (ev):

   -92.3395 -92.2845 -92.1933 -92.1449 -92.0852 -92.0457 -92.0286 -91.9064
   -55.6926 -55.6708 -55.5512 -55.5406 -55.5332 -55.5273 -55.4895 -55.4629
   -55.4466 -55.4447 -55.4357 -55.3936 -55.3759 -55.3372 -55.3192 -55.2849
   -55.2802 -55.2347 -55.2329 -55.2315 -55.2230 -55.1810 -55.1593 -55.0731
   -30.9264 -30.9076 -30.7988 -30.7668 -30.6800 -30.6327 -30.5515 -30.4861
   -29.4901 -29.4479 -29.4220 -29.3133 -22.2534 -14.6876 -14.6629 -14.5773
   -14.4430 -14.3274 -14.1557 -14.0103 -13.8306 -13.8027 -13.7820 -13.7770
   -13.7468 -13.6944 -13.6843 -13.6725 -13.6585 -13.6123 -13.4945 -13.4573
   -13.2949 -13.2799 -13.2252 -13.1895 -13.1484 -13.1057 -13.0671 -12.9922
   -12.9593 -12.9149 -12.8565 -12.7977 -12.7795 -12.7569 -12.7379 -12.6394
   -12.6153 -12.6017 -12.5838 -12.5717 -12.5510 -12.5423 -12.5145 -12.4613
   -12.4462 -12.4209 -12.3881 -12.3653 -12.2944 -12.2103 -12.0530 -11.8982
   -11.7773 -11.7155 -11.4704 -11.4271 -11.3993 -11.3710 -11.3544 -11.3073
   -11.2957 -11.2732 -11.2396 -11.1370 -11.0840 -11.0735  -5.9089  -3.1567
    -3.1527  -2.4498  -2.2271  -2.0901  -1.9081  -1.8643  -1.6998  -1.4828
    -1.3953  -1.3822  -1.3266  -1.2237  -1.2086  -1.1740  -1.1487  -1.1051
    -0.9066  -0.7788  -0.7666  -0.6908  -0.6798  -0.5751  -0.5439  -0.4884
    -0.4641  -0.4203  -0.3590  -0.3340  -0.2998  -0.2710  -0.2532  -0.2198
    -0.1474  -0.0939  -0.0344   0.0751   0.0947   0.1373   0.2560   0.2896
     0.3516   0.4044   0.4672   0.4826   0.5141   0.5692   0.8669   0.9552
     0.9844   1.0731   1.1179   1.1355   1.2639   1.2822   1.3770   1.4001
     1.4315   1.5468   1.6315   1.6596   1.6824   1.6990   1.7298   1.7905
     1.8160   1.8432   1.8922   1.9220   1.9520   2.0289   2.0604   2.0978
     2.1546   2.2039   2.2413   2.2660   2.2999   2.3233   2.4119   2.5432
     2.6157   2.6370   2.7156   2.7588   2.7963   2.8027   2.8703   2.9125
     2.9899   3.0292   3.0440   3.0522   3.0622   3.2236   3.2450   3.2769
     3.2984   3.3161   3.3255   3.3328   3.3407   3.3709   3.3730   3.3908
     3.3936   3.4071   3.4231   3.4332   3.4442   3.4669   3.4770   3.4819
     3.5173   3.5339   3.5946   3.9450   3.9770   4.2358   4.6062   4.7489
     4.9075   5.0840   5.4126   5.5077   5.8483   5.9103   6.1610   6.3099
     6.3403   6.4565   6.5239   6.7411   6.9274   7.0625   7.2520   7.5254
     7.5472   7.7094   7.7917   7.8727   7.9192   7.9491   8.0773   8.2286
     8.3235   8.4073   8.5672   8.5823   8.6268   8.6884   8.9276

     occupation numbers 
     1.0000   1.0000   1.0000   1.0000   1.0000   1.0000   1.0000   1.0000
     1.0000   1.0000   1.0000   1.0000   1.0000   1.0000   1.0000   1.0000
     1.0000   1.0000   1.0000   1.0000   1.0000   1.0000   1.0000   1.0000
     1.0000   1.0000   1.0000   1.0000   1.0000   1.0000   1.0000   1.0000
     1.0000   1.0000   1.0000   1.0000   1.0000   1.0000   1.0000   1.0000
     1.0000   1.0000   1.0000   1.0000   1.0000   1.0000   1.0000   1.0000
     1.0000   1.0000   1.0000   1.0000   1.0000   1.0000   1.0000   1.0000
     1.0000   1.0000   1.0000   1.0000   1.0000   1.0000   1.0000   1.0000
     1.0000   1.0000   1.0000   1.0000   1.0000   1.0000   1.0000   1.0000
     1.0000   1.0000   1.0000   1.0000   1.0000   1.0000   1.0000   1.0000
     1.0000   1.0000   1.0000   1.0000   1.0000   1.0000   1.0000   1.0000
     1.0000   1.0000   1.0000   1.0000   1.0000   1.0000   1.0000   1.0000
     1.0000   1.0000   1.0000   1.0000   1.0000   1.0000   1.0000   1.0000
     1.0000   1.0000   1.0000   1.0000   1.0000   1.0000   1.0000   1.0000
     1.0000   1.0000   1.0000   1.0000   1.0000   1.0000   1.0000   1.0000
     1.0000   1.0000   1.0000   1.0000   1.0000   1.0000   1.0000   1.0000
     1.0000   1.0000   1.0000   1.0000   1.0000   1.0000   1.0000   1.0000
     1.0000   1.0000   1.0000   1.0000   1.0000   1.0000   1.0000   1.0000
     1.0000   1.0000   1.0000   1.0000   1.0000   1.0000   1.0000   1.0000
     1.0000   1.0000   1.0000   1.0000   1.0000   1.0000   1.0000   1.0000
     1.0000   0.9999   0.9999   0.9999   0.9998   0.9998   0.9997   0.9997
     0.9996   0.9993   0.9989   0.9987   0.9985   0.9984   0.9982   0.9976
     0.9973   0.9969   0.9961   0.9956   0.9950   0.9931   0.9921   0.9909
     0.9886   0.9862   0.9841   0.9826   0.9803   0.9786   0.9708   0.9553
     0.9442   0.9405   0.9254   0.9159   0.9070   0.9054   0.8873   0.8749
     0.8497   0.8356   0.8301   0.8270   0.8232   0.7542   0.7441   0.7287
     0.7180   0.7090   0.7042   0.7005   0.6964   0.6805   0.6794   0.6699
     0.6684   0.6611   0.6523   0.6468   0.6407   0.6280   0.6224   0.6196
     0.5994   0.5899   0.5545   0.3507   0.3333   0.2075   0.0861   0.0574
     0.0350   0.0190   0.0052   0.0034   0.0007   0.0005   0.0001   0.0000
     0.0000   0.0000   0.0000   0.0000   0.0000   0.0000   0.0000   0.0000
     0.0000   0.0000   0.0000   0.0000   0.0000   0.0000   0.0000   0.0000
     0.0000   0.0000   0.0000   0.0000   0.0000   0.0000   0.0000

          k = 0.0000-0.5000 0.0000 ( 65180 PWs)   bands (ev):

   -92.3395 -92.2845 -92.1933 -92.1449 -92.0852 -92.0457 -92.0285 -91.9064
   -55.6926 -55.6708 -55.5512 -55.5406 -55.5332 -55.5273 -55.4895 -55.4629
   -55.4466 -55.4447 -55.4357 -55.3936 -55.3759 -55.3372 -55.3192 -55.2849
   -55.2802 -55.2347 -55.2329 -55.2315 -55.2230 -55.1810 -55.1593 -55.0731
   -30.9262 -30.9075 -30.7987 -30.7670 -30.6801 -30.6325 -30.5516 -30.4863
   -29.4895 -29.4476 -29.4227 -29.3136 -22.2534 -14.6558 -14.6073 -14.5543
   -14.4314 -14.3401 -14.2064 -14.0545 -13.9388 -13.8009 -13.7797 -13.7352
   -13.6937 -13.6818 -13.6378 -13.6177 -13.5672 -13.5537 -13.5254 -13.4929
   -13.4747 -13.4181 -13.2276 -13.1714 -13.1573 -13.1014 -13.0727 -13.0051
   -12.9813 -12.9393 -12.9335 -12.8684 -12.7811 -12.7573 -12.7371 -12.6438
   -12.6199 -12.6073 -12.5790 -12.5722 -12.5416 -12.5286 -12.4481 -12.4253
   -12.3779 -12.3636 -12.3541 -12.3007 -12.1642 -12.1519 -11.9968 -11.9734
   -11.8797 -11.8334 -11.4241 -11.4220 -11.3945 -11.3563 -11.3223 -11.3113
   -11.2695 -11.2654 -11.2216 -11.1581 -11.1446 -11.1304  -5.9089  -3.1569
    -3.1527  -2.2353  -2.1754  -2.0242  -1.9515  -1.6720  -1.5883  -1.4596
    -1.3217  -1.2858  -1.2658  -1.1865  -1.1567  -1.0736  -1.0390  -0.9631
    -0.9217  -0.8824  -0.8557  -0.8005  -0.7610  -0.7171  -0.6800  -0.6449
    -0.6127  -0.5008  -0.4561  -0.4238  -0.4220  -0.3367  -0.3036  -0.2818
    -0.2335  -0.1492  -0.0812   0.0009   0.0277   0.1307   0.1762   0.3273
     0.3533   0.3865   0.4395   0.5559   0.6055   0.7494   0.8146   0.8221
     0.9501   0.9867   1.0930   1.2276   1.3352   1.3663   1.4018   1.4077
     1.4465   1.4657   1.5025   1.5173   1.5314   1.6374   1.6974   1.7260
     1.7512   2.0096   2.0423   2.0619   2.1555   2.1788   2.2116   2.2266
     2.2623   2.2712   2.2799   2.3131   2.3559   2.3839   2.4069   2.4236
     2.4515   2.5052   2.5852   2.6102   2.7938   2.9601   2.9669   2.9841
     3.0233   3.0291   3.0391   3.0486   3.0552   3.0925   3.1038   3.1582
     3.1784   3.2524   3.2680   3.3349   3.3432   3.3685   3.3692   3.3894
     3.3916   3.3967   3.4001   3.4045   3.4167   3.4369   3.4378   3.5028
     3.5078   3.5234   3.5779   4.4790   4.4831   4.5207   4.5891   4.9668
     5.1252   5.2280   5.3893   5.5192   5.6099   5.8216   5.9356   6.0131
     6.2189   6.3712   6.3966   6.4870   7.0228   7.0746   7.1231   7.4294
     7.5699   7.6285   7.6966   7.9995   8.0666   8.1635   8.2057   8.2892
     8.5787   8.5842   8.6668   8.7353   8.7754   8.8531   8.9627

     occupation numbers 
     1.0000   1.0000   1.0000   1.0000   1.0000   1.0000   1.0000   1.0000
     1.0000   1.0000   1.0000   1.0000   1.0000   1.0000   1.0000   1.0000
     1.0000   1.0000   1.0000   1.0000   1.0000   1.0000   1.0000   1.0000
     1.0000   1.0000   1.0000   1.0000   1.0000   1.0000   1.0000   1.0000
     1.0000   1.0000   1.0000   1.0000   1.0000   1.0000   1.0000   1.0000
     1.0000   1.0000   1.0000   1.0000   1.0000   1.0000   1.0000   1.0000
     1.0000   1.0000   1.0000   1.0000   1.0000   1.0000   1.0000   1.0000
     1.0000   1.0000   1.0000   1.0000   1.0000   1.0000   1.0000   1.0000
     1.0000   1.0000   1.0000   1.0000   1.0000   1.0000   1.0000   1.0000
     1.0000   1.0000   1.0000   1.0000   1.0000   1.0000   1.0000   1.0000
     1.0000   1.0000   1.0000   1.0000   1.0000   1.0000   1.0000   1.0000
     1.0000   1.0000   1.0000   1.0000   1.0000   1.0000   1.0000   1.0000
     1.0000   1.0000   1.0000   1.0000   1.0000   1.0000   1.0000   1.0000
     1.0000   1.0000   1.0000   1.0000   1.0000   1.0000   1.0000   1.0000
     1.0000   1.0000   1.0000   1.0000   1.0000   1.0000   1.0000   1.0000
     1.0000   1.0000   1.0000   1.0000   1.0000   1.0000   1.0000   1.0000
     1.0000   1.0000   1.0000   1.0000   1.0000   1.0000   1.0000   1.0000
     1.0000   1.0000   1.0000   1.0000   1.0000   1.0000   1.0000   1.0000
     1.0000   1.0000   1.0000   1.0000   1.0000   1.0000   1.0000   1.0000
     1.0000   1.0000   1.0000   1.0000   1.0000   1.0000   1.0000   1.0000
     1.0000   1.0000   0.9999   0.9999   0.9998   0.9997   0.9997   0.9996
     0.9996   0.9995   0.9994   0.9994   0.9993   0.9988   0.9984   0.9982
     0.9980   0.9936   0.9927   0.9921   0.9885   0.9874   0.9858   0.9849
     0.9828   0.9822   0.9817   0.9793   0.9759   0.9735   0.9713   0.9697
     0.9667   0.9603   0.9491   0.9451   0.9076   0.8598   0.8575   0.8516
     0.8378   0.8356   0.8319   0.8284   0.8259   0.8113   0.8067   0.7838
     0.7749   0.7406   0.7330   0.6994   0.6951   0.6818   0.6815   0.6707
     0.6694   0.6667   0.6649   0.6625   0.6559   0.6447   0.6442   0.6077
     0.6048   0.5959   0.5643   0.1198   0.1185   0.1078   0.0902   0.0287
     0.0164   0.0111   0.0057   0.0033   0.0021   0.0008   0.0004   0.0003
     0.0001   0.0000   0.0000   0.0000   0.0000   0.0000   0.0000   0.0000
     0.0000   0.0000   0.0000   0.0000   0.0000   0.0000   0.0000   0.0000
     0.0000   0.0000   0.0000   0.0000   0.0000   0.0000   0.0000

          k = 0.2500 0.2500 0.0000 ( 65198 PWs)   bands (ev):

   -92.3395 -92.2845 -92.1933 -92.1449 -92.0852 -92.0457 -92.0285 -91.9064
   -55.6926 -55.6708 -55.5512 -55.5406 -55.5332 -55.5273 -55.4895 -55.4629
   -55.4466 -55.4447 -55.4357 -55.3936 -55.3759 -55.3372 -55.3192 -55.2849
   -55.2802 -55.2347 -55.2329 -55.2315 -55.2230 -55.1810 -55.1593 -55.0731
   -30.9247 -30.9093 -30.7987 -30.7664 -30.6804 -30.6329 -30.5510 -30.4866
   -29.4891 -29.4489 -29.4216 -29.3137 -22.2534 -14.6597 -14.6275 -14.5493
   -14.4327 -14.3185 -14.1951 -14.1152 -13.9152 -13.7794 -13.7543 -13.7441
   -13.7073 -13.6795 -13.6553 -13.6338 -13.6056 -13.5724 -13.4864 -13.4710
   -13.3103 -13.2968 -13.2663 -13.2474 -13.2095 -13.1578 -13.1127 -13.0745
   -12.9809 -12.9421 -12.8794 -12.7938 -12.7566 -12.7367 -12.6943 -12.6701
   -12.6253 -12.6001 -12.5969 -12.5671 -12.5557 -12.5173 -12.4768 -12.4312
   -12.4125 -12.3919 -12.3850 -12.3628 -12.2015 -12.1017 -12.0984 -11.9273
   -11.8123 -11.7615 -11.4425 -11.4108 -11.3999 -11.3923 -11.3307 -11.2952
   -11.2889 -11.2535 -11.2452 -11.1536 -11.1123 -11.0948  -5.9089  -3.1567
    -3.1528  -2.3118  -2.1014  -1.9843  -1.8908  -1.7684  -1.7031  -1.5078
    -1.3607  -1.3404  -1.3133  -1.2186  -1.1837  -1.0911  -1.0646  -1.0142
    -0.8818  -0.8347  -0.7623  -0.7169  -0.6733  -0.6482  -0.6230  -0.5810
    -0.5655  -0.4758  -0.4261  -0.3634  -0.3147  -0.2852  -0.2309  -0.2211
    -0.1582  -0.1075  -0.0537  -0.0173   0.0653   0.1185   0.1474   0.1896
     0.2432   0.3054   0.3508   0.3770   0.4462   0.4892   0.7610   0.9060
     0.9457   0.9937   1.0413   1.0973   1.1487   1.2133   1.2469   1.5214
     1.5934   1.6678   1.6941   1.7370   1.7730   1.8079   1.8444   1.8625
     1.8910   1.9286   1.9402   1.9583   1.9983   2.0398   2.0800   2.1222
     2.1648   2.1761   2.2059   2.2439   2.2967   2.3248   2.4539   2.5228
     2.5633   2.5930   2.6520   2.7194   2.7501   2.7880   2.8087   2.8223
     2.9364   2.9715   3.0463   3.0537   3.0664   3.2344   3.2519   3.2586
     3.2737   3.2874   3.3013   3.3133   3.3211   3.3313   3.3448   3.3561
     3.3763   3.3827   3.3935   3.4136   3.4280   3.4379   3.4686   3.7705
     3.8616   3.8980   3.9632   3.9807   4.2063   4.3121   4.6402   4.8019
     4.9793   5.1384   5.3261   5.5529   5.9188   5.9643   6.0093   6.1261
     6.1995   6.2442   6.3425   6.4330   6.9107   7.0020   7.1160   7.2249
     7.7070   7.7885   7.8597   7.9016   8.0208   8.1304   8.2337   8.3228
     8.3553   8.4574   8.5473   8.7041   8.7249   8.8003   8.8947

     occupation numbers 
     1.0000   1.0000   1.0000   1.0000   1.0000   1.0000   1.0000   1.0000
     1.0000   1.0000   1.0000   1.0000   1.0000   1.0000   1.0000   1.0000
     1.0000   1.0000   1.0000   1.0000   1.0000   1.0000   1.0000   1.0000
     1.0000   1.0000   1.0000   1.0000   1.0000   1.0000   1.0000   1.0000
     1.0000   1.0000   1.0000   1.0000   1.0000   1.0000   1.0000   1.0000
     1.0000   1.0000   1.0000   1.0000   1.0000   1.0000   1.0000   1.0000
     1.0000   1.0000   1.0000   1.0000   1.0000   1.0000   1.0000   1.0000
     1.0000   1.0000   1.0000   1.0000   1.0000   1.0000   1.0000   1.0000
     1.0000   1.0000   1.0000   1.0000   1.0000   1.0000   1.0000   1.0000
     1.0000   1.0000   1.0000   1.0000   1.0000   1.0000   1.0000   1.0000
     1.0000   1.0000   1.0000   1.0000   1.0000   1.0000   1.0000   1.0000
     1.0000   1.0000   1.0000   1.0000   1.0000   1.0000   1.0000   1.0000
     1.0000   1.0000   1.0000   1.0000   1.0000   1.0000   1.0000   1.0000
     1.0000   1.0000   1.0000   1.0000   1.0000   1.0000   1.0000   1.0000
     1.0000   1.0000   1.0000   1.0000   1.0000   1.0000   1.0000   1.0000
     1.0000   1.0000   1.0000   1.0000   1.0000   1.0000   1.0000   1.0000
     1.0000   1.0000   1.0000   1.0000   1.0000   1.0000   1.0000   1.0000
     1.0000   1.0000   1.0000   1.0000   1.0000   1.0000   1.0000   1.0000
     1.0000   1.0000   1.0000   1.0000   1.0000   1.0000   1.0000   1.0000
     1.0000   1.0000   1.0000   1.0000   1.0000   1.0000   1.0000   1.0000
     1.0000   1.0000   1.0000   0.9999   0.9999   0.9999   0.9999   0.9993
     0.9991   0.9986   0.9985   0.9981   0.9978   0.9974   0.9969   0.9966
     0.9962   0.9955   0.9953   0.9949   0.9939   0.9928   0.9915   0.9899
     0.9881   0.9876   0.9861   0.9839   0.9805   0.9784   0.9664   0.9581
     0.9524   0.9478   0.9378   0.9246   0.9179   0.9090   0.9039   0.9004
     0.8674   0.8559   0.8292   0.8265   0.8216   0.7492   0.7408   0.7376
     0.7302   0.7235   0.7165   0.7104   0.7065   0.7013   0.6942   0.6884
     0.6777   0.6742   0.6685   0.6575   0.6496   0.6442   0.6271   0.4506
     0.3976   0.3769   0.3408   0.3313   0.2203   0.1766   0.0785   0.0489
     0.0275   0.0156   0.0075   0.0028   0.0005   0.0004   0.0003   0.0001
     0.0001   0.0001   0.0000   0.0000   0.0000   0.0000   0.0000   0.0000
     0.0000   0.0000   0.0000   0.0000   0.0000   0.0000   0.0000   0.0000
     0.0000   0.0000   0.0000   0.0000   0.0000   0.0000   0.0000

          k = 0.2500-0.5000 0.0000 ( 65138 PWs)   bands (ev):

   -92.3395 -92.2845 -92.1933 -92.1449 -92.0852 -92.0457 -92.0285 -91.9064
   -55.6926 -55.6708 -55.5512 -55.5406 -55.5332 -55.5273 -55.4895 -55.4629
   -55.4466 -55.4447 -55.4357 -55.3936 -55.3759 -55.3372 -55.3192 -55.2849
   -55.2802 -55.2347 -55.2329 -55.2315 -55.2230 -55.1810 -55.1593 -55.0731
   -30.9245 -30.9092 -30.7985 -30.7666 -30.6805 -30.6326 -30.5511 -30.4868
   -29.4885 -29.4486 -29.4223 -29.3140 -22.2534 -14.6256 -14.5804 -14.5116
   -14.4008 -14.3637 -14.2457 -14.1568 -14.0330 -13.7790 -13.7174 -13.6697
   -13.6418 -13.6202 -13.6051 -13.5886 -13.5524 -13.5413 -13.5079 -13.4675
   -13.4548 -13.4111 -13.3114 -13.2637 -13.2256 -13.1840 -13.1338 -13.1141
   -13.0298 -12.9964 -12.8561 -12.7920 -12.7765 -12.7253 -12.6808 -12.6402
   -12.6245 -12.5941 -12.5922 -12.5767 -12.5601 -12.5232 -12.4646 -12.4393
   -12.4079 -12.3842 -12.3047 -12.2731 -12.1708 -12.1171 -11.9711 -11.9570
   -11.8743 -11.8416 -11.4180 -11.4061 -11.3950 -11.3675 -11.3366 -11.3076
   -11.2673 -11.2393 -11.2174 -11.1714 -11.1455 -11.1346  -5.9089  -3.1569
    -3.1528  -2.0940  -2.0275  -1.8982  -1.8205  -1.6927  -1.6083  -1.4842
    -1.3333  -1.2803  -1.2583  -1.1952  -1.1816  -1.0842  -1.0182  -0.9326
    -0.8849  -0.8758  -0.8105  -0.7702  -0.7341  -0.6869  -0.6506  -0.6153
    -0.5745  -0.5628  -0.5185  -0.4906  -0.4492  -0.4185  -0.3508  -0.2505
    -0.2113  -0.1344  -0.0706  -0.0229   0.0218   0.0438   0.0912   0.2543
     0.2627   0.3659   0.4069   0.4174   0.4632   0.4881   0.5292   0.5565
     0.6314   0.8908   0.9792   1.0594   1.1182   1.3786   1.4048   1.4929
     1.5215   1.6908   1.7213   1.7657   1.7895   1.8067   1.8267   1.8867
     1.9312   1.9686   2.0464   2.1255   2.1675   2.1916   2.2037   2.2373
     2.2521   2.2596   2.3002   2.3170   2.3333   2.3677   2.3872   2.4152
     2.4440   2.5036   2.5405   2.6170   2.7612   2.9130   2.9298   2.9468
     2.9721   2.9971   3.0243   3.0424   3.0490   3.0593   3.0671   3.0899
     3.1848   3.2313   3.2536   3.2553   3.2709   3.2917   3.3059   3.3244
     3.3312   3.3620   3.3745   3.3904   3.3984   3.4073   3.4186   3.9331
     3.9420   4.1015   4.1502   4.4833   4.5293   4.5343   4.6565   5.0293
     5.1564   5.2612   5.4184   5.4973   5.6185   5.6945   5.8849   5.9206
     6.0804   6.1320   6.2948   6.5352   6.5728   6.6706   7.1302   7.2243
     7.5766   7.6745   7.9628   8.0706   8.1673   8.2089   8.3249   8.4066
     8.5130   8.5961   8.7248   8.8270   8.8603   8.9251   8.9504

     occupation numbers 
     1.0000   1.0000   1.0000   1.0000   1.0000   1.0000   1.0000   1.0000
     1.0000   1.0000   1.0000   1.0000   1.0000   1.0000   1.0000   1.0000
     1.0000   1.0000   1.0000   1.0000   1.0000   1.0000   1.0000   1.0000
     1.0000   1.0000   1.0000   1.0000   1.0000   1.0000   1.0000   1.0000
     1.0000   1.0000   1.0000   1.0000   1.0000   1.0000   1.0000   1.0000
     1.0000   1.0000   1.0000   1.0000   1.0000   1.0000   1.0000   1.0000
     1.0000   1.0000   1.0000   1.0000   1.0000   1.0000   1.0000   1.0000
     1.0000   1.0000   1.0000   1.0000   1.0000   1.0000   1.0000   1.0000
     1.0000   1.0000   1.0000   1.0000   1.0000   1.0000   1.0000   1.0000
     1.0000   1.0000   1.0000   1.0000   1.0000   1.0000   1.0000   1.0000
     1.0000   1.0000   1.0000   1.0000   1.0000   1.0000   1.0000   1.0000
     1.0000   1.0000   1.0000   1.0000   1.0000   1.0000   1.0000   1.0000
     1.0000   1.0000   1.0000   1.0000   1.0000   1.0000   1.0000   1.0000
     1.0000   1.0000   1.0000   1.0000   1.0000   1.0000   1.0000   1.0000
     1.0000   1.0000   1.0000   1.0000   1.0000   1.0000   1.0000   1.0000
     1.0000   1.0000   1.0000   1.0000   1.0000   1.0000   1.0000   1.0000
     1.0000   1.0000   1.0000   1.0000   1.0000   1.0000   1.0000   1.0000
     1.0000   1.0000   1.0000   1.0000   1.0000   1.0000   1.0000   1.0000
     1.0000   1.0000   1.0000   1.0000   1.0000   1.0000   1.0000   1.0000
     1.0000   1.0000   1.0000   1.0000   1.0000   1.0000   1.0000   1.0000
     1.0000   1.0000   1.0000   1.0000   0.9999   0.9997   0.9996   0.9994
     0.9993   0.9985   0.9982   0.9978   0.9976   0.9974   0.9971   0.9962
     0.9954   0.9946   0.9926   0.9898   0.9880   0.9868   0.9862   0.9843
     0.9834   0.9830   0.9803   0.9790   0.9778   0.9749   0.9732   0.9705
     0.9675   0.9605   0.9556   0.9439   0.9154   0.8747   0.8695   0.8641
     0.8557   0.8471   0.8374   0.8307   0.8282   0.8243   0.8213   0.8123
     0.7720   0.7506   0.7400   0.7392   0.7316   0.7213   0.7142   0.7048
     0.7013   0.6852   0.6786   0.6701   0.6658   0.6610   0.6548   0.3573
     0.3524   0.2691   0.2457   0.1185   0.1055   0.1041   0.0750   0.0231
     0.0146   0.0097   0.0051   0.0036   0.0021   0.0014   0.0005   0.0005
     0.0002   0.0001   0.0001   0.0000   0.0000   0.0000   0.0000   0.0000
     0.0000   0.0000   0.0000   0.0000   0.0000   0.0000   0.0000   0.0000
     0.0000   0.0000   0.0000   0.0000   0.0000   0.0000   0.0000

          k =-0.5000-0.5000 0.0000 ( 65132 PWs)   bands (ev):

   -92.3395 -92.2845 -92.1933 -92.1449 -92.0852 -92.0457 -92.0285 -91.9064
   -55.6926 -55.6708 -55.5512 -55.5406 -55.5332 -55.5273 -55.4895 -55.4629
   -55.4466 -55.4447 -55.4357 -55.3936 -55.3759 -55.3372 -55.3192 -55.2849
   -55.2802 -55.2347 -55.2329 -55.2315 -55.2230 -55.1810 -55.1593 -55.0731
   -30.9222 -30.9115 -30.7984 -30.7662 -30.6809 -30.6328 -30.5507 -30.4873
   -29.4875 -29.4497 -29.4219 -29.3145 -22.2534 -14.5804 -14.5525 -14.4364
   -14.4242 -14.3289 -14.2925 -14.2621 -14.1306 -13.7788 -13.6300 -13.6217
   -13.5847 -13.5662 -13.5478 -13.5372 -13.5050 -13.4963 -13.4773 -13.4766
   -13.4603 -13.3797 -13.3746 -13.3449 -13.3254 -13.3116 -13.2149 -13.2050
   -13.0760 -13.0433 -12.8083 -12.7726 -12.6985 -12.6900 -12.6739 -12.6391
   -12.6343 -12.6245 -12.6047 -12.5718 -12.5280 -12.5169 -12.4860 -12.4526
   -12.4481 -12.4021 -12.2543 -12.2468 -12.1871 -12.0875 -11.9676 -11.9050
   -11.8837 -11.8503 -11.4145 -11.4019 -11.3842 -11.3675 -11.3328 -11.3160
   -11.2798 -11.2197 -11.1994 -11.1938 -11.1433 -11.1404  -5.9089  -3.1569
    -3.1530  -1.8708  -1.7946  -1.7844  -1.7108  -1.6726  -1.5941  -1.5264
    -1.4005  -1.2834  -1.2540  -1.2149  -1.1570  -1.0853  -1.0706  -1.0001
    -0.9570  -0.8414  -0.8149  -0.7650  -0.7332  -0.6693  -0.6263  -0.6065
    -0.5960  -0.5425  -0.4945  -0.4826  -0.3681  -0.3119  -0.2647  -0.2155
    -0.1907  -0.1788  -0.1422  -0.1024  -0.0692  -0.0532   0.0318   0.0960
     0.1474   0.1669   0.2439   0.2931   0.3056   0.3646   0.3848   0.4037
     0.4163   0.8585   0.8933   1.0095   1.0249   1.4108   1.4259   1.4582
     1.4952   1.7732   1.7933   1.7992   1.8362   1.9723   2.0669   2.0935
     2.1286   2.1399   2.1675   2.1785   2.2105   2.2155   2.2260   2.2376
     2.3012   2.3042   2.3328   2.3355   2.3624   2.3717   2.4124   2.4427
     2.4526   2.4884   2.5143   2.5867   2.6535   2.9249   2.9568   2.9765
     2.9967   3.0011   3.0238   3.0328   3.0549   3.0571   3.0647   3.0726
     3.0878   3.1074   3.1203   3.1851   3.1888   3.2120   3.2231   3.2356
     3.2539   3.2588   3.2686   3.3706   3.3744   3.4028   3.4127   4.3612
     4.3741   4.4008   4.4111   4.6789   4.7495   4.7783   5.0183   5.1365
     5.1709   5.2238   5.3407   5.3948   5.4670   5.5631   5.5938   5.7269
     5.9751   6.0368   6.1110   6.2844   6.6077   6.6280   6.7796   7.2388
     7.4953   7.5657   7.6860   8.2823   8.3020   8.3815   8.4488   8.5664
     8.6578   8.7724   8.8919   8.9159   8.9440   8.9810   9.0172

     occupation numbers 
     1.0000   1.0000   1.0000   1.0000   1.0000   1.0000   1.0000   1.0000
     1.0000   1.0000   1.0000   1.0000   1.0000   1.0000   1.0000   1.0000
     1.0000   1.0000   1.0000   1.0000   1.0000   1.0000   1.0000   1.0000
     1.0000   1.0000   1.0000   1.0000   1.0000   1.0000   1.0000   1.0000
     1.0000   1.0000   1.0000   1.0000   1.0000   1.0000   1.0000   1.0000
     1.0000   1.0000   1.0000   1.0000   1.0000   1.0000   1.0000   1.0000
     1.0000   1.0000   1.0000   1.0000   1.0000   1.0000   1.0000   1.0000
     1.0000   1.0000   1.0000   1.0000   1.0000   1.0000   1.0000   1.0000
     1.0000   1.0000   1.0000   1.0000   1.0000   1.0000   1.0000   1.0000
     1.0000   1.0000   1.0000   1.0000   1.0000   1.0000   1.0000   1.0000
     1.0000   1.0000   1.0000   1.0000   1.0000   1.0000   1.0000   1.0000
     1.0000   1.0000   1.0000   1.0000   1.0000   1.0000   1.0000   1.0000
     1.0000   1.0000   1.0000   1.0000   1.0000   1.0000   1.0000   1.0000
     1.0000   1.0000   1.0000   1.0000   1.0000   1.0000   1.0000   1.0000
     1.0000   1.0000   1.0000   1.0000   1.0000   1.0000   1.0000   1.0000
     1.0000   1.0000   1.0000   1.0000   1.0000   1.0000   1.0000   1.0000
     1.0000   1.0000   1.0000   1.0000   1.0000   1.0000   1.0000   1.0000
     1.0000   1.0000   1.0000   1.0000   1.0000   1.0000   1.0000   1.0000
     1.0000   1.0000   1.0000   1.0000   1.0000   1.0000   1.0000   1.0000
     1.0000   1.0000   1.0000   1.0000   1.0000   1.0000   1.0000   1.0000
     1.0000   1.0000   1.0000   1.0000   1.0000   0.9996   0.9996   0.9995
     0.9994   0.9978   0.9975   0.9975   0.9970   0.9946   0.9919   0.9910
     0.9897   0.9892   0.9880   0.9874   0.9858   0.9855   0.9850   0.9843
[...]
     0.0000   0.0000   0.0000   0.0000   0.0000   0.0000   0.0000   0.0000
     0.0000   0.0000   0.0000   0.0000   0.0000   0.0000   0.0000

          k =-0.5000 0.0000 0.0000 ( 65180 PWs)   bands (ev):

   -92.3395 -92.2845 -92.1933 -92.1449 -92.0852 -92.0457 -92.0285 -91.9064
   -55.6926 -55.6708 -55.5512 -55.5406 -55.5332 -55.5273 -55.4895 -55.4629
   -55.4466 -55.4447 -55.4357 -55.3936 -55.3759 -55.3372 -55.3192 -55.2849
   -55.2802 -55.2347 -55.2329 -55.2315 -55.2230 -55.1810 -55.1593 -55.0731
   -30.9225 -30.9118 -30.7986 -30.7658 -30.6806 -30.6333 -30.5504 -30.4869
   -29.4887 -29.4503 -29.4206 -29.3138 -22.2534 -14.6595 -14.6117 -14.5488
   -14.4402 -14.3347 -14.1897 -14.0543 -13.9058 -13.7834 -13.7765 -13.7704
   -13.7513 -13.7046 -13.6406 -13.6077 -13.5631 -13.5543 -13.5350 -13.4849
   -13.4703 -13.3780 -13.1995 -13.1835 -13.1405 -13.1314 -13.0957 -13.0108
   -12.9906 -12.9183 -12.8951 -12.8944 -12.7605 -12.7033 -12.6918 -12.6767
   -12.6647 -12.6542 -12.5946 -12.5738 -12.5291 -12.5170 -12.4662 -12.4262
   -12.4192 -12.3857 -12.2891 -12.2801 -12.1902 -12.1308 -11.9779 -11.9733
   -11.8822 -11.8492 -11.4210 -11.4002 -11.3930 -11.3790 -11.3611 -11.3199
   -11.2558 -11.2381 -11.2054 -11.1613 -11.1520 -11.1359  -5.9089  -3.1565
    -3.1530  -2.2252  -2.1861  -2.0214  -1.9823  -1.6709  -1.5958  -1.4466
    -1.3279  -1.2899  -1.2437  -1.1958  -1.1695  -1.0480  -1.0026  -0.9892
    -0.9059  -0.8700  -0.8575  -0.8228  -0.7677  -0.6982  -0.6678  -0.6410
    -0.5466  -0.4976  -0.4498  -0.4173  -0.3953  -0.3663  -0.3177  -0.2929
    -0.2565  -0.1615  -0.0873  -0.0263   0.0378   0.1909   0.2381   0.2997
     0.3222   0.3784   0.4088   0.5397   0.5750   0.6199   0.7971   0.8951
     0.9420   1.0190   1.0752   1.2114   1.2267   1.3528   1.3840   1.4380
     1.4627   1.5019   1.5147   1.5615   1.5855   1.6483   1.6978   1.7445
     1.7535   2.0435   2.0562   2.0645   2.0861   2.2058   2.2141   2.2234
     2.2400   2.2724   2.2828   2.3190   2.3504   2.3681   2.4349   2.4392
     2.4978   2.5115   2.5752   2.6817   2.7756   2.8570   2.8723   2.9551
     2.9859   3.0089   3.0439   3.0598   3.0828   3.0865   3.0976   3.1260
     3.1938   3.2383   3.2822   3.3114   3.3582   3.3623   3.3631   3.3757
     3.3895   3.4021   3.4160   3.4197   3.4404   3.4463   3.4683   3.4887
     3.4930   3.6196   3.6266   4.4244   4.4622   4.5259   4.6507   4.9985
     5.1645   5.1769   5.3364   5.4475   5.6997   5.8654   5.9394   5.9950
     6.2355   6.3378   6.3808   6.4301   6.9733   7.0959   7.1779   7.4510
     7.5081   7.6472   7.7718   8.0365   8.0882   8.1406   8.1873   8.3224
     8.5388   8.5975   8.6372   8.7480   8.7589   8.8655   8.9370

     occupation numbers 
     1.0000   1.0000   1.0000   1.0000   1.0000   1.0000   1.0000   1.0000
     1.0000   1.0000   1.0000   1.0000   1.0000   1.0000   1.0000   1.0000
     1.0000   1.0000   1.0000   1.0000   1.0000   1.0000   1.0000   1.0000
     1.0000   1.0000   1.0000   1.0000   1.0000   1.0000   1.0000   1.0000
     1.0000   1.0000   1.0000   1.0000   1.0000   1.0000   1.0000   1.0000
     1.0000   1.0000   1.0000   1.0000   1.0000   1.0000   1.0000   1.0000
     1.0000   1.0000   1.0000   1.0000   1.0000   1.0000   1.0000   1.0000
     1.0000   1.0000   1.0000   1.0000   1.0000   1.0000   1.0000   1.0000
     1.0000   1.0000   1.0000   1.0000   1.0000   1.0000   1.0000   1.0000
     1.0000   1.0000   1.0000   1.0000   1.0000   1.0000   1.0000   1.0000
     1.0000   1.0000   1.0000   1.0000   1.0000   1.0000   1.0000   1.0000
     1.0000   1.0000   1.0000   1.0000   1.0000   1.0000   1.0000   1.0000
     1.0000   1.0000   1.0000   1.0000   1.0000   1.0000   1.0000   1.0000
     1.0000   1.0000   1.0000   1.0000   1.0000   1.0000   1.0000   1.0000
     1.0000   1.0000   1.0000   1.0000   1.0000   1.0000   1.0000   1.0000
     1.0000   1.0000   1.0000   1.0000   1.0000   1.0000   1.0000   1.0000
     1.0000   1.0000   1.0000   1.0000   1.0000   1.0000   1.0000   1.0000
     1.0000   1.0000   1.0000   1.0000   1.0000   1.0000   1.0000   1.0000
     1.0000   1.0000   1.0000   1.0000   1.0000   1.0000   1.0000   1.0000
     1.0000   1.0000   1.0000   1.0000   1.0000   1.0000   1.0000   1.0000
     1.0000   1.0000   0.9999   0.9999   0.9999   0.9997   0.9997   0.9996
     0.9995   0.9994   0.9994   0.9992   0.9991   0.9988   0.9984   0.9980
     0.9980   0.9927   0.9923   0.9920   0.9913   0.9861   0.9856   0.9851
     0.9842   0.9821   0.9815   0.9789   0.9764   0.9749   0.9685   0.9680
     0.9613   0.9595   0.9506   0.9322   0.9120   0.8911   0.8868   0.8614
     0.8510   0.8429   0.8301   0.8241   0.8151   0.8137   0.8092   0.7975
     0.7679   0.7473   0.7260   0.7114   0.6872   0.6851   0.6847   0.6780
     0.6706   0.6638   0.6562   0.6542   0.6428   0.6395   0.6272   0.6157
     0.6133   0.5398   0.5357   0.1367   0.1248   0.1064   0.0762   0.0257
     0.0141   0.0135   0.0072   0.0045   0.0014   0.0006   0.0004   0.0003
     0.0001   0.0000   0.0000   0.0000   0.0000   0.0000   0.0000   0.0000
     0.0000   0.0000   0.0000   0.0000   0.0000   0.0000   0.0000   0.0000
     0.0000   0.0000   0.0000   0.0000   0.0000   0.0000   0.0000

          k =-0.2500 0.2500 0.0000 ( 65198 PWs)   bands (ev):

   -92.3395 -92.2845 -92.1933 -92.1449 -92.0852 -92.0457 -92.0285 -91.9064
   -55.6926 -55.6708 -55.5512 -55.5406 -55.5332 -55.5273 -55.4895 -55.4629
   -55.4466 -55.4447 -55.4357 -55.3936 -55.3759 -55.3372 -55.3192 -55.2849
   -55.2802 -55.2347 -55.2329 -55.2315 -55.2230 -55.1810 -55.1593 -55.0731
   -30.9247 -30.9093 -30.7987 -30.7664 -30.6804 -30.6329 -30.5510 -30.4866
   -29.4891 -29.4489 -29.4216 -29.3137 -22.2534 -14.6612 -14.6262 -14.5481
   -14.4304 -14.3249 -14.1997 -14.1070 -13.9069 -13.7792 -13.7617 -13.7328
   -13.7222 -13.6741 -13.6501 -13.6312 -13.6222 -13.5760 -13.4825 -13.4718
   -13.3203 -13.2920 -13.2656 -13.2436 -13.2099 -13.1446 -13.1069 -13.0843
   -12.9870 -12.9385 -12.8731 -12.7972 -12.7578 -12.7257 -12.6900 -12.6560
   -12.6352 -12.6056 -12.5928 -12.5771 -12.5623 -12.5260 -12.4663 -12.4426
   -12.4259 -12.4164 -12.3708 -12.3408 -12.2022 -12.0925 -12.0912 -11.9331
   -11.8077 -11.7676 -11.4418 -11.4199 -11.3930 -11.3804 -11.3402 -11.3049
   -11.2824 -11.2601 -11.2378 -11.1534 -11.1077 -11.0981  -5.9089  -3.1567
    -3.1528  -2.3101  -2.1004  -1.9799  -1.8928  -1.7727  -1.7058  -1.5054
    -1.3574  -1.3381  -1.3113  -1.2192  -1.1825  -1.0909  -1.0577  -1.0319
    -0.8874  -0.8325  -0.7656  -0.7367  -0.6769  -0.6535  -0.6130  -0.5842
    -0.5444  -0.4825  -0.4349  -0.3754  -0.3055  -0.2814  -0.2280  -0.1998
    -0.1544  -0.0980  -0.0565  -0.0116   0.0839   0.1210   0.1262   0.1768
     0.2409   0.3052   0.3531   0.3814   0.4495   0.4878   0.7427   0.9075
     0.9535   0.9876   1.0454   1.0928   1.1568   1.2155   1.2468   1.5293
     1.6443   1.6835   1.7150   1.7231   1.7660   1.7835   1.8267   1.8577
     1.8745   1.9002   1.9385   1.9518   2.0004   2.0155   2.0614   2.1349
     2.1533   2.1760   2.2117   2.2416   2.2799   2.3283   2.4426   2.5527
     2.5893   2.6329   2.6531   2.7178   2.7622   2.7889   2.8106   2.8339
     2.9355   2.9706   3.0441   3.0560   3.0676   3.2410   3.2497   3.2634
     3.2736   3.2841   3.2972   3.3032   3.3216   3.3294   3.3458   3.3550
     3.3679   3.3771   3.3848   3.4158   3.4274   3.4370   3.4704   3.7636
     3.8445   3.9013   3.9658   3.9894   4.1911   4.3206   4.6399   4.8013
     4.9777   5.1384   5.3364   5.5486   5.9514   5.9655   5.9811   6.1264
     6.1961   6.2502   6.3571   6.4070   6.9240   7.0287   7.0989   7.1957
     7.7100   7.7889   7.8732   7.9175   7.9857   8.1658   8.2067   8.3093
     8.3712   8.4484   8.6321   8.7044   8.7306   8.7515   8.8471

     occupation numbers 
     1.0000   1.0000   1.0000   1.0000   1.0000   1.0000   1.0000   1.0000
     1.0000   1.0000   1.0000   1.0000   1.0000   1.0000   1.0000   1.0000
     1.0000   1.0000   1.0000   1.0000   1.0000   1.0000   1.0000   1.0000
     1.0000   1.0000   1.0000   1.0000   1.0000   1.0000   1.0000   1.0000
     1.0000   1.0000   1.0000   1.0000   1.0000   1.0000   1.0000   1.0000
     1.0000   1.0000   1.0000   1.0000   1.0000   1.0000   1.0000   1.0000
     1.0000   1.0000   1.0000   1.0000   1.0000   1.0000   1.0000   1.0000
     1.0000   1.0000   1.0000   1.0000   1.0000   1.0000   1.0000   1.0000
     1.0000   1.0000   1.0000   1.0000   1.0000   1.0000   1.0000   1.0000
     1.0000   1.0000   1.0000   1.0000   1.0000   1.0000   1.0000   1.0000
     1.0000   1.0000   1.0000   1.0000   1.0000   1.0000   1.0000   1.0000
     1.0000   1.0000   1.0000   1.0000   1.0000   1.0000   1.0000   1.0000
     1.0000   1.0000   1.0000   1.0000   1.0000   1.0000   1.0000   1.0000
     1.0000   1.0000   1.0000   1.0000   1.0000   1.0000   1.0000   1.0000
     1.0000   1.0000   1.0000   1.0000   1.0000   1.0000   1.0000   1.0000
     1.0000   1.0000   1.0000   1.0000   1.0000   1.0000   1.0000   1.0000
     1.0000   1.0000   1.0000   1.0000   1.0000   1.0000   1.0000   1.0000
     1.0000   1.0000   1.0000   1.0000   1.0000   1.0000   1.0000   1.0000
     1.0000   1.0000   1.0000   1.0000   1.0000   1.0000   1.0000   1.0000
     1.0000   1.0000   1.0000   1.0000   1.0000   1.0000   1.0000   1.0000
     1.0000   1.0000   1.0000   0.9999   0.9999   0.9999   0.9999   0.9993
     0.9988   0.9985   0.9983   0.9982   0.9978   0.9976   0.9971   0.9967
     0.9964   0.9960   0.9953   0.9950   0.9939   0.9935   0.9921   0.9894
     0.9886   0.9876   0.9858   0.9841   0.9817   0.9782   0.9677   0.9539
     0.9484   0.9412   0.9376   0.9249   0.9151   0.9088   0.9034   0.8974
     0.8677   0.8562   0.8301   0.8256   0.8211   0.7460   0.7419   0.7353
     0.7303   0.7251   0.7186   0.7155   0.7062   0.7022   0.6938   0.6889
     0.6821   0.6772   0.6731   0.6563   0.6500   0.6447   0.6261   0.4547
     0.4074   0.3751   0.3394   0.3267   0.2270   0.1734   0.0785   0.0490
     0.0276   0.0156   0.0072   0.0029   0.0004   0.0004   0.0003   0.0001
     0.0001   0.0001   0.0000   0.0000   0.0000   0.0000   0.0000   0.0000
     0.0000   0.0000   0.0000   0.0000   0.0000   0.0000   0.0000   0.0000
     0.0000   0.0000   0.0000   0.0000   0.0000   0.0000   0.0000

          k =-0.5000 0.2500 0.0000 ( 65138 PWs)   bands (ev):

   -92.3395 -92.2845 -92.1933 -92.1449 -92.0852 -92.0457 -92.0285 -91.9064
   -55.6926 -55.6708 -55.5512 -55.5406 -55.5332 -55.5273 -55.4895 -55.4629
   -55.4466 -55.4447 -55.4357 -55.3936 -55.3759 -55.3372 -55.3192 -55.2849
   -55.2802 -55.2347 -55.2329 -55.2315 -55.2230 -55.1810 -55.1593 -55.0731
   -30.9223 -30.9117 -30.7985 -30.7660 -30.6808 -30.6331 -30.5505 -30.4871
   -29.4881 -29.4500 -29.4212 -29.3141 -22.2534 -14.6274 -14.5847 -14.5061
   -14.4067 -14.3628 -14.2366 -14.1564 -14.0237 -13.7790 -13.7120 -13.6833
   -13.6710 -13.6284 -13.6093 -13.5793 -13.5479 -13.5396 -13.5138 -13.4740
   -13.4636 -13.3651 -13.2836 -13.2438 -13.2330 -13.2230 -13.1541 -13.1171
   -13.0323 -12.9718 -12.8503 -12.8140 -12.7322 -12.7067 -12.6761 -12.6647
   -12.6319 -12.6230 -12.5984 -12.5894 -12.5347 -12.5188 -12.4723 -12.4424
   -12.4244 -12.3943 -12.2712 -12.2640 -12.1885 -12.1083 -11.9729 -11.9440
   -11.8769 -11.8510 -11.4140 -11.4015 -11.3875 -11.3754 -11.3547 -11.3246
   -11.2429 -11.2346 -11.2111 -11.1756 -11.1475 -11.1382  -5.9089  -3.1567
    -3.1530  -2.0833  -2.0408  -1.8913  -1.8493  -1.6901  -1.6146  -1.4708
    -1.3341  -1.2786  -1.2507  -1.2120  -1.1721  -1.0921  -0.9774  -0.9209
    -0.8972  -0.8724  -0.7983  -0.7662  -0.7309  -0.7106  -0.6504  -0.6228
    -0.5824  -0.5472  -0.5186  -0.4616  -0.4348  -0.3928  -0.3593  -0.2556
    -0.2300  -0.1444  -0.0802  -0.0500   0.0064   0.0935   0.1235   0.2275
     0.2558   0.3191   0.3632   0.3885   0.4714   0.5023   0.5329   0.5882
     0.6256   0.9274   0.9776   1.0578   1.0720   1.3610   1.4208   1.4967
     1.5198   1.7028   1.7386   1.7761   1.7908   1.8089   1.8269   1.8944
     1.9381   1.9739   2.0027   2.1123   2.1516   2.1922   2.2032   2.2356
     2.2640   2.2791   2.2936   2.3146   2.3390   2.3820   2.4065   2.4376
     2.4627   2.4863   2.5541   2.6722   2.7726   2.8011   2.8714   2.9126
     2.9707   3.0079   3.0161   3.0425   3.0561   3.0590   3.0859   3.1111
     3.1937   3.2355   3.2484   3.2557   3.2766   3.2994   3.3123   3.3259
     3.3400   3.3587   3.3732   3.3832   3.3911   3.4012   3.4137   3.9371
     3.9711   4.1329   4.1533   4.4304   4.4879   4.5398   4.7441   5.0552
     5.1744   5.2060   5.3472   5.4644   5.7141   5.7675   5.8247   5.9313
     6.0493   6.1184   6.3480   6.4522   6.5678   6.6522   7.1602   7.3341
     7.5101   7.6443   7.9654   8.0628   8.1815   8.2312   8.3140   8.4280
     8.5306   8.5953   8.7285   8.7893   8.8656   8.9245   8.9649

     occupation numbers 
     1.0000   1.0000   1.0000   1.0000   1.0000   1.0000   1.0000   1.0000
     1.0000   1.0000   1.0000   1.0000   1.0000   1.0000   1.0000   1.0000
     1.0000   1.0000   1.0000   1.0000   1.0000   1.0000   1.0000   1.0000
     1.0000   1.0000   1.0000   1.0000   1.0000   1.0000   1.0000   1.0000
     1.0000   1.0000   1.0000   1.0000   1.0000   1.0000   1.0000   1.0000
     1.0000   1.0000   1.0000   1.0000   1.0000   1.0000   1.0000   1.0000
     1.0000   1.0000   1.0000   1.0000   1.0000   1.0000   1.0000   1.0000
     1.0000   1.0000   1.0000   1.0000   1.0000   1.0000   1.0000   1.0000
     1.0000   1.0000   1.0000   1.0000   1.0000   1.0000   1.0000   1.0000
     1.0000   1.0000   1.0000   1.0000   1.0000   1.0000   1.0000   1.0000
     1.0000   1.0000   1.0000   1.0000   1.0000   1.0000   1.0000   1.0000
     1.0000   1.0000   1.0000   1.0000   1.0000   1.0000   1.0000   1.0000
     1.0000   1.0000   1.0000   1.0000   1.0000   1.0000   1.0000   1.0000
     1.0000   1.0000   1.0000   1.0000   1.0000   1.0000   1.0000   1.0000
     1.0000   1.0000   1.0000   1.0000   1.0000   1.0000   1.0000   1.0000
     1.0000   1.0000   1.0000   1.0000   1.0000   1.0000   1.0000   1.0000
     1.0000   1.0000   1.0000   1.0000   1.0000   1.0000   1.0000   1.0000
     1.0000   1.0000   1.0000   1.0000   1.0000   1.0000   1.0000   1.0000
     1.0000   1.0000   1.0000   1.0000   1.0000   1.0000   1.0000   1.0000
     1.0000   1.0000   1.0000   1.0000   1.0000   1.0000   1.0000   1.0000
     1.0000   1.0000   1.0000   1.0000   0.9999   0.9997   0.9996   0.9994
     0.9994   0.9984   0.9981   0.9977   0.9976   0.9974   0.9971   0.9961
     0.9953   0.9945   0.9938   0.9903   0.9887   0.9868   0.9862   0.9844
     0.9827   0.9817   0.9807   0.9792   0.9773   0.9737   0.9714   0.9682
     0.9654   0.9627   0.9537   0.9341   0.9127   0.9058   0.8870   0.8749
     0.8562   0.8433   0.8404   0.8307   0.8255   0.8244   0.8139   0.8037
     0.7680   0.7486   0.7425   0.7390   0.7288   0.7175   0.7110   0.7040
     0.6968   0.6870   0.6793   0.6740   0.6698   0.6643   0.6575   0.3551
     0.3365   0.2539   0.2443   0.1348   0.1171   0.1027   0.0582   0.0211
     0.0136   0.0120   0.0068   0.0042   0.0013   0.0010   0.0008   0.0004
     0.0002   0.0002   0.0000   0.0000   0.0000   0.0000   0.0000   0.0000
     0.0000   0.0000   0.0000   0.0000   0.0000   0.0000   0.0000   0.0000
     0.0000   0.0000   0.0000   0.0000   0.0000   0.0000   0.0000

     the Fermi energy is     3.6869 ev

!    total energy              =   -4482.97465393 Ry
     estimated scf accuracy    <          5.4E-09 Ry
     smearing contrib. (-TS)   =      -1.17226878 Ry
     internal energy E=F+TS    =   -4481.80238515 Ry

     The total energy is F=E-TS. E is the sum of the following terms:
     one-electron contribution =  -20252.60178982 Ry
     hartree contribution      =   10265.95254464 Ry
     xc contribution           =    -701.58501292 Ry
     ewald contribution        =    6492.08703902 Ry
     one-center paw contrib.   =    -285.65516607 Ry
      -> PAW hartree energy AE =      25.18475476 Ry
      -> PAW hartree energy PS =     -25.06845379 Ry
      -> PAW xc energy AE      =     -16.52052226 Ry
      -> PAW xc energy PS      =       6.88015951 Ry
      -> total E_H with PAW    =   10266.06884561 Ry
      -> total E_XC with PAW   =    -711.22537568 Ry

     convergence has been achieved in  49 iterations

     Writing all to output data dir /bsuhome/zayahcortright/scratch/pwscf.save/
 
     init_run     :      8.86s CPU      9.29s WALL (       1 calls)
     electrons    :    771.48s CPU    794.01s WALL (       1 calls)

     Called by init_run:
     wfcinit      :      6.95s CPU      7.18s WALL (       1 calls)
     wfcinit:atom :      0.06s CPU      0.07s WALL (       5 calls)
     wfcinit:wfcr :      6.61s CPU      6.78s WALL (       5 calls)
     potinit      :      0.16s CPU      0.18s WALL (       1 calls)
     hinit0       :      0.70s CPU      0.81s WALL (       1 calls)

     Called by electrons:
     c_bands      :    619.41s CPU    626.10s WALL (      49 calls)
     sum_band     :    114.75s CPU    123.63s WALL (      49 calls)
     v_of_rho     :      5.46s CPU      5.81s WALL (      50 calls)
     v_h          :      0.46s CPU      0.46s WALL (      50 calls)
     v_xc         :      5.00s CPU      5.35s WALL (      50 calls)
     newd         :     17.09s CPU     23.23s WALL (      50 calls)
     PAW_pot      :      1.59s CPU      1.62s WALL (      50 calls)
     mix_rho      :     12.84s CPU     13.16s WALL (      49 calls)

     Called by c_bands:
     init_us_2    :      6.61s CPU      6.65s WALL (     495 calls)
     init_us_2:cp :      6.60s CPU      6.65s WALL (     495 calls)
     cegterg      :    586.60s CPU    593.03s WALL (     245 calls)

     Called by sum_band:
     sum_band:wei :      0.34s CPU      0.35s WALL (      49 calls)
     sum_band:loo :     97.12s CPU     97.95s WALL (      49 calls)
     sum_band:buf :      1.46s CPU      1.54s WALL (     245 calls)
     sum_band:ini :      3.09s CPU      3.10s WALL (     245 calls)
     sum_band:cal :     20.42s CPU     20.48s WALL (     245 calls)
     sum_band:bec :      0.56s CPU      0.58s WALL (     245 calls)
     addusdens    :     16.07s CPU     24.06s WALL (      49 calls)
                                        0.00s GPU  (      49 calls)
     addusd:skk   :      0.32s CPU      0.81s WALL (     196 calls)
                                        0.00s GPU  (     196 calls)

     Called by *egterg:
     cdiaghg      :     64.48s CPU     64.78s WALL (    1459 calls)
     cegterg:over :     42.70s CPU     42.91s WALL (    1214 calls)
     cegterg:upda :     33.08s CPU     33.67s WALL (    1214 calls)
     cegterg:last :     65.82s CPU     66.14s WALL (     459 calls)
     cdiaghg:chol :      3.63s CPU      3.65s WALL (    1459 calls)
     cdiaghg:inve :      3.98s CPU      4.00s WALL (    1459 calls)
     cdiaghg:para :      8.00s CPU      8.04s WALL (    2918 calls)
     h_psi        :    320.78s CPU    324.14s WALL (    1464 calls)
     s_psi        :     43.86s CPU     44.00s WALL (    1464 calls)
     g_psi        :      1.15s CPU      1.16s WALL (    1214 calls)

     Called by h_psi:
     h_psi:calbec :     48.23s CPU     48.45s WALL (    1464 calls)
     vloc_psi     :    225.72s CPU    228.02s WALL (    1464 calls)
     add_vuspsi   :     43.74s CPU     44.01s WALL (    1464 calls)

     General routines
     calbec       :     68.64s CPU     68.93s WALL (    1709 calls)
     fft          :      3.67s CPU      3.71s WALL (     648 calls)
     ffts         :      4.58s CPU      4.62s WALL (    5129 calls)
     fftw         :    192.91s CPU    194.59s WALL (  339407 calls)
     interpolate  :      0.42s CPU      0.42s WALL (      50 calls)
 
     Parallel routines

     PAW routines
     PAW_pot      :      1.59s CPU      1.62s WALL (      50 calls)
 
     PWSCF        :  13m 2.17s CPU  13m29.23s WALL

 
   This run was terminated on:  17:47:55  20Jun2024            

=------------------------------------------------------------------------------=
   JOB DONE.
=------------------------------------------------------------------------------=
