
     Program PWSCF v.7.2 starts on 22Jun2024 at  2:21:17 

     This program is part of the open-source Quantum ESPRESSO suite
     for quantum simulation of materials; please cite
         "P. Giannozzi et al., J. Phys.:Condens. Matter 21 395502 (2009);
         "P. Giannozzi et al., J. Phys.:Condens. Matter 29 465901 (2017);
         "P. Giannozzi et al., J. Chem. Phys. 152 154105 (2020);
          URL http://www.quantum-espresso.org", 
     in publications or presentations arising from this work. More details at
     http://www.quantum-espresso.org/quote

     Parallel version (MPI & OpenMP), running on      48 processor cores
     Number of MPI processes:                48
     Threads/MPI process:                     1

     MPI processes distributed on     1 nodes
     60568 MiB available memory on the printing compute node when the environment starts
 
     Reading input from espresso.pwi
Warning: card &CELL ignored
Warning: card / ignored
Warning: card &FCP ignored
Warning: card / ignored
Warning: card &RISM ignored
Warning: card / ignored

     Current dimensions of program PWSCF are:
     Max number of different atomic species (ntypx) = 10
     Max number of k-points (npk) =  40000
     Max angular momentum in pseudopotentials (lmaxx) =  4
     file O.pbe-n-kjpaw_psl.0.1.UPF: wavefunction(s)  2P renormalized
     signal trapping enabled: kill the code with -SIGUSR1 to stop cleanly the simulation 
 
     K-points division:     npool     =       2
     R & G space division:  proc/nbgrp/npool/nimage =      24
     Subspace diagonalization in iterative solution of the eigenvalue problem:
     one sub-group per band group will be used
     scalapack distributed-memory algorithm (size of sub-group:  3*  3 procs)

 
     Parallelization info
     --------------------
     sticks:   dense  smooth     PW     G-vecs:    dense   smooth      PW
     Min         350     175     47                61430    21716    3036
     Max         351     177     48                61449    21727    3041
     Sum        8421    4205   1137              1474595   521381   72913
 
     Using Slab Decomposition
 


     bravais-lattice index     =            0
     lattice parameter (alat)  =      14.8599  a.u.
     unit-cell volume          =    8305.1283 (a.u.)^3
     number of atoms/cell      =           49
     number of atomic types    =            3
     number of electrons       =       430.00
     number of Kohn-Sham states=          258
     kinetic-energy cutoff     =      60.0000  Ry
     charge density cutoff     =     480.0000  Ry
     scf convergence threshold =      1.0E-08
     mixing beta               =       0.1500
     number of iterations used =            8  local-TF  mixing
     Exchange-correlation= SLA  PW   PBE  PBE
                           (   1   4   3   4   0   0   0)

     celldm(1)=  14.859904  celldm(2)=   0.000000  celldm(3)=   0.000000
     celldm(4)=   0.000000  celldm(5)=   0.000000  celldm(6)=   0.000000

     crystal axes: (cart. coord. in units of alat)
               a(1) = (   1.000000   0.000000   0.000000 )  
               a(2) = (   0.000000   1.000000   0.000000 )  
               a(3) = (   0.000000   0.000000   2.531036 )  

     reciprocal axes: (cart. coord. in units 2 pi/alat)
               b(1) = (  1.000000  0.000000  0.000000 )  
               b(2) = (  0.000000  1.000000  0.000000 )  
               b(3) = (  0.000000  0.000000  0.395095 )  


     PseudoPot. # 1 for Sr read from file:
     /bsuhome/zayahcortright/q-e/pseudo/Sr_pbe_v1.uspp.F.UPF
     MD5 check sum: 6b418c05fbe9db5448babca5e47b7a5b
     Pseudo is Ultrasoft + core correction, Zval = 10.0
     Generated by new atomic code, or converted to UPF format
     Using radial grid of  883 points,  6 beta functions with: 
                l(1) =   0
                l(2) =   0
                l(3) =   1
                l(4) =   1
                l(5) =   2
                l(6) =   2
     Q(r) pseudized with  6 coefficients,  rinner =    1.400   1.400   1.400
                                                       1.400   1.400

     PseudoPot. # 2 for O  read from file:
     /bsuhome/zayahcortright/q-e/pseudo/O.pbe-n-kjpaw_psl.0.1.UPF
     MD5 check sum: 0234752ac141de4415c5fc33072bef88
     Pseudo is Projector augmented-wave + core cor, Zval =  6.0
     Generated using "atomic" code by A. Dal Corso  v.5.0.99 svn rev. 10869
     Shape of augmentation charge: BESSEL
     Using radial grid of 1095 points,  4 beta functions with: 
                l(1) =   0
                l(2) =   0
                l(3) =   1
                l(4) =   1
     Q(r) pseudized with 0 coefficients 


     PseudoPot. # 3 for Co read from file:
     /bsuhome/zayahcortright/q-e/pseudo/Co_pbe_v1.2.uspp.F.UPF
     MD5 check sum: 5f91765df6ddd3222702df6e7b74a16d
     Pseudo is Ultrasoft + core correction, Zval = 17.0
     Generated by new atomic code, or converted to UPF format
     Using radial grid of  863 points,  6 beta functions with: 
                l(1) =   0
                l(2) =   0
                l(3) =   1
                l(4) =   1
                l(5) =   2
                l(6) =   2
     Q(r) pseudized with  8 coefficients,  rinner =    1.200   1.200   1.200
                                                       1.200   1.200

     atomic species   valence    mass     pseudopotential
        Sr            10.00    87.62000     Sr( 1.00)
        O              6.00    15.99900     O ( 1.00)
        Co            17.00    58.93319     Co( 1.00)

     No symmetry found


                                    s                        frac. trans.

      isym =  1     identity                                     

 cryst.   s( 1) = (     1          0          0      )
                  (     0          1          0      )
                  (     0          0          1      )

 cart.    s( 1) = (  1.0000000  0.0000000  0.0000000 )
                  (  0.0000000  1.0000000  0.0000000 )
                  (  0.0000000  0.0000000  1.0000000 )


   Cartesian axes

     site n.     atom                  positions (alat units)
         1           Sr  tau(   1) = (   0.2508693   0.7491307   1.7574407  )
         2           O   tau(   2) = (   0.4985141   0.5014859   1.7715967  )
         3           Sr  tau(   3) = (   0.7482398   0.7454518   1.7648669  )
         4           Sr  tau(   4) = (   0.7441748   0.2558252   1.7667843  )
         5           Sr  tau(   5) = (   0.2508693   0.7491307   1.2696799  )
         6           Sr  tau(   6) = (   0.2508693   0.7491307   0.7632319  )
         7           Co  tau(   7) = (   0.4998914   0.5001086   1.0164559  )
         8           Co  tau(   8) = (   0.4936915   0.5063085   1.5135603  )
         9           O   tau(   9) = (   0.4988895   0.7610401   1.0164559  )
        10           O   tau(  10) = (   0.2389599   0.5011105   1.0164559  )
        11           O   tau(  11) = (   0.0070918   0.7374880   1.0164559  )
        12           O   tau(  12) = (   0.0088340   0.7405089   1.5135603  )
        13           O   tau(  13) = (   0.5066944   0.7415376   1.5135603  )
        14           O   tau(  14) = (   0.2584624   0.4933056   1.5135603  )
        15           O   tau(  15) = (   0.4985141   0.5014859   0.7773880  )
        16           O   tau(  16) = (   0.4985141   0.5014859   1.2555238  )
        17           Sr  tau(  17) = (   0.7482398   0.7454518   0.7706582  )
        18           Sr  tau(  18) = (   0.7482398   0.7454518   1.2622536  )
        19           Sr  tau(  19) = (   0.7441748   0.2558252   0.7725755  )
        20           Sr  tau(  20) = (   0.7441748   0.2558252   1.2603363  )
        21           O   tau(  21) = (   0.7322655   0.0078049   1.5135603  )
        22           O   tau(  22) = (   0.7558175   0.4996027   1.5135603  )
        23           O   tau(  23) = (   0.5003973   0.2441825   1.5135603  )
        24           O   tau(  24) = (   0.7527966   0.4978604   1.0164559  )
        25           O   tau(  25) = (   0.5021396   0.2472034   1.0164559  )
        26           O   tau(  26) = (   0.7517679   0.0000000   1.0164559  )
        27           O   tau(  27) = (   0.0114961   0.4948124   1.7455321  )
        28           O   tau(  28) = (   0.0048226   0.0077944   1.7715967  )
        29           Sr  tau(  29) = (   0.2545482   0.2517602   1.7648669  )
        30           O   tau(  30) = (   0.5048017   0.0015068   1.7786929  )
        31           Co  tau(  31) = (   0.0056869   0.5006215   1.0164559  )
        32           Co  tau(  32) = (   0.0065315   0.4997770   1.5135603  )
        33           Co  tau(  33) = (   0.0061999   0.0064171   1.0164559  )
        34           Co  tau(  34) = (   0.0000000   0.0126169   1.5135603  )
        35           O   tau(  35) = (   0.0114961   0.4948124   1.2815885  )
        36           O   tau(  36) = (   0.0114961   0.4948124   0.7513233  )
        37           O   tau(  37) = (   0.0051979   0.2673486   1.0164559  )
        38           O   tau(  38) = (   0.0130029   0.2478461   1.5135603  )
        39           O   tau(  39) = (   0.0048226   0.0077944   0.7773880  )
        40           O   tau(  40) = (   0.0048226   0.0077944   1.2555238  )
        41           Sr  tau(  41) = (   0.2545482   0.2517602   0.7706582  )
        42           Sr  tau(  42) = (   0.2545482   0.2517602   1.2622536  )
        43           Co  tau(  43) = (   0.4989925   0.0073160   1.5135603  )
        44           Co  tau(  44) = (   0.4998370   0.0064714   1.0164559  )
        45           O   tau(  45) = (   0.5048017   0.0015068   0.7844841  )
        46           O   tau(  46) = (   0.5048017   0.0015068   1.2484277  )
        47           O   tau(  47) = (   0.2621260   0.0059111   1.5135603  )
        48           O   tau(  48) = (   0.2591051   0.0041689   1.0164559  )
        49           O   tau(  49) = (   0.9951520   0.1421646   2.1602013  )

   Crystallographic axes

     site n.     atom                  positions (cryst. coord.)
         1           Sr  tau(   1) = (  0.2508693  0.7491307  0.6943562  )
         2           O   tau(   2) = (  0.4985141  0.5014859  0.6999492  )
         3           Sr  tau(   3) = (  0.7482398  0.7454518  0.6972903  )
         4           Sr  tau(   4) = (  0.7441748  0.2558252  0.6980478  )
         5           Sr  tau(   5) = (  0.2508693  0.7491307  0.5016443  )
         6           Sr  tau(   6) = (  0.2508693  0.7491307  0.3015492  )
         7           Co  tau(   7) = (  0.4998914  0.5001086  0.4015968  )
         8           Co  tau(   8) = (  0.4936915  0.5063085  0.5980003  )
         9           O   tau(   9) = (  0.4988895  0.7610401  0.4015968  )
        10           O   tau(  10) = (  0.2389599  0.5011105  0.4015968  )
        11           O   tau(  11) = (  0.0070918  0.7374880  0.4015968  )
        12           O   tau(  12) = (  0.0088340  0.7405089  0.5980003  )
        13           O   tau(  13) = (  0.5066944  0.7415376  0.5980003  )
        14           O   tau(  14) = (  0.2584624  0.4933056  0.5980003  )
        15           O   tau(  15) = (  0.4985141  0.5014859  0.3071422  )
        16           O   tau(  16) = (  0.4985141  0.5014859  0.4960513  )
        17           Sr  tau(  17) = (  0.7482398  0.7454518  0.3044833  )
        18           Sr  tau(  18) = (  0.7482398  0.7454518  0.4987103  )
        19           Sr  tau(  19) = (  0.7441748  0.2558252  0.3052408  )
        20           Sr  tau(  20) = (  0.7441748  0.2558252  0.4979527  )
        21           O   tau(  21) = (  0.7322655  0.0078049  0.5980003  )
        22           O   tau(  22) = (  0.7558175  0.4996027  0.5980003  )
        23           O   tau(  23) = (  0.5003973  0.2441825  0.5980003  )
        24           O   tau(  24) = (  0.7527966  0.4978604  0.4015968  )
        25           O   tau(  25) = (  0.5021396  0.2472034  0.4015968  )
        26           O   tau(  26) = (  0.7517679  0.0000000  0.4015968  )
        27           O   tau(  27) = (  0.0114961  0.4948124  0.6896512  )
        28           O   tau(  28) = (  0.0048226  0.0077944  0.6999492  )
        29           Sr  tau(  29) = (  0.2545482  0.2517602  0.6972903  )
        30           O   tau(  30) = (  0.5048017  0.0015068  0.7027529  )
        31           Co  tau(  31) = (  0.0056869  0.5006215  0.4015968  )
        32           Co  tau(  32) = (  0.0065315  0.4997770  0.5980003  )
        33           Co  tau(  33) = (  0.0061999  0.0064171  0.4015968  )
        34           Co  tau(  34) = (  0.0000000  0.0126169  0.5980003  )
        35           O   tau(  35) = (  0.0114961  0.4948124  0.5063494  )
        36           O   tau(  36) = (  0.0114961  0.4948124  0.2968442  )
        37           O   tau(  37) = (  0.0051979  0.2673486  0.4015968  )
        38           O   tau(  38) = (  0.0130029  0.2478461  0.5980003  )
        39           O   tau(  39) = (  0.0048226  0.0077944  0.3071422  )
        40           O   tau(  40) = (  0.0048226  0.0077944  0.4960513  )
        41           Sr  tau(  41) = (  0.2545482  0.2517602  0.3044833  )
        42           Sr  tau(  42) = (  0.2545482  0.2517602  0.4987103  )
        43           Co  tau(  43) = (  0.4989925  0.0073160  0.5980003  )
        44           Co  tau(  44) = (  0.4998370  0.0064714  0.4015968  )
        45           O   tau(  45) = (  0.5048017  0.0015068  0.3099459  )
        46           O   tau(  46) = (  0.5048017  0.0015068  0.4932477  )
        47           O   tau(  47) = (  0.2621260  0.0059111  0.5980003  )
        48           O   tau(  48) = (  0.2591051  0.0041689  0.4015968  )
        49           O   tau(  49) = (  0.9951520  0.1421646  0.8534850  )

     number of k points=    10  Gaussian smearing, width (Ry)=  0.0700
                       cart. coord. in units 2pi/alat
        k(    1) = (   0.0000000   0.0000000   0.0000000), wk =   0.1250000
        k(    2) = (   0.0000000   0.2500000   0.0000000), wk =   0.2500000
        k(    3) = (   0.0000000  -0.5000000   0.0000000), wk =   0.1250000
        k(    4) = (   0.2500000   0.2500000   0.0000000), wk =   0.2500000
        k(    5) = (   0.2500000  -0.5000000   0.0000000), wk =   0.2500000
        k(    6) = (  -0.5000000  -0.5000000   0.0000000), wk =   0.1250000
        k(    7) = (   0.2500000   0.0000000   0.0000000), wk =   0.2500000
        k(    8) = (  -0.5000000   0.0000000   0.0000000), wk =   0.1250000
        k(    9) = (  -0.2500000   0.2500000   0.0000000), wk =   0.2500000
        k(   10) = (  -0.5000000   0.2500000   0.0000000), wk =   0.2500000

                       cryst. coord.
        k(    1) = (   0.0000000   0.0000000   0.0000000), wk =   0.1250000
        k(    2) = (   0.0000000   0.2500000   0.0000000), wk =   0.2500000
        k(    3) = (   0.0000000  -0.5000000   0.0000000), wk =   0.1250000
        k(    4) = (   0.2500000   0.2500000   0.0000000), wk =   0.2500000
        k(    5) = (   0.2500000  -0.5000000   0.0000000), wk =   0.2500000
        k(    6) = (  -0.5000000  -0.5000000   0.0000000), wk =   0.1250000
        k(    7) = (   0.2500000   0.0000000   0.0000000), wk =   0.2500000
        k(    8) = (  -0.5000000   0.0000000   0.0000000), wk =   0.1250000
        k(    9) = (  -0.2500000   0.2500000   0.0000000), wk =   0.2500000
        k(   10) = (  -0.5000000   0.2500000   0.0000000), wk =   0.2500000

     Dense  grid:  1474595 G-vectors     FFT dimensions: ( 108, 108, 270)

     Smooth grid:   521381 G-vectors     FFT dimensions: (  75,  75, 192)

     Dynamical RAM for                 wfc:      10.69 MB

     Dynamical RAM for     wfc (w. buffer):      64.13 MB

     Dynamical RAM for           str. fact:       2.81 MB

     Dynamical RAM for           local pot:       0.00 MB

     Dynamical RAM for          nlocal pot:      24.53 MB

     Dynamical RAM for                qrad:       5.27 MB

     Dynamical RAM for          rho,v,vnew:       6.02 MB

     Dynamical RAM for               rhoin:       2.01 MB

     Dynamical RAM for            rho*nmix:      15.00 MB

     Dynamical RAM for           G-vectors:       3.68 MB

     Dynamical RAM for          h,s,v(r/c):       1.35 MB

     Dynamical RAM for          <psi|beta>:       2.33 MB

     Dynamical RAM for                 psi:      21.38 MB

     Dynamical RAM for                hpsi:      21.38 MB

     Dynamical RAM for                spsi:      21.38 MB

     Dynamical RAM for      wfcinit/wfcrot:      34.39 MB

     Dynamical RAM for           addusdens:     101.26 MB

     Estimated static dynamical RAM per process >     117.53 MB

     Estimated max dynamical RAM per process >     233.79 MB

     Estimated total dynamical RAM >      10.61 GB

     Check: negative core charge=   -0.000004

     Initial potential from superposition of free atoms

     starting charge     421.5961, renormalised to     430.0000

     negative rho (up, down):  7.826E-01 0.000E+00
     Starting wfcs are  376 randomized atomic wfcs
     Checking if some PAW data can be deallocated... 
       PAW data deallocated on   19 nodes for type:  2

     total cpu time spent up to now is        9.1 secs

     Self-consistent Calculation

     iteration #  1     ecut=    60.00 Ry     beta= 0.15
     Davidson diagonalization with overlap

---- Real-time Memory Report at c_bands before calling an iterative solver
             0 MiB given to the printing process from OS
             0 MiB allocation reported by mallinfo(arena+hblkhd)
         51468 MiB available memory on the node where the printing process lives
------------------
     ethr =  1.00E-02,  avg # of iterations =  2.0

     negative rho (up, down):  7.716E-01 0.000E+00

     total cpu time spent up to now is       25.0 secs

     total energy              =   -4445.20995427 Ry
     estimated scf accuracy    <      53.95644502 Ry

     iteration #  2     ecut=    60.00 Ry     beta= 0.15
     Davidson diagonalization with overlap

---- Real-time Memory Report at c_bands before calling an iterative solver
             0 MiB given to the printing process from OS
             0 MiB allocation reported by mallinfo(arena+hblkhd)
         51858 MiB available memory on the node where the printing process lives
------------------
     ethr =  1.00E-02,  avg # of iterations =  1.0

     negative rho (up, down):  7.589E-01 0.000E+00

     total cpu time spent up to now is       37.9 secs

     total energy              =   -4441.89764394 Ry
     estimated scf accuracy    <      28.29834403 Ry

     iteration #  3     ecut=    60.00 Ry     beta= 0.15
     Davidson diagonalization with overlap

---- Real-time Memory Report at c_bands before calling an iterative solver
             0 MiB given to the printing process from OS
             0 MiB allocation reported by mallinfo(arena+hblkhd)
         51089 MiB available memory on the node where the printing process lives
------------------
     ethr =  6.58E-03,  avg # of iterations =  1.0

     negative rho (up, down):  7.531E-01 0.000E+00

     total cpu time spent up to now is       51.3 secs

     total energy              =   -4442.61714330 Ry
     estimated scf accuracy    <      29.28470457 Ry

     iteration #  4     ecut=    60.00 Ry     beta= 0.15
     Davidson diagonalization with overlap

---- Real-time Memory Report at c_bands before calling an iterative solver
             0 MiB given to the printing process from OS
             0 MiB allocation reported by mallinfo(arena+hblkhd)
         51031 MiB available memory on the node where the printing process lives
------------------
     ethr =  6.58E-03,  avg # of iterations =  1.0

     negative rho (up, down):  7.540E-01 0.000E+00

     total cpu time spent up to now is       64.4 secs

     total energy              =   -4442.53811712 Ry
     estimated scf accuracy    <      27.14484465 Ry

     iteration #  5     ecut=    60.00 Ry     beta= 0.15
     Davidson diagonalization with overlap

---- Real-time Memory Report at c_bands before calling an iterative solver
             0 MiB given to the printing process from OS
             0 MiB allocation reported by mallinfo(arena+hblkhd)
         51016 MiB available memory on the node where the printing process lives
------------------
     ethr =  6.31E-03,  avg # of iterations =  1.0

     negative rho (up, down):  7.381E-01 0.000E+00

     total cpu time spent up to now is       77.3 secs

     total energy              =   -4441.52666497 Ry
     estimated scf accuracy    <      20.07836542 Ry

     iteration #  6     ecut=    60.00 Ry     beta= 0.15
     Davidson diagonalization with overlap

---- Real-time Memory Report at c_bands before calling an iterative solver
             0 MiB given to the printing process from OS
             0 MiB allocation reported by mallinfo(arena+hblkhd)
         50995 MiB available memory on the node where the printing process lives
------------------
     ethr =  4.67E-03,  avg # of iterations =  1.0

     negative rho (up, down):  7.419E-01 0.000E+00

     total cpu time spent up to now is       90.0 secs

     total energy              =   -4443.45662246 Ry
     estimated scf accuracy    <      61.75178924 Ry

     iteration #  7     ecut=    60.00 Ry     beta= 0.15
     Davidson diagonalization with overlap

---- Real-time Memory Report at c_bands before calling an iterative solver
             0 MiB given to the printing process from OS
             0 MiB allocation reported by mallinfo(arena+hblkhd)
         50978 MiB available memory on the node where the printing process lives
------------------
     ethr =  4.67E-03,  avg # of iterations =  1.0

     negative rho (up, down):  7.496E-01 0.000E+00

     total cpu time spent up to now is      102.8 secs

     total energy              =   -4439.08252413 Ry
     estimated scf accuracy    <      54.25635175 Ry

     iteration #  8     ecut=    60.00 Ry     beta= 0.15
     Davidson diagonalization with overlap

---- Real-time Memory Report at c_bands before calling an iterative solver
             0 MiB given to the printing process from OS
             0 MiB allocation reported by mallinfo(arena+hblkhd)
         50965 MiB available memory on the node where the printing process lives
------------------
     ethr =  4.67E-03,  avg # of iterations =  1.0

     negative rho (up, down):  7.467E-01 0.000E+00

     total cpu time spent up to now is      115.8 secs

     total energy              =   -4441.22730084 Ry
     estimated scf accuracy    <       9.51869761 Ry

     iteration #  9     ecut=    60.00 Ry     beta= 0.15
     Davidson diagonalization with overlap

---- Real-time Memory Report at c_bands before calling an iterative solver
             0 MiB given to the printing process from OS
             0 MiB allocation reported by mallinfo(arena+hblkhd)
         50946 MiB available memory on the node where the printing process lives
------------------
     ethr =  2.21E-03,  avg # of iterations =  1.1

     negative rho (up, down):  7.552E-01 0.000E+00

     total cpu time spent up to now is      129.2 secs

     total energy              =   -4441.05122212 Ry
     estimated scf accuracy    <       6.13326615 Ry

     iteration # 10     ecut=    60.00 Ry     beta= 0.15
     Davidson diagonalization with overlap

---- Real-time Memory Report at c_bands before calling an iterative solver
             0 MiB given to the printing process from OS
             0 MiB allocation reported by mallinfo(arena+hblkhd)
         50924 MiB available memory on the node where the printing process lives
------------------
     ethr =  1.43E-03,  avg # of iterations =  2.0

     negative rho (up, down):  7.700E-01 0.000E+00

     total cpu time spent up to now is      143.7 secs

     total energy              =   -4440.40579214 Ry
     estimated scf accuracy    <       7.71617469 Ry

     iteration # 11     ecut=    60.00 Ry     beta= 0.15
     Davidson diagonalization with overlap

---- Real-time Memory Report at c_bands before calling an iterative solver
             0 MiB given to the printing process from OS
             0 MiB allocation reported by mallinfo(arena+hblkhd)
         50917 MiB available memory on the node where the printing process lives
------------------
     ethr =  1.43E-03,  avg # of iterations =  5.7

     negative rho (up, down):  7.765E-01 0.000E+00

     total cpu time spent up to now is      159.9 secs

     total energy              =   -4439.67405421 Ry
     estimated scf accuracy    <      28.22586799 Ry

     iteration # 12     ecut=    60.00 Ry     beta= 0.15
     Davidson diagonalization with overlap

---- Real-time Memory Report at c_bands before calling an iterative solver
             0 MiB given to the printing process from OS
             0 MiB allocation reported by mallinfo(arena+hblkhd)
         50819 MiB available memory on the node where the printing process lives
------------------
     ethr =  1.43E-03,  avg # of iterations =  5.9

     negative rho (up, down):  7.791E-01 0.000E+00

     total cpu time spent up to now is      176.4 secs

     total energy              =   -4440.60913991 Ry
     estimated scf accuracy    <       2.68310403 Ry

     iteration # 13     ecut=    60.00 Ry     beta= 0.15
     Davidson diagonalization with overlap

---- Real-time Memory Report at c_bands before calling an iterative solver
             0 MiB given to the printing process from OS
             0 MiB allocation reported by mallinfo(arena+hblkhd)
         50755 MiB available memory on the node where the printing process lives
------------------
     ethr =  6.24E-04,  avg # of iterations = 10.5

     negative rho (up, down):  7.892E-01 0.000E+00

     total cpu time spent up to now is      195.6 secs

     total energy              =   -4440.42091300 Ry
     estimated scf accuracy    <       2.39567273 Ry

     iteration # 14     ecut=    60.00 Ry     beta= 0.15
     Davidson diagonalization with overlap

---- Real-time Memory Report at c_bands before calling an iterative solver
             0 MiB given to the printing process from OS
             0 MiB allocation reported by mallinfo(arena+hblkhd)
         50507 MiB available memory on the node where the printing process lives
------------------
     ethr =  5.57E-04,  avg # of iterations =  1.2

     negative rho (up, down):  8.026E-01 0.000E+00

     total cpu time spent up to now is      208.8 secs

     total energy              =   -4440.45129082 Ry
     estimated scf accuracy    <       0.87702218 Ry

     iteration # 15     ecut=    60.00 Ry     beta= 0.15
     Davidson diagonalization with overlap

---- Real-time Memory Report at c_bands before calling an iterative solver
             0 MiB given to the printing process from OS
             0 MiB allocation reported by mallinfo(arena+hblkhd)
         50563 MiB available memory on the node where the printing process lives
------------------
     ethr =  2.04E-04,  avg # of iterations =  5.6

     negative rho (up, down):  8.208E-01 0.000E+00

     total cpu time spent up to now is      224.7 secs

     total energy              =   -4440.37990543 Ry
     estimated scf accuracy    <       1.06119106 Ry

     iteration # 16     ecut=    60.00 Ry     beta= 0.15
     Davidson diagonalization with overlap

---- Real-time Memory Report at c_bands before calling an iterative solver
             0 MiB given to the printing process from OS
             0 MiB allocation reported by mallinfo(arena+hblkhd)
         50537 MiB available memory on the node where the printing process lives
------------------
     ethr =  2.04E-04,  avg # of iterations =  8.5

     negative rho (up, down):  8.265E-01 0.000E+00

     total cpu time spent up to now is      242.3 secs

     total energy              =   -4440.38524601 Ry
     estimated scf accuracy    <       0.58930181 Ry

     iteration # 17     ecut=    60.00 Ry     beta= 0.15
     Davidson diagonalization with overlap

---- Real-time Memory Report at c_bands before calling an iterative solver
             0 MiB given to the printing process from OS
             0 MiB allocation reported by mallinfo(arena+hblkhd)
         50513 MiB available memory on the node where the printing process lives
------------------
     ethr =  1.37E-04,  avg # of iterations =  9.4

     negative rho (up, down):  8.247E-01 0.000E+00

     total cpu time spent up to now is      260.5 secs

     total energy              =   -4440.31762123 Ry
     estimated scf accuracy    <       1.00249743 Ry

     iteration # 18     ecut=    60.00 Ry     beta= 0.15
     Davidson diagonalization with overlap

---- Real-time Memory Report at c_bands before calling an iterative solver
             0 MiB given to the printing process from OS
             0 MiB allocation reported by mallinfo(arena+hblkhd)
         50520 MiB available memory on the node where the printing process lives
------------------
     ethr =  1.37E-04,  avg # of iterations =  1.4

     negative rho (up, down):  8.220E-01 0.000E+00

     total cpu time spent up to now is      274.4 secs

     total energy              =   -4440.33878721 Ry
     estimated scf accuracy    <       0.46047938 Ry

     iteration # 19     ecut=    60.00 Ry     beta= 0.15
     Davidson diagonalization with overlap

---- Real-time Memory Report at c_bands before calling an iterative solver
             0 MiB given to the printing process from OS
             0 MiB allocation reported by mallinfo(arena+hblkhd)
         50513 MiB available memory on the node where the printing process lives
------------------
     ethr =  1.07E-04,  avg # of iterations =  1.7

     negative rho (up, down):  8.159E-01 0.000E+00

     total cpu time spent up to now is      288.6 secs

     total energy              =   -4440.33040133 Ry
     estimated scf accuracy    <       0.21359240 Ry

     iteration # 20     ecut=    60.00 Ry     beta= 0.15
     Davidson diagonalization with overlap

---- Real-time Memory Report at c_bands before calling an iterative solver
             0 MiB given to the printing process from OS
             0 MiB allocation reported by mallinfo(arena+hblkhd)
         50520 MiB available memory on the node where the printing process lives
------------------
     ethr =  4.97E-05,  avg # of iterations = 11.2

     negative rho (up, down):  8.302E-01 0.000E+00

     total cpu time spent up to now is      307.5 secs

     total energy              =   -4440.31475992 Ry
     estimated scf accuracy    <       0.10873636 Ry

     iteration # 21     ecut=    60.00 Ry     beta= 0.15
     Davidson diagonalization with overlap

---- Real-time Memory Report at c_bands before calling an iterative solver
             0 MiB given to the printing process from OS
             0 MiB allocation reported by mallinfo(arena+hblkhd)
         50530 MiB available memory on the node where the printing process lives
------------------
     ethr =  2.53E-05,  avg # of iterations =  9.3

     negative rho (up, down):  8.360E-01 0.000E+00

     total cpu time spent up to now is      326.1 secs

     total energy              =   -4440.28921849 Ry
     estimated scf accuracy    <       0.59711409 Ry

     iteration # 22     ecut=    60.00 Ry     beta= 0.15
     Davidson diagonalization with overlap

---- Real-time Memory Report at c_bands before calling an iterative solver
             0 MiB given to the printing process from OS
             0 MiB allocation reported by mallinfo(arena+hblkhd)
         50382 MiB available memory on the node where the printing process lives
------------------
     ethr =  2.53E-05,  avg # of iterations =  7.9

     negative rho (up, down):  8.380E-01 0.000E+00

     total cpu time spent up to now is      343.4 secs

     total energy              =   -4440.29492765 Ry
     estimated scf accuracy    <       0.10393822 Ry

     iteration # 23     ecut=    60.00 Ry     beta= 0.15
     Davidson diagonalization with overlap

---- Real-time Memory Report at c_bands before calling an iterative solver
             0 MiB given to the printing process from OS
             0 MiB allocation reported by mallinfo(arena+hblkhd)
         50402 MiB available memory on the node where the printing process lives
------------------
     c_bands:  1 eigenvalues not converged
     ethr =  2.42E-05,  avg # of iterations =  6.9

     negative rho (up, down):  8.125E-01 0.000E+00

     total cpu time spent up to now is      360.3 secs

     total energy              =   -4440.29569691 Ry
     estimated scf accuracy    <       0.32524370 Ry

     iteration # 24     ecut=    60.00 Ry     beta= 0.15
     Davidson diagonalization with overlap

---- Real-time Memory Report at c_bands before calling an iterative solver
             0 MiB given to the printing process from OS
             0 MiB allocation reported by mallinfo(arena+hblkhd)
         50405 MiB available memory on the node where the printing process lives
------------------
     ethr =  2.42E-05,  avg # of iterations =  1.1

     negative rho (up, down):  8.001E-01 0.000E+00

     total cpu time spent up to now is      373.2 secs

     total energy              =   -4440.29967770 Ry
     estimated scf accuracy    <       0.01351392 Ry

     iteration # 25     ecut=    60.00 Ry     beta= 0.15
     Davidson diagonalization with overlap

---- Real-time Memory Report at c_bands before calling an iterative solver
             0 MiB given to the printing process from OS
             0 MiB allocation reported by mallinfo(arena+hblkhd)
         50408 MiB available memory on the node where the printing process lives
------------------
     c_bands:  1 eigenvalues not converged
     ethr =  3.14E-06,  avg # of iterations = 11.6

     negative rho (up, down):  7.901E-01 0.000E+00

     total cpu time spent up to now is      391.7 secs

     total energy              =   -4440.29776511 Ry
     estimated scf accuracy    <       0.01106641 Ry

     iteration # 26     ecut=    60.00 Ry     beta= 0.15
     Davidson diagonalization with overlap

---- Real-time Memory Report at c_bands before calling an iterative solver
             0 MiB given to the printing process from OS
             0 MiB allocation reported by mallinfo(arena+hblkhd)
         50427 MiB available memory on the node where the printing process lives
------------------
     c_bands:  1 eigenvalues not converged
     ethr =  2.57E-06,  avg # of iterations =  7.2

     negative rho (up, down):  7.918E-01 0.000E+00

     total cpu time spent up to now is      408.7 secs

     total energy              =   -4440.29764591 Ry
     estimated scf accuracy    <       0.00677917 Ry

     iteration # 27     ecut=    60.00 Ry     beta= 0.15
     Davidson diagonalization with overlap

---- Real-time Memory Report at c_bands before calling an iterative solver
             0 MiB given to the printing process from OS
             0 MiB allocation reported by mallinfo(arena+hblkhd)
         50307 MiB available memory on the node where the printing process lives
------------------
     ethr =  1.58E-06,  avg # of iterations =  6.6

     negative rho (up, down):  7.913E-01 0.000E+00

     total cpu time spent up to now is      425.2 secs

     total energy              =   -4440.29755966 Ry
     estimated scf accuracy    <       0.00445009 Ry

     iteration # 28     ecut=    60.00 Ry     beta= 0.15
     Davidson diagonalization with overlap

---- Real-time Memory Report at c_bands before calling an iterative solver
             0 MiB given to the printing process from OS
             0 MiB allocation reported by mallinfo(arena+hblkhd)
         50324 MiB available memory on the node where the printing process lives
------------------
     ethr =  1.03E-06,  avg # of iterations =  1.3

     negative rho (up, down):  7.903E-01 0.000E+00

     total cpu time spent up to now is      438.7 secs

     total energy              =   -4440.29732870 Ry
     estimated scf accuracy    <       0.00389188 Ry

     iteration # 29     ecut=    60.00 Ry     beta= 0.15
     Davidson diagonalization with overlap

---- Real-time Memory Report at c_bands before calling an iterative solver
             0 MiB given to the printing process from OS
             0 MiB allocation reported by mallinfo(arena+hblkhd)
         50333 MiB available memory on the node where the printing process lives
------------------
     ethr =  9.05E-07,  avg # of iterations =  3.5

     negative rho (up, down):  7.910E-01 0.000E+00

     total cpu time spent up to now is      453.3 secs

     total energy              =   -4440.29694042 Ry
     estimated scf accuracy    <       0.00280882 Ry

     iteration # 30     ecut=    60.00 Ry     beta= 0.15
     Davidson diagonalization with overlap

---- Real-time Memory Report at c_bands before calling an iterative solver
             0 MiB given to the printing process from OS
             0 MiB allocation reported by mallinfo(arena+hblkhd)
         50336 MiB available memory on the node where the printing process lives
------------------
     ethr =  6.53E-07,  avg # of iterations = 10.0

     negative rho (up, down):  7.926E-01 0.000E+00

     total cpu time spent up to now is      471.1 secs

     total energy              =   -4440.29694579 Ry
     estimated scf accuracy    <       0.00102980 Ry

     iteration # 31     ecut=    60.00 Ry     beta= 0.15
     Davidson diagonalization with overlap

---- Real-time Memory Report at c_bands before calling an iterative solver
             0 MiB given to the printing process from OS
             0 MiB allocation reported by mallinfo(arena+hblkhd)
         50325 MiB available memory on the node where the printing process lives
------------------
     c_bands:  1 eigenvalues not converged
     ethr =  2.39E-07,  avg # of iterations = 10.4

     negative rho (up, down):  7.920E-01 0.000E+00

     total cpu time spent up to now is      489.6 secs

     total energy              =   -4440.29700122 Ry
     estimated scf accuracy    <       0.00038700 Ry

     iteration # 32     ecut=    60.00 Ry     beta= 0.15
     Davidson diagonalization with overlap

---- Real-time Memory Report at c_bands before calling an iterative solver
             0 MiB given to the printing process from OS
             0 MiB allocation reported by mallinfo(arena+hblkhd)
         50303 MiB available memory on the node where the printing process lives
------------------
     ethr =  9.00E-08,  avg # of iterations =  3.6

     negative rho (up, down):  7.920E-01 0.000E+00

     total cpu time spent up to now is      504.3 secs

     total energy              =   -4440.29700156 Ry
     estimated scf accuracy    <       0.00019523 Ry

     iteration # 33     ecut=    60.00 Ry     beta= 0.15
     Davidson diagonalization with overlap

---- Real-time Memory Report at c_bands before calling an iterative solver
             0 MiB given to the printing process from OS
             0 MiB allocation reported by mallinfo(arena+hblkhd)
         50318 MiB available memory on the node where the printing process lives
------------------
     ethr =  4.54E-08,  avg # of iterations =  3.5

     negative rho (up, down):  7.921E-01 0.000E+00

     total cpu time spent up to now is      519.5 secs

     total energy              =   -4440.29701544 Ry
     estimated scf accuracy    <       0.00008109 Ry

     iteration # 34     ecut=    60.00 Ry     beta= 0.15
     Davidson diagonalization with overlap

---- Real-time Memory Report at c_bands before calling an iterative solver
             0 MiB given to the printing process from OS
             0 MiB allocation reported by mallinfo(arena+hblkhd)
         50295 MiB available memory on the node where the printing process lives
------------------
     ethr =  1.89E-08,  avg # of iterations =  2.0

     negative rho (up, down):  7.922E-01 0.000E+00

     total cpu time spent up to now is      533.7 secs

     total energy              =   -4440.29701613 Ry
     estimated scf accuracy    <       0.00004300 Ry

     iteration # 35     ecut=    60.00 Ry     beta= 0.15
     Davidson diagonalization with overlap

---- Real-time Memory Report at c_bands before calling an iterative solver
             0 MiB given to the printing process from OS
             0 MiB allocation reported by mallinfo(arena+hblkhd)
         50314 MiB available memory on the node where the printing process lives
------------------
     ethr =  1.00E-08,  avg # of iterations =  2.0

     negative rho (up, down):  7.923E-01 0.000E+00

     total cpu time spent up to now is      547.9 secs

     total energy              =   -4440.29701406 Ry
     estimated scf accuracy    <       0.00002434 Ry

     iteration # 36     ecut=    60.00 Ry     beta= 0.15
     Davidson diagonalization with overlap

---- Real-time Memory Report at c_bands before calling an iterative solver
             0 MiB given to the printing process from OS
             0 MiB allocation reported by mallinfo(arena+hblkhd)
         50345 MiB available memory on the node where the printing process lives
------------------
     ethr =  5.66E-09,  avg # of iterations =  1.7

     negative rho (up, down):  7.923E-01 0.000E+00

     total cpu time spent up to now is      561.4 secs

     total energy              =   -4440.29701045 Ry
     estimated scf accuracy    <       0.00001704 Ry

     iteration # 37     ecut=    60.00 Ry     beta= 0.15
     Davidson diagonalization with overlap

---- Real-time Memory Report at c_bands before calling an iterative solver
             0 MiB given to the printing process from OS
             0 MiB allocation reported by mallinfo(arena+hblkhd)
         50339 MiB available memory on the node where the printing process lives
------------------
     ethr =  3.96E-09,  avg # of iterations =  2.2

     negative rho (up, down):  7.923E-01 0.000E+00

     total cpu time spent up to now is      575.8 secs

     total energy              =   -4440.29701172 Ry
     estimated scf accuracy    <       0.00001281 Ry

     iteration # 38     ecut=    60.00 Ry     beta= 0.15
     Davidson diagonalization with overlap

---- Real-time Memory Report at c_bands before calling an iterative solver
             0 MiB given to the printing process from OS
             0 MiB allocation reported by mallinfo(arena+hblkhd)
         50353 MiB available memory on the node where the printing process lives
------------------
     ethr =  2.98E-09,  avg # of iterations =  1.0

     negative rho (up, down):  7.923E-01 0.000E+00

     total cpu time spent up to now is      588.5 secs

     total energy              =   -4440.29701525 Ry
     estimated scf accuracy    <       0.00001090 Ry

     iteration # 39     ecut=    60.00 Ry     beta= 0.15
     Davidson diagonalization with overlap

---- Real-time Memory Report at c_bands before calling an iterative solver
             0 MiB given to the printing process from OS
             0 MiB allocation reported by mallinfo(arena+hblkhd)
         50361 MiB available memory on the node where the printing process lives
------------------
     ethr =  2.53E-09,  avg # of iterations =  1.8

     negative rho (up, down):  7.924E-01 0.000E+00

     total cpu time spent up to now is      602.5 secs

     total energy              =   -4440.29701913 Ry
     estimated scf accuracy    <       0.00000827 Ry

     iteration # 40     ecut=    60.00 Ry     beta= 0.15
     Davidson diagonalization with overlap

---- Real-time Memory Report at c_bands before calling an iterative solver
             0 MiB given to the printing process from OS
             0 MiB allocation reported by mallinfo(arena+hblkhd)
         50364 MiB available memory on the node where the printing process lives
------------------
     ethr =  1.92E-09,  avg # of iterations =  2.0

     negative rho (up, down):  7.925E-01 0.000E+00

     total cpu time spent up to now is      616.6 secs

     total energy              =   -4440.29702128 Ry
     estimated scf accuracy    <       0.00000673 Ry

     iteration # 41     ecut=    60.00 Ry     beta= 0.15
     Davidson diagonalization with overlap

---- Real-time Memory Report at c_bands before calling an iterative solver
             0 MiB given to the printing process from OS
             0 MiB allocation reported by mallinfo(arena+hblkhd)
         50365 MiB available memory on the node where the printing process lives
------------------
     ethr =  1.56E-09,  avg # of iterations =  2.7

     negative rho (up, down):  7.927E-01 0.000E+00

     total cpu time spent up to now is      631.1 secs

     total energy              =   -4440.29702112 Ry
     estimated scf accuracy    <       0.00000348 Ry

     iteration # 42     ecut=    60.00 Ry     beta= 0.15
     Davidson diagonalization with overlap

---- Real-time Memory Report at c_bands before calling an iterative solver
             0 MiB given to the printing process from OS
             0 MiB allocation reported by mallinfo(arena+hblkhd)
         50378 MiB available memory on the node where the printing process lives
------------------
     ethr =  8.08E-10,  avg # of iterations =  2.9

     negative rho (up, down):  7.928E-01 0.000E+00

     total cpu time spent up to now is      646.6 secs

     total energy              =   -4440.29702137 Ry
     estimated scf accuracy    <       0.00000100 Ry

     iteration # 43     ecut=    60.00 Ry     beta= 0.15
     Davidson diagonalization with overlap

---- Real-time Memory Report at c_bands before calling an iterative solver
             0 MiB given to the printing process from OS
             0 MiB allocation reported by mallinfo(arena+hblkhd)
         50361 MiB available memory on the node where the printing process lives
------------------
     ethr =  2.33E-10,  avg # of iterations =  2.0

     negative rho (up, down):  7.927E-01 0.000E+00

     total cpu time spent up to now is      660.8 secs

     total energy              =   -4440.29702136 Ry
     estimated scf accuracy    <       0.00000064 Ry

     iteration # 44     ecut=    60.00 Ry     beta= 0.15
     Davidson diagonalization with overlap

---- Real-time Memory Report at c_bands before calling an iterative solver
             0 MiB given to the printing process from OS
             0 MiB allocation reported by mallinfo(arena+hblkhd)
         50373 MiB available memory on the node where the printing process lives
------------------
     ethr =  1.49E-10,  avg # of iterations =  2.0

     negative rho (up, down):  7.927E-01 0.000E+00

     total cpu time spent up to now is      674.7 secs

     total energy              =   -4440.29702150 Ry
     estimated scf accuracy    <       0.00000038 Ry

     iteration # 45     ecut=    60.00 Ry     beta= 0.15
     Davidson diagonalization with overlap

---- Real-time Memory Report at c_bands before calling an iterative solver
             0 MiB given to the printing process from OS
             0 MiB allocation reported by mallinfo(arena+hblkhd)
         50374 MiB available memory on the node where the printing process lives
------------------
     ethr =  8.83E-11,  avg # of iterations =  2.0

     negative rho (up, down):  7.926E-01 0.000E+00

     total cpu time spent up to now is      688.8 secs

     total energy              =   -4440.29702158 Ry
     estimated scf accuracy    <       0.00000021 Ry

     iteration # 46     ecut=    60.00 Ry     beta= 0.15
     Davidson diagonalization with overlap

---- Real-time Memory Report at c_bands before calling an iterative solver
             0 MiB given to the printing process from OS
             0 MiB allocation reported by mallinfo(arena+hblkhd)
         50373 MiB available memory on the node where the printing process lives
------------------
     ethr =  4.99E-11,  avg # of iterations =  2.0

     negative rho (up, down):  7.926E-01 0.000E+00

     total cpu time spent up to now is      702.9 secs

     total energy              =   -4440.29702168 Ry
     estimated scf accuracy    <       0.00000011 Ry

     iteration # 47     ecut=    60.00 Ry     beta= 0.15
     Davidson diagonalization with overlap

---- Real-time Memory Report at c_bands before calling an iterative solver
             0 MiB given to the printing process from OS
             0 MiB allocation reported by mallinfo(arena+hblkhd)
         50382 MiB available memory on the node where the printing process lives
------------------
     ethr =  2.47E-11,  avg # of iterations =  2.5

     negative rho (up, down):  7.926E-01 0.000E+00

     total cpu time spent up to now is      717.5 secs

     total energy              =   -4440.29702173 Ry
     estimated scf accuracy    <       0.00000004 Ry

     iteration # 48     ecut=    60.00 Ry     beta= 0.15
     Davidson diagonalization with overlap

---- Real-time Memory Report at c_bands before calling an iterative solver
             0 MiB given to the printing process from OS
             0 MiB allocation reported by mallinfo(arena+hblkhd)
         50378 MiB available memory on the node where the printing process lives
------------------
     ethr =  8.52E-12,  avg # of iterations =  2.7

     negative rho (up, down):  7.926E-01 0.000E+00

     total cpu time spent up to now is      731.9 secs

     total energy              =   -4440.29702176 Ry
     estimated scf accuracy    <       0.00000002 Ry

     iteration # 49     ecut=    60.00 Ry     beta= 0.15
     Davidson diagonalization with overlap

---- Real-time Memory Report at c_bands before calling an iterative solver
             0 MiB given to the printing process from OS
             0 MiB allocation reported by mallinfo(arena+hblkhd)
         50380 MiB available memory on the node where the printing process lives
------------------
     ethr =  5.27E-12,  avg # of iterations =  3.1

     negative rho (up, down):  7.926E-01 0.000E+00

     total cpu time spent up to now is      746.4 secs

     total energy              =   -4440.29702177 Ry
     estimated scf accuracy    <       0.00000001 Ry

     iteration # 50     ecut=    60.00 Ry     beta= 0.15
     Davidson diagonalization with overlap

---- Real-time Memory Report at c_bands before calling an iterative solver
             0 MiB given to the printing process from OS
             0 MiB allocation reported by mallinfo(arena+hblkhd)
         50372 MiB available memory on the node where the printing process lives
------------------
     ethr =  2.90E-12,  avg # of iterations =  2.5

     negative rho (up, down):  7.926E-01 0.000E+00

     total cpu time spent up to now is      760.4 secs

     End of self-consistent calculation

          k = 0.0000 0.0000 0.0000 ( 65197 PWs)   bands (ev):

   -92.8665 -92.8154 -92.7208 -92.6741 -92.6147 -92.5730 -92.5560 -92.4336
   -56.2201 -56.2022 -56.0776 -56.0669 -56.0612 -56.0538 -56.0194 -55.9896
   -55.9750 -55.9727 -55.9651 -55.9220 -55.9044 -55.8657 -55.8476 -55.8148
   -55.8097 -55.7611 -55.7599 -55.7579 -55.7495 -55.7066 -55.6860 -55.6007
   -31.4313 -31.4115 -31.2692 -31.2553 -31.1822 -31.0618 -31.0044 -30.7966
   -30.0123 -29.9692 -29.9425 -29.8341 -15.2432 -15.1974 -15.1180 -14.9877
   -14.7907 -14.6686 -14.3800 -14.3594 -14.3319 -14.2840 -14.2363 -14.2211
   -14.2163 -14.1982 -14.1828 -14.1366 -14.0933 -13.9399 -13.7562 -13.7280
   -13.6978 -13.6621 -13.6480 -13.5890 -13.5585 -13.4738 -13.4058 -13.2851
   -13.2640 -13.2585 -13.2305 -13.2284 -13.2101 -13.1558 -13.1474 -13.1321
   -13.1050 -13.0766 -13.0583 -13.0463 -13.0234 -12.9738 -12.9371 -12.9086
   -12.8813 -12.7507 -12.7453 -12.7189 -12.4969 -12.3511 -12.1605 -12.0850
   -12.0251 -11.9785 -11.9516 -11.9402 -11.9172 -11.8993 -11.8360 -11.8184
   -11.7844 -11.7549 -11.6423 -11.5634 -11.5598  -3.1044  -2.8728  -2.6429
    -2.4957  -2.4334  -2.2916  -1.9838  -1.9693  -1.9505  -1.8644  -1.8455
    -1.7768  -1.7606  -1.7204  -1.6741  -1.4943  -1.2681  -1.2392  -1.0941
    -1.0794  -1.0331  -1.0129  -0.9673  -0.9508  -0.8975  -0.8702  -0.7961
    -0.7834  -0.7104  -0.5758  -0.5622  -0.5351  -0.4551  -0.4299  -0.4081
    -0.3551  -0.2909  -0.2443  -0.1912  -0.1659  -0.0978  -0.0200   0.0176
     0.0450   0.0608   0.3125   0.3277   0.5012   0.5637   0.6287   0.6879
     0.7680   0.7792   0.7990   0.8615   0.8884   0.9223   0.9794   1.1099
     1.1694   1.1916   1.2190   1.2276   1.2879   1.3568   1.4676   1.4844
     1.5437   1.5535   1.5990   1.6196   1.6265   1.6819   1.7443   1.7527
     1.7914   1.8286   1.8655   1.9979   2.0818   2.1227   2.1466   2.2912
     2.3090   2.3474   2.3492   2.4633   2.4939   2.5190   2.5400   2.5541
     2.6215   2.6268   2.6365   2.6814   2.7454   2.7771   2.7879   2.7944
     2.8615   2.8664   2.8902   2.8974   2.9073   2.9224   2.9264   2.9410
     2.9467   2.9621   2.9682   2.9795   2.9930   3.0138   3.0205   3.0310
     3.0565   3.1717   3.2792   3.9585   4.2685   4.6232   4.8359   4.8896
     5.7786   5.7976   5.8322   5.8870   6.1510   6.1974   6.4432   6.4532
     6.9530   6.9818   7.0816   7.1738   7.4200   7.5072   7.5506   7.5608
     7.5825   7.8138   7.8827   8.0430   8.0526   8.1365   8.3117   8.5884
     8.7662   8.9457

     occupation numbers 
     1.0000   1.0000   1.0000   1.0000   1.0000   1.0000   1.0000   1.0000
     1.0000   1.0000   1.0000   1.0000   1.0000   1.0000   1.0000   1.0000
     1.0000   1.0000   1.0000   1.0000   1.0000   1.0000   1.0000   1.0000
     1.0000   1.0000   1.0000   1.0000   1.0000   1.0000   1.0000   1.0000
     1.0000   1.0000   1.0000   1.0000   1.0000   1.0000   1.0000   1.0000
     1.0000   1.0000   1.0000   1.0000   1.0000   1.0000   1.0000   1.0000
     1.0000   1.0000   1.0000   1.0000   1.0000   1.0000   1.0000   1.0000
     1.0000   1.0000   1.0000   1.0000   1.0000   1.0000   1.0000   1.0000
     1.0000   1.0000   1.0000   1.0000   1.0000   1.0000   1.0000   1.0000
     1.0000   1.0000   1.0000   1.0000   1.0000   1.0000   1.0000   1.0000
     1.0000   1.0000   1.0000   1.0000   1.0000   1.0000   1.0000   1.0000
     1.0000   1.0000   1.0000   1.0000   1.0000   1.0000   1.0000   1.0000
     1.0000   1.0000   1.0000   1.0000   1.0000   1.0000   1.0000   1.0000
     1.0000   1.0000   1.0000   1.0000   1.0000   1.0000   1.0000   1.0000
     1.0000   1.0000   1.0000   1.0000   1.0000   1.0000   1.0000   1.0000
     1.0000   1.0000   1.0000   1.0000   1.0000   1.0000   1.0000   1.0000
     1.0000   1.0000   1.0000   1.0000   1.0000   1.0000   1.0000   1.0000
     1.0000   1.0000   1.0000   1.0000   1.0000   1.0000   1.0000   1.0000
     1.0000   1.0000   1.0000   1.0000   1.0000   1.0000   1.0000   1.0000
     1.0000   1.0000   1.0000   1.0000   1.0000   0.9999   0.9999   0.9999
     0.9998   0.9998   0.9998   0.9997   0.9996   0.9996   0.9994   0.9988
     0.9985   0.9983   0.9980   0.9980   0.9973   0.9963   0.9941   0.9936
     0.9919   0.9915   0.9899   0.9890   0.9887   0.9860   0.9824   0.9818
     0.9791   0.9762   0.9729   0.9581   0.9457   0.9386   0.9342   0.9020
     0.8974   0.8868   0.8863   0.8503   0.8394   0.8302   0.8222   0.8167
     0.7889   0.7866   0.7824   0.7623   0.7319   0.7162   0.7108   0.7075
     0.6724   0.6697   0.6568   0.6529   0.6474   0.6390   0.6368   0.6287
     0.6255   0.6168   0.6133   0.6068   0.5992   0.5871   0.5833   0.5772
     0.5623   0.4943   0.4310   0.1185   0.0502   0.0150   0.0065   0.0052
     0.0001   0.0000   0.0000   0.0000   0.0000   0.0000   0.0000   0.0000
     0.0000   0.0000   0.0000   0.0000   0.0000   0.0000   0.0000   0.0000
     0.0000   0.0000   0.0000   0.0000   0.0000   0.0000   0.0000   0.0000
     0.0000   0.0000

          k = 0.0000 0.2500 0.0000 ( 65257 PWs)   bands (ev):

   -92.8665 -92.8154 -92.7208 -92.6741 -92.6147 -92.5730 -92.5560 -92.4336
   -56.2201 -56.2022 -56.0776 -56.0669 -56.0612 -56.0538 -56.0194 -55.9896
   -55.9750 -55.9727 -55.9651 -55.9220 -55.9044 -55.8657 -55.8476 -55.8148
   -55.8097 -55.7611 -55.7599 -55.7579 -55.7495 -55.7066 -55.6860 -55.6007
   -31.4311 -31.4113 -31.2694 -31.2552 -31.1824 -31.0616 -31.0045 -30.7967
   -30.0117 -29.9689 -29.9431 -29.8345 -15.2068 -15.1709 -15.0928 -14.9584
   -14.8338 -14.6588 -14.5252 -14.3457 -14.3095 -14.2891 -14.2593 -14.2030
   -14.1942 -14.1793 -14.1614 -14.1069 -14.0111 -13.9714 -13.8058 -13.7832
   -13.7387 -13.7008 -13.6514 -13.6113 -13.5632 -13.4995 -13.4599 -13.3889
   -13.3172 -13.3005 -13.2632 -13.2515 -13.2136 -13.1396 -13.1128 -13.0874
   -13.0599 -13.0418 -13.0214 -13.0187 -12.9851 -12.9525 -12.9129 -12.8309
   -12.7822 -12.7431 -12.6918 -12.6353 -12.5582 -12.4022 -12.2145 -12.1481
   -11.9906 -11.9784 -11.9485 -11.9199 -11.8916 -11.8751 -11.8279 -11.8165
   -11.7938 -11.7603 -11.6565 -11.6049 -11.5945  -2.9690  -2.7484  -2.6103
    -2.4285  -2.3849  -2.2217  -2.0006  -1.9182  -1.9052  -1.8451  -1.7440
    -1.7279  -1.6925  -1.6664  -1.6223  -1.4254  -1.2966  -1.2853  -1.2070
    -1.1986  -1.0949  -1.0647  -1.0052  -0.9798  -0.9410  -0.8759  -0.8488
    -0.8175  -0.7854  -0.7680  -0.7366  -0.6609  -0.6115  -0.5364  -0.4287
    -0.4040  -0.3647  -0.2532  -0.2171  -0.1478  -0.1052  -0.0354  -0.0155
     0.0010   0.0574   0.3605   0.4471   0.4780   0.5693   0.6165   0.6464
     0.7501   0.7700   0.8648   0.8900   0.9139   1.0295   1.1264   1.1451
     1.1695   1.1930   1.2135   1.2721   1.3005   1.3279   1.3749   1.4132
     1.4438   1.5286   1.5642   1.5997   1.6524   1.7044   1.7488   1.7781
     1.8048   1.8156   1.9161   2.0312   2.1052   2.1290   2.1967   2.2445
     2.2850   2.2956   2.3557   2.3913   2.4785   2.5163   2.5340   2.6154
     2.6264   2.6576   2.7044   2.7284   2.7572   2.7814   2.7974   2.8045
     2.8107   2.8228   2.8503   2.8548   2.8718   2.8794   2.8881   2.9057
     2.9198   2.9245   2.9446   2.9552   2.9616   2.9948   3.0112   3.0748
     3.4402   3.4958   3.7239   4.1525   4.2650   4.5594   4.9077   4.9994
     5.5252   5.6561   5.8253   5.9199   5.9652   6.0101   6.0776   6.5577
     7.0370   7.0733   7.2283   7.2545   7.3602   7.4184   7.4976   7.5600
     7.7096   7.8391   8.0805   8.2115   8.2769   8.3110   8.3376   8.3920
     8.6293   8.8359

     occupation numbers 
     1.0000   1.0000   1.0000   1.0000   1.0000   1.0000   1.0000   1.0000
     1.0000   1.0000   1.0000   1.0000   1.0000   1.0000   1.0000   1.0000
     1.0000   1.0000   1.0000   1.0000   1.0000   1.0000   1.0000   1.0000
     1.0000   1.0000   1.0000   1.0000   1.0000   1.0000   1.0000   1.0000
     1.0000   1.0000   1.0000   1.0000   1.0000   1.0000   1.0000   1.0000
     1.0000   1.0000   1.0000   1.0000   1.0000   1.0000   1.0000   1.0000
     1.0000   1.0000   1.0000   1.0000   1.0000   1.0000   1.0000   1.0000
     1.0000   1.0000   1.0000   1.0000   1.0000   1.0000   1.0000   1.0000
     1.0000   1.0000   1.0000   1.0000   1.0000   1.0000   1.0000   1.0000
     1.0000   1.0000   1.0000   1.0000   1.0000   1.0000   1.0000   1.0000
     1.0000   1.0000   1.0000   1.0000   1.0000   1.0000   1.0000   1.0000
     1.0000   1.0000   1.0000   1.0000   1.0000   1.0000   1.0000   1.0000
     1.0000   1.0000   1.0000   1.0000   1.0000   1.0000   1.0000   1.0000
     1.0000   1.0000   1.0000   1.0000   1.0000   1.0000   1.0000   1.0000
     1.0000   1.0000   1.0000   1.0000   1.0000   1.0000   1.0000   1.0000
     1.0000   1.0000   1.0000   1.0000   1.0000   1.0000   1.0000   1.0000
     1.0000   1.0000   1.0000   1.0000   1.0000   1.0000   1.0000   1.0000
     1.0000   1.0000   1.0000   1.0000   1.0000   1.0000   1.0000   1.0000
     1.0000   1.0000   1.0000   1.0000   1.0000   1.0000   1.0000   1.0000
     1.0000   1.0000   1.0000   1.0000   1.0000   0.9999   0.9999   0.9999
     0.9998   0.9998   0.9997   0.9996   0.9996   0.9992   0.9987   0.9986
     0.9985   0.9983   0.9981   0.9975   0.9971   0.9968   0.9960   0.9953
     0.9946   0.9924   0.9912   0.9898   0.9875   0.9848   0.9821   0.9801
     0.9781   0.9772   0.9679   0.9534   0.9417   0.9375   0.9241   0.9135
     0.9036   0.9009   0.8844   0.8738   0.8450   0.8312   0.8245   0.7915
     0.7868   0.7731   0.7516   0.7402   0.7261   0.7141   0.7059   0.7023
     0.6991   0.6928   0.6783   0.6759   0.6668   0.6627   0.6579   0.6483
     0.6405   0.6379   0.6266   0.6207   0.6170   0.5981   0.5886   0.5516
     0.3398   0.3101   0.2021   0.0707   0.0507   0.0190   0.0048   0.0032
     0.0002   0.0001   0.0000   0.0000   0.0000   0.0000   0.0000   0.0000
     0.0000   0.0000   0.0000   0.0000   0.0000   0.0000   0.0000   0.0000
     0.0000   0.0000   0.0000   0.0000   0.0000   0.0000   0.0000   0.0000
     0.0000   0.0000

          k = 0.0000-0.5000 0.0000 ( 65180 PWs)   bands (ev):

   -92.8665 -92.8154 -92.7208 -92.6741 -92.6147 -92.5730 -92.5560 -92.4336
   -56.2201 -56.2022 -56.0776 -56.0669 -56.0612 -56.0538 -56.0194 -55.9896
   -55.9750 -55.9727 -55.9651 -55.9220 -55.9044 -55.8657 -55.8476 -55.8148
   -55.8097 -55.7611 -55.7599 -55.7579 -55.7495 -55.7066 -55.6860 -55.6007
   -31.4309 -31.4112 -31.2696 -31.2551 -31.1825 -31.0615 -31.0047 -30.7968
   -30.0111 -29.9686 -29.9438 -29.8348 -15.1706 -15.1227 -15.0664 -14.9415
   -14.8552 -14.7216 -14.5573 -14.4443 -14.3183 -14.2425 -14.2027 -14.1978
   -14.1459 -14.1311 -14.0791 -14.0572 -14.0346 -14.0017 -13.9648 -13.9139
   -13.7442 -13.6850 -13.6548 -13.6161 -13.5575 -13.5171 -13.4565 -13.4357
   -13.4095 -13.3699 -13.2645 -13.2535 -13.2091 -13.1218 -13.1101 -13.0822
   -13.0737 -13.0369 -13.0176 -12.9835 -12.9074 -12.8605 -12.8071 -12.8018
   -12.7664 -12.7407 -12.6689 -12.5784 -12.4772 -12.4546 -12.3062 -12.2561
   -11.9784 -11.9454 -11.9423 -11.9146 -11.8773 -11.8429 -11.8318 -11.7903
   -11.7863 -11.7422 -11.6780 -11.6652 -11.6514  -2.7544  -2.6950  -2.5453
    -2.4737  -2.1904  -2.1067  -1.9800  -1.8442  -1.8031  -1.7866  -1.7068
    -1.6776  -1.5935  -1.5592  -1.4806  -1.4416  -1.4045  -1.3770  -1.3149
    -1.2803  -1.2343  -1.1981  -1.1644  -1.1321  -1.0209  -0.9770  -0.9396
    -0.9372  -0.8524  -0.8201  -0.7998  -0.7479  -0.6611  -0.5906  -0.5017
    -0.4693  -0.3705  -0.3278  -0.1915  -0.1408  -0.1262  -0.0559   0.0643
     0.1066   0.2291   0.2996   0.3065   0.4330   0.4893   0.6130   0.7124
     0.8225   0.8528   0.8930   0.9018   0.9436   0.9537   0.9872   1.0046
     1.0161   1.1252   1.1887   1.2237   1.2455   1.5114   1.5378   1.5590
     1.6600   1.6867   1.7091   1.7230   1.7491   1.7660   1.7834   1.8073
     1.8410   1.8749   1.9076   1.9110   1.9389   1.9910   2.0769   2.1078
     2.2907   2.4386   2.4487   2.4706   2.5013   2.5105   2.5166   2.5682
     2.5812   2.6069   2.6242   2.6332   2.6435   2.6805   2.7368   2.7596
     2.8178   2.8319   2.8470   2.8501   2.8668   2.8747   2.8804   2.8846
     2.8879   2.9077   2.9162   2.9203   2.9802   2.9860   3.0007   3.0549
     3.9777   4.0065   4.0186   4.1067   4.5956   4.7462   4.9210   5.0185
     5.3012   5.3716   5.5063   5.6005   5.8726   5.8935   6.2417   6.7081
     6.8019   6.9033   7.1510   7.3236   7.5470   7.5715   7.6621   7.7335
     7.7922   7.8668   8.0242   8.2059   8.2562   8.3587   8.5262   8.5893
     8.7035   8.7567

     occupation numbers 
     1.0000   1.0000   1.0000   1.0000   1.0000   1.0000   1.0000   1.0000
     1.0000   1.0000   1.0000   1.0000   1.0000   1.0000   1.0000   1.0000
     1.0000   1.0000   1.0000   1.0000   1.0000   1.0000   1.0000   1.0000
     1.0000   1.0000   1.0000   1.0000   1.0000   1.0000   1.0000   1.0000
     1.0000   1.0000   1.0000   1.0000   1.0000   1.0000   1.0000   1.0000
     1.0000   1.0000   1.0000   1.0000   1.0000   1.0000   1.0000   1.0000
     1.0000   1.0000   1.0000   1.0000   1.0000   1.0000   1.0000   1.0000
     1.0000   1.0000   1.0000   1.0000   1.0000   1.0000   1.0000   1.0000
     1.0000   1.0000   1.0000   1.0000   1.0000   1.0000   1.0000   1.0000
     1.0000   1.0000   1.0000   1.0000   1.0000   1.0000   1.0000   1.0000
     1.0000   1.0000   1.0000   1.0000   1.0000   1.0000   1.0000   1.0000
     1.0000   1.0000   1.0000   1.0000   1.0000   1.0000   1.0000   1.0000
     1.0000   1.0000   1.0000   1.0000   1.0000   1.0000   1.0000   1.0000
     1.0000   1.0000   1.0000   1.0000   1.0000   1.0000   1.0000   1.0000
     1.0000   1.0000   1.0000   1.0000   1.0000   1.0000   1.0000   1.0000
     1.0000   1.0000   1.0000   1.0000   1.0000   1.0000   1.0000   1.0000
     1.0000   1.0000   1.0000   1.0000   1.0000   1.0000   1.0000   1.0000
     1.0000   1.0000   1.0000   1.0000   1.0000   1.0000   1.0000   1.0000
     1.0000   1.0000   1.0000   1.0000   1.0000   1.0000   1.0000   1.0000
     1.0000   1.0000   1.0000   1.0000   1.0000   1.0000   0.9999   0.9999
     0.9997   0.9997   0.9996   0.9996   0.9995   0.9995   0.9994   0.9993
     0.9993   0.9988   0.9983   0.9980   0.9978   0.9929   0.9921   0.9914
     0.9871   0.9858   0.9845   0.9837   0.9821   0.9809   0.9797   0.9779
     0.9751   0.9720   0.9688   0.9684   0.9653   0.9590   0.9464   0.9413
     0.9022   0.8587   0.8553   0.8477   0.8367   0.8334   0.8311   0.8111
     0.8058   0.7951   0.7878   0.7839   0.7794   0.7628   0.7361   0.7250
     0.6954   0.6881   0.6801   0.6784   0.6695   0.6652   0.6621   0.6599
     0.6581   0.6472   0.6425   0.6402   0.6065   0.6031   0.5947   0.5632
     0.1129   0.1050   0.1017   0.0804   0.0166   0.0093   0.0045   0.0029
     0.0007   0.0005   0.0002   0.0001   0.0000   0.0000   0.0000   0.0000
     0.0000   0.0000   0.0000   0.0000   0.0000   0.0000   0.0000   0.0000
     0.0000   0.0000   0.0000   0.0000   0.0000   0.0000   0.0000   0.0000
     0.0000   0.0000

          k = 0.2500 0.2500 0.0000 ( 65198 PWs)   bands (ev):

   -92.8665 -92.8154 -92.7208 -92.6741 -92.6147 -92.5730 -92.5560 -92.4336
   -56.2201 -56.2022 -56.0776 -56.0669 -56.0612 -56.0538 -56.0194 -55.9896
   -55.9750 -55.9727 -55.9651 -55.9220 -55.9044 -55.8657 -55.8476 -55.8148
   -55.8097 -55.7611 -55.7599 -55.7579 -55.7495 -55.7066 -55.6860 -55.6007
   -31.4295 -31.4130 -31.2690 -31.2551 -31.1827 -31.0618 -31.0044 -30.7969
   -30.0107 -29.9699 -29.9427 -29.8349 -15.1779 -15.1362 -15.0646 -14.9483
   -14.8259 -14.7005 -14.6314 -14.4229 -14.2688 -14.2549 -14.2184 -14.1909
   -14.1669 -14.1360 -14.1080 -14.0691 -14.0011 -13.9846 -13.8219 -13.8082
   -13.7787 -13.7592 -13.6988 -13.6690 -13.5968 -13.5825 -13.4450 -13.4032
   -13.3806 -13.2966 -13.2559 -13.2116 -13.1865 -13.1717 -13.1269 -13.1002
   -13.0718 -13.0447 -12.9928 -12.9410 -12.9294 -12.8985 -12.8707 -12.8668
   -12.8042 -12.7419 -12.6375 -12.6066 -12.5099 -12.4313 -12.2443 -12.1971
   -11.9786 -11.9629 -11.9318 -11.9203 -11.9133 -11.8511 -11.8157 -11.8095
   -11.7742 -11.7659 -11.6733 -11.6331 -11.6158  -2.8306  -2.6226  -2.5041
    -2.4096  -2.2895  -2.2250  -2.0252  -1.8828  -1.8638  -1.8323  -1.7390
    -1.7031  -1.6102  -1.5820  -1.5319  -1.4017  -1.3529  -1.2790  -1.2357
    -1.1903  -1.1676  -1.1439  -1.1004  -1.0862  -0.9949  -0.9449  -0.8767
    -0.8285  -0.7991  -0.7504  -0.7348  -0.6717  -0.6229  -0.5604  -0.5292
    -0.4407  -0.3921  -0.3610  -0.3249  -0.2684  -0.1934  -0.1574  -0.1264
    -0.0499  -0.0036   0.2484   0.3977   0.4303   0.4910   0.5316   0.6100
     0.6538   0.7106   0.7449   1.0169   1.0794   1.1531   1.1769   1.2303
     1.2574   1.2930   1.3300   1.3473   1.3742   1.4216   1.4298   1.4442
     1.4925   1.5327   1.5685   1.6257   1.6690   1.6747   1.7146   1.7451
     1.8035   1.8323   1.9552   2.0149   2.0481   2.0721   2.1421   2.2089
     2.2341   2.2692   2.2953   2.3078   2.4213   2.4577   2.5451   2.6160
     2.6205   2.6730   2.7159   2.7308   2.7360   2.7528   2.7675   2.7813
     2.7928   2.7994   2.8112   2.8248   2.8375   2.8562   2.8666   2.8732
     2.8970   2.9082   2.9154   2.9491   3.2474   3.3418   3.3879   3.4603
     3.4927   3.7080   3.7917   4.1519   4.3594   4.5706   4.8265   5.1380
     5.5145   5.5753   5.6207   5.6757   5.7384   6.0955   6.1323   6.1703
     6.8472   7.0321   7.2194   7.3713   7.4659   7.4951   7.6050   7.7729
     7.8081   8.0121   8.1655   8.2167   8.3381   8.3862   8.4387   8.4652
     8.5396   8.7160

     occupation numbers 
     1.0000   1.0000   1.0000   1.0000   1.0000   1.0000   1.0000   1.0000
     1.0000   1.0000   1.0000   1.0000   1.0000   1.0000   1.0000   1.0000
     1.0000   1.0000   1.0000   1.0000   1.0000   1.0000   1.0000   1.0000
     1.0000   1.0000   1.0000   1.0000   1.0000   1.0000   1.0000   1.0000
     1.0000   1.0000   1.0000   1.0000   1.0000   1.0000   1.0000   1.0000
     1.0000   1.0000   1.0000   1.0000   1.0000   1.0000   1.0000   1.0000
     1.0000   1.0000   1.0000   1.0000   1.0000   1.0000   1.0000   1.0000
     1.0000   1.0000   1.0000   1.0000   1.0000   1.0000   1.0000   1.0000
     1.0000   1.0000   1.0000   1.0000   1.0000   1.0000   1.0000   1.0000
     1.0000   1.0000   1.0000   1.0000   1.0000   1.0000   1.0000   1.0000
     1.0000   1.0000   1.0000   1.0000   1.0000   1.0000   1.0000   1.0000
     1.0000   1.0000   1.0000   1.0000   1.0000   1.0000   1.0000   1.0000
     1.0000   1.0000   1.0000   1.0000   1.0000   1.0000   1.0000   1.0000
     1.0000   1.0000   1.0000   1.0000   1.0000   1.0000   1.0000   1.0000
     1.0000   1.0000   1.0000   1.0000   1.0000   1.0000   1.0000   1.0000
     1.0000   1.0000   1.0000   1.0000   1.0000   1.0000   1.0000   1.0000
     1.0000   1.0000   1.0000   1.0000   1.0000   1.0000   1.0000   1.0000
     1.0000   1.0000   1.0000   1.0000   1.0000   1.0000   1.0000   1.0000
     1.0000   1.0000   1.0000   1.0000   1.0000   1.0000   1.0000   1.0000
     1.0000   1.0000   1.0000   1.0000   1.0000   1.0000   1.0000   0.9999
     0.9999   0.9999   0.9998   0.9993   0.9990   0.9986   0.9984   0.9979
     0.9977   0.9972   0.9967   0.9965   0.9960   0.9951   0.9949   0.9946
     0.9934   0.9922   0.9910   0.9887   0.9867   0.9864   0.9842   0.9823
     0.9782   0.9758   0.9634   0.9558   0.9510   0.9472   0.9351   0.9215
     0.9159   0.9076   0.9010   0.8977   0.8643   0.8522   0.8202   0.7913
     0.7893   0.7662   0.7462   0.7391   0.7365   0.7283   0.7211   0.7141
     0.7083   0.7049   0.6988   0.6918   0.6851   0.6752   0.6696   0.6660
     0.6531   0.6469   0.6429   0.6241   0.4496   0.3948   0.3687   0.3289
     0.3117   0.2088   0.1749   0.0708   0.0377   0.0182   0.0067   0.0017
     0.0002   0.0002   0.0001   0.0001   0.0001   0.0000   0.0000   0.0000
     0.0000   0.0000   0.0000   0.0000   0.0000   0.0000   0.0000   0.0000
     0.0000   0.0000   0.0000   0.0000   0.0000   0.0000   0.0000   0.0000
     0.0000   0.0000

          k = 0.2500-0.5000 0.0000 ( 65138 PWs)   bands (ev):

   -92.8665 -92.8154 -92.7208 -92.6741 -92.6147 -92.5730 -92.5560 -92.4336
   -56.2201 -56.2022 -56.0776 -56.0669 -56.0612 -56.0538 -56.0194 -55.9896
   -55.9750 -55.9727 -55.9651 -55.9220 -55.9044 -55.8657 -55.8476 -55.8148
   -55.8097 -55.7611 -55.7599 -55.7579 -55.7495 -55.7066 -55.6860 -55.6007
   -31.4293 -31.4129 -31.2692 -31.2550 -31.1829 -31.0617 -31.0045 -30.7970
   -30.0101 -29.9696 -29.9434 -29.8352 -15.1398 -15.0959 -15.0234 -14.9127
   -14.8772 -14.7615 -14.6630 -14.5405 -14.2336 -14.1785 -14.1550 -14.1300
   -14.1163 -14.1026 -14.0631 -14.0451 -14.0171 -13.9780 -13.9548 -13.9058
   -13.8254 -13.7766 -13.7142 -13.6965 -13.6258 -13.6079 -13.4981 -13.4540
   -13.3610 -13.2955 -13.2771 -13.1958 -13.1741 -13.1428 -13.1273 -13.0974
   -13.0661 -13.0312 -13.0138 -12.9655 -12.9178 -12.8446 -12.8170 -12.8104
   -12.7799 -12.7430 -12.6755 -12.5356 -12.4746 -12.4068 -12.3001 -12.2671
   -11.9785 -11.9388 -11.9267 -11.9156 -11.8882 -11.8573 -11.8281 -11.7879
   -11.7598 -11.7382 -11.6913 -11.6663 -11.6556  -2.6123  -2.5464  -2.4189
    -2.3422  -2.2108  -2.1262  -2.0043  -1.8550  -1.7990  -1.7785  -1.7159
    -1.7027  -1.6042  -1.5390  -1.4545  -1.4025  -1.3939  -1.3314  -1.2864
    -1.2542  -1.2063  -1.1693  -1.1346  -1.0952  -1.0812  -1.0380  -1.0085
    -0.9659  -0.9350  -0.8678  -0.7640  -0.7241  -0.6461  -0.5809  -0.5285
    -0.4882  -0.4701  -0.4131  -0.2536  -0.2449  -0.1300  -0.1041  -0.0918
    -0.0458  -0.0178   0.0232   0.0468   0.1128   0.3927   0.4862   0.5768
     0.6270   0.8787   0.9020   0.9880   1.0157   1.1770   1.2138   1.2533
     1.2742   1.2887   1.3098   1.3746   1.4240   1.4563   1.5416   1.6286
     1.6684   1.6885   1.7005   1.7332   1.7479   1.7510   1.7991   1.8093
     1.8271   1.8733   1.8809   1.8993   1.9367   1.9913   2.0311   2.1120
     2.2508   2.3913   2.4094   2.4280   2.4573   2.4780   2.5046   2.5273
     2.5361   2.5615   2.6117   2.6229   2.6453   2.6904   2.7142   2.7321
     2.7457   2.7555   2.7700   2.7858   2.8034   2.8102   2.8453   2.8583
     2.8691   2.8791   2.8947   2.8991   3.4329   3.4404   3.5788   3.6299
     3.9848   4.0248   4.0440   4.1601   4.6127   4.7674   4.9411   4.9817
     5.1507   5.3181   5.5198   5.5443   5.6418   5.6848   6.3451   6.3499
     6.4594   6.8283   7.1511   7.5971   7.6717   7.7239   7.7546   7.7964
     7.8737   7.9450   8.1508   8.2648   8.4112   8.4284   8.5669   8.6045
     8.6505   8.7692

     occupation numbers 
     1.0000   1.0000   1.0000   1.0000   1.0000   1.0000   1.0000   1.0000
     1.0000   1.0000   1.0000   1.0000   1.0000   1.0000   1.0000   1.0000
     1.0000   1.0000   1.0000   1.0000   1.0000   1.0000   1.0000   1.0000
     1.0000   1.0000   1.0000   1.0000   1.0000   1.0000   1.0000   1.0000
     1.0000   1.0000   1.0000   1.0000   1.0000   1.0000   1.0000   1.0000
     1.0000   1.0000   1.0000   1.0000   1.0000   1.0000   1.0000   1.0000
     1.0000   1.0000   1.0000   1.0000   1.0000   1.0000   1.0000   1.0000
     1.0000   1.0000   1.0000   1.0000   1.0000   1.0000   1.0000   1.0000
     1.0000   1.0000   1.0000   1.0000   1.0000   1.0000   1.0000   1.0000
     1.0000   1.0000   1.0000   1.0000   1.0000   1.0000   1.0000   1.0000
     1.0000   1.0000   1.0000   1.0000   1.0000   1.0000   1.0000   1.0000
     1.0000   1.0000   1.0000   1.0000   1.0000   1.0000   1.0000   1.0000
     1.0000   1.0000   1.0000   1.0000   1.0000   1.0000   1.0000   1.0000
     1.0000   1.0000   1.0000   1.0000   1.0000   1.0000   1.0000   1.0000
     1.0000   1.0000   1.0000   1.0000   1.0000   1.0000   1.0000   1.0000
     1.0000   1.0000   1.0000   1.0000   1.0000   1.0000   1.0000   1.0000
     1.0000   1.0000   1.0000   1.0000   1.0000   1.0000   1.0000   1.0000
     1.0000   1.0000   1.0000   1.0000   1.0000   1.0000   1.0000   1.0000
     1.0000   1.0000   1.0000   1.0000   1.0000   1.0000   1.0000   1.0000
     1.0000   1.0000   1.0000   1.0000   1.0000   1.0000   1.0000   0.9999
     0.9999   0.9997   0.9996   0.9994   0.9993   0.9984   0.9981   0.9977
     0.9975   0.9973   0.9970   0.9960   0.9951   0.9943   0.9919   0.9886
     0.9867   0.9857   0.9850   0.9831   0.9821   0.9819   0.9785   0.9777
     0.9763   0.9722   0.9714   0.9696   0.9656   0.9589   0.9535   0.9405
     0.9120   0.8738   0.8681   0.8622   0.8523   0.8451   0.8356   0.8270
     0.8237   0.8137   0.7931   0.7884   0.7786   0.7582   0.7470   0.7384
     0.7318   0.7270   0.7198   0.7118   0.7028   0.6993   0.6810   0.6740
     0.6682   0.6629   0.6544   0.6519   0.3438   0.3397   0.2680   0.2437
     0.1109   0.1001   0.0952   0.0692   0.0156   0.0086   0.0041   0.0034
     0.0016   0.0007   0.0002   0.0002   0.0001   0.0001   0.0000   0.0000
     0.0000   0.0000   0.0000   0.0000   0.0000   0.0000   0.0000   0.0000
     0.0000   0.0000   0.0000   0.0000   0.0000   0.0000   0.0000   0.0000
     0.0000   0.0000

          k =-0.5000-0.5000 0.0000 ( 65132 PWs)   bands (ev):

   -92.8665 -92.8154 -92.7208 -92.6741 -92.6147 -92.5730 -92.5560 -92.4336
   -56.2201 -56.2022 -56.0776 -56.0669 -56.0612 -56.0538 -56.0194 -55.9896
   -55.9750 -55.9727 -55.9651 -55.9220 -55.9044 -55.8657 -55.8476 -55.8148
   -55.8097 -55.7611 -55.7599 -55.7579 -55.7495 -55.7066 -55.6860 -55.6007
   -31.4272 -31.4150 -31.2688 -31.2548 -31.1833 -31.0618 -31.0044 -30.7972
   -30.0091 -29.9706 -29.9430 -29.8356 -15.0927 -15.0686 -14.9519 -14.9364
   -14.8392 -14.8079 -14.7705 -14.6395 -14.1451 -14.1330 -14.0998 -14.0801
   -14.0614 -14.0410 -14.0222 -14.0084 -13.9889 -13.9874 -13.9711 -13.8921
   -13.8843 -13.8505 -13.8198 -13.7997 -13.7124 -13.6758 -13.5360 -13.4917
   -13.3119 -13.2749 -13.2032 -13.1798 -13.1557 -13.1423 -13.1380 -13.1285
   -13.1106 -13.0034 -12.9726 -12.9475 -12.9366 -12.8948 -12.8581 -12.7661
   -12.7551 -12.7431 -12.6919 -12.5003 -12.4708 -12.3576 -12.2908 -12.2891
   -11.9786 -11.9351 -11.9230 -11.9052 -11.8882 -11.8534 -11.8362 -11.8000
   -11.7396 -11.7203 -11.7142 -11.6643 -11.6614  -2.3871  -2.3129  -2.3033
    -2.2281  -2.1921  -2.1141  -2.0461  -1.9194  -1.8053  -1.7757  -1.7343
    -1.6786  -1.6071  -1.5910  -1.5222  -1.4782  -1.3609  -1.3305  -1.2829
    -1.2562  -1.1918  -1.1438  -1.1264  -1.1134  -1.0578  -1.0163  -0.9987
    -0.8872  -0.8301  -0.7825  -0.7336  -0.7029  -0.6897  -0.6570  -0.6141
    -0.5765  -0.5697  -0.4832  -0.4188  -0.3732  -0.3458  -0.2734  -0.2131
    -0.1992  -0.1429  -0.1081  -0.1012  -0.0775   0.3675   0.4051   0.5177
     0.5560   0.9089   0.9230   0.9559   0.9941   1.2650   1.2843   1.2907
     1.3311   1.4556   1.5487   1.5769   1.6127   1.6376   1.6623   1.6688
     1.6987   1.7112   1.7283   1.7391   1.7878   1.7895   1.8194   1.8402
     1.8583   1.8720   1.9086   1.9336   1.9511   1.9799   2.0129   2.0702
     2.1376   2.4035   2.4355   2.4538   2.4732   2.4829   2.5076   2.5185
     2.5386   2.5455   2.5614   2.5824   2.5948   2.6163   2.6217   2.6432
     2.6663   2.6718   2.6947   2.7093   2.7247   2.7382   2.7431   2.7686
     2.8555   2.8591   2.8875   2.9008   3.8778   3.8957   3.9034   3.9162
     4.1578   4.2362   4.2541   4.4949   4.6172   4.6998   4.8328   4.9353
     4.9551   5.0444   5.1803   5.2749   5.8105   5.8581   5.9047   6.0250
     6.5939   6.7393   7.0494   7.4488   7.8526   7.8638   7.9431   8.0861
     8.1278   8.1622   8.1877   8.2683   8.3539   8.4664   8.4840   8.5097
     8.5441   8.6260

     occupation numbers 
     1.0000   1.0000   1.0000   1.0000   1.0000   1.0000   1.0000   1.0000
     1.0000   1.0000   1.0000   1.0000   1.0000   1.0000   1.0000   1.0000
     1.0000   1.0000   1.0000   1.0000   1.0000   1.0000   1.0000   1.0000
     1.0000   1.0000   1.0000   1.0000   1.0000   1.0000   1.0000   1.0000
     1.0000   1.0000   1.0000   1.0000   1.0000   1.0000   1.0000   1.0000
     1.0000   1.0000   1.0000   1.0000   1.0000   1.0000   1.0000   1.0000
     1.0000   1.0000   1.0000   1.0000   1.0000   1.0000   1.0000   1.0000
     1.0000   1.0000   1.0000   1.0000   1.0000   1.0000   1.0000   1.0000
     1.0000   1.0000   1.0000   1.0000   1.0000   1.0000   1.0000   1.0000
     1.0000   1.0000   1.0000   1.0000   1.0000   1.0000   1.0000   1.0000
     1.0000   1.0000   1.0000   1.0000   1.0000   1.0000   1.0000   1.0000
     1.0000   1.0000   1.0000   1.0000   1.0000   1.0000   1.0000   1.0000
     1.0000   1.0000   1.0000   1.0000   1.0000   1.0000   1.0000   1.0000
     1.0000   1.0000   1.0000   1.0000   1.0000   1.0000   1.0000   1.0000
     1.0000   1.0000   1.0000   1.0000   1.0000   1.0000   1.0000   1.0000
     1.0000   1.0000   1.0000   1.0000   1.0000   1.0000   1.0000   1.0000
     1.0000   1.0000   1.0000   1.0000   1.0000   1.0000   1.0000   1.0000
     1.0000   1.0000   1.0000   1.0000   1.0000   1.0000   1.0000   1.0000
     1.0000   1.0000   1.0000   1.0000   1.0000   1.0000   1.0000   1.0000
     1.0000   1.0000   1.0000   1.0000   1.0000   1.0000   1.0000   1.0000
     0.9999   0.9996   0.9996   0.9995   0.9994   0.9976   0.9974   0.9973
     0.9967   0.9944   0.9917   0.9907   0.9893   0.9882   0.9870   0.9867
     0.9851   0.9844   0.9834   0.9827   0.9794   0.9792   0.9769   0.9752
     0.9736   0.9723   0.9687   0.9659   0.9639   0.9604   0.9560   0.9475
     0.9359   0.8700   0.8597   0.8536   0.8468   0.8434   0.8344   0.8304
     0.8227   0.8201   0.8138   0.8053   0.8002   0.7911   0.7889   0.7795
     0.7692   0.7667   0.7562   0.7493   0.7420   0.7355   0.7331   0.7205
     0.6755   0.6736   0.6583   0.6510   0.1439   0.1380   0.1355   0.1314
     0.0696   0.0554   0.0525   0.0239   0.0154   0.0112   0.0066   0.0042
     0.0039   0.0026   0.0014   0.0009   0.0000   0.0000   0.0000   0.0000
[...]
     0.6340   0.6198   0.6186   0.6145   0.6099   0.6049   0.5984   0.5262
     0.3452   0.3139   0.2040   0.0757   0.0448   0.0205   0.0049   0.0031
     0.0002   0.0001   0.0000   0.0000   0.0000   0.0000   0.0000   0.0000
     0.0000   0.0000   0.0000   0.0000   0.0000   0.0000   0.0000   0.0000
     0.0000   0.0000   0.0000   0.0000   0.0000   0.0000   0.0000   0.0000
     0.0000   0.0000

          k =-0.5000 0.0000 0.0000 ( 65180 PWs)   bands (ev):

   -92.8665 -92.8154 -92.7208 -92.6741 -92.6147 -92.5730 -92.5560 -92.4336
   -56.2201 -56.2022 -56.0776 -56.0669 -56.0612 -56.0538 -56.0194 -55.9896
   -55.9750 -55.9727 -55.9651 -55.9220 -55.9044 -55.8657 -55.8476 -55.8148
   -55.8097 -55.7611 -55.7599 -55.7579 -55.7495 -55.7066 -55.6860 -55.6007
   -31.4276 -31.4152 -31.2684 -31.2550 -31.1830 -31.0621 -31.0041 -30.7969
   -30.0103 -29.9713 -29.9417 -29.8350 -15.1766 -15.1233 -15.0619 -14.9506
   -14.8501 -14.7051 -14.5585 -14.4113 -14.2933 -14.2785 -14.2695 -14.2102
   -14.1503 -14.1193 -14.0693 -14.0595 -14.0425 -13.9958 -13.9727 -13.8679
   -13.7155 -13.6812 -13.6546 -13.6476 -13.5808 -13.5230 -13.4554 -13.4201
   -13.3964 -13.3751 -13.2165 -13.2078 -13.1914 -13.1682 -13.1545 -13.1088
   -13.0911 -13.0757 -12.9849 -12.9687 -12.9156 -12.8201 -12.8003 -12.7950
   -12.7859 -12.7414 -12.6952 -12.5644 -12.4811 -12.4361 -12.3075 -12.2654
   -11.9786 -11.9423 -11.9203 -11.9139 -11.8995 -11.8814 -11.8403 -11.7768
   -11.7590 -11.7261 -11.6813 -11.6723 -11.6568  -2.7444  -2.7060  -2.5428
    -2.5037  -2.1891  -2.1132  -1.9669  -1.8495  -1.8099  -1.7623  -1.7163
    -1.6922  -1.5680  -1.5245  -1.5074  -1.4257  -1.3909  -1.3734  -1.3438
    -1.2847  -1.2172  -1.1887  -1.1569  -1.0635  -1.0172  -0.9680  -0.9349
    -0.9140  -0.8818  -0.8349  -0.8104  -0.7716  -0.6690  -0.5982  -0.5280
    -0.4680  -0.3072  -0.2588  -0.2184  -0.1746  -0.1205  -0.1048   0.0379
     0.0668   0.1252   0.2772   0.3769   0.4243   0.5275   0.5836   0.7031
     0.7186   0.8455   0.8701   0.9246   0.9616   0.9934   1.0011   1.0481
     1.0710   1.1385   1.1904   1.2384   1.2448   1.5457   1.5531   1.5722
     1.5927   1.6947   1.7127   1.7265   1.7345   1.7663   1.7774   1.8163
     1.8380   1.8623   1.9148   1.9343   1.9834   2.0097   2.0612   2.1734
     2.2693   2.3394   2.3536   2.4357   2.4623   2.4918   2.5589   2.5664
     2.5754   2.6045   2.6146   2.6255   2.6546   2.7014   2.7252   2.7709
     2.7918   2.8375   2.8413   2.8455   2.8540   2.8714   2.8811   2.8936
     2.9023   2.9206   2.9324   2.9451   2.9653   2.9700   3.0993   3.1096
     3.9485   3.9715   4.0296   4.1682   4.6336   4.7119   4.9074   4.9360
     5.3891   5.4186   5.4988   5.5296   5.8760   5.8857   6.3595   6.4989
     6.7416   6.9616   7.2101   7.2687   7.5992   7.6381   7.6798   7.7582
     7.7857   7.8919   8.0774   8.2050   8.2632   8.3835   8.4762   8.5073
     8.6503   8.7413

     occupation numbers 
     1.0000   1.0000   1.0000   1.0000   1.0000   1.0000   1.0000   1.0000
     1.0000   1.0000   1.0000   1.0000   1.0000   1.0000   1.0000   1.0000
     1.0000   1.0000   1.0000   1.0000   1.0000   1.0000   1.0000   1.0000
     1.0000   1.0000   1.0000   1.0000   1.0000   1.0000   1.0000   1.0000
     1.0000   1.0000   1.0000   1.0000   1.0000   1.0000   1.0000   1.0000
     1.0000   1.0000   1.0000   1.0000   1.0000   1.0000   1.0000   1.0000
     1.0000   1.0000   1.0000   1.0000   1.0000   1.0000   1.0000   1.0000
     1.0000   1.0000   1.0000   1.0000   1.0000   1.0000   1.0000   1.0000
     1.0000   1.0000   1.0000   1.0000   1.0000   1.0000   1.0000   1.0000
     1.0000   1.0000   1.0000   1.0000   1.0000   1.0000   1.0000   1.0000
     1.0000   1.0000   1.0000   1.0000   1.0000   1.0000   1.0000   1.0000
     1.0000   1.0000   1.0000   1.0000   1.0000   1.0000   1.0000   1.0000
     1.0000   1.0000   1.0000   1.0000   1.0000   1.0000   1.0000   1.0000
     1.0000   1.0000   1.0000   1.0000   1.0000   1.0000   1.0000   1.0000
     1.0000   1.0000   1.0000   1.0000   1.0000   1.0000   1.0000   1.0000
     1.0000   1.0000   1.0000   1.0000   1.0000   1.0000   1.0000   1.0000
     1.0000   1.0000   1.0000   1.0000   1.0000   1.0000   1.0000   1.0000
     1.0000   1.0000   1.0000   1.0000   1.0000   1.0000   1.0000   1.0000
     1.0000   1.0000   1.0000   1.0000   1.0000   1.0000   1.0000   1.0000
     1.0000   1.0000   1.0000   1.0000   1.0000   1.0000   0.9999   0.9999
     0.9999   0.9997   0.9997   0.9996   0.9995   0.9994   0.9993   0.9992
     0.9990   0.9987   0.9983   0.9979   0.9978   0.9918   0.9916   0.9909
     0.9901   0.9853   0.9843   0.9835   0.9830   0.9809   0.9801   0.9772
     0.9754   0.9732   0.9680   0.9659   0.9600   0.9565   0.9489   0.9290
     0.9075   0.8891   0.8850   0.8596   0.8506   0.8402   0.8148   0.8118
     0.8082   0.7961   0.7919   0.7872   0.7745   0.7530   0.7417   0.7193
     0.7088   0.6851   0.6831   0.6809   0.6763   0.6670   0.6617   0.6549
     0.6502   0.6400   0.6335   0.6263   0.6150   0.6123   0.5372   0.5311
     0.1215   0.1147   0.0989   0.0676   0.0144   0.0107   0.0048   0.0042
     0.0005   0.0004   0.0003   0.0002   0.0000   0.0000   0.0000   0.0000
     0.0000   0.0000   0.0000   0.0000   0.0000   0.0000   0.0000   0.0000
     0.0000   0.0000   0.0000   0.0000   0.0000   0.0000   0.0000   0.0000
     0.0000   0.0000

          k =-0.2500 0.2500 0.0000 ( 65198 PWs)   bands (ev):

   -92.8665 -92.8154 -92.7208 -92.6741 -92.6147 -92.5730 -92.5560 -92.4336
   -56.2201 -56.2022 -56.0776 -56.0669 -56.0612 -56.0538 -56.0194 -55.9896
   -55.9750 -55.9727 -55.9651 -55.9220 -55.9044 -55.8657 -55.8476 -55.8148
   -55.8097 -55.7611 -55.7599 -55.7579 -55.7495 -55.7066 -55.6860 -55.6007
   -31.4295 -31.4130 -31.2690 -31.2551 -31.1827 -31.0618 -31.0044 -30.7969
   -30.0107 -29.9699 -29.9427 -29.8349 -15.1792 -15.1349 -15.0635 -14.9464
   -14.8317 -14.7061 -14.6229 -14.4136 -14.2754 -14.2464 -14.2310 -14.1854
   -14.1615 -14.1376 -14.1193 -14.0760 -13.9959 -13.9853 -13.8303 -13.8054
   -13.7761 -13.7545 -13.7003 -13.6567 -13.5930 -13.5894 -13.4541 -13.3977
   -13.3752 -13.3005 -13.2579 -13.1970 -13.1863 -13.1570 -13.1370 -13.0994
   -13.0806 -13.0398 -13.0029 -12.9690 -12.9262 -12.9132 -12.8924 -12.8466
   -12.7760 -12.7403 -12.6047 -12.5964 -12.5430 -12.4370 -12.2495 -12.1905
   -11.9786 -11.9621 -11.9409 -11.9135 -11.9014 -11.8606 -11.8255 -11.8030
   -11.7809 -11.7586 -11.6731 -11.6286 -11.6190  -2.8290  -2.6215  -2.5000
    -2.4113  -2.2938  -2.2278  -2.0227  -1.8797  -1.8615  -1.8304  -1.7396
    -1.7018  -1.6100  -1.5753  -1.5493  -1.4073  -1.3514  -1.2820  -1.2543
    -1.1935  -1.1737  -1.1334  -1.1049  -1.0647  -1.0013  -0.9531  -0.8883
    -0.8200  -0.7950  -0.7445  -0.7155  -0.6693  -0.6121  -0.5633  -0.5248
    -0.4219  -0.3931  -0.3785  -0.3365  -0.2710  -0.1988  -0.1539  -0.1185
    -0.0469  -0.0050   0.2296   0.4006   0.4380   0.4790   0.5393   0.6091
     0.6587   0.7153   0.7439   1.0251   1.1291   1.1699   1.2030   1.2112
     1.2514   1.2671   1.3120   1.3430   1.3568   1.3820   1.4294   1.4459
     1.4878   1.5098   1.5540   1.6388   1.6593   1.6754   1.7190   1.7418
     1.7845   1.8412   1.9440   2.0435   2.0713   2.1203   2.1397   2.2066
     2.2460   2.2713   2.2952   2.3189   2.4229   2.4563   2.5452   2.6143
     2.6212   2.6739   2.7208   2.7290   2.7426   2.7512   2.7631   2.7773
     2.7829   2.8018   2.8118   2.8238   2.8344   2.8460   2.8565   2.8716
     2.8981   2.9078   2.9160   2.9504   3.2409   3.3236   3.3898   3.4721
     3.4929   3.6940   3.8005   4.1514   4.3564   4.5722   4.8363   5.1382
     5.5161   5.5717   5.6241   5.6718   5.7393   6.1068   6.1372   6.1540
     6.8480   7.0574   7.1848   7.3655   7.4753   7.5011   7.5797   7.7828
     7.8413   7.9687   8.2115   8.2244   8.3390   8.3672   8.4447   8.4554
     8.5401   8.7252

     occupation numbers 
     1.0000   1.0000   1.0000   1.0000   1.0000   1.0000   1.0000   1.0000
     1.0000   1.0000   1.0000   1.0000   1.0000   1.0000   1.0000   1.0000
     1.0000   1.0000   1.0000   1.0000   1.0000   1.0000   1.0000   1.0000
     1.0000   1.0000   1.0000   1.0000   1.0000   1.0000   1.0000   1.0000
     1.0000   1.0000   1.0000   1.0000   1.0000   1.0000   1.0000   1.0000
     1.0000   1.0000   1.0000   1.0000   1.0000   1.0000   1.0000   1.0000
     1.0000   1.0000   1.0000   1.0000   1.0000   1.0000   1.0000   1.0000
     1.0000   1.0000   1.0000   1.0000   1.0000   1.0000   1.0000   1.0000
     1.0000   1.0000   1.0000   1.0000   1.0000   1.0000   1.0000   1.0000
     1.0000   1.0000   1.0000   1.0000   1.0000   1.0000   1.0000   1.0000
     1.0000   1.0000   1.0000   1.0000   1.0000   1.0000   1.0000   1.0000
     1.0000   1.0000   1.0000   1.0000   1.0000   1.0000   1.0000   1.0000
     1.0000   1.0000   1.0000   1.0000   1.0000   1.0000   1.0000   1.0000
     1.0000   1.0000   1.0000   1.0000   1.0000   1.0000   1.0000   1.0000
     1.0000   1.0000   1.0000   1.0000   1.0000   1.0000   1.0000   1.0000
     1.0000   1.0000   1.0000   1.0000   1.0000   1.0000   1.0000   1.0000
     1.0000   1.0000   1.0000   1.0000   1.0000   1.0000   1.0000   1.0000
     1.0000   1.0000   1.0000   1.0000   1.0000   1.0000   1.0000   1.0000
     1.0000   1.0000   1.0000   1.0000   1.0000   1.0000   1.0000   1.0000
     1.0000   1.0000   1.0000   1.0000   1.0000   1.0000   1.0000   0.9999
     0.9999   0.9999   0.9998   0.9992   0.9987   0.9985   0.9982   0.9981
     0.9977   0.9976   0.9970   0.9965   0.9963   0.9959   0.9950   0.9946
     0.9935   0.9929   0.9915   0.9882   0.9872   0.9864   0.9839   0.9825
     0.9796   0.9751   0.9648   0.9516   0.9473   0.9391   0.9355   0.9220
     0.9131   0.9070   0.9010   0.8947   0.8638   0.8527   0.8202   0.7920
     0.7890   0.7658   0.7439   0.7399   0.7333   0.7291   0.7232   0.7161
     0.7133   0.7037   0.6985   0.6923   0.6867   0.6806   0.6750   0.6669
     0.6525   0.6471   0.6426   0.6234   0.4534   0.4053   0.3676   0.3227
     0.3116   0.2148   0.1716   0.0709   0.0381   0.0181   0.0065   0.0017
     0.0002   0.0002   0.0001   0.0001   0.0001   0.0000   0.0000   0.0000
     0.0000   0.0000   0.0000   0.0000   0.0000   0.0000   0.0000   0.0000
     0.0000   0.0000   0.0000   0.0000   0.0000   0.0000   0.0000   0.0000
     0.0000   0.0000

          k =-0.5000 0.2500 0.0000 ( 65138 PWs)   bands (ev):

   -92.8665 -92.8154 -92.7208 -92.6741 -92.6147 -92.5730 -92.5560 -92.4336
   -56.2201 -56.2022 -56.0776 -56.0669 -56.0612 -56.0538 -56.0194 -55.9896
   -55.9750 -55.9727 -55.9651 -55.9220 -55.9044 -55.8657 -55.8476 -55.8148
   -55.8097 -55.7611 -55.7599 -55.7579 -55.7495 -55.7066 -55.6860 -55.6007
   -31.4274 -31.4151 -31.2686 -31.2549 -31.1831 -31.0620 -31.0043 -30.7970
   -30.0097 -29.9709 -29.9423 -29.8353 -15.1435 -15.0970 -15.0188 -14.9182
   -14.8770 -14.7525 -14.6628 -14.5314 -14.2262 -14.1959 -14.1839 -14.1384
   -14.1161 -14.0913 -14.0558 -14.0449 -14.0221 -13.9829 -13.9722 -13.8624
   -13.7963 -13.7477 -13.7411 -13.7251 -13.6302 -13.6241 -13.4930 -13.4383
   -13.3538 -13.3190 -13.2228 -13.1866 -13.1743 -13.1684 -13.1349 -13.1021
   -13.0925 -13.0527 -12.9877 -12.9583 -12.9179 -12.8575 -12.8309 -12.7777
   -12.7704 -12.7430 -12.6933 -12.5301 -12.4763 -12.3981 -12.3007 -12.2732
   -11.9786 -11.9349 -11.9222 -11.9083 -11.8961 -11.8749 -11.8450 -11.7635
   -11.7551 -11.7320 -11.6956 -11.6682 -11.6592  -2.6017  -2.5600  -2.4123
    -2.3702  -2.2083  -2.1316  -1.9910  -1.8552  -1.7981  -1.7705  -1.7327
    -1.6945  -1.6135  -1.4980  -1.4404  -1.4175  -1.3915  -1.3131  -1.2868
    -1.2477  -1.2310  -1.1704  -1.1394  -1.1025  -1.0672  -1.0384  -0.9795
    -0.9522  -0.9109  -0.8750  -0.7703  -0.7447  -0.6508  -0.5918  -0.5600
    -0.5014  -0.4193  -0.3862  -0.2862  -0.2474  -0.1839  -0.1375  -0.1075
    -0.0411  -0.0077   0.0302   0.0706   0.1081   0.4308   0.4820   0.5631
     0.5949   0.8568   0.9216   0.9900   1.0175   1.1918   1.2269   1.2644
     1.2743   1.2928   1.3107   1.3798   1.4257   1.4668   1.4984   1.6156
     1.6549   1.6864   1.7022   1.7367   1.7587   1.7762   1.7929   1.8085
     1.8305   1.8779   1.8906   1.9291   1.9525   1.9856   2.0402   2.1613
     2.2586   2.2859   2.3520   2.3893   2.4524   2.4886   2.4946   2.5343
     2.5661   2.5847   2.6138   2.6170   2.6497   2.6986   2.7255   2.7307
     2.7373   2.7561   2.7795   2.7904   2.8063   2.8184   2.8406   2.8553
     2.8626   2.8709   2.8836   2.9013   3.4326   3.4632   3.6142   3.6316
     3.9486   3.9898   4.0419   4.2490   4.6263   4.7247   4.9020   4.9520
     5.2536   5.2815   5.5009   5.5876   5.6237   5.6617   6.3402   6.4469
     6.4686   6.5975   7.3599   7.6132   7.6654   7.6877   7.7320   7.7822
     7.8584   7.9449   8.1355   8.3427   8.4345   8.4611   8.5171   8.5745
     8.6669   8.7262

     occupation numbers 
     1.0000   1.0000   1.0000   1.0000   1.0000   1.0000   1.0000   1.0000
     1.0000   1.0000   1.0000   1.0000   1.0000   1.0000   1.0000   1.0000
     1.0000   1.0000   1.0000   1.0000   1.0000   1.0000   1.0000   1.0000
     1.0000   1.0000   1.0000   1.0000   1.0000   1.0000   1.0000   1.0000
     1.0000   1.0000   1.0000   1.0000   1.0000   1.0000   1.0000   1.0000
     1.0000   1.0000   1.0000   1.0000   1.0000   1.0000   1.0000   1.0000
     1.0000   1.0000   1.0000   1.0000   1.0000   1.0000   1.0000   1.0000
     1.0000   1.0000   1.0000   1.0000   1.0000   1.0000   1.0000   1.0000
     1.0000   1.0000   1.0000   1.0000   1.0000   1.0000   1.0000   1.0000
     1.0000   1.0000   1.0000   1.0000   1.0000   1.0000   1.0000   1.0000
     1.0000   1.0000   1.0000   1.0000   1.0000   1.0000   1.0000   1.0000
     1.0000   1.0000   1.0000   1.0000   1.0000   1.0000   1.0000   1.0000
     1.0000   1.0000   1.0000   1.0000   1.0000   1.0000   1.0000   1.0000
     1.0000   1.0000   1.0000   1.0000   1.0000   1.0000   1.0000   1.0000
     1.0000   1.0000   1.0000   1.0000   1.0000   1.0000   1.0000   1.0000
     1.0000   1.0000   1.0000   1.0000   1.0000   1.0000   1.0000   1.0000
     1.0000   1.0000   1.0000   1.0000   1.0000   1.0000   1.0000   1.0000
     1.0000   1.0000   1.0000   1.0000   1.0000   1.0000   1.0000   1.0000
     1.0000   1.0000   1.0000   1.0000   1.0000   1.0000   1.0000   1.0000
     1.0000   1.0000   1.0000   1.0000   1.0000   1.0000   1.0000   0.9999
     0.9999   0.9997   0.9996   0.9994   0.9993   0.9983   0.9980   0.9976
     0.9975   0.9972   0.9970   0.9959   0.9950   0.9941   0.9933   0.9892
     0.9874   0.9858   0.9849   0.9829   0.9814   0.9802   0.9790   0.9778
     0.9760   0.9717   0.9705   0.9664   0.9638   0.9597   0.9521   0.9314
     0.9101   0.9034   0.8855   0.8744   0.8540   0.8414   0.8392   0.8244
     0.8119   0.8044   0.7922   0.7909   0.7766   0.7543   0.7416   0.7391
     0.7359   0.7267   0.7150   0.7095   0.7014   0.6951   0.6835   0.6756
     0.6717   0.6673   0.6604   0.6507   0.3440   0.3274   0.2510   0.2428
     0.1214   0.1095   0.0957   0.0533   0.0148   0.0102   0.0049   0.0039
     0.0009   0.0008   0.0003   0.0002   0.0001   0.0001   0.0000   0.0000
     0.0000   0.0000   0.0000   0.0000   0.0000   0.0000   0.0000   0.0000
     0.0000   0.0000   0.0000   0.0000   0.0000   0.0000   0.0000   0.0000
     0.0000   0.0000

     the Fermi energy is     3.1621 ev

!    total energy              =   -4440.29702175 Ry
     estimated scf accuracy    <          8.2E-09 Ry
     smearing contrib. (-TS)   =      -1.20689095 Ry
     internal energy E=F+TS    =   -4439.09013080 Ry

     The total energy is F=E-TS. E is the sum of the following terms:
     one-electron contribution =  -20889.96720116 Ry
     hartree contribution      =   10574.20865317 Ry
     xc contribution           =    -693.24490815 Ry
     ewald contribution        =    6846.10511503 Ry
     one-center paw contrib.   =    -276.19178969 Ry
      -> PAW hartree energy AE =      25.17029403 Ry
      -> PAW hartree energy PS =     -25.05410838 Ry
      -> PAW xc energy AE      =     -16.51856909 Ry
      -> PAW xc energy PS      =       6.87807399 Ry
      -> total E_H with PAW    =   10574.32483882 Ry
      -> total E_XC with PAW   =    -702.88540326 Ry

     convergence has been achieved in  50 iterations

     Writing all to output data dir /bsuhome/zayahcortright/scratch/pwscf.save/
 
     init_run     :      7.78s CPU      8.62s WALL (       1 calls)
     electrons    :    716.52s CPU    751.57s WALL (       1 calls)

     Called by init_run:
     wfcinit      :      6.14s CPU      6.59s WALL (       1 calls)
     wfcinit:atom :      0.04s CPU      0.06s WALL (       5 calls)
     wfcinit:wfcr :      5.82s CPU      6.19s WALL (       5 calls)
     potinit      :      0.17s CPU      0.19s WALL (       1 calls)
     hinit0       :      0.59s CPU      0.71s WALL (       1 calls)

     Called by electrons:
     c_bands      :    567.81s CPU    574.93s WALL (      50 calls)
     sum_band     :    111.48s CPU    127.09s WALL (      50 calls)
     v_of_rho     :      5.52s CPU      5.85s WALL (      51 calls)
     v_h          :      0.49s CPU      0.50s WALL (      51 calls)
     v_xc         :      5.03s CPU      5.35s WALL (      51 calls)
     newd         :     16.60s CPU     28.10s WALL (      51 calls)
     PAW_pot      :      1.64s CPU      1.68s WALL (      51 calls)
     mix_rho      :     13.11s CPU     13.56s WALL (      50 calls)

     Called by c_bands:
     init_us_2    :      6.95s CPU      7.04s WALL (     505 calls)
     init_us_2:cp :      6.94s CPU      7.04s WALL (     505 calls)
     cegterg      :    531.82s CPU    538.55s WALL (     250 calls)

     Called by sum_band:
     sum_band:wei :      0.36s CPU      0.36s WALL (      50 calls)
     sum_band:loo :     93.51s CPU     94.32s WALL (      50 calls)
     sum_band:buf :      1.46s CPU      1.58s WALL (     250 calls)
     sum_band:ini :      3.18s CPU      3.21s WALL (     250 calls)
     sum_band:cal :     19.67s CPU     19.76s WALL (     250 calls)
     sum_band:bec :      0.55s CPU      0.56s WALL (     250 calls)
     addusdens    :     15.67s CPU     30.40s WALL (      50 calls)
                                        0.00s GPU  (      50 calls)
     addusd:skk   :      0.31s CPU      0.98s WALL (     150 calls)
                                        0.00s GPU  (     150 calls)

     Called by *egterg:
     cdiaghg      :     52.10s CPU     52.58s WALL (    1221 calls)
     cegterg:over :     38.91s CPU     39.07s WALL (     971 calls)
     cegterg:upda :     27.67s CPU     28.23s WALL (     971 calls)
     cegterg:last :     56.67s CPU     57.01s WALL (     437 calls)
     cdiaghg:chol :      3.11s CPU      3.13s WALL (    1221 calls)
     cdiaghg:inve :      2.93s CPU      2.96s WALL (    1221 calls)
     cdiaghg:para :      6.63s CPU      6.67s WALL (    2442 calls)
     h_psi        :    300.80s CPU    304.09s WALL (    1226 calls)
     s_psi        :     39.62s CPU     39.73s WALL (    1226 calls)
     g_psi        :      1.07s CPU      1.07s WALL (     971 calls)

     Called by h_psi:
     h_psi:calbec :     44.89s CPU     45.14s WALL (    1226 calls)
     vloc_psi     :    213.56s CPU    215.71s WALL (    1226 calls)
     add_vuspsi   :     39.40s CPU     39.62s WALL (    1226 calls)

     General routines
     calbec       :     64.56s CPU     64.89s WALL (    1476 calls)
     fft          :      3.81s CPU      3.85s WALL (     661 calls)
     ffts         :      4.79s CPU      4.83s WALL (    5484 calls)
     fftw         :    180.62s CPU    182.15s WALL (  335370 calls)
     interpolate  :      0.42s CPU      0.43s WALL (      51 calls)
 
     Parallel routines

     PAW routines
     PAW_pot      :      1.64s CPU      1.68s WALL (      51 calls)
 
     PWSCF        :  12m 6.01s CPU  12m44.97s WALL

 
   This run was terminated on:   2:34: 2  22Jun2024            

=------------------------------------------------------------------------------=
   JOB DONE.
=------------------------------------------------------------------------------=
