
     Program PWSCF v.7.2 starts on 20Jun2024 at 20: 7: 0 

     This program is part of the open-source Quantum ESPRESSO suite
     for quantum simulation of materials; please cite
         "P. Giannozzi et al., J. Phys.:Condens. Matter 21 395502 (2009);
         "P. Giannozzi et al., J. Phys.:Condens. Matter 29 465901 (2017);
         "P. Giannozzi et al., J. Chem. Phys. 152 154105 (2020);
          URL http://www.quantum-espresso.org", 
     in publications or presentations arising from this work. More details at
     http://www.quantum-espresso.org/quote

     Parallel version (MPI & OpenMP), running on      48 processor cores
     Number of MPI processes:                48
     Threads/MPI process:                     1

     MPI processes distributed on     1 nodes
     41839 MiB available memory on the printing compute node when the environment starts
 
     Reading input from espresso.pwi
Warning: card &CELL ignored
Warning: card / ignored
Warning: card &FCP ignored
Warning: card / ignored
Warning: card &RISM ignored
Warning: card / ignored

     Current dimensions of program PWSCF are:
     Max number of different atomic species (ntypx) = 10
     Max number of k-points (npk) =  40000
     Max angular momentum in pseudopotentials (lmaxx) =  4
     file O.pbe-n-kjpaw_psl.0.1.UPF: wavefunction(s)  2P renormalized
     signal trapping enabled: kill the code with -SIGUSR1 to stop cleanly the simulation 
 
     K-points division:     npool     =       2
     R & G space division:  proc/nbgrp/npool/nimage =      24
     Subspace diagonalization in iterative solution of the eigenvalue problem:
     one sub-group per band group will be used
     scalapack distributed-memory algorithm (size of sub-group:  3*  3 procs)

 
     Parallelization info
     --------------------
     sticks:   dense  smooth     PW     G-vecs:    dense   smooth      PW
     Min         350     175     47                61430    21716    3036
     Max         351     177     48                61449    21727    3041
     Sum        8421    4205   1137              1474595   521381   72913
 
     Using Slab Decomposition
 


     bravais-lattice index     =            0
     lattice parameter (alat)  =      14.8599  a.u.
     unit-cell volume          =    8305.1283 (a.u.)^3
     number of atoms/cell      =           51
     number of atomic types    =            4
     number of electrons       =       437.00
     number of Kohn-Sham states=          263
     kinetic-energy cutoff     =      60.0000  Ry
     charge density cutoff     =     480.0000  Ry
     scf convergence threshold =      1.0E-08
     mixing beta               =       0.1500
     number of iterations used =            8  local-TF  mixing
     Exchange-correlation= PBE
                           (   1   4   3   4   0   0   0)

     celldm(1)=  14.859904  celldm(2)=   0.000000  celldm(3)=   0.000000
     celldm(4)=   0.000000  celldm(5)=   0.000000  celldm(6)=   0.000000

     crystal axes: (cart. coord. in units of alat)
               a(1) = (   1.000000   0.000000   0.000000 )  
               a(2) = (   0.000000   1.000000   0.000000 )  
               a(3) = (   0.000000   0.000000   2.531036 )  

     reciprocal axes: (cart. coord. in units 2 pi/alat)
               b(1) = (  1.000000  0.000000  0.000000 )  
               b(2) = (  0.000000  1.000000  0.000000 )  
               b(3) = (  0.000000  0.000000  0.395095 )  


     PseudoPot. # 1 for Sr read from file:
     /bsuhome/zayahcortright/q-e/pseudo/Sr_pbe_v1.uspp.F.UPF
     MD5 check sum: 6b418c05fbe9db5448babca5e47b7a5b
     Pseudo is Ultrasoft + core correction, Zval = 10.0
     Generated by new atomic code, or converted to UPF format
     Using radial grid of  883 points,  6 beta functions with: 
                l(1) =   0
                l(2) =   0
                l(3) =   1
                l(4) =   1
                l(5) =   2
                l(6) =   2
     Q(r) pseudized with  6 coefficients,  rinner =    1.400   1.400   1.400
                                                       1.400   1.400

     PseudoPot. # 2 for O  read from file:
     /bsuhome/zayahcortright/q-e/pseudo/O.pbe-n-kjpaw_psl.0.1.UPF
     MD5 check sum: 0234752ac141de4415c5fc33072bef88
     Pseudo is Projector augmented-wave + core cor, Zval =  6.0
     Generated using "atomic" code by A. Dal Corso  v.5.0.99 svn rev. 10869
     Shape of augmentation charge: BESSEL
     Using radial grid of 1095 points,  4 beta functions with: 
                l(1) =   0
                l(2) =   0
                l(3) =   1
                l(4) =   1
     Q(r) pseudized with 0 coefficients 


     PseudoPot. # 3 for Co read from file:
     /bsuhome/zayahcortright/q-e/pseudo/Co_pbe_v1.2.uspp.F.UPF
     MD5 check sum: 5f91765df6ddd3222702df6e7b74a16d
     Pseudo is Ultrasoft + core correction, Zval = 17.0
     Generated by new atomic code, or converted to UPF format
     Using radial grid of  863 points,  6 beta functions with: 
                l(1) =   0
                l(2) =   0
                l(3) =   1
                l(4) =   1
                l(5) =   2
                l(6) =   2
     Q(r) pseudized with  8 coefficients,  rinner =    1.200   1.200   1.200
                                                       1.200   1.200

     PseudoPot. # 4 for H  read from file:
     /bsuhome/zayahcortright/q-e/pseudo/H.pbe-rrkjus_psl.1.0.0.UPF
     MD5 check sum: f52b6d4d1c606e5624b1dc7b2218f220
     Pseudo is Ultrasoft, Zval =  1.0
     Generated using "atomic" code by A. Dal Corso  v.5.1
     Using radial grid of  929 points,  2 beta functions with: 
                l(1) =   0
                l(2) =   0
     Q(r) pseudized with 0 coefficients 


     atomic species   valence    mass     pseudopotential
        Sr            10.00    87.62000     Sr( 1.00)
        O              6.00    15.99900     O ( 1.00)
        Co            17.00    58.93319     Co( 1.00)
        H              1.00     1.00800     H ( 1.00)

     No symmetry found


                                    s                        frac. trans.

      isym =  1     identity                                     

 cryst.   s( 1) = (     1          0          0      )
                  (     0          1          0      )
                  (     0          0          1      )

 cart.    s( 1) = (  1.0000000  0.0000000  0.0000000 )
                  (  0.0000000  1.0000000  0.0000000 )
                  (  0.0000000  0.0000000  1.0000000 )


   Cartesian axes

     site n.     atom                  positions (alat units)
         1           Sr  tau(   1) = (   0.2508693   0.7491307   1.7574407  )
         2           O   tau(   2) = (   0.4985141   0.5014859   1.7715967  )
         3           Sr  tau(   3) = (   0.7482398   0.7454518   1.7648669  )
         4           Sr  tau(   4) = (   0.7441748   0.2558252   1.7667843  )
         5           Sr  tau(   5) = (   0.2508693   0.7491307   1.2696799  )
         6           Sr  tau(   6) = (   0.2508693   0.7491307   0.7632319  )
         7           Co  tau(   7) = (   0.4998914   0.5001086   1.0164559  )
         8           Co  tau(   8) = (   0.4936915   0.5063085   1.5135603  )
         9           O   tau(   9) = (   0.4988895   0.7610401   1.0164559  )
        10           O   tau(  10) = (   0.2389599   0.5011105   1.0164559  )
        11           O   tau(  11) = (   0.0070918   0.7374880   1.0164559  )
        12           O   tau(  12) = (   0.0088340   0.7405089   1.5135603  )
        13           O   tau(  13) = (   0.5066944   0.7415376   1.5135603  )
        14           O   tau(  14) = (   0.2584624   0.4933056   1.5135603  )
        15           O   tau(  15) = (   0.4985141   0.5014859   0.7773880  )
        16           O   tau(  16) = (   0.4985141   0.5014859   1.2555238  )
        17           Sr  tau(  17) = (   0.7482398   0.7454518   0.7706582  )
        18           Sr  tau(  18) = (   0.7482398   0.7454518   1.2622536  )
        19           Sr  tau(  19) = (   0.7441748   0.2558252   0.7725755  )
        20           Sr  tau(  20) = (   0.7441748   0.2558252   1.2603363  )
        21           O   tau(  21) = (   0.7322655   0.0078049   1.5135603  )
        22           O   tau(  22) = (   0.7558175   0.4996027   1.5135603  )
        23           O   tau(  23) = (   0.5003973   0.2441825   1.5135603  )
        24           O   tau(  24) = (   0.7527966   0.4978604   1.0164559  )
        25           O   tau(  25) = (   0.5021396   0.2472034   1.0164559  )
        26           O   tau(  26) = (   0.7517679   0.0000000   1.0164559  )
        27           O   tau(  27) = (   0.0114961   0.4948124   1.7455321  )
        28           O   tau(  28) = (   0.0048226   0.0077944   1.7715967  )
        29           Sr  tau(  29) = (   0.2545482   0.2517602   1.7648669  )
        30           O   tau(  30) = (   0.5048017   0.0015068   1.7786929  )
        31           Co  tau(  31) = (   0.0056869   0.5006215   1.0164559  )
        32           Co  tau(  32) = (   0.0065315   0.4997770   1.5135603  )
        33           Co  tau(  33) = (   0.0061999   0.0064171   1.0164559  )
        34           Co  tau(  34) = (   0.0000000   0.0126169   1.5135603  )
        35           O   tau(  35) = (   0.0114961   0.4948124   1.2815885  )
        36           O   tau(  36) = (   0.0114961   0.4948124   0.7513233  )
        37           O   tau(  37) = (   0.0051979   0.2673486   1.0164559  )
        38           O   tau(  38) = (   0.0130029   0.2478461   1.5135603  )
        39           O   tau(  39) = (   0.0048226   0.0077944   0.7773880  )
        40           O   tau(  40) = (   0.0048226   0.0077944   1.2555238  )
        41           Sr  tau(  41) = (   0.2545482   0.2517602   0.7706582  )
        42           Sr  tau(  42) = (   0.2545482   0.2517602   1.2622536  )
        43           Co  tau(  43) = (   0.4989925   0.0073160   1.5135603  )
        44           Co  tau(  44) = (   0.4998370   0.0064714   1.0164559  )
        45           O   tau(  45) = (   0.5048017   0.0015068   0.7844841  )
        46           O   tau(  46) = (   0.5048017   0.0015068   1.2484277  )
        47           O   tau(  47) = (   0.2621260   0.0059111   1.5135603  )
        48           O   tau(  48) = (   0.2591051   0.0041689   1.0164559  )
        49           O   tau(  49) = (   0.9951520   0.5686583   2.1602013  )
        50           O   tau(  50) = (   0.9951520   0.5686583   2.3186489  )
        51           H   tau(  51) = (   0.9951520   0.5686583   2.4431567  )

   Crystallographic axes

     site n.     atom                  positions (cryst. coord.)
         1           Sr  tau(   1) = (  0.2508693  0.7491307  0.6943562  )
         2           O   tau(   2) = (  0.4985141  0.5014859  0.6999492  )
         3           Sr  tau(   3) = (  0.7482398  0.7454518  0.6972903  )
         4           Sr  tau(   4) = (  0.7441748  0.2558252  0.6980478  )
         5           Sr  tau(   5) = (  0.2508693  0.7491307  0.5016443  )
         6           Sr  tau(   6) = (  0.2508693  0.7491307  0.3015492  )
         7           Co  tau(   7) = (  0.4998914  0.5001086  0.4015968  )
         8           Co  tau(   8) = (  0.4936915  0.5063085  0.5980003  )
         9           O   tau(   9) = (  0.4988895  0.7610401  0.4015968  )
        10           O   tau(  10) = (  0.2389599  0.5011105  0.4015968  )
        11           O   tau(  11) = (  0.0070918  0.7374880  0.4015968  )
        12           O   tau(  12) = (  0.0088340  0.7405089  0.5980003  )
        13           O   tau(  13) = (  0.5066944  0.7415376  0.5980003  )
        14           O   tau(  14) = (  0.2584624  0.4933056  0.5980003  )
        15           O   tau(  15) = (  0.4985141  0.5014859  0.3071422  )
        16           O   tau(  16) = (  0.4985141  0.5014859  0.4960513  )
        17           Sr  tau(  17) = (  0.7482398  0.7454518  0.3044833  )
        18           Sr  tau(  18) = (  0.7482398  0.7454518  0.4987103  )
        19           Sr  tau(  19) = (  0.7441748  0.2558252  0.3052408  )
        20           Sr  tau(  20) = (  0.7441748  0.2558252  0.4979527  )
        21           O   tau(  21) = (  0.7322655  0.0078049  0.5980003  )
        22           O   tau(  22) = (  0.7558175  0.4996027  0.5980003  )
        23           O   tau(  23) = (  0.5003973  0.2441825  0.5980003  )
        24           O   tau(  24) = (  0.7527966  0.4978604  0.4015968  )
        25           O   tau(  25) = (  0.5021396  0.2472034  0.4015968  )
        26           O   tau(  26) = (  0.7517679  0.0000000  0.4015968  )
        27           O   tau(  27) = (  0.0114961  0.4948124  0.6896512  )
        28           O   tau(  28) = (  0.0048226  0.0077944  0.6999492  )
        29           Sr  tau(  29) = (  0.2545482  0.2517602  0.6972903  )
        30           O   tau(  30) = (  0.5048017  0.0015068  0.7027529  )
        31           Co  tau(  31) = (  0.0056869  0.5006215  0.4015968  )
        32           Co  tau(  32) = (  0.0065315  0.4997770  0.5980003  )
        33           Co  tau(  33) = (  0.0061999  0.0064171  0.4015968  )
        34           Co  tau(  34) = (  0.0000000  0.0126169  0.5980003  )
        35           O   tau(  35) = (  0.0114961  0.4948124  0.5063494  )
        36           O   tau(  36) = (  0.0114961  0.4948124  0.2968442  )
        37           O   tau(  37) = (  0.0051979  0.2673486  0.4015968  )
        38           O   tau(  38) = (  0.0130029  0.2478461  0.5980003  )
        39           O   tau(  39) = (  0.0048226  0.0077944  0.3071422  )
        40           O   tau(  40) = (  0.0048226  0.0077944  0.4960513  )
        41           Sr  tau(  41) = (  0.2545482  0.2517602  0.3044833  )
        42           Sr  tau(  42) = (  0.2545482  0.2517602  0.4987103  )
        43           Co  tau(  43) = (  0.4989925  0.0073160  0.5980003  )
        44           Co  tau(  44) = (  0.4998370  0.0064714  0.4015968  )
        45           O   tau(  45) = (  0.5048017  0.0015068  0.3099459  )
        46           O   tau(  46) = (  0.5048017  0.0015068  0.4932477  )
        47           O   tau(  47) = (  0.2621260  0.0059111  0.5980003  )
        48           O   tau(  48) = (  0.2591051  0.0041689  0.4015968  )
        49           O   tau(  49) = (  0.9951520  0.5686583  0.8534850  )
        50           O   tau(  50) = (  0.9951520  0.5686583  0.9160869  )
        51           H   tau(  51) = (  0.9951520  0.5686583  0.9652793  )

     number of k points=    10  Gaussian smearing, width (Ry)=  0.0700
                       cart. coord. in units 2pi/alat
        k(    1) = (   0.0000000   0.0000000   0.0000000), wk =   0.1250000
        k(    2) = (   0.0000000   0.2500000   0.0000000), wk =   0.2500000
        k(    3) = (   0.0000000  -0.5000000   0.0000000), wk =   0.1250000
        k(    4) = (   0.2500000   0.2500000   0.0000000), wk =   0.2500000
        k(    5) = (   0.2500000  -0.5000000   0.0000000), wk =   0.2500000
        k(    6) = (  -0.5000000  -0.5000000   0.0000000), wk =   0.1250000
        k(    7) = (   0.2500000   0.0000000   0.0000000), wk =   0.2500000
        k(    8) = (  -0.5000000   0.0000000   0.0000000), wk =   0.1250000
        k(    9) = (  -0.2500000   0.2500000   0.0000000), wk =   0.2500000
        k(   10) = (  -0.5000000   0.2500000   0.0000000), wk =   0.2500000

                       cryst. coord.
        k(    1) = (   0.0000000   0.0000000   0.0000000), wk =   0.1250000
        k(    2) = (   0.0000000   0.2500000   0.0000000), wk =   0.2500000
        k(    3) = (   0.0000000  -0.5000000   0.0000000), wk =   0.1250000
        k(    4) = (   0.2500000   0.2500000   0.0000000), wk =   0.2500000
        k(    5) = (   0.2500000  -0.5000000   0.0000000), wk =   0.2500000
        k(    6) = (  -0.5000000  -0.5000000   0.0000000), wk =   0.1250000
        k(    7) = (   0.2500000   0.0000000   0.0000000), wk =   0.2500000
        k(    8) = (  -0.5000000   0.0000000   0.0000000), wk =   0.1250000
        k(    9) = (  -0.2500000   0.2500000   0.0000000), wk =   0.2500000
        k(   10) = (  -0.5000000   0.2500000   0.0000000), wk =   0.2500000

     Dense  grid:  1474595 G-vectors     FFT dimensions: ( 108, 108, 270)

     Smooth grid:   521381 G-vectors     FFT dimensions: (  75,  75, 192)

     Dynamical RAM for                 wfc:      10.90 MB

     Dynamical RAM for     wfc (w. buffer):      65.37 MB

     Dynamical RAM for           str. fact:       3.75 MB

     Dynamical RAM for           local pot:       0.00 MB

     Dynamical RAM for          nlocal pot:      24.94 MB

     Dynamical RAM for                qrad:       7.03 MB

     Dynamical RAM for          rho,v,vnew:       6.02 MB

     Dynamical RAM for               rhoin:       2.01 MB

     Dynamical RAM for            rho*nmix:      15.00 MB

     Dynamical RAM for           G-vectors:       3.68 MB

     Dynamical RAM for          h,s,v(r/c):       1.40 MB

     Dynamical RAM for          <psi|beta>:       2.42 MB

     Dynamical RAM for                 psi:      21.79 MB

     Dynamical RAM for                hpsi:      21.79 MB

     Dynamical RAM for                spsi:      21.79 MB

     Dynamical RAM for      wfcinit/wfcrot:      34.89 MB

     Dynamical RAM for           addusdens:     101.73 MB

     Estimated static dynamical RAM per process >     122.82 MB

     Estimated max dynamical RAM per process >     239.55 MB

     Estimated total dynamical RAM >      10.88 GB

     Check: negative core charge=   -0.000004

     Initial potential from superposition of free atoms

     starting charge     428.5961, renormalised to     437.0000

     negative rho (up, down):  7.814E-01 0.000E+00
     Starting wfcs are  381 randomized atomic wfcs
     Checking if some PAW data can be deallocated... 
       PAW data deallocated on   18 nodes for type:  2

     total cpu time spent up to now is       10.1 secs

     Self-consistent Calculation

     iteration #  1     ecut=    60.00 Ry     beta= 0.15
     Davidson diagonalization with overlap

---- Real-time Memory Report at c_bands before calling an iterative solver
             0 MiB given to the printing process from OS
             0 MiB allocation reported by mallinfo(arena+hblkhd)
         32087 MiB available memory on the node where the printing process lives
------------------
     ethr =  1.00E-02,  avg # of iterations =  2.0

     negative rho (up, down):  7.714E-01 0.000E+00

     total cpu time spent up to now is       26.1 secs

     total energy              =   -4489.25819174 Ry
     estimated scf accuracy    <      49.84106521 Ry

     iteration #  2     ecut=    60.00 Ry     beta= 0.15
     Davidson diagonalization with overlap

---- Real-time Memory Report at c_bands before calling an iterative solver
             0 MiB given to the printing process from OS
             0 MiB allocation reported by mallinfo(arena+hblkhd)
         32493 MiB available memory on the node where the printing process lives
------------------
     ethr =  1.00E-02,  avg # of iterations =  1.0

     negative rho (up, down):  7.613E-01 0.000E+00

     total cpu time spent up to now is       38.9 secs

     total energy              =   -4486.82238019 Ry
     estimated scf accuracy    <      35.23527000 Ry

     iteration #  3     ecut=    60.00 Ry     beta= 0.15
     Davidson diagonalization with overlap

---- Real-time Memory Report at c_bands before calling an iterative solver
             0 MiB given to the printing process from OS
             0 MiB allocation reported by mallinfo(arena+hblkhd)
         31705 MiB available memory on the node where the printing process lives
------------------
     ethr =  8.06E-03,  avg # of iterations =  1.0

     negative rho (up, down):  7.561E-01 0.000E+00

     total cpu time spent up to now is       51.7 secs

     total energy              =   -4486.74468151 Ry
     estimated scf accuracy    <      34.91354821 Ry

     iteration #  4     ecut=    60.00 Ry     beta= 0.15
     Davidson diagonalization with overlap

---- Real-time Memory Report at c_bands before calling an iterative solver
             0 MiB given to the printing process from OS
             0 MiB allocation reported by mallinfo(arena+hblkhd)
         31686 MiB available memory on the node where the printing process lives
------------------
     ethr =  7.99E-03,  avg # of iterations =  1.0

     negative rho (up, down):  7.569E-01 0.000E+00

     total cpu time spent up to now is       64.8 secs

     total energy              =   -4486.71544243 Ry
     estimated scf accuracy    <      34.31380664 Ry

     iteration #  5     ecut=    60.00 Ry     beta= 0.15
     Davidson diagonalization with overlap

---- Real-time Memory Report at c_bands before calling an iterative solver
             0 MiB given to the printing process from OS
             0 MiB allocation reported by mallinfo(arena+hblkhd)
         31662 MiB available memory on the node where the printing process lives
------------------
     ethr =  7.85E-03,  avg # of iterations =  1.0

     negative rho (up, down):  7.345E-01 0.000E+00

     total cpu time spent up to now is       77.5 secs

     total energy              =   -4483.27174977 Ry
     estimated scf accuracy    <      25.21519436 Ry

     iteration #  6     ecut=    60.00 Ry     beta= 0.15
     Davidson diagonalization with overlap

---- Real-time Memory Report at c_bands before calling an iterative solver
             0 MiB given to the printing process from OS
             0 MiB allocation reported by mallinfo(arena+hblkhd)
         31648 MiB available memory on the node where the printing process lives
------------------
     ethr =  5.77E-03,  avg # of iterations =  2.0

     negative rho (up, down):  7.468E-01 0.000E+00

     total cpu time spent up to now is       91.7 secs

     total energy              =   -4484.43070531 Ry
     estimated scf accuracy    <      47.74130847 Ry

     iteration #  7     ecut=    60.00 Ry     beta= 0.15
     Davidson diagonalization with overlap

---- Real-time Memory Report at c_bands before calling an iterative solver
             0 MiB given to the printing process from OS
             0 MiB allocation reported by mallinfo(arena+hblkhd)
         31634 MiB available memory on the node where the printing process lives
------------------
     ethr =  5.77E-03,  avg # of iterations =  1.0

     negative rho (up, down):  7.527E-01 0.000E+00

     total cpu time spent up to now is      104.5 secs

     total energy              =   -4483.43706888 Ry
     estimated scf accuracy    <      47.15829580 Ry

     iteration #  8     ecut=    60.00 Ry     beta= 0.15
     Davidson diagonalization with overlap

---- Real-time Memory Report at c_bands before calling an iterative solver
             0 MiB given to the printing process from OS
             0 MiB allocation reported by mallinfo(arena+hblkhd)
         31615 MiB available memory on the node where the printing process lives
------------------
     ethr =  5.77E-03,  avg # of iterations =  1.0

     negative rho (up, down):  7.507E-01 0.000E+00

     total cpu time spent up to now is      117.1 secs

     total energy              =   -4483.84934548 Ry
     estimated scf accuracy    <       6.08464159 Ry

     iteration #  9     ecut=    60.00 Ry     beta= 0.15
     Davidson diagonalization with overlap

---- Real-time Memory Report at c_bands before calling an iterative solver
             0 MiB given to the printing process from OS
             0 MiB allocation reported by mallinfo(arena+hblkhd)
         31593 MiB available memory on the node where the printing process lives
------------------
     ethr =  1.39E-03,  avg # of iterations =  5.0

     negative rho (up, down):  7.630E-01 0.000E+00

     total cpu time spent up to now is      132.3 secs

     total energy              =   -4483.65751758 Ry
     estimated scf accuracy    <       3.68761533 Ry

     iteration # 10     ecut=    60.00 Ry     beta= 0.15
     Davidson diagonalization with overlap

---- Real-time Memory Report at c_bands before calling an iterative solver
             0 MiB given to the printing process from OS
             0 MiB allocation reported by mallinfo(arena+hblkhd)
         31524 MiB available memory on the node where the printing process lives
------------------
     ethr =  8.44E-04,  avg # of iterations =  9.2

     negative rho (up, down):  7.726E-01 0.000E+00

     total cpu time spent up to now is      149.9 secs

     total energy              =   -4483.52687593 Ry
     estimated scf accuracy    <       3.79325026 Ry

     iteration # 11     ecut=    60.00 Ry     beta= 0.15
     Davidson diagonalization with overlap

---- Real-time Memory Report at c_bands before calling an iterative solver
             0 MiB given to the printing process from OS
             0 MiB allocation reported by mallinfo(arena+hblkhd)
         31277 MiB available memory on the node where the printing process lives
------------------
     ethr =  8.44E-04,  avg # of iterations =  6.4

     negative rho (up, down):  7.870E-01 0.000E+00

     total cpu time spent up to now is      166.5 secs

     total energy              =   -4483.39728269 Ry
     estimated scf accuracy    <       2.93979164 Ry

     iteration # 12     ecut=    60.00 Ry     beta= 0.15
     Davidson diagonalization with overlap

---- Real-time Memory Report at c_bands before calling an iterative solver
             0 MiB given to the printing process from OS
             0 MiB allocation reported by mallinfo(arena+hblkhd)
         31188 MiB available memory on the node where the printing process lives
------------------
     ethr =  6.73E-04,  avg # of iterations = 10.1

     negative rho (up, down):  7.990E-01 0.000E+00

     total cpu time spent up to now is      185.5 secs

     total energy              =   -4483.19871430 Ry
     estimated scf accuracy    <       1.96462136 Ry

     iteration # 13     ecut=    60.00 Ry     beta= 0.15
     Davidson diagonalization with overlap

---- Real-time Memory Report at c_bands before calling an iterative solver
             0 MiB given to the printing process from OS
             0 MiB allocation reported by mallinfo(arena+hblkhd)
         31073 MiB available memory on the node where the printing process lives
------------------
     ethr =  4.50E-04,  avg # of iterations =  2.0

     negative rho (up, down):  7.964E-01 0.000E+00

     total cpu time spent up to now is      199.7 secs

     total energy              =   -4483.35881728 Ry
     estimated scf accuracy    <       2.61963761 Ry

     iteration # 14     ecut=    60.00 Ry     beta= 0.15
     Davidson diagonalization with overlap

---- Real-time Memory Report at c_bands before calling an iterative solver
             0 MiB given to the printing process from OS
             0 MiB allocation reported by mallinfo(arena+hblkhd)
         31089 MiB available memory on the node where the printing process lives
------------------
     ethr =  4.50E-04,  avg # of iterations =  1.0

     negative rho (up, down):  7.970E-01 0.000E+00

     total cpu time spent up to now is      212.5 secs

     total energy              =   -4483.30518022 Ry
     estimated scf accuracy    <       1.74120394 Ry

     iteration # 15     ecut=    60.00 Ry     beta= 0.15
     Davidson diagonalization with overlap

---- Real-time Memory Report at c_bands before calling an iterative solver
             0 MiB given to the printing process from OS
             0 MiB allocation reported by mallinfo(arena+hblkhd)
         31113 MiB available memory on the node where the printing process lives
------------------
     ethr =  3.98E-04,  avg # of iterations =  1.6

     negative rho (up, down):  8.095E-01 0.000E+00

     total cpu time spent up to now is      225.8 secs

     total energy              =   -4483.12841531 Ry
     estimated scf accuracy    <       0.88272540 Ry

     iteration # 16     ecut=    60.00 Ry     beta= 0.15
     Davidson diagonalization with overlap

---- Real-time Memory Report at c_bands before calling an iterative solver
             0 MiB given to the printing process from OS
             0 MiB allocation reported by mallinfo(arena+hblkhd)
         31146 MiB available memory on the node where the printing process lives
------------------
     ethr =  2.02E-04,  avg # of iterations =  5.6

     negative rho (up, down):  8.062E-01 0.000E+00

     total cpu time spent up to now is      242.9 secs

     total energy              =   -4483.13029494 Ry
     estimated scf accuracy    <       3.12081439 Ry

     iteration # 17     ecut=    60.00 Ry     beta= 0.15
     Davidson diagonalization with overlap

---- Real-time Memory Report at c_bands before calling an iterative solver
             0 MiB given to the printing process from OS
             0 MiB allocation reported by mallinfo(arena+hblkhd)
         31136 MiB available memory on the node where the printing process lives
------------------
     ethr =  2.02E-04,  avg # of iterations =  1.4

     negative rho (up, down):  8.119E-01 0.000E+00

     total cpu time spent up to now is      256.5 secs

     total energy              =   -4483.15052167 Ry
     estimated scf accuracy    <       0.56607236 Ry

     iteration # 18     ecut=    60.00 Ry     beta= 0.15
     Davidson diagonalization with overlap

---- Real-time Memory Report at c_bands before calling an iterative solver
             0 MiB given to the printing process from OS
             0 MiB allocation reported by mallinfo(arena+hblkhd)
         31136 MiB available memory on the node where the printing process lives
------------------
     ethr =  1.30E-04,  avg # of iterations =  3.8

     negative rho (up, down):  8.201E-01 0.000E+00

     total cpu time spent up to now is      272.4 secs

     total energy              =   -4483.09878698 Ry
     estimated scf accuracy    <       1.30490996 Ry

     iteration # 19     ecut=    60.00 Ry     beta= 0.15
     Davidson diagonalization with overlap

---- Real-time Memory Report at c_bands before calling an iterative solver
             0 MiB given to the printing process from OS
             0 MiB allocation reported by mallinfo(arena+hblkhd)
         31135 MiB available memory on the node where the printing process lives
------------------
     c_bands:  1 eigenvalues not converged
     ethr =  1.30E-04,  avg # of iterations =  8.9

     negative rho (up, down):  8.215E-01 0.000E+00

     total cpu time spent up to now is      290.0 secs

     total energy              =   -4483.03416753 Ry
     estimated scf accuracy    <       1.20638453 Ry

     iteration # 20     ecut=    60.00 Ry     beta= 0.15
     Davidson diagonalization with overlap

---- Real-time Memory Report at c_bands before calling an iterative solver
             0 MiB given to the printing process from OS
             0 MiB allocation reported by mallinfo(arena+hblkhd)
         31107 MiB available memory on the node where the printing process lives
------------------
     ethr =  1.30E-04,  avg # of iterations = 10.1

     negative rho (up, down):  8.256E-01 0.000E+00

     total cpu time spent up to now is      308.3 secs

     total energy              =   -4483.03752827 Ry
     estimated scf accuracy    <       0.54911940 Ry

     iteration # 21     ecut=    60.00 Ry     beta= 0.15
     Davidson diagonalization with overlap

---- Real-time Memory Report at c_bands before calling an iterative solver
             0 MiB given to the printing process from OS
             0 MiB allocation reported by mallinfo(arena+hblkhd)
         31084 MiB available memory on the node where the printing process lives
------------------
     ethr =  1.26E-04,  avg # of iterations =  4.0

     negative rho (up, down):  8.260E-01 0.000E+00

     total cpu time spent up to now is      324.0 secs

     total energy              =   -4483.02529728 Ry
     estimated scf accuracy    <       0.30612965 Ry

     iteration # 22     ecut=    60.00 Ry     beta= 0.15
     Davidson diagonalization with overlap

---- Real-time Memory Report at c_bands before calling an iterative solver
             0 MiB given to the printing process from OS
             0 MiB allocation reported by mallinfo(arena+hblkhd)
         31097 MiB available memory on the node where the printing process lives
------------------
     ethr =  7.01E-05,  avg # of iterations =  7.3

     negative rho (up, down):  8.250E-01 0.000E+00

     total cpu time spent up to now is      340.7 secs

     total energy              =   -4483.00143111 Ry
     estimated scf accuracy    <       0.23838222 Ry

     iteration # 23     ecut=    60.00 Ry     beta= 0.15
     Davidson diagonalization with overlap

---- Real-time Memory Report at c_bands before calling an iterative solver
             0 MiB given to the printing process from OS
             0 MiB allocation reported by mallinfo(arena+hblkhd)
         31131 MiB available memory on the node where the printing process lives
------------------
     ethr =  5.45E-05,  avg # of iterations =  4.7

     negative rho (up, down):  8.242E-01 0.000E+00

     total cpu time spent up to now is      356.6 secs

     total energy              =   -4482.99413555 Ry
     estimated scf accuracy    <       0.13155748 Ry

     iteration # 24     ecut=    60.00 Ry     beta= 0.15
     Davidson diagonalization with overlap

---- Real-time Memory Report at c_bands before calling an iterative solver
             0 MiB given to the printing process from OS
             0 MiB allocation reported by mallinfo(arena+hblkhd)
         31106 MiB available memory on the node where the printing process lives
------------------
     ethr =  3.01E-05,  avg # of iterations =  8.7

     negative rho (up, down):  8.272E-01 0.000E+00

     total cpu time spent up to now is      374.5 secs

     total energy              =   -4482.98100991 Ry
     estimated scf accuracy    <       0.09114229 Ry

     iteration # 25     ecut=    60.00 Ry     beta= 0.15
     Davidson diagonalization with overlap

---- Real-time Memory Report at c_bands before calling an iterative solver
             0 MiB given to the printing process from OS
             0 MiB allocation reported by mallinfo(arena+hblkhd)
         31093 MiB available memory on the node where the printing process lives
------------------
     c_bands:  1 eigenvalues not converged
     ethr =  2.09E-05,  avg # of iterations = 12.4

     negative rho (up, down):  8.405E-01 0.000E+00

     total cpu time spent up to now is      394.9 secs

     total energy              =   -4482.97961463 Ry
     estimated scf accuracy    <       0.05502764 Ry

     iteration # 26     ecut=    60.00 Ry     beta= 0.15
     Davidson diagonalization with overlap

---- Real-time Memory Report at c_bands before calling an iterative solver
             0 MiB given to the printing process from OS
             0 MiB allocation reported by mallinfo(arena+hblkhd)
         30981 MiB available memory on the node where the printing process lives
------------------
     ethr =  1.26E-05,  avg # of iterations =  6.4

     negative rho (up, down):  8.116E-01 0.000E+00

     total cpu time spent up to now is      411.9 secs

     total energy              =   -4482.97889343 Ry
     estimated scf accuracy    <       0.02592537 Ry

     iteration # 27     ecut=    60.00 Ry     beta= 0.15
     Davidson diagonalization with overlap

---- Real-time Memory Report at c_bands before calling an iterative solver
             0 MiB given to the printing process from OS
             0 MiB allocation reported by mallinfo(arena+hblkhd)
         30956 MiB available memory on the node where the printing process lives
------------------
     ethr =  5.93E-06,  avg # of iterations =  5.5

     negative rho (up, down):  7.959E-01 0.000E+00

     total cpu time spent up to now is      428.1 secs

     total energy              =   -4482.97790211 Ry
     estimated scf accuracy    <       0.02063797 Ry

     iteration # 28     ecut=    60.00 Ry     beta= 0.15
     Davidson diagonalization with overlap

---- Real-time Memory Report at c_bands before calling an iterative solver
             0 MiB given to the printing process from OS
             0 MiB allocation reported by mallinfo(arena+hblkhd)
         30970 MiB available memory on the node where the printing process lives
------------------
     c_bands:  1 eigenvalues not converged
     ethr =  4.72E-06,  avg # of iterations =  9.4

     negative rho (up, down):  7.929E-01 0.000E+00

     total cpu time spent up to now is      445.5 secs

     total energy              =   -4482.97447366 Ry
     estimated scf accuracy    <       0.01403254 Ry

     iteration # 29     ecut=    60.00 Ry     beta= 0.15
     Davidson diagonalization with overlap

---- Real-time Memory Report at c_bands before calling an iterative solver
             0 MiB given to the printing process from OS
             0 MiB allocation reported by mallinfo(arena+hblkhd)
         30949 MiB available memory on the node where the printing process lives
------------------
     ethr =  3.21E-06,  avg # of iterations = 10.7

     negative rho (up, down):  7.948E-01 0.000E+00

     total cpu time spent up to now is      465.7 secs

     total energy              =   -4482.97486738 Ry
     estimated scf accuracy    <       0.00652335 Ry

     iteration # 30     ecut=    60.00 Ry     beta= 0.15
     Davidson diagonalization with overlap

---- Real-time Memory Report at c_bands before calling an iterative solver
             0 MiB given to the printing process from OS
             0 MiB allocation reported by mallinfo(arena+hblkhd)
         30843 MiB available memory on the node where the printing process lives
------------------
     ethr =  1.49E-06,  avg # of iterations =  8.7

     negative rho (up, down):  7.958E-01 0.000E+00

     total cpu time spent up to now is      484.2 secs

     total energy              =   -4482.97524799 Ry
     estimated scf accuracy    <       0.00151291 Ry

     iteration # 31     ecut=    60.00 Ry     beta= 0.15
     Davidson diagonalization with overlap

---- Real-time Memory Report at c_bands before calling an iterative solver
             0 MiB given to the printing process from OS
             0 MiB allocation reported by mallinfo(arena+hblkhd)
         30835 MiB available memory on the node where the printing process lives
------------------
     c_bands:  1 eigenvalues not converged
     ethr =  3.46E-07,  avg # of iterations =  5.8

     negative rho (up, down):  7.939E-01 0.000E+00

     total cpu time spent up to now is      501.0 secs

     total energy              =   -4482.97518013 Ry
     estimated scf accuracy    <       0.00080887 Ry

     iteration # 32     ecut=    60.00 Ry     beta= 0.15
     Davidson diagonalization with overlap

---- Real-time Memory Report at c_bands before calling an iterative solver
             0 MiB given to the printing process from OS
             0 MiB allocation reported by mallinfo(arena+hblkhd)
         30846 MiB available memory on the node where the printing process lives
------------------
     ethr =  1.85E-07,  avg # of iterations =  4.4

     negative rho (up, down):  7.926E-01 0.000E+00

     total cpu time spent up to now is      517.0 secs

     total energy              =   -4482.97514803 Ry
     estimated scf accuracy    <       0.00033859 Ry

     iteration # 33     ecut=    60.00 Ry     beta= 0.15
     Davidson diagonalization with overlap

---- Real-time Memory Report at c_bands before calling an iterative solver
             0 MiB given to the printing process from OS
             0 MiB allocation reported by mallinfo(arena+hblkhd)
         30849 MiB available memory on the node where the printing process lives
------------------
     ethr =  7.75E-08,  avg # of iterations =  4.8

     negative rho (up, down):  7.925E-01 0.000E+00

     total cpu time spent up to now is      533.2 secs

     total energy              =   -4482.97510986 Ry
     estimated scf accuracy    <       0.00019289 Ry

     iteration # 34     ecut=    60.00 Ry     beta= 0.15
     Davidson diagonalization with overlap

---- Real-time Memory Report at c_bands before calling an iterative solver
             0 MiB given to the printing process from OS
             0 MiB allocation reported by mallinfo(arena+hblkhd)
         30862 MiB available memory on the node where the printing process lives
------------------
     ethr =  4.41E-08,  avg # of iterations =  3.5

     negative rho (up, down):  7.926E-01 0.000E+00

     total cpu time spent up to now is      548.6 secs

     total energy              =   -4482.97510408 Ry
     estimated scf accuracy    <       0.00008887 Ry

     iteration # 35     ecut=    60.00 Ry     beta= 0.15
     Davidson diagonalization with overlap

---- Real-time Memory Report at c_bands before calling an iterative solver
             0 MiB given to the printing process from OS
             0 MiB allocation reported by mallinfo(arena+hblkhd)
         30857 MiB available memory on the node where the printing process lives
------------------
     ethr =  2.03E-08,  avg # of iterations =  4.9

     negative rho (up, down):  7.924E-01 0.000E+00

     total cpu time spent up to now is      565.1 secs

     total energy              =   -4482.97511410 Ry
     estimated scf accuracy    <       0.00004436 Ry

     iteration # 36     ecut=    60.00 Ry     beta= 0.15
     Davidson diagonalization with overlap

---- Real-time Memory Report at c_bands before calling an iterative solver
             0 MiB given to the printing process from OS
             0 MiB allocation reported by mallinfo(arena+hblkhd)
         30863 MiB available memory on the node where the printing process lives
------------------
     ethr =  1.01E-08,  avg # of iterations =  2.7

     negative rho (up, down):  7.923E-01 0.000E+00

     total cpu time spent up to now is      579.9 secs

     total energy              =   -4482.97512436 Ry
     estimated scf accuracy    <       0.00002566 Ry

     iteration # 37     ecut=    60.00 Ry     beta= 0.15
     Davidson diagonalization with overlap

---- Real-time Memory Report at c_bands before calling an iterative solver
             0 MiB given to the printing process from OS
             0 MiB allocation reported by mallinfo(arena+hblkhd)
         30890 MiB available memory on the node where the printing process lives
------------------
     ethr =  5.87E-09,  avg # of iterations =  3.7

     negative rho (up, down):  7.922E-01 0.000E+00

     total cpu time spent up to now is      595.2 secs

     total energy              =   -4482.97513558 Ry
     estimated scf accuracy    <       0.00001155 Ry

     iteration # 38     ecut=    60.00 Ry     beta= 0.15
     Davidson diagonalization with overlap

---- Real-time Memory Report at c_bands before calling an iterative solver
             0 MiB given to the printing process from OS
             0 MiB allocation reported by mallinfo(arena+hblkhd)
         30914 MiB available memory on the node where the printing process lives
------------------
     ethr =  2.64E-09,  avg # of iterations =  4.7

     negative rho (up, down):  7.922E-01 0.000E+00

     total cpu time spent up to now is      611.8 secs

     total energy              =   -4482.97513824 Ry
     estimated scf accuracy    <       0.00000318 Ry

     iteration # 39     ecut=    60.00 Ry     beta= 0.15
     Davidson diagonalization with overlap

---- Real-time Memory Report at c_bands before calling an iterative solver
             0 MiB given to the printing process from OS
             0 MiB allocation reported by mallinfo(arena+hblkhd)
         30920 MiB available memory on the node where the printing process lives
------------------
     ethr =  7.27E-10,  avg # of iterations =  5.0

     negative rho (up, down):  7.922E-01 0.000E+00

     total cpu time spent up to now is      628.4 secs

     total energy              =   -4482.97513929 Ry
     estimated scf accuracy    <       0.00000173 Ry

     iteration # 40     ecut=    60.00 Ry     beta= 0.15
     Davidson diagonalization with overlap

---- Real-time Memory Report at c_bands before calling an iterative solver
             0 MiB given to the printing process from OS
             0 MiB allocation reported by mallinfo(arena+hblkhd)
         30909 MiB available memory on the node where the printing process lives
------------------
     ethr =  3.95E-10,  avg # of iterations =  3.1

     negative rho (up, down):  7.923E-01 0.000E+00

     total cpu time spent up to now is      643.3 secs

     total energy              =   -4482.97513983 Ry
     estimated scf accuracy    <       0.00000133 Ry

     iteration # 41     ecut=    60.00 Ry     beta= 0.15
     Davidson diagonalization with overlap

---- Real-time Memory Report at c_bands before calling an iterative solver
             0 MiB given to the printing process from OS
             0 MiB allocation reported by mallinfo(arena+hblkhd)
         30916 MiB available memory on the node where the printing process lives
------------------
     ethr =  3.05E-10,  avg # of iterations =  3.3

     negative rho (up, down):  7.923E-01 0.000E+00

     total cpu time spent up to now is      658.2 secs

     total energy              =   -4482.97514071 Ry
     estimated scf accuracy    <       0.00000107 Ry

     iteration # 42     ecut=    60.00 Ry     beta= 0.15
     Davidson diagonalization with overlap

---- Real-time Memory Report at c_bands before calling an iterative solver
             0 MiB given to the printing process from OS
             0 MiB allocation reported by mallinfo(arena+hblkhd)
         30961 MiB available memory on the node where the printing process lives
------------------
     ethr =  2.45E-10,  avg # of iterations =  5.0

     negative rho (up, down):  7.923E-01 0.000E+00

     total cpu time spent up to now is      674.3 secs

     total energy              =   -4482.97514087 Ry
     estimated scf accuracy    <       0.00000065 Ry

     iteration # 43     ecut=    60.00 Ry     beta= 0.15
     Davidson diagonalization with overlap

---- Real-time Memory Report at c_bands before calling an iterative solver
             0 MiB given to the printing process from OS
             0 MiB allocation reported by mallinfo(arena+hblkhd)
         30908 MiB available memory on the node where the printing process lives
------------------
     ethr =  1.50E-10,  avg # of iterations =  4.8

     negative rho (up, down):  7.923E-01 0.000E+00

     total cpu time spent up to now is      690.1 secs

     total energy              =   -4482.97514084 Ry
     estimated scf accuracy    <       0.00000043 Ry

     iteration # 44     ecut=    60.00 Ry     beta= 0.15
     Davidson diagonalization with overlap

---- Real-time Memory Report at c_bands before calling an iterative solver
             0 MiB given to the printing process from OS
             0 MiB allocation reported by mallinfo(arena+hblkhd)
         30973 MiB available memory on the node where the printing process lives
------------------
     ethr =  9.93E-11,  avg # of iterations =  3.8

     negative rho (up, down):  7.923E-01 0.000E+00

     total cpu time spent up to now is      705.4 secs

     total energy              =   -4482.97514088 Ry
     estimated scf accuracy    <       0.00000028 Ry

     iteration # 45     ecut=    60.00 Ry     beta= 0.15
     Davidson diagonalization with overlap

---- Real-time Memory Report at c_bands before calling an iterative solver
             0 MiB given to the printing process from OS
             0 MiB allocation reported by mallinfo(arena+hblkhd)
         30952 MiB available memory on the node where the printing process lives
------------------
     ethr =  6.39E-11,  avg # of iterations =  2.5

     negative rho (up, down):  7.923E-01 0.000E+00

     total cpu time spent up to now is      720.2 secs

     total energy              =   -4482.97514092 Ry
     estimated scf accuracy    <       0.00000016 Ry

     iteration # 46     ecut=    60.00 Ry     beta= 0.15
     Davidson diagonalization with overlap

---- Real-time Memory Report at c_bands before calling an iterative solver
             0 MiB given to the printing process from OS
             0 MiB allocation reported by mallinfo(arena+hblkhd)
         30956 MiB available memory on the node where the printing process lives
------------------
     ethr =  3.70E-11,  avg # of iterations =  3.2

     negative rho (up, down):  7.923E-01 0.000E+00

     total cpu time spent up to now is      735.2 secs

     total energy              =   -4482.97514095 Ry
     estimated scf accuracy    <       0.00000013 Ry

     iteration # 47     ecut=    60.00 Ry     beta= 0.15
     Davidson diagonalization with overlap

---- Real-time Memory Report at c_bands before calling an iterative solver
             0 MiB given to the printing process from OS
             0 MiB allocation reported by mallinfo(arena+hblkhd)
         30957 MiB available memory on the node where the printing process lives
------------------
     ethr =  2.91E-11,  avg # of iterations =  4.8

     negative rho (up, down):  7.923E-01 0.000E+00

     total cpu time spent up to now is      751.0 secs

     total energy              =   -4482.97514097 Ry
     estimated scf accuracy    <       0.00000006 Ry

     iteration # 48     ecut=    60.00 Ry     beta= 0.15
     Davidson diagonalization with overlap

---- Real-time Memory Report at c_bands before calling an iterative solver
             0 MiB given to the printing process from OS
             0 MiB allocation reported by mallinfo(arena+hblkhd)
         30959 MiB available memory on the node where the printing process lives
------------------
     ethr =  1.26E-11,  avg # of iterations =  3.9

     negative rho (up, down):  7.923E-01 0.000E+00

     total cpu time spent up to now is      766.5 secs

     total energy              =   -4482.97514097 Ry
     estimated scf accuracy    <       0.00000004 Ry

     iteration # 49     ecut=    60.00 Ry     beta= 0.15
     Davidson diagonalization with overlap

---- Real-time Memory Report at c_bands before calling an iterative solver
             0 MiB given to the printing process from OS
             0 MiB allocation reported by mallinfo(arena+hblkhd)
         30960 MiB available memory on the node where the printing process lives
------------------
     ethr =  8.20E-12,  avg # of iterations =  3.4

     negative rho (up, down):  7.923E-01 0.000E+00

     total cpu time spent up to now is      781.7 secs

     total energy              =   -4482.97514097 Ry
     estimated scf accuracy    <       0.00000003 Ry

     iteration # 50     ecut=    60.00 Ry     beta= 0.15
     Davidson diagonalization with overlap

---- Real-time Memory Report at c_bands before calling an iterative solver
             0 MiB given to the printing process from OS
             0 MiB allocation reported by mallinfo(arena+hblkhd)
         30951 MiB available memory on the node where the printing process lives
------------------
     ethr =  7.34E-12,  avg # of iterations =  2.8

     negative rho (up, down):  7.923E-01 0.000E+00

     total cpu time spent up to now is      796.6 secs

     total energy              =   -4482.97514098 Ry
     estimated scf accuracy    <       0.00000003 Ry

     iteration # 51     ecut=    60.00 Ry     beta= 0.15
     Davidson diagonalization with overlap

---- Real-time Memory Report at c_bands before calling an iterative solver
             0 MiB given to the printing process from OS
             0 MiB allocation reported by mallinfo(arena+hblkhd)
         30964 MiB available memory on the node where the printing process lives
------------------
     ethr =  5.88E-12,  avg # of iterations =  4.2

     negative rho (up, down):  7.923E-01 0.000E+00

     total cpu time spent up to now is      812.2 secs

     total energy              =   -4482.97514098 Ry
     estimated scf accuracy    <       0.00000001 Ry

     iteration # 52     ecut=    60.00 Ry     beta= 0.15
     Davidson diagonalization with overlap

---- Real-time Memory Report at c_bands before calling an iterative solver
             0 MiB given to the printing process from OS
             0 MiB allocation reported by mallinfo(arena+hblkhd)
         30963 MiB available memory on the node where the printing process lives
------------------
     ethr =  3.06E-12,  avg # of iterations =  4.9

     negative rho (up, down):  7.923E-01 0.000E+00

     total cpu time spent up to now is      827.9 secs

     End of self-consistent calculation

          k = 0.0000 0.0000 0.0000 ( 65197 PWs)   bands (ev):

   -92.3439 -92.2923 -92.1983 -92.1479 -92.0909 -92.0503 -92.0329 -91.9093
   -55.6970 -55.6788 -55.5560 -55.5451 -55.5370 -55.5318 -55.4962 -55.4677
   -55.4510 -55.4492 -55.4431 -55.3992 -55.3790 -55.3427 -55.3244 -55.2907
   -55.2830 -55.2392 -55.2370 -55.2360 -55.2276 -55.1837 -55.1637 -55.0757
   -30.9314 -30.9124 -30.7714 -30.7466 -30.7100 -30.6849 -30.5602 -30.4898
   -29.4951 -29.4517 -29.4261 -29.3177 -22.2575 -14.7291 -14.6913 -14.6066
   -14.4769 -14.2900 -14.1705 -13.8690 -13.8516 -13.8199 -13.7779 -13.7742
   -13.7378 -13.7251 -13.7112 -13.6952 -13.6742 -13.6405 -13.5786 -13.4301
   -13.2529 -13.2197 -13.1869 -13.1543 -13.1394 -13.0967 -13.0569 -12.9784
   -12.9055 -12.8126 -12.7784 -12.7643 -12.7520 -12.7290 -12.7117 -12.6912
   -12.6603 -12.6485 -12.6176 -12.5821 -12.5798 -12.5665 -12.5594 -12.5491
   -12.4978 -12.4860 -12.4627 -12.4168 -12.3741 -12.3629 -11.9964 -11.8520
   -11.7335 -11.6610 -11.5091 -11.4344 -11.4233 -11.4012 -11.3835 -11.3195
   -11.3023 -11.2675 -11.2387 -11.1277 -11.0468 -11.0433  -5.8518  -3.1642
    -3.1609  -2.5891  -2.3561  -2.1268  -1.9791  -1.9165  -1.7735  -1.4662
    -1.4518  -1.4315  -1.3465  -1.3306  -1.2627  -1.2468  -1.2049  -1.1599
    -0.9801  -0.7551  -0.7254  -0.5772  -0.5634  -0.5191  -0.5007  -0.4567
    -0.4414  -0.3809  -0.3542  -0.2862  -0.2749  -0.1935  -0.0678  -0.0529
    -0.0228   0.0589   0.0716   0.1019   0.1448   0.2233   0.2457   0.3175
     0.3359   0.3881   0.4717   0.5309   0.5503   0.5590   0.8155   0.8313
     1.0031   1.0711   1.1311   1.1698   1.2686   1.2820   1.2973   1.3700
     1.3987   1.4327   1.4914   1.6268   1.6776   1.7007   1.7201   1.7301
     1.7975   1.8762   1.9715   1.9878   2.0361   2.0610   2.0988   2.1221
     2.1308   2.1825   2.2387   2.2436   2.2754   2.2979   2.3737   2.5029
     2.5831   2.6325   2.6430   2.7917   2.8052   2.8576   2.8682   2.9664
     3.0075   3.0222   3.0396   3.0527   3.0659   3.0813   3.1525   3.2584
     3.2955   3.3054   3.3124   3.3791   3.3832   3.4071   3.4158   3.4234
     3.4323   3.4424   3.4554   3.4614   3.4731   3.4825   3.4898   3.5110
     3.5322   3.5373   3.5492   3.5646   3.6899   3.7432   4.4167   4.7489
     4.7967   5.1399   5.3806   5.4760   5.7422   6.2865   6.3275   6.3475
     6.6133   6.6194   6.6688   6.7172   7.0216   7.1481   7.2975   7.4454
     7.4619   7.6465   7.8421   7.9000   7.9198   7.9479   8.0394   8.1123
     8.3200   8.3699   8.3946   8.4066   8.4930   8.5464   8.6095

     occupation numbers 
     1.0000   1.0000   1.0000   1.0000   1.0000   1.0000   1.0000   1.0000
     1.0000   1.0000   1.0000   1.0000   1.0000   1.0000   1.0000   1.0000
     1.0000   1.0000   1.0000   1.0000   1.0000   1.0000   1.0000   1.0000
     1.0000   1.0000   1.0000   1.0000   1.0000   1.0000   1.0000   1.0000
     1.0000   1.0000   1.0000   1.0000   1.0000   1.0000   1.0000   1.0000
     1.0000   1.0000   1.0000   1.0000   1.0000   1.0000   1.0000   1.0000
     1.0000   1.0000   1.0000   1.0000   1.0000   1.0000   1.0000   1.0000
     1.0000   1.0000   1.0000   1.0000   1.0000   1.0000   1.0000   1.0000
     1.0000   1.0000   1.0000   1.0000   1.0000   1.0000   1.0000   1.0000
     1.0000   1.0000   1.0000   1.0000   1.0000   1.0000   1.0000   1.0000
     1.0000   1.0000   1.0000   1.0000   1.0000   1.0000   1.0000   1.0000
     1.0000   1.0000   1.0000   1.0000   1.0000   1.0000   1.0000   1.0000
     1.0000   1.0000   1.0000   1.0000   1.0000   1.0000   1.0000   1.0000
     1.0000   1.0000   1.0000   1.0000   1.0000   1.0000   1.0000   1.0000
     1.0000   1.0000   1.0000   1.0000   1.0000   1.0000   1.0000   1.0000
     1.0000   1.0000   1.0000   1.0000   1.0000   1.0000   1.0000   1.0000
     1.0000   1.0000   1.0000   1.0000   1.0000   1.0000   1.0000   1.0000
     1.0000   1.0000   1.0000   1.0000   1.0000   1.0000   1.0000   1.0000
     1.0000   1.0000   1.0000   1.0000   1.0000   1.0000   1.0000   1.0000
     1.0000   1.0000   1.0000   1.0000   1.0000   1.0000   1.0000   1.0000
     1.0000   0.9999   0.9999   0.9999   0.9998   0.9998   0.9998   0.9997
     0.9997   0.9996   0.9994   0.9989   0.9985   0.9984   0.9982   0.9981
     0.9974   0.9963   0.9945   0.9941   0.9927   0.9920   0.9906   0.9897
     0.9894   0.9870   0.9840   0.9837   0.9817   0.9801   0.9740   0.9601
     0.9487   0.9405   0.9386   0.9070   0.9036   0.8896   0.8867   0.8561
     0.8419   0.8365   0.8301   0.8251   0.8200   0.8139   0.7843   0.7355
     0.7172   0.7122   0.7086   0.6737   0.6715   0.6586   0.6539   0.6497
     0.6448   0.6392   0.6319   0.6286   0.6220   0.6167   0.6125   0.6004
     0.5882   0.5853   0.5783   0.5694   0.4955   0.4640   0.1377   0.0566
     0.0490   0.0152   0.0058   0.0039   0.0011   0.0001   0.0000   0.0000
     0.0000   0.0000   0.0000   0.0000   0.0000   0.0000   0.0000   0.0000
     0.0000   0.0000   0.0000   0.0000   0.0000   0.0000   0.0000   0.0000
     0.0000   0.0000   0.0000   0.0000   0.0000   0.0000   0.0000

          k = 0.0000 0.2500 0.0000 ( 65257 PWs)   bands (ev):

   -92.3439 -92.2923 -92.1983 -92.1479 -92.0909 -92.0503 -92.0329 -91.9093
   -55.6970 -55.6788 -55.5560 -55.5451 -55.5370 -55.5318 -55.4962 -55.4677
   -55.4510 -55.4492 -55.4431 -55.3992 -55.3790 -55.3427 -55.3244 -55.2907
   -55.2830 -55.2392 -55.2370 -55.2360 -55.2276 -55.1837 -55.1637 -55.0757
   -30.9312 -30.9123 -30.7716 -30.7457 -30.7109 -30.6850 -30.5598 -30.4903
   -29.4945 -29.4514 -29.4268 -29.3180 -22.2575 -14.6921 -14.6651 -14.5820
   -14.4473 -14.3300 -14.1589 -14.0150 -13.8351 -13.8043 -13.7827 -13.7738
   -13.7539 -13.6963 -13.6913 -13.6752 -13.6579 -13.6216 -13.4987 -13.4606
   -13.2990 -13.2791 -13.2290 -13.1931 -13.1441 -13.1113 -13.0746 -12.9971
   -12.9646 -12.9320 -12.8656 -12.8022 -12.7638 -12.7567 -12.7417 -12.6557
   -12.6318 -12.6079 -12.5880 -12.5584 -12.5314 -12.5214 -12.5109 -12.4864
   -12.4664 -12.4523 -12.4468 -12.4070 -12.2732 -12.2007 -12.0578 -11.9033
   -11.7916 -11.7289 -11.4746 -11.4312 -11.4039 -11.3754 -11.3587 -11.3115
   -11.3001 -11.2777 -11.2434 -11.1419 -11.0886 -11.0779  -5.8518  -3.1642
    -3.1610  -2.4538  -2.2317  -2.0945  -1.9116  -1.8684  -1.7044  -1.4846
    -1.3998  -1.3867  -1.3265  -1.2275  -1.2129  -1.1783  -1.1527  -1.1090
    -0.9113  -0.7817  -0.7703  -0.6933  -0.6832  -0.5788  -0.5483  -0.4933
    -0.4674  -0.4248  -0.3617  -0.3372  -0.3028  -0.2759  -0.2585  -0.2238
    -0.1524  -0.0983  -0.0286   0.0736   0.1037   0.1406   0.2515   0.2878
     0.3478   0.4004   0.4500   0.4741   0.5079   0.5633   0.8627   0.9523
     0.9848   1.0651   1.1084   1.1275   1.2569   1.2759   1.3692   1.3953
     1.4272   1.5418   1.6295   1.6544   1.6795   1.6967   1.7243   1.7861
     1.8121   1.8388   1.8875   1.9168   1.9488   2.0285   2.0613   2.0884
     2.1509   2.1984   2.2247   2.2555   2.2943   2.3150   2.4092   2.5419
     2.6103   2.6275   2.7110   2.7521   2.7897   2.7940   2.8642   2.9080
     2.9850   3.0133   3.0297   3.0626   3.0699   3.2204   3.2402   3.2728
     3.2960   3.3122   3.3215   3.3281   3.3359   3.3665   3.3686   3.3861
     3.3912   3.4015   3.4196   3.4290   3.4397   3.4618   3.4723   3.4777
     3.5131   3.5298   3.5889   3.9372   3.9722   4.2308   4.6023   4.7406
     4.9132   5.0896   5.4033   5.5089   5.8702   5.9362   6.1705   6.2949
     6.3387   6.4514   6.5226   6.7342   6.9199   7.1002   7.2735   7.5268
     7.5569   7.7147   7.7918   7.8826   7.9515   8.0289   8.1005   8.2103
     8.2668   8.4162   8.4796   8.5334   8.5935   8.6716   8.9435

     occupation numbers 
     1.0000   1.0000   1.0000   1.0000   1.0000   1.0000   1.0000   1.0000
     1.0000   1.0000   1.0000   1.0000   1.0000   1.0000   1.0000   1.0000
     1.0000   1.0000   1.0000   1.0000   1.0000   1.0000   1.0000   1.0000
     1.0000   1.0000   1.0000   1.0000   1.0000   1.0000   1.0000   1.0000
     1.0000   1.0000   1.0000   1.0000   1.0000   1.0000   1.0000   1.0000
     1.0000   1.0000   1.0000   1.0000   1.0000   1.0000   1.0000   1.0000
     1.0000   1.0000   1.0000   1.0000   1.0000   1.0000   1.0000   1.0000
     1.0000   1.0000   1.0000   1.0000   1.0000   1.0000   1.0000   1.0000
     1.0000   1.0000   1.0000   1.0000   1.0000   1.0000   1.0000   1.0000
     1.0000   1.0000   1.0000   1.0000   1.0000   1.0000   1.0000   1.0000
     1.0000   1.0000   1.0000   1.0000   1.0000   1.0000   1.0000   1.0000
     1.0000   1.0000   1.0000   1.0000   1.0000   1.0000   1.0000   1.0000
     1.0000   1.0000   1.0000   1.0000   1.0000   1.0000   1.0000   1.0000
     1.0000   1.0000   1.0000   1.0000   1.0000   1.0000   1.0000   1.0000
     1.0000   1.0000   1.0000   1.0000   1.0000   1.0000   1.0000   1.0000
     1.0000   1.0000   1.0000   1.0000   1.0000   1.0000   1.0000   1.0000
     1.0000   1.0000   1.0000   1.0000   1.0000   1.0000   1.0000   1.0000
     1.0000   1.0000   1.0000   1.0000   1.0000   1.0000   1.0000   1.0000
     1.0000   1.0000   1.0000   1.0000   1.0000   1.0000   1.0000   1.0000
     1.0000   1.0000   1.0000   1.0000   1.0000   1.0000   1.0000   1.0000
     1.0000   0.9999   0.9999   0.9999   0.9998   0.9998   0.9997   0.9997
     0.9996   0.9993   0.9988   0.9987   0.9985   0.9984   0.9982   0.9976
     0.9973   0.9969   0.9962   0.9956   0.9950   0.9930   0.9920   0.9910
     0.9885   0.9862   0.9848   0.9829   0.9804   0.9788   0.9707   0.9548
     0.9443   0.9414   0.9254   0.9164   0.9075   0.9064   0.8878   0.8749
     0.8498   0.8398   0.8338   0.8213   0.8184   0.7536   0.7442   0.7284
     0.7169   0.7087   0.7040   0.7005   0.6965   0.6805   0.6793   0.6700
     0.6672   0.6617   0.6518   0.6466   0.6407   0.6283   0.6225   0.6194
     0.5992   0.5896   0.5552   0.3525   0.3335   0.2077   0.0860   0.0580
     0.0338   0.0183   0.0053   0.0033   0.0006   0.0004   0.0001   0.0001
     0.0000   0.0000   0.0000   0.0000   0.0000   0.0000   0.0000   0.0000
     0.0000   0.0000   0.0000   0.0000   0.0000   0.0000   0.0000   0.0000
     0.0000   0.0000   0.0000   0.0000   0.0000   0.0000   0.0000

          k = 0.0000-0.5000 0.0000 ( 65180 PWs)   bands (ev):

   -92.3439 -92.2923 -92.1983 -92.1479 -92.0909 -92.0503 -92.0329 -91.9093
   -55.6970 -55.6788 -55.5560 -55.5451 -55.5370 -55.5318 -55.4962 -55.4677
   -55.4510 -55.4492 -55.4431 -55.3992 -55.3790 -55.3427 -55.3244 -55.2907
   -55.2830 -55.2392 -55.2370 -55.2360 -55.2276 -55.1837 -55.1637 -55.0757
   -30.9310 -30.9122 -30.7718 -30.7449 -30.7117 -30.6851 -30.5593 -30.4908
   -29.4939 -29.4510 -29.4274 -29.3183 -22.2575 -14.6592 -14.6106 -14.5595
   -14.4335 -14.3457 -14.2079 -14.0621 -13.9379 -13.8055 -13.7740 -13.7442
   -13.6972 -13.6863 -13.6396 -13.6214 -13.5761 -13.5514 -13.5314 -13.4942
   -13.4645 -13.4339 -13.2323 -13.1738 -13.1506 -13.1062 -13.0846 -13.0106
   -13.0013 -12.9475 -12.9383 -12.8731 -12.7642 -12.7522 -12.7128 -12.7063
   -12.6252 -12.6108 -12.5835 -12.5359 -12.5296 -12.5068 -12.4845 -12.4575
   -12.4282 -12.4132 -12.3588 -12.3055 -12.1689 -12.1222 -11.9790 -11.9772
   -11.9035 -11.8643 -11.4281 -11.4262 -11.3991 -11.3610 -11.3269 -11.3159
   -11.2731 -11.2693 -11.2250 -11.1634 -11.1494 -11.1350  -5.8518  -3.1641
    -3.1612  -2.2385  -2.1805  -2.0285  -1.9560  -1.6735  -1.5928  -1.4637
    -1.3262  -1.2851  -1.2698  -1.1914  -1.1601  -1.0790  -1.0436  -0.9661
    -0.9260  -0.8865  -0.8598  -0.8032  -0.7664  -0.7192  -0.6827  -0.6501
    -0.6164  -0.5054  -0.4605  -0.4276  -0.4245  -0.3392  -0.3073  -0.2857
    -0.2407  -0.1490  -0.0858   0.0026   0.0420   0.1294   0.1657   0.3225
     0.3650   0.3848   0.4234   0.5339   0.6025   0.7448   0.8110   0.8190
     0.9473   0.9935   1.0680   1.2245   1.3277   1.3612   1.3985   1.4063
     1.4379   1.4612   1.4970   1.5126   1.5258   1.6332   1.6917   1.7251
     1.7510   2.0153   2.0379   2.0550   2.1357   2.1708   2.2082   2.2205
     2.2583   2.2660   2.2717   2.3015   2.3542   2.3739   2.4017   2.4180
     2.4459   2.5003   2.5836   2.6107   2.7802   2.9558   2.9668   2.9776
     3.0072   3.0160   3.0349   3.0545   3.0627   3.0851   3.0983   3.1529
     3.1724   3.2508   3.2665   3.3350   3.3359   3.3655   3.3677   3.3834
     3.3867   3.3903   3.3974   3.3995   3.4115   3.4322   3.4329   3.4984
     3.5036   3.5193   3.5737   4.4633   4.4678   4.5188   4.5900   5.0281
     5.0821   5.2415   5.2929   5.5567   5.7198   5.8144   5.8670   6.0627
     6.2531   6.3903   6.3922   6.4039   7.0169   7.1055   7.1241   7.4239
     7.5956   7.7230   7.7773   7.8838   8.0667   8.1480   8.2074   8.3300
     8.4655   8.5434   8.6897   8.7369   8.7629   8.8501   8.9735

     occupation numbers 
     1.0000   1.0000   1.0000   1.0000   1.0000   1.0000   1.0000   1.0000
     1.0000   1.0000   1.0000   1.0000   1.0000   1.0000   1.0000   1.0000
     1.0000   1.0000   1.0000   1.0000   1.0000   1.0000   1.0000   1.0000
     1.0000   1.0000   1.0000   1.0000   1.0000   1.0000   1.0000   1.0000
     1.0000   1.0000   1.0000   1.0000   1.0000   1.0000   1.0000   1.0000
     1.0000   1.0000   1.0000   1.0000   1.0000   1.0000   1.0000   1.0000
     1.0000   1.0000   1.0000   1.0000   1.0000   1.0000   1.0000   1.0000
     1.0000   1.0000   1.0000   1.0000   1.0000   1.0000   1.0000   1.0000
     1.0000   1.0000   1.0000   1.0000   1.0000   1.0000   1.0000   1.0000
     1.0000   1.0000   1.0000   1.0000   1.0000   1.0000   1.0000   1.0000
     1.0000   1.0000   1.0000   1.0000   1.0000   1.0000   1.0000   1.0000
     1.0000   1.0000   1.0000   1.0000   1.0000   1.0000   1.0000   1.0000
     1.0000   1.0000   1.0000   1.0000   1.0000   1.0000   1.0000   1.0000
     1.0000   1.0000   1.0000   1.0000   1.0000   1.0000   1.0000   1.0000
     1.0000   1.0000   1.0000   1.0000   1.0000   1.0000   1.0000   1.0000
     1.0000   1.0000   1.0000   1.0000   1.0000   1.0000   1.0000   1.0000
     1.0000   1.0000   1.0000   1.0000   1.0000   1.0000   1.0000   1.0000
     1.0000   1.0000   1.0000   1.0000   1.0000   1.0000   1.0000   1.0000
     1.0000   1.0000   1.0000   1.0000   1.0000   1.0000   1.0000   1.0000
     1.0000   1.0000   1.0000   1.0000   1.0000   1.0000   1.0000   1.0000
     1.0000   1.0000   0.9999   0.9999   0.9998   0.9997   0.9997   0.9996
     0.9996   0.9995   0.9994   0.9994   0.9993   0.9988   0.9984   0.9982
     0.9979   0.9933   0.9927   0.9922   0.9892   0.9876   0.9857   0.9850
     0.9828   0.9823   0.9819   0.9798   0.9757   0.9740   0.9714   0.9698
     0.9668   0.9604   0.9486   0.9442   0.9098   0.8597   0.8560   0.8523
     0.8420   0.8388   0.8318   0.8244   0.8212   0.8124   0.8071   0.7841
     0.7755   0.7392   0.7316   0.6970   0.6965   0.6810   0.6798   0.6715
     0.6697   0.6677   0.6639   0.6627   0.6562   0.6449   0.6445   0.6076
     0.6047   0.5956   0.5641   0.1231   0.1217   0.1071   0.0889   0.0228
     0.0188   0.0103   0.0084   0.0027   0.0012   0.0008   0.0006   0.0002
     0.0001   0.0000   0.0000   0.0000   0.0000   0.0000   0.0000   0.0000
     0.0000   0.0000   0.0000   0.0000   0.0000   0.0000   0.0000   0.0000
     0.0000   0.0000   0.0000   0.0000   0.0000   0.0000   0.0000

          k = 0.2500 0.2500 0.0000 ( 65198 PWs)   bands (ev):

   -92.3439 -92.2923 -92.1983 -92.1479 -92.0909 -92.0503 -92.0329 -91.9093
   -55.6970 -55.6788 -55.5560 -55.5451 -55.5370 -55.5318 -55.4962 -55.4677
   -55.4510 -55.4492 -55.4431 -55.3992 -55.3790 -55.3427 -55.3244 -55.2907
   -55.2830 -55.2392 -55.2370 -55.2360 -55.2276 -55.1837 -55.1637 -55.0757
   -30.9295 -30.9140 -30.7713 -30.7456 -30.7107 -30.6854 -30.5599 -30.4905
   -29.4935 -29.4523 -29.4264 -29.3184 -22.2575 -14.6640 -14.6294 -14.5542
   -14.4370 -14.3213 -14.1990 -14.1200 -13.9186 -13.7746 -13.7578 -13.7473
   -13.7127 -13.6818 -13.6610 -13.6353 -13.6046 -13.5815 -13.4909 -13.4749
   -13.3154 -13.3015 -13.2699 -13.2513 -13.1961 -13.1628 -13.1200 -13.0794
   -12.9942 -12.9561 -12.8849 -12.7968 -12.7566 -12.7122 -12.7017 -12.6738
   -12.6500 -12.6115 -12.6017 -12.5802 -12.5535 -12.5191 -12.4923 -12.4578
   -12.4159 -12.4016 -12.3954 -12.3677 -12.2119 -12.1064 -12.1019 -11.9325
   -11.8235 -11.7776 -11.4468 -11.4148 -11.4043 -11.3969 -11.3345 -11.2996
   -11.2930 -11.2577 -11.2499 -11.1584 -11.1168 -11.0993  -5.8518  -3.1643
    -3.1610  -2.3156  -2.1060  -1.9889  -1.8936  -1.7730  -1.7077  -1.5096
    -1.3650  -1.3448  -1.3139  -1.2217  -1.1883  -1.0954  -1.0684  -1.0182
    -0.8863  -0.8390  -0.7652  -0.7207  -0.6756  -0.6518  -0.6271  -0.5860
    -0.5696  -0.4797  -0.4305  -0.3647  -0.3172  -0.2892  -0.2366  -0.2265
    -0.1621  -0.1097  -0.0495  -0.0205   0.0684   0.1159   0.1474   0.1861
     0.2402   0.3011   0.3500   0.3746   0.4360   0.4758   0.7578   0.9060
     0.9423   0.9942   1.0339   1.0789   1.1356   1.2037   1.2447   1.5189
     1.5894   1.6637   1.6891   1.7360   1.7685   1.8049   1.8414   1.8588
     1.8877   1.9250   1.9376   1.9549   1.9977   2.0333   2.0752   2.1184
     2.1520   2.1739   2.1941   2.2372   2.2864   2.3143   2.4489   2.5187
     2.5601   2.5881   2.6442   2.7102   2.7443   2.7828   2.8035   2.8158
     2.9289   2.9654   3.0376   3.0468   3.0754   3.2303   3.2489   3.2539
     3.2696   3.2841   3.2976   3.3098   3.3165   3.3275   3.3415   3.3543
     3.3717   3.3776   3.3892   3.4108   3.4236   3.4333   3.4638   3.7658
     3.8551   3.8975   3.9570   3.9657   4.2048   4.3073   4.6362   4.7957
     4.9855   5.1407   5.3215   5.5460   5.9082   6.0178   6.0321   6.1360
     6.1947   6.2377   6.3542   6.3996   6.9840   7.0397   7.0639   7.2035
     7.7355   7.8212   7.8412   7.8696   8.0169   8.1378   8.2519   8.2888
     8.3995   8.4732   8.5716   8.6743   8.6945   8.7404   8.8403

     occupation numbers 
     1.0000   1.0000   1.0000   1.0000   1.0000   1.0000   1.0000   1.0000
     1.0000   1.0000   1.0000   1.0000   1.0000   1.0000   1.0000   1.0000
     1.0000   1.0000   1.0000   1.0000   1.0000   1.0000   1.0000   1.0000
     1.0000   1.0000   1.0000   1.0000   1.0000   1.0000   1.0000   1.0000
     1.0000   1.0000   1.0000   1.0000   1.0000   1.0000   1.0000   1.0000
     1.0000   1.0000   1.0000   1.0000   1.0000   1.0000   1.0000   1.0000
     1.0000   1.0000   1.0000   1.0000   1.0000   1.0000   1.0000   1.0000
     1.0000   1.0000   1.0000   1.0000   1.0000   1.0000   1.0000   1.0000
     1.0000   1.0000   1.0000   1.0000   1.0000   1.0000   1.0000   1.0000
     1.0000   1.0000   1.0000   1.0000   1.0000   1.0000   1.0000   1.0000
     1.0000   1.0000   1.0000   1.0000   1.0000   1.0000   1.0000   1.0000
     1.0000   1.0000   1.0000   1.0000   1.0000   1.0000   1.0000   1.0000
     1.0000   1.0000   1.0000   1.0000   1.0000   1.0000   1.0000   1.0000
     1.0000   1.0000   1.0000   1.0000   1.0000   1.0000   1.0000   1.0000
     1.0000   1.0000   1.0000   1.0000   1.0000   1.0000   1.0000   1.0000
     1.0000   1.0000   1.0000   1.0000   1.0000   1.0000   1.0000   1.0000
     1.0000   1.0000   1.0000   1.0000   1.0000   1.0000   1.0000   1.0000
     1.0000   1.0000   1.0000   1.0000   1.0000   1.0000   1.0000   1.0000
     1.0000   1.0000   1.0000   1.0000   1.0000   1.0000   1.0000   1.0000
     1.0000   1.0000   1.0000   1.0000   1.0000   1.0000   1.0000   1.0000
     1.0000   1.0000   1.0000   0.9999   0.9999   0.9999   0.9999   0.9993
     0.9991   0.9986   0.9985   0.9981   0.9978   0.9973   0.9969   0.9966
     0.9961   0.9955   0.9952   0.9948   0.9938   0.9928   0.9915   0.9899
     0.9885   0.9875   0.9864   0.9841   0.9809   0.9789   0.9665   0.9580
     0.9522   0.9479   0.9384   0.9256   0.9182   0.9092   0.9041   0.9009
     0.8684   0.8565   0.8308   0.8274   0.8163   0.7490   0.7401   0.7377
     0.7300   0.7228   0.7161   0.7100   0.7065   0.7009   0.6936   0.6869
     0.6777   0.6746   0.6683   0.6566   0.6496   0.6442   0.6272   0.4507
     0.3988   0.3747   0.3417   0.3370   0.2190   0.1767   0.0783   0.0491
     0.0265   0.0152   0.0075   0.0028   0.0005   0.0003   0.0002   0.0001
     0.0001   0.0001   0.0000   0.0000   0.0000   0.0000   0.0000   0.0000
     0.0000   0.0000   0.0000   0.0000   0.0000   0.0000   0.0000   0.0000
     0.0000   0.0000   0.0000   0.0000   0.0000   0.0000   0.0000

          k = 0.2500-0.5000 0.0000 ( 65138 PWs)   bands (ev):

   -92.3439 -92.2923 -92.1983 -92.1479 -92.0909 -92.0503 -92.0329 -91.9093
   -55.6970 -55.6788 -55.5560 -55.5451 -55.5370 -55.5318 -55.4962 -55.4677
   -55.4510 -55.4492 -55.4431 -55.3992 -55.3790 -55.3427 -55.3244 -55.2907
   -55.2830 -55.2392 -55.2370 -55.2360 -55.2276 -55.1837 -55.1637 -55.0757
   -30.9293 -30.9139 -30.7715 -30.7447 -30.7116 -30.6855 -30.5595 -30.4909
   -29.4929 -29.4520 -29.4270 -29.3188 -22.2575 -14.6288 -14.5836 -14.5164
   -14.4023 -14.3698 -14.2485 -14.1637 -14.0344 -13.7742 -13.7224 -13.6747
   -13.6442 -13.6251 -13.6077 -13.5932 -13.5604 -13.5394 -13.5099 -13.4707
   -13.4497 -13.4225 -13.3158 -13.2678 -13.2145 -13.1888 -13.1405 -13.1194
   -13.0489 -13.0143 -12.8607 -12.7966 -12.7755 -12.6914 -12.6785 -12.6672
   -12.6425 -12.6235 -12.5976 -12.5663 -12.5354 -12.5101 -12.4862 -12.4671
   -12.4337 -12.4225 -12.3093 -12.2780 -12.1756 -12.1030 -11.9762 -11.9548
   -11.8935 -11.8661 -11.4221 -11.4103 -11.3994 -11.3722 -11.3406 -11.3124
   -11.2710 -11.2435 -11.2212 -11.1765 -11.1504 -11.1391  -5.8518  -3.1643
    -3.1612  -2.0966  -2.0329  -1.9025  -1.8250  -1.6943  -1.6129  -1.4883
    -1.3372  -1.2817  -1.2608  -1.1994  -1.1860  -1.0897  -1.0224  -0.9368
    -0.8882  -0.8789  -0.8146  -0.7734  -0.7385  -0.6907  -0.6535  -0.6192
    -0.5791  -0.5681  -0.5228  -0.4946  -0.4511  -0.4223  -0.3538  -0.2507
    -0.2180  -0.1361  -0.0712  -0.0212   0.0199   0.0388   0.0945   0.2498
     0.2567   0.3762   0.3970   0.4094   0.4545   0.4842   0.5181   0.5537
     0.6277   0.8958   0.9853   1.0331   1.0976   1.3800   1.3963   1.4916
     1.5161   1.6868   1.7216   1.7603   1.7860   1.8016   1.8230   1.8843
     1.9331   1.9672   2.0357   2.1248   2.1579   2.1804   2.1992   2.2279
     2.2473   2.2537   2.2928   2.3093   2.3295   2.3586   2.3771   2.4094
     2.4375   2.4982   2.5395   2.6147   2.7518   2.9086   2.9236   2.9423
     2.9672   2.9947   3.0166   3.0409   3.0489   3.0527   3.0605   3.0806
     3.1788   3.2298   3.2490   3.2552   3.2671   3.2872   3.3011   3.3196
     3.3278   3.3637   3.3724   3.3860   3.3934   3.4021   3.4135   3.9187
     3.9426   4.0971   4.1467   4.4656   4.5229   4.5299   4.6548   5.0840
     5.1191   5.2770   5.3345   5.5115   5.6436   5.7853   5.8147   5.9444
     6.0647   6.1531   6.3699   6.4915   6.5681   6.6327   7.2155   7.3156
     7.4500   7.6340   7.9542   8.0683   8.1785   8.2106   8.3484   8.4831
     8.5726   8.6266   8.6944   8.7359   8.8088   8.8796   8.9321

     occupation numbers 
     1.0000   1.0000   1.0000   1.0000   1.0000   1.0000   1.0000   1.0000
     1.0000   1.0000   1.0000   1.0000   1.0000   1.0000   1.0000   1.0000
     1.0000   1.0000   1.0000   1.0000   1.0000   1.0000   1.0000   1.0000
     1.0000   1.0000   1.0000   1.0000   1.0000   1.0000   1.0000   1.0000
     1.0000   1.0000   1.0000   1.0000   1.0000   1.0000   1.0000   1.0000
     1.0000   1.0000   1.0000   1.0000   1.0000   1.0000   1.0000   1.0000
     1.0000   1.0000   1.0000   1.0000   1.0000   1.0000   1.0000   1.0000
     1.0000   1.0000   1.0000   1.0000   1.0000   1.0000   1.0000   1.0000
     1.0000   1.0000   1.0000   1.0000   1.0000   1.0000   1.0000   1.0000
     1.0000   1.0000   1.0000   1.0000   1.0000   1.0000   1.0000   1.0000
     1.0000   1.0000   1.0000   1.0000   1.0000   1.0000   1.0000   1.0000
     1.0000   1.0000   1.0000   1.0000   1.0000   1.0000   1.0000   1.0000
     1.0000   1.0000   1.0000   1.0000   1.0000   1.0000   1.0000   1.0000
     1.0000   1.0000   1.0000   1.0000   1.0000   1.0000   1.0000   1.0000
     1.0000   1.0000   1.0000   1.0000   1.0000   1.0000   1.0000   1.0000
     1.0000   1.0000   1.0000   1.0000   1.0000   1.0000   1.0000   1.0000
     1.0000   1.0000   1.0000   1.0000   1.0000   1.0000   1.0000   1.0000
     1.0000   1.0000   1.0000   1.0000   1.0000   1.0000   1.0000   1.0000
     1.0000   1.0000   1.0000   1.0000   1.0000   1.0000   1.0000   1.0000
     1.0000   1.0000   1.0000   1.0000   1.0000   1.0000   1.0000   1.0000
     1.0000   1.0000   1.0000   1.0000   0.9999   0.9997   0.9997   0.9994
     0.9994   0.9985   0.9982   0.9978   0.9976   0.9974   0.9971   0.9962
     0.9953   0.9946   0.9928   0.9896   0.9882   0.9871   0.9862   0.9846
     0.9834   0.9831   0.9805   0.9793   0.9777   0.9753   0.9737   0.9706
     0.9677   0.9607   0.9551   0.9436   0.9165   0.8747   0.8700   0.8641
     0.8559   0.8464   0.8386   0.8296   0.8266   0.8251   0.8221   0.8142
     0.7727   0.7492   0.7400   0.7371   0.7312   0.7213   0.7143   0.7049
     0.7007   0.6819   0.6773   0.6701   0.6661   0.6613   0.6551   0.3628
     0.3496   0.2690   0.2452   0.1224   0.1060   0.1041   0.0744   0.0187
     0.0164   0.0089   0.0071   0.0033   0.0018   0.0009   0.0008   0.0004
     0.0002   0.0001   0.0000   0.0000   0.0000   0.0000   0.0000   0.0000
     0.0000   0.0000   0.0000   0.0000   0.0000   0.0000   0.0000   0.0000
     0.0000   0.0000   0.0000   0.0000   0.0000   0.0000   0.0000

          k =-0.5000-0.5000 0.0000 ( 65132 PWs)   bands (ev):

   -92.3439 -92.2923 -92.1983 -92.1479 -92.0909 -92.0503 -92.0329 -91.9093
   -55.6970 -55.6788 -55.5560 -55.5451 -55.5370 -55.5318 -55.4962 -55.4677
   -55.4510 -55.4492 -55.4431 -55.3992 -55.3790 -55.3427 -55.3244 -55.2907
   -55.2830 -55.2392 -55.2370 -55.2360 -55.2276 -55.1837 -55.1637 -55.0757
   -30.9270 -30.9162 -30.7711 -30.7445 -30.7115 -30.6859 -30.5596 -30.4911
   -29.4919 -29.4531 -29.4266 -29.3192 -22.2575 -14.5828 -14.5562 -14.4394
   -14.4280 -14.3359 -14.2962 -14.2664 -14.1336 -13.7742 -13.6341 -13.6248
   -13.5876 -13.5704 -13.5522 -13.5371 -13.5081 -13.5009 -13.4878 -13.4772
   -13.4612 -13.3845 -13.3787 -13.3512 -13.3158 -13.3102 -13.2164 -13.2056
   -13.0986 -13.0677 -12.8121 -12.7723 -12.7056 -12.6795 -12.6594 -12.6457
   -12.6386 -12.6290 -12.6204 -12.6066 -12.5255 -12.5013 -12.4914 -12.4814
   -12.4474 -12.4384 -12.2592 -12.2515 -12.1920 -12.0850 -11.9728 -11.9293
   -11.8849 -11.8691 -11.4186 -11.4064 -11.3885 -11.3718 -11.3371 -11.3192
   -11.2848 -11.2240 -11.2035 -11.1985 -11.1481 -11.1449  -5.8518  -3.1645
    -3.1612  -1.8716  -1.7972  -1.7899  -1.7164  -1.6765  -1.5983  -1.5305
    -1.4042  -1.2872  -1.2582  -1.2154  -1.1615  -1.0894  -1.0759  -1.0041
    -0.9619  -0.8455  -0.8170  -0.7684  -0.7377  -0.6736  -0.6297  -0.6109
    -0.5997  -0.5451  -0.4986  -0.4844  -0.3716  -0.3147  -0.2687  -0.2196
    -0.1933  -0.1769  -0.1457  -0.1086  -0.0681  -0.0590   0.0273   0.0933
     0.1427   0.1636   0.2399   0.2921   0.2971   0.3596   0.3922   0.3980
     0.4102   0.8657   0.9012   0.9805   0.9969   1.4072   1.4200   1.4566
     1.4964   1.7700   1.7878   1.7955   1.8385   1.9680   2.0640   2.0897
     2.1252   2.1394   2.1597   2.1725   2.2047   2.2099   2.2201   2.2325
     2.2941   2.3003   2.3219   2.3258   2.3512   2.3648   2.4074   2.4323
     2.4481   2.4821   2.5072   2.5831   2.6504   2.9204   2.9533   2.9721
     2.9917   2.9977   3.0264   3.0300   3.0418   3.0477   3.0556   3.0659
     3.0825   3.1071   3.1159   3.1803   3.1849   3.2052   3.2191   3.2338
     3.2550   3.2557   3.2638   3.3690   3.3752   3.3965   3.4089   4.3416
     4.3761   4.3827   4.4129   4.6734   4.7445   4.7739   5.0123   5.1354
[...]
     0.0000   0.0000   0.0000   0.0000   0.0000   0.0000   0.0000   0.0000
     0.0000   0.0000   0.0000   0.0000   0.0000   0.0000   0.0000

          k =-0.5000 0.0000 0.0000 ( 65180 PWs)   bands (ev):

   -92.3439 -92.2923 -92.1983 -92.1479 -92.0909 -92.0503 -92.0329 -91.9093
   -55.6970 -55.6788 -55.5560 -55.5451 -55.5370 -55.5318 -55.4962 -55.4677
   -55.4510 -55.4492 -55.4431 -55.3992 -55.3790 -55.3427 -55.3244 -55.2907
   -55.2830 -55.2392 -55.2370 -55.2360 -55.2276 -55.1837 -55.1637 -55.0757
   -30.9274 -30.9165 -30.7707 -30.7462 -30.7098 -30.6856 -30.5605 -30.4901
   -29.4931 -29.4537 -29.4254 -29.3185 -22.2575 -14.6636 -14.6136 -14.5525
   -14.4455 -14.3389 -14.1945 -14.0563 -13.9130 -13.7822 -13.7769 -13.7726
   -13.7558 -13.7030 -13.6447 -13.6113 -13.5620 -13.5558 -13.5423 -13.4893
   -13.4784 -13.3875 -13.2040 -13.1722 -13.1438 -13.1354 -13.0958 -13.0154
   -13.0000 -12.9234 -12.9086 -12.9000 -12.7568 -12.7082 -12.6985 -12.6765
   -12.6711 -12.6650 -12.6022 -12.5843 -12.5696 -12.5536 -12.4673 -12.4326
   -12.3815 -12.3665 -12.2938 -12.2848 -12.1950 -12.1581 -12.0200 -11.9826
   -11.8874 -11.8487 -11.4255 -11.4045 -11.3975 -11.3827 -11.3647 -11.3235
   -11.2604 -11.2429 -11.2105 -11.1657 -11.1563 -11.1403  -5.8518  -3.1645
    -3.1608  -2.2290  -2.1902  -2.0259  -1.9870  -1.6742  -1.5971  -1.4508
    -1.3325  -1.2925  -1.2462  -1.1992  -1.1739  -1.0526  -1.0072  -0.9929
    -0.9098  -0.8746  -0.8606  -0.8274  -0.7710  -0.7019  -0.6722  -0.6440
    -0.5515  -0.5019  -0.4525  -0.4211  -0.4000  -0.3682  -0.3214  -0.2973
    -0.2608  -0.1572  -0.0954  -0.0208   0.0389   0.1836   0.2312   0.2945
     0.3322   0.3748   0.4064   0.5314   0.5713   0.6083   0.7925   0.8911
     0.9372   1.0122   1.0643   1.2033   1.2149   1.3461   1.3798   1.4343
     1.4610   1.4978   1.5101   1.5585   1.5823   1.6462   1.6930   1.7396
     1.7518   2.0394   2.0513   2.0569   2.0903   2.2016   2.2102   2.2163
     2.2313   2.2652   2.2773   2.3098   2.3417   2.3604   2.4303   2.4339
     2.4928   2.5039   2.5716   2.6695   2.7670   2.8521   2.8672   2.9474
     2.9814   3.0074   3.0355   3.0450   3.0800   3.0896   3.0979   3.1257
     3.1881   3.2334   3.2870   3.3063   3.3538   3.3583   3.3595   3.3710
     3.3858   3.3988   3.4121   3.4157   3.4351   3.4410   3.4636   3.4841
     3.4884   3.6142   3.6215   4.4035   4.4658   4.5276   4.6357   5.0230
     5.1396   5.1890   5.3108   5.4591   5.7193   5.8784   5.9415   5.9826
     6.2678   6.3762   6.3901   6.4132   6.9821   7.1107   7.1372   7.4749
     7.5214   7.7355   7.7557   7.9724   8.0841   8.1162   8.1891   8.3003
     8.4272   8.6099   8.7018   8.7442   8.7691   8.8557   8.9221

     occupation numbers 
     1.0000   1.0000   1.0000   1.0000   1.0000   1.0000   1.0000   1.0000
     1.0000   1.0000   1.0000   1.0000   1.0000   1.0000   1.0000   1.0000
     1.0000   1.0000   1.0000   1.0000   1.0000   1.0000   1.0000   1.0000
     1.0000   1.0000   1.0000   1.0000   1.0000   1.0000   1.0000   1.0000
     1.0000   1.0000   1.0000   1.0000   1.0000   1.0000   1.0000   1.0000
     1.0000   1.0000   1.0000   1.0000   1.0000   1.0000   1.0000   1.0000
     1.0000   1.0000   1.0000   1.0000   1.0000   1.0000   1.0000   1.0000
     1.0000   1.0000   1.0000   1.0000   1.0000   1.0000   1.0000   1.0000
     1.0000   1.0000   1.0000   1.0000   1.0000   1.0000   1.0000   1.0000
     1.0000   1.0000   1.0000   1.0000   1.0000   1.0000   1.0000   1.0000
     1.0000   1.0000   1.0000   1.0000   1.0000   1.0000   1.0000   1.0000
     1.0000   1.0000   1.0000   1.0000   1.0000   1.0000   1.0000   1.0000
     1.0000   1.0000   1.0000   1.0000   1.0000   1.0000   1.0000   1.0000
     1.0000   1.0000   1.0000   1.0000   1.0000   1.0000   1.0000   1.0000
     1.0000   1.0000   1.0000   1.0000   1.0000   1.0000   1.0000   1.0000
     1.0000   1.0000   1.0000   1.0000   1.0000   1.0000   1.0000   1.0000
     1.0000   1.0000   1.0000   1.0000   1.0000   1.0000   1.0000   1.0000
     1.0000   1.0000   1.0000   1.0000   1.0000   1.0000   1.0000   1.0000
     1.0000   1.0000   1.0000   1.0000   1.0000   1.0000   1.0000   1.0000
     1.0000   1.0000   1.0000   1.0000   1.0000   1.0000   1.0000   1.0000
     1.0000   1.0000   0.9999   0.9999   0.9999   0.9997   0.9997   0.9996
     0.9995   0.9994   0.9994   0.9992   0.9991   0.9988   0.9984   0.9980
     0.9979   0.9926   0.9923   0.9921   0.9910   0.9861   0.9856   0.9853
     0.9844   0.9823   0.9815   0.9792   0.9767   0.9752   0.9685   0.9681
     0.9613   0.9599   0.9505   0.9337   0.9130   0.8912   0.8869   0.8624
     0.8510   0.8419   0.8316   0.8280   0.8145   0.8106   0.8072   0.7958
     0.7685   0.7475   0.7214   0.7117   0.6872   0.6848   0.6842   0.6781
     0.6702   0.6632   0.6559   0.6539   0.6432   0.6399   0.6273   0.6158
     0.6133   0.5403   0.5360   0.1421   0.1224   0.1047   0.0784   0.0233
     0.0152   0.0126   0.0078   0.0042   0.0012   0.0006   0.0004   0.0003
     0.0001   0.0000   0.0000   0.0000   0.0000   0.0000   0.0000   0.0000
     0.0000   0.0000   0.0000   0.0000   0.0000   0.0000   0.0000   0.0000
     0.0000   0.0000   0.0000   0.0000   0.0000   0.0000   0.0000

          k =-0.2500 0.2500 0.0000 ( 65198 PWs)   bands (ev):

   -92.3439 -92.2923 -92.1983 -92.1479 -92.0909 -92.0503 -92.0329 -91.9093
   -55.6970 -55.6788 -55.5560 -55.5451 -55.5370 -55.5318 -55.4962 -55.4677
   -55.4510 -55.4492 -55.4431 -55.3992 -55.3790 -55.3427 -55.3244 -55.2907
   -55.2830 -55.2392 -55.2370 -55.2360 -55.2276 -55.1837 -55.1637 -55.0757
   -30.9295 -30.9140 -30.7713 -30.7456 -30.7107 -30.6854 -30.5599 -30.4905
   -29.4935 -29.4523 -29.4264 -29.3184 -22.2575 -14.6654 -14.6283 -14.5526
   -14.4351 -14.3277 -14.2036 -14.1119 -13.9098 -13.7744 -13.7659 -13.7364
   -13.7252 -13.6779 -13.6530 -13.6368 -13.6215 -13.5830 -13.4874 -13.4752
   -13.3246 -13.2966 -13.2675 -13.2478 -13.2007 -13.1485 -13.1099 -13.0892
   -13.0003 -12.9589 -12.8783 -12.8008 -12.7585 -12.7081 -12.6948 -12.6681
   -12.6456 -12.6197 -12.5948 -12.5843 -12.5713 -12.5194 -12.4950 -12.4540
   -12.4249 -12.4163 -12.3959 -12.3457 -12.1983 -12.1155 -12.0960 -11.9382
   -11.8260 -11.7741 -11.4460 -11.4242 -11.3973 -11.3849 -11.3441 -11.3093
   -11.2863 -11.2648 -11.2423 -11.1582 -11.1121 -11.1027  -5.8518  -3.1643
    -3.1610  -2.3140  -2.1050  -1.9847  -1.8952  -1.7773  -1.7103  -1.5071
    -1.3619  -1.3424  -1.3118  -1.2223  -1.1871  -1.0954  -1.0616  -1.0356
    -0.8922  -0.8369  -0.7680  -0.7402  -0.6795  -0.6580  -0.6172  -0.5884
    -0.5484  -0.4862  -0.4395  -0.3746  -0.3094  -0.2858  -0.2328  -0.2042
    -0.1596  -0.0995  -0.0524  -0.0151   0.0859   0.1172   0.1275   0.1755
     0.2365   0.3007   0.3484   0.3823   0.4397   0.4742   0.7382   0.9093
     0.9500   0.9864   1.0393   1.0769   1.1387   1.2108   1.2419   1.5262
     1.6411   1.6793   1.7137   1.7194   1.7610   1.7785   1.8235   1.8545
     1.8695   1.8964   1.9367   1.9501   1.9946   2.0145   2.0570   2.1269
     2.1471   2.1723   2.1974   2.2357   2.2711   2.3166   2.4368   2.5510
     2.5842   2.6261   2.6472   2.7091   2.7560   2.7841   2.8047   2.8273
     2.9297   2.9647   3.0353   3.0472   3.0766   3.2381   3.2451   3.2600
     3.2690   3.2799   3.2934   3.3006   3.3181   3.3269   3.3414   3.3516
     3.3636   3.3729   3.3791   3.4127   3.4236   3.4323   3.4658   3.7589
     3.8387   3.8998   3.9529   3.9823   4.1890   4.3156   4.6354   4.7954
     4.9817   5.1443   5.3306   5.5473   5.9082   6.0160   6.0327   6.1388
     6.1910   6.2383   6.3474   6.4067   6.9677   7.0349   7.0869   7.2091
     7.7415   7.8134   7.8413   7.8677   7.9746   8.1746   8.2381   8.3155
     8.4004   8.4576   8.5510   8.6901   8.7022   8.7495   8.8399

     occupation numbers 
     1.0000   1.0000   1.0000   1.0000   1.0000   1.0000   1.0000   1.0000
     1.0000   1.0000   1.0000   1.0000   1.0000   1.0000   1.0000   1.0000
     1.0000   1.0000   1.0000   1.0000   1.0000   1.0000   1.0000   1.0000
     1.0000   1.0000   1.0000   1.0000   1.0000   1.0000   1.0000   1.0000
     1.0000   1.0000   1.0000   1.0000   1.0000   1.0000   1.0000   1.0000
     1.0000   1.0000   1.0000   1.0000   1.0000   1.0000   1.0000   1.0000
     1.0000   1.0000   1.0000   1.0000   1.0000   1.0000   1.0000   1.0000
     1.0000   1.0000   1.0000   1.0000   1.0000   1.0000   1.0000   1.0000
     1.0000   1.0000   1.0000   1.0000   1.0000   1.0000   1.0000   1.0000
     1.0000   1.0000   1.0000   1.0000   1.0000   1.0000   1.0000   1.0000
     1.0000   1.0000   1.0000   1.0000   1.0000   1.0000   1.0000   1.0000
     1.0000   1.0000   1.0000   1.0000   1.0000   1.0000   1.0000   1.0000
     1.0000   1.0000   1.0000   1.0000   1.0000   1.0000   1.0000   1.0000
     1.0000   1.0000   1.0000   1.0000   1.0000   1.0000   1.0000   1.0000
     1.0000   1.0000   1.0000   1.0000   1.0000   1.0000   1.0000   1.0000
     1.0000   1.0000   1.0000   1.0000   1.0000   1.0000   1.0000   1.0000
     1.0000   1.0000   1.0000   1.0000   1.0000   1.0000   1.0000   1.0000
     1.0000   1.0000   1.0000   1.0000   1.0000   1.0000   1.0000   1.0000
     1.0000   1.0000   1.0000   1.0000   1.0000   1.0000   1.0000   1.0000
     1.0000   1.0000   1.0000   1.0000   1.0000   1.0000   1.0000   1.0000
     1.0000   1.0000   1.0000   0.9999   0.9999   0.9999   0.9999   0.9993
     0.9988   0.9985   0.9983   0.9982   0.9978   0.9977   0.9971   0.9967
     0.9964   0.9960   0.9952   0.9949   0.9939   0.9934   0.9921   0.9895
     0.9887   0.9875   0.9863   0.9841   0.9819   0.9787   0.9678   0.9535
     0.9485   0.9416   0.9379   0.9258   0.9155   0.9089   0.9038   0.8979
     0.8681   0.8567   0.8317   0.8272   0.8158   0.7453   0.7419   0.7347
     0.7303   0.7249   0.7182   0.7146   0.7057   0.7012   0.6936   0.6883
     0.6820   0.6771   0.6737   0.6556   0.6496   0.6448   0.6261   0.4548
     0.4082   0.3734   0.3440   0.3280   0.2259   0.1735   0.0785   0.0492
     0.0268   0.0150   0.0072   0.0028   0.0005   0.0003   0.0002   0.0001
     0.0001   0.0001   0.0000   0.0000   0.0000   0.0000   0.0000   0.0000
     0.0000   0.0000   0.0000   0.0000   0.0000   0.0000   0.0000   0.0000
     0.0000   0.0000   0.0000   0.0000   0.0000   0.0000   0.0000

          k =-0.5000 0.2500 0.0000 ( 65138 PWs)   bands (ev):

   -92.3439 -92.2923 -92.1983 -92.1479 -92.0909 -92.0503 -92.0329 -91.9093
   -55.6970 -55.6788 -55.5560 -55.5451 -55.5370 -55.5318 -55.4962 -55.4677
   -55.4510 -55.4492 -55.4431 -55.3992 -55.3790 -55.3427 -55.3244 -55.2907
   -55.2830 -55.2392 -55.2370 -55.2360 -55.2276 -55.1837 -55.1637 -55.0757
   -30.9272 -30.9163 -30.7709 -30.7454 -30.7106 -30.6858 -30.5601 -30.4906
   -29.4925 -29.4534 -29.4260 -29.3188 -22.2575 -14.6311 -14.5869 -14.5096
   -14.4112 -14.3682 -14.2411 -14.1590 -14.0285 -13.7742 -13.7160 -13.6863
   -13.6743 -13.6313 -13.6107 -13.5839 -13.5470 -13.5413 -13.5201 -13.4804
   -13.4688 -13.3738 -13.2882 -13.2385 -13.2348 -13.2216 -13.1533 -13.1220
   -13.0461 -12.9944 -12.8548 -12.8180 -12.7233 -12.7015 -12.6815 -12.6697
   -12.6494 -12.6211 -12.6091 -12.5942 -12.5823 -12.5162 -12.4772 -12.4590
   -12.4085 -12.4011 -12.2761 -12.2686 -12.1932 -12.1183 -11.9789 -11.9770
   -11.8825 -11.8576 -11.4184 -11.4058 -11.3916 -11.3798 -11.3585 -11.3282
   -11.2477 -11.2391 -11.2157 -11.1801 -11.1519 -11.1428  -5.8518  -3.1645
    -3.1610  -2.0868  -2.0446  -1.8957  -1.8540  -1.6941  -1.6161  -1.4750
    -1.3387  -1.2803  -1.2538  -1.2151  -1.1768  -1.0968  -0.9819  -0.9252
    -0.9019  -0.8756  -0.8007  -0.7708  -0.7339  -0.7150  -0.6545  -0.6256
    -0.5860  -0.5513  -0.5226  -0.4650  -0.4391  -0.3977  -0.3623  -0.2575
    -0.2341  -0.1401  -0.0870  -0.0505   0.0096   0.0873   0.1178   0.2252
     0.2506   0.3165   0.3563   0.4010   0.4661   0.4923   0.5235   0.5835
     0.6210   0.9340   0.9791   1.0333   1.0490   1.3559   1.4179   1.4931
     1.5207   1.6992   1.7342   1.7721   1.7869   1.8044   1.8220   1.8912
     1.9356   1.9707   2.0049   2.1040   2.1526   2.1851   2.1956   2.2231
     2.2590   2.2740   2.2848   2.3062   2.3323   2.3736   2.4017   2.4307
     2.4552   2.4818   2.5474   2.6651   2.7658   2.7965   2.8658   2.9083
     2.9645   3.0041   3.0122   3.0339   3.0388   3.0655   3.0865   3.1074
     3.1883   3.2316   3.2471   3.2525   3.2743   3.2952   3.3076   3.3225
     3.3353   3.3570   3.3701   3.3800   3.3879   3.3961   3.4082   3.9321
     3.9634   4.1282   4.1481   4.4144   4.4843   4.5398   4.7340   5.0874
     5.1490   5.2145   5.3359   5.4522   5.7246   5.7782   5.8335   5.9168
     6.0375   6.1707   6.3688   6.4992   6.5626   6.6383   7.1887   7.3034
     7.4602   7.6735   7.9641   8.0538   8.1838   8.2199   8.3146   8.4624
     8.5641   8.6203   8.7077   8.7733   8.8263   8.8722   8.9245

     occupation numbers 
     1.0000   1.0000   1.0000   1.0000   1.0000   1.0000   1.0000   1.0000
     1.0000   1.0000   1.0000   1.0000   1.0000   1.0000   1.0000   1.0000
     1.0000   1.0000   1.0000   1.0000   1.0000   1.0000   1.0000   1.0000
     1.0000   1.0000   1.0000   1.0000   1.0000   1.0000   1.0000   1.0000
     1.0000   1.0000   1.0000   1.0000   1.0000   1.0000   1.0000   1.0000
     1.0000   1.0000   1.0000   1.0000   1.0000   1.0000   1.0000   1.0000
     1.0000   1.0000   1.0000   1.0000   1.0000   1.0000   1.0000   1.0000
     1.0000   1.0000   1.0000   1.0000   1.0000   1.0000   1.0000   1.0000
     1.0000   1.0000   1.0000   1.0000   1.0000   1.0000   1.0000   1.0000
     1.0000   1.0000   1.0000   1.0000   1.0000   1.0000   1.0000   1.0000
     1.0000   1.0000   1.0000   1.0000   1.0000   1.0000   1.0000   1.0000
     1.0000   1.0000   1.0000   1.0000   1.0000   1.0000   1.0000   1.0000
     1.0000   1.0000   1.0000   1.0000   1.0000   1.0000   1.0000   1.0000
     1.0000   1.0000   1.0000   1.0000   1.0000   1.0000   1.0000   1.0000
     1.0000   1.0000   1.0000   1.0000   1.0000   1.0000   1.0000   1.0000
     1.0000   1.0000   1.0000   1.0000   1.0000   1.0000   1.0000   1.0000
     1.0000   1.0000   1.0000   1.0000   1.0000   1.0000   1.0000   1.0000
     1.0000   1.0000   1.0000   1.0000   1.0000   1.0000   1.0000   1.0000
     1.0000   1.0000   1.0000   1.0000   1.0000   1.0000   1.0000   1.0000
     1.0000   1.0000   1.0000   1.0000   1.0000   1.0000   1.0000   1.0000
     1.0000   1.0000   1.0000   1.0000   1.0000   0.9997   0.9996   0.9994
     0.9993   0.9984   0.9981   0.9977   0.9976   0.9974   0.9971   0.9961
     0.9953   0.9945   0.9936   0.9905   0.9884   0.9869   0.9864   0.9849
     0.9827   0.9817   0.9810   0.9795   0.9775   0.9740   0.9714   0.9685
     0.9658   0.9627   0.9540   0.9345   0.9132   0.9058   0.8873   0.8748
     0.8568   0.8431   0.8402   0.8322   0.8304   0.8202   0.8119   0.8034
     0.7684   0.7483   0.7410   0.7383   0.7277   0.7173   0.7110   0.7034
     0.6969   0.6855   0.6786   0.6733   0.6691   0.6646   0.6580   0.3553
     0.3382   0.2539   0.2446   0.1385   0.1169   0.1015   0.0592   0.0185
     0.0147   0.0114   0.0070   0.0043   0.0012   0.0009   0.0007   0.0005
     0.0002   0.0001   0.0000   0.0000   0.0000   0.0000   0.0000   0.0000
     0.0000   0.0000   0.0000   0.0000   0.0000   0.0000   0.0000   0.0000
     0.0000   0.0000   0.0000   0.0000   0.0000   0.0000   0.0000

     the Fermi energy is     3.6823 ev

!    total energy              =   -4482.97514098 Ry
     estimated scf accuracy    <          3.8E-09 Ry
     smearing contrib. (-TS)   =      -1.17189799 Ry
     internal energy E=F+TS    =   -4481.80324299 Ry

     The total energy is F=E-TS. E is the sum of the following terms:
     one-electron contribution =  -20251.04856953 Ry
     hartree contribution      =   10265.10112682 Ry
     xc contribution           =    -701.58182372 Ry
     ewald contribution        =    6491.38247655 Ry
     one-center paw contrib.   =    -285.65645310 Ry
      -> PAW hartree energy AE =      25.18071895 Ry
      -> PAW hartree energy PS =     -25.06445412 Ry
      -> PAW xc energy AE      =     -16.51997692 Ry
      -> PAW xc energy PS      =       6.87957716 Ry
      -> total E_H with PAW    =   10265.21739164 Ry
      -> total E_XC with PAW   =    -711.22222348 Ry

     convergence has been achieved in  52 iterations

     Writing all to output data dir /bsuhome/zayahcortright/scratch/pwscf.save/
 
     init_run     :      8.66s CPU      9.47s WALL (       1 calls)
     electrons    :    793.23s CPU    817.92s WALL (       1 calls)

     Called by init_run:
     wfcinit      :      6.98s CPU      7.20s WALL (       1 calls)
     wfcinit:atom :      0.05s CPU      0.06s WALL (       5 calls)
     wfcinit:wfcr :      6.66s CPU      6.82s WALL (       5 calls)
     potinit      :      0.18s CPU      0.20s WALL (       1 calls)
     hinit0       :      0.63s CPU      1.13s WALL (       1 calls)

     Called by electrons:
     c_bands      :    635.86s CPU    642.37s WALL (      52 calls)
     sum_band     :    118.65s CPU    128.62s WALL (      52 calls)
     v_of_rho     :      5.72s CPU      6.07s WALL (      53 calls)
     v_h          :      0.50s CPU      0.50s WALL (      53 calls)
     v_xc         :      5.22s CPU      5.57s WALL (      53 calls)
     newd         :     17.45s CPU     24.86s WALL (      53 calls)
     PAW_pot      :      1.72s CPU      1.74s WALL (      53 calls)
     mix_rho      :     13.48s CPU     13.79s WALL (      52 calls)

     Called by c_bands:
     init_us_2    :      7.19s CPU      7.24s WALL (     525 calls)
     init_us_2:cp :      7.18s CPU      7.23s WALL (     525 calls)
     cegterg      :    602.33s CPU    608.58s WALL (     260 calls)

     Called by sum_band:
     sum_band:wei :      0.38s CPU      0.38s WALL (      52 calls)
     sum_band:loo :    100.80s CPU    101.57s WALL (      52 calls)
     sum_band:buf :      1.55s CPU      1.62s WALL (     260 calls)
     sum_band:ini :      3.35s CPU      3.35s WALL (     260 calls)
     sum_band:cal :     21.74s CPU     21.81s WALL (     260 calls)
     sum_band:bec :      0.64s CPU      0.66s WALL (     260 calls)
     addusdens    :     16.32s CPU     25.45s WALL (      52 calls)
                                        0.00s GPU  (      52 calls)
     addusd:skk   :      0.32s CPU      0.85s WALL (     208 calls)
                                        0.00s GPU  (     208 calls)

     Called by *egterg:
     cdiaghg      :     64.65s CPU     64.90s WALL (    1513 calls)
     cegterg:over :     45.66s CPU     45.82s WALL (    1253 calls)
     cegterg:upda :     33.16s CPU     33.75s WALL (    1253 calls)
     cegterg:last :     67.24s CPU     67.46s WALL (     476 calls)
     cdiaghg:chol :      3.78s CPU      3.81s WALL (    1513 calls)
     cdiaghg:inve :      4.11s CPU      4.13s WALL (    1513 calls)
     cdiaghg:para :      8.18s CPU      8.23s WALL (    3026 calls)
     h_psi        :    328.63s CPU    331.80s WALL (    1518 calls)
     s_psi        :     45.76s CPU     45.88s WALL (    1518 calls)
     g_psi        :      1.24s CPU      1.25s WALL (    1253 calls)

     Called by h_psi:
     h_psi:calbec :     50.16s CPU     50.34s WALL (    1518 calls)
     vloc_psi     :    229.66s CPU    231.79s WALL (    1518 calls)
     add_vuspsi   :     45.65s CPU     45.88s WALL (    1518 calls)

     General routines
     calbec       :     71.89s CPU     72.14s WALL (    1778 calls)
     fft          :      3.86s CPU      3.91s WALL (     687 calls)
     ffts         :      4.99s CPU      5.04s WALL (    5498 calls)
     fftw         :    197.57s CPU    199.05s WALL (  357972 calls)
     interpolate  :      0.43s CPU      0.43s WALL (      53 calls)
 
     Parallel routines

     PAW routines
     PAW_pot      :      1.72s CPU      1.74s WALL (      53 calls)
 
     PWSCF        :  13m24.39s CPU  13m52.82s WALL

 
   This run was terminated on:  20:20:53  20Jun2024            

=------------------------------------------------------------------------------=
   JOB DONE.
=------------------------------------------------------------------------------=
