
     Program PWSCF v.7.2 starts on 18Jun2024 at 19:21:24 

     This program is part of the open-source Quantum ESPRESSO suite
     for quantum simulation of materials; please cite
         "P. Giannozzi et al., J. Phys.:Condens. Matter 21 395502 (2009);
         "P. Giannozzi et al., J. Phys.:Condens. Matter 29 465901 (2017);
         "P. Giannozzi et al., J. Chem. Phys. 152 154105 (2020);
          URL http://www.quantum-espresso.org", 
     in publications or presentations arising from this work. More details at
     http://www.quantum-espresso.org/quote

     Parallel version (MPI & OpenMP), running on      48 processor cores
     Number of MPI processes:                48
     Threads/MPI process:                     1

     MPI processes distributed on     1 nodes
     15865 MiB available memory on the printing compute node when the environment starts
 
     Reading input from espresso.pwi
Warning: card &CELL ignored
Warning: card / ignored
Warning: card &FCP ignored
Warning: card / ignored
Warning: card &RISM ignored
Warning: card / ignored

     Current dimensions of program PWSCF are:
     Max number of different atomic species (ntypx) = 10
     Max number of k-points (npk) =  40000
     Max angular momentum in pseudopotentials (lmaxx) =  4
     file O.pbe-n-kjpaw_psl.0.1.UPF: wavefunction(s)  2P renormalized
     signal trapping enabled: kill the code with -SIGUSR1 to stop cleanly the simulation 
 
     K-points division:     npool     =       2
     R & G space division:  proc/nbgrp/npool/nimage =      24
     Subspace diagonalization in iterative solution of the eigenvalue problem:
     one sub-group per band group will be used
     scalapack distributed-memory algorithm (size of sub-group:  3*  3 procs)

 
     Parallelization info
     --------------------
     sticks:   dense  smooth     PW     G-vecs:    dense   smooth      PW
     Min         350     175     47                61430    21716    3036
     Max         351     177     48                61449    21727    3041
     Sum        8421    4205   1137              1474595   521381   72913
 
     Using Slab Decomposition
 


     bravais-lattice index     =            0
     lattice parameter (alat)  =      14.8599  a.u.
     unit-cell volume          =    8305.1283 (a.u.)^3
     number of atoms/cell      =           51
     number of atomic types    =            4
     number of electrons       =       437.00
     number of Kohn-Sham states=          263
     kinetic-energy cutoff     =      60.0000  Ry
     charge density cutoff     =     480.0000  Ry
     scf convergence threshold =      1.0E-08
     mixing beta               =       0.1500
     number of iterations used =            8  local-TF  mixing
     Exchange-correlation= PBE
                           (   1   4   3   4   0   0   0)

     celldm(1)=  14.859904  celldm(2)=   0.000000  celldm(3)=   0.000000
     celldm(4)=   0.000000  celldm(5)=   0.000000  celldm(6)=   0.000000

     crystal axes: (cart. coord. in units of alat)
               a(1) = (   1.000000   0.000000   0.000000 )  
               a(2) = (   0.000000   1.000000   0.000000 )  
               a(3) = (   0.000000   0.000000   2.531036 )  

     reciprocal axes: (cart. coord. in units 2 pi/alat)
               b(1) = (  1.000000  0.000000  0.000000 )  
               b(2) = (  0.000000  1.000000  0.000000 )  
               b(3) = (  0.000000  0.000000  0.395095 )  


     PseudoPot. # 1 for Sr read from file:
     /bsuhome/zayahcortright/q-e/pseudo/Sr_pbe_v1.uspp.F.UPF
     MD5 check sum: 6b418c05fbe9db5448babca5e47b7a5b
     Pseudo is Ultrasoft + core correction, Zval = 10.0
     Generated by new atomic code, or converted to UPF format
     Using radial grid of  883 points,  6 beta functions with: 
                l(1) =   0
                l(2) =   0
                l(3) =   1
                l(4) =   1
                l(5) =   2
                l(6) =   2
     Q(r) pseudized with  6 coefficients,  rinner =    1.400   1.400   1.400
                                                       1.400   1.400

     PseudoPot. # 2 for O  read from file:
     /bsuhome/zayahcortright/q-e/pseudo/O.pbe-n-kjpaw_psl.0.1.UPF
     MD5 check sum: 0234752ac141de4415c5fc33072bef88
     Pseudo is Projector augmented-wave + core cor, Zval =  6.0
     Generated using "atomic" code by A. Dal Corso  v.5.0.99 svn rev. 10869
     Shape of augmentation charge: BESSEL
     Using radial grid of 1095 points,  4 beta functions with: 
                l(1) =   0
                l(2) =   0
                l(3) =   1
                l(4) =   1
     Q(r) pseudized with 0 coefficients 


     PseudoPot. # 3 for Co read from file:
     /bsuhome/zayahcortright/q-e/pseudo/Co_pbe_v1.2.uspp.F.UPF
     MD5 check sum: 5f91765df6ddd3222702df6e7b74a16d
     Pseudo is Ultrasoft + core correction, Zval = 17.0
     Generated by new atomic code, or converted to UPF format
     Using radial grid of  863 points,  6 beta functions with: 
                l(1) =   0
                l(2) =   0
                l(3) =   1
                l(4) =   1
                l(5) =   2
                l(6) =   2
     Q(r) pseudized with  8 coefficients,  rinner =    1.200   1.200   1.200
                                                       1.200   1.200

     PseudoPot. # 4 for H  read from file:
     /bsuhome/zayahcortright/q-e/pseudo/H.pbe-rrkjus_psl.1.0.0.UPF
     MD5 check sum: f52b6d4d1c606e5624b1dc7b2218f220
     Pseudo is Ultrasoft, Zval =  1.0
     Generated using "atomic" code by A. Dal Corso  v.5.1
     Using radial grid of  929 points,  2 beta functions with: 
                l(1) =   0
                l(2) =   0
     Q(r) pseudized with 0 coefficients 


     atomic species   valence    mass     pseudopotential
        Sr            10.00    87.62000     Sr( 1.00)
        O              6.00    15.99900     O ( 1.00)
        Co            17.00    58.93319     Co( 1.00)
        H              1.00     1.00800     H ( 1.00)

     No symmetry found


                                    s                        frac. trans.

      isym =  1     identity                                     

 cryst.   s( 1) = (     1          0          0      )
                  (     0          1          0      )
                  (     0          0          1      )

 cart.    s( 1) = (  1.0000000  0.0000000  0.0000000 )
                  (  0.0000000  1.0000000  0.0000000 )
                  (  0.0000000  0.0000000  1.0000000 )


   Cartesian axes

     site n.     atom                  positions (alat units)
         1           Sr  tau(   1) = (   0.2508693   0.7491307   1.7574407  )
         2           O   tau(   2) = (   0.4985141   0.5014859   1.7715967  )
         3           Sr  tau(   3) = (   0.7482398   0.7454518   1.7648669  )
         4           Sr  tau(   4) = (   0.7441748   0.2558252   1.7667843  )
         5           Sr  tau(   5) = (   0.2508693   0.7491307   1.2696799  )
         6           Sr  tau(   6) = (   0.2508693   0.7491307   0.7632319  )
         7           Co  tau(   7) = (   0.4998914   0.5001086   1.0164559  )
         8           Co  tau(   8) = (   0.4936915   0.5063085   1.5135603  )
         9           O   tau(   9) = (   0.4988895   0.7610401   1.0164559  )
        10           O   tau(  10) = (   0.2389599   0.5011105   1.0164559  )
        11           O   tau(  11) = (   0.0070918   0.7374880   1.0164559  )
        12           O   tau(  12) = (   0.0088340   0.7405089   1.5135603  )
        13           O   tau(  13) = (   0.5066944   0.7415376   1.5135603  )
        14           O   tau(  14) = (   0.2584624   0.4933056   1.5135603  )
        15           O   tau(  15) = (   0.4985141   0.5014859   0.7773880  )
        16           O   tau(  16) = (   0.4985141   0.5014859   1.2555238  )
        17           Sr  tau(  17) = (   0.7482398   0.7454518   0.7706582  )
        18           Sr  tau(  18) = (   0.7482398   0.7454518   1.2622536  )
        19           Sr  tau(  19) = (   0.7441748   0.2558252   0.7725755  )
        20           Sr  tau(  20) = (   0.7441748   0.2558252   1.2603363  )
        21           O   tau(  21) = (   0.7322655   0.0078049   1.5135603  )
        22           O   tau(  22) = (   0.7558175   0.4996027   1.5135603  )
        23           O   tau(  23) = (   0.5003973   0.2441825   1.5135603  )
        24           O   tau(  24) = (   0.7527966   0.4978604   1.0164559  )
        25           O   tau(  25) = (   0.5021396   0.2472034   1.0164559  )
        26           O   tau(  26) = (   0.7517679   0.0000000   1.0164559  )
        27           O   tau(  27) = (   0.0114961   0.4948124   1.7455321  )
        28           O   tau(  28) = (   0.0048226   0.0077944   1.7715967  )
        29           Sr  tau(  29) = (   0.2545482   0.2517602   1.7648669  )
        30           O   tau(  30) = (   0.5048017   0.0015068   1.7786929  )
        31           Co  tau(  31) = (   0.0056869   0.5006215   1.0164559  )
        32           Co  tau(  32) = (   0.0065315   0.4997770   1.5135603  )
        33           Co  tau(  33) = (   0.0061999   0.0064171   1.0164559  )
        34           Co  tau(  34) = (   0.0000000   0.0126169   1.5135603  )
        35           O   tau(  35) = (   0.0114961   0.4948124   1.2815885  )
        36           O   tau(  36) = (   0.0114961   0.4948124   0.7513233  )
        37           O   tau(  37) = (   0.0051979   0.2673486   1.0164559  )
        38           O   tau(  38) = (   0.0130029   0.2478461   1.5135603  )
        39           O   tau(  39) = (   0.0048226   0.0077944   0.7773880  )
        40           O   tau(  40) = (   0.0048226   0.0077944   1.2555238  )
        41           Sr  tau(  41) = (   0.2545482   0.2517602   0.7706582  )
        42           Sr  tau(  42) = (   0.2545482   0.2517602   1.2622536  )
        43           Co  tau(  43) = (   0.4989925   0.0073160   1.5135603  )
        44           Co  tau(  44) = (   0.4998370   0.0064714   1.0164559  )
        45           O   tau(  45) = (   0.5048017   0.0015068   0.7844841  )
        46           O   tau(  46) = (   0.5048017   0.0015068   1.2484277  )
        47           O   tau(  47) = (   0.2621260   0.0059111   1.5135603  )
        48           O   tau(  48) = (   0.2591051   0.0041689   1.0164559  )
        49           O   tau(  49) = (   0.1421646   0.0000000   2.1602013  )
        50           O   tau(  50) = (   0.1421646   0.0000000   2.3186489  )
        51           H   tau(  51) = (   0.1421646   0.0000000   2.4431567  )

   Crystallographic axes

     site n.     atom                  positions (cryst. coord.)
         1           Sr  tau(   1) = (  0.2508693  0.7491307  0.6943562  )
         2           O   tau(   2) = (  0.4985141  0.5014859  0.6999492  )
         3           Sr  tau(   3) = (  0.7482398  0.7454518  0.6972903  )
         4           Sr  tau(   4) = (  0.7441748  0.2558252  0.6980478  )
         5           Sr  tau(   5) = (  0.2508693  0.7491307  0.5016443  )
         6           Sr  tau(   6) = (  0.2508693  0.7491307  0.3015492  )
         7           Co  tau(   7) = (  0.4998914  0.5001086  0.4015968  )
         8           Co  tau(   8) = (  0.4936915  0.5063085  0.5980003  )
         9           O   tau(   9) = (  0.4988895  0.7610401  0.4015968  )
        10           O   tau(  10) = (  0.2389599  0.5011105  0.4015968  )
        11           O   tau(  11) = (  0.0070918  0.7374880  0.4015968  )
        12           O   tau(  12) = (  0.0088340  0.7405089  0.5980003  )
        13           O   tau(  13) = (  0.5066944  0.7415376  0.5980003  )
        14           O   tau(  14) = (  0.2584624  0.4933056  0.5980003  )
        15           O   tau(  15) = (  0.4985141  0.5014859  0.3071422  )
        16           O   tau(  16) = (  0.4985141  0.5014859  0.4960513  )
        17           Sr  tau(  17) = (  0.7482398  0.7454518  0.3044833  )
        18           Sr  tau(  18) = (  0.7482398  0.7454518  0.4987103  )
        19           Sr  tau(  19) = (  0.7441748  0.2558252  0.3052408  )
        20           Sr  tau(  20) = (  0.7441748  0.2558252  0.4979527  )
        21           O   tau(  21) = (  0.7322655  0.0078049  0.5980003  )
        22           O   tau(  22) = (  0.7558175  0.4996027  0.5980003  )
        23           O   tau(  23) = (  0.5003973  0.2441825  0.5980003  )
        24           O   tau(  24) = (  0.7527966  0.4978604  0.4015968  )
        25           O   tau(  25) = (  0.5021396  0.2472034  0.4015968  )
        26           O   tau(  26) = (  0.7517679  0.0000000  0.4015968  )
        27           O   tau(  27) = (  0.0114961  0.4948124  0.6896512  )
        28           O   tau(  28) = (  0.0048226  0.0077944  0.6999492  )
        29           Sr  tau(  29) = (  0.2545482  0.2517602  0.6972903  )
        30           O   tau(  30) = (  0.5048017  0.0015068  0.7027529  )
        31           Co  tau(  31) = (  0.0056869  0.5006215  0.4015968  )
        32           Co  tau(  32) = (  0.0065315  0.4997770  0.5980003  )
        33           Co  tau(  33) = (  0.0061999  0.0064171  0.4015968  )
        34           Co  tau(  34) = (  0.0000000  0.0126169  0.5980003  )
        35           O   tau(  35) = (  0.0114961  0.4948124  0.5063494  )
        36           O   tau(  36) = (  0.0114961  0.4948124  0.2968442  )
        37           O   tau(  37) = (  0.0051979  0.2673486  0.4015968  )
        38           O   tau(  38) = (  0.0130029  0.2478461  0.5980003  )
        39           O   tau(  39) = (  0.0048226  0.0077944  0.3071422  )
        40           O   tau(  40) = (  0.0048226  0.0077944  0.4960513  )
        41           Sr  tau(  41) = (  0.2545482  0.2517602  0.3044833  )
        42           Sr  tau(  42) = (  0.2545482  0.2517602  0.4987103  )
        43           Co  tau(  43) = (  0.4989925  0.0073160  0.5980003  )
        44           Co  tau(  44) = (  0.4998370  0.0064714  0.4015968  )
        45           O   tau(  45) = (  0.5048017  0.0015068  0.3099459  )
        46           O   tau(  46) = (  0.5048017  0.0015068  0.4932477  )
        47           O   tau(  47) = (  0.2621260  0.0059111  0.5980003  )
        48           O   tau(  48) = (  0.2591051  0.0041689  0.4015968  )
        49           O   tau(  49) = (  0.1421646  0.0000000  0.8534850  )
        50           O   tau(  50) = (  0.1421646  0.0000000  0.9160869  )
        51           H   tau(  51) = (  0.1421646  0.0000000  0.9652793  )

     number of k points=    10  Gaussian smearing, width (Ry)=  0.0700
                       cart. coord. in units 2pi/alat
        k(    1) = (   0.0000000   0.0000000   0.0000000), wk =   0.1250000
        k(    2) = (   0.0000000   0.2500000   0.0000000), wk =   0.2500000
        k(    3) = (   0.0000000  -0.5000000   0.0000000), wk =   0.1250000
        k(    4) = (   0.2500000   0.2500000   0.0000000), wk =   0.2500000
        k(    5) = (   0.2500000  -0.5000000   0.0000000), wk =   0.2500000
        k(    6) = (  -0.5000000  -0.5000000   0.0000000), wk =   0.1250000
        k(    7) = (   0.2500000   0.0000000   0.0000000), wk =   0.2500000
        k(    8) = (  -0.5000000   0.0000000   0.0000000), wk =   0.1250000
        k(    9) = (  -0.2500000   0.2500000   0.0000000), wk =   0.2500000
        k(   10) = (  -0.5000000   0.2500000   0.0000000), wk =   0.2500000

                       cryst. coord.
        k(    1) = (   0.0000000   0.0000000   0.0000000), wk =   0.1250000
        k(    2) = (   0.0000000   0.2500000   0.0000000), wk =   0.2500000
        k(    3) = (   0.0000000  -0.5000000   0.0000000), wk =   0.1250000
        k(    4) = (   0.2500000   0.2500000   0.0000000), wk =   0.2500000
        k(    5) = (   0.2500000  -0.5000000   0.0000000), wk =   0.2500000
        k(    6) = (  -0.5000000  -0.5000000   0.0000000), wk =   0.1250000
        k(    7) = (   0.2500000   0.0000000   0.0000000), wk =   0.2500000
        k(    8) = (  -0.5000000   0.0000000   0.0000000), wk =   0.1250000
        k(    9) = (  -0.2500000   0.2500000   0.0000000), wk =   0.2500000
        k(   10) = (  -0.5000000   0.2500000   0.0000000), wk =   0.2500000

     Dense  grid:  1474595 G-vectors     FFT dimensions: ( 108, 108, 270)

     Smooth grid:   521381 G-vectors     FFT dimensions: (  75,  75, 192)

     Dynamical RAM for                 wfc:      10.90 MB

     Dynamical RAM for     wfc (w. buffer):      65.37 MB

     Dynamical RAM for           str. fact:       3.75 MB

     Dynamical RAM for           local pot:       0.00 MB

     Dynamical RAM for          nlocal pot:      24.94 MB

     Dynamical RAM for                qrad:       7.03 MB

     Dynamical RAM for          rho,v,vnew:       6.02 MB

     Dynamical RAM for               rhoin:       2.01 MB

     Dynamical RAM for            rho*nmix:      15.00 MB

     Dynamical RAM for           G-vectors:       3.68 MB

     Dynamical RAM for          h,s,v(r/c):       1.40 MB

     Dynamical RAM for          <psi|beta>:       2.42 MB

     Dynamical RAM for                 psi:      21.79 MB

     Dynamical RAM for                hpsi:      21.79 MB

     Dynamical RAM for                spsi:      21.79 MB

     Dynamical RAM for      wfcinit/wfcrot:      34.89 MB

     Dynamical RAM for           addusdens:     101.73 MB

     Estimated static dynamical RAM per process >     122.82 MB

     Estimated max dynamical RAM per process >     239.55 MB

     Estimated total dynamical RAM >      10.88 GB

     Check: negative core charge=   -0.000004

     Initial potential from superposition of free atoms

     starting charge     428.5961, renormalised to     437.0000

     negative rho (up, down):  7.813E-01 0.000E+00
     Starting wfcs are  381 randomized atomic wfcs
     Checking if some PAW data can be deallocated... 
       PAW data deallocated on   18 nodes for type:  2

     total cpu time spent up to now is        9.3 secs

     Self-consistent Calculation

     iteration #  1     ecut=    60.00 Ry     beta= 0.15
     Davidson diagonalization with overlap

---- Real-time Memory Report at c_bands before calling an iterative solver
             0 MiB given to the printing process from OS
             0 MiB allocation reported by mallinfo(arena+hblkhd)
          6327 MiB available memory on the node where the printing process lives
------------------
     ethr =  1.00E-02,  avg # of iterations =  2.0

     negative rho (up, down):  7.716E-01 0.000E+00

     total cpu time spent up to now is       25.1 secs

     total energy              =   -4489.31331743 Ry
     estimated scf accuracy    <      49.72940183 Ry

     iteration #  2     ecut=    60.00 Ry     beta= 0.15
     Davidson diagonalization with overlap

---- Real-time Memory Report at c_bands before calling an iterative solver
             0 MiB given to the printing process from OS
             0 MiB allocation reported by mallinfo(arena+hblkhd)
          6611 MiB available memory on the node where the printing process lives
------------------
     ethr =  1.00E-02,  avg # of iterations =  1.0

     negative rho (up, down):  7.613E-01 0.000E+00

     total cpu time spent up to now is       38.4 secs

     total energy              =   -4486.81241750 Ry
     estimated scf accuracy    <      35.38755629 Ry

     iteration #  3     ecut=    60.00 Ry     beta= 0.15
     Davidson diagonalization with overlap

---- Real-time Memory Report at c_bands before calling an iterative solver
             0 MiB given to the printing process from OS
             0 MiB allocation reported by mallinfo(arena+hblkhd)
          5823 MiB available memory on the node where the printing process lives
------------------
     ethr =  8.10E-03,  avg # of iterations =  1.0

     negative rho (up, down):  7.563E-01 0.000E+00

     total cpu time spent up to now is       51.5 secs

     total energy              =   -4486.77245165 Ry
     estimated scf accuracy    <      35.37588484 Ry

     iteration #  4     ecut=    60.00 Ry     beta= 0.15
     Davidson diagonalization with overlap

---- Real-time Memory Report at c_bands before calling an iterative solver
             0 MiB given to the printing process from OS
             0 MiB allocation reported by mallinfo(arena+hblkhd)
          5800 MiB available memory on the node where the printing process lives
------------------
     ethr =  8.10E-03,  avg # of iterations =  1.0

     negative rho (up, down):  7.576E-01 0.000E+00

     total cpu time spent up to now is       64.6 secs

     total energy              =   -4486.59577780 Ry
     estimated scf accuracy    <      34.23738211 Ry

     iteration #  5     ecut=    60.00 Ry     beta= 0.15
     Davidson diagonalization with overlap

---- Real-time Memory Report at c_bands before calling an iterative solver
             0 MiB given to the printing process from OS
             0 MiB allocation reported by mallinfo(arena+hblkhd)
          5786 MiB available memory on the node where the printing process lives
------------------
     ethr =  7.83E-03,  avg # of iterations =  1.0

     negative rho (up, down):  7.338E-01 0.000E+00

     total cpu time spent up to now is       77.6 secs

     total energy              =   -4482.54129533 Ry
     estimated scf accuracy    <      22.64484187 Ry

     iteration #  6     ecut=    60.00 Ry     beta= 0.15
     Davidson diagonalization with overlap

---- Real-time Memory Report at c_bands before calling an iterative solver
             0 MiB given to the printing process from OS
             0 MiB allocation reported by mallinfo(arena+hblkhd)
          5769 MiB available memory on the node where the printing process lives
------------------
     ethr =  5.18E-03,  avg # of iterations =  2.0

     negative rho (up, down):  7.488E-01 0.000E+00

     total cpu time spent up to now is       92.2 secs

     total energy              =   -4483.61091303 Ry
     estimated scf accuracy    <      34.01538818 Ry

     iteration #  7     ecut=    60.00 Ry     beta= 0.15
     Davidson diagonalization with overlap

---- Real-time Memory Report at c_bands before calling an iterative solver
             0 MiB given to the printing process from OS
             0 MiB allocation reported by mallinfo(arena+hblkhd)
          5748 MiB available memory on the node where the printing process lives
------------------
     ethr =  5.18E-03,  avg # of iterations =  1.0

     negative rho (up, down):  7.535E-01 0.000E+00

     total cpu time spent up to now is      105.2 secs

     total energy              =   -4483.66630301 Ry
     estimated scf accuracy    <      34.86356572 Ry

     iteration #  8     ecut=    60.00 Ry     beta= 0.15
     Davidson diagonalization with overlap

---- Real-time Memory Report at c_bands before calling an iterative solver
             0 MiB given to the printing process from OS
             0 MiB allocation reported by mallinfo(arena+hblkhd)
          5729 MiB available memory on the node where the printing process lives
------------------
     ethr =  5.18E-03,  avg # of iterations =  1.0

     negative rho (up, down):  7.512E-01 0.000E+00

     total cpu time spent up to now is      118.1 secs

     total energy              =   -4483.82020722 Ry
     estimated scf accuracy    <       6.13950644 Ry

     iteration #  9     ecut=    60.00 Ry     beta= 0.15
     Davidson diagonalization with overlap

---- Real-time Memory Report at c_bands before calling an iterative solver
             0 MiB given to the printing process from OS
             0 MiB allocation reported by mallinfo(arena+hblkhd)
          5708 MiB available memory on the node where the printing process lives
------------------
     ethr =  1.40E-03,  avg # of iterations =  3.7

     negative rho (up, down):  7.659E-01 0.000E+00

     total cpu time spent up to now is      133.1 secs

     total energy              =   -4483.74449150 Ry
     estimated scf accuracy    <       3.69726378 Ry

     iteration # 10     ecut=    60.00 Ry     beta= 0.15
     Davidson diagonalization with overlap

---- Real-time Memory Report at c_bands before calling an iterative solver
             0 MiB given to the printing process from OS
             0 MiB allocation reported by mallinfo(arena+hblkhd)
          5665 MiB available memory on the node where the printing process lives
------------------
     ethr =  8.46E-04,  avg # of iterations = 11.7

     negative rho (up, down):  7.889E-01 0.000E+00

     total cpu time spent up to now is      152.4 secs

     total energy              =   -4483.51871257 Ry
     estimated scf accuracy    <       4.55068023 Ry

     iteration # 11     ecut=    60.00 Ry     beta= 0.15
     Davidson diagonalization with overlap

---- Real-time Memory Report at c_bands before calling an iterative solver
             0 MiB given to the printing process from OS
             0 MiB allocation reported by mallinfo(arena+hblkhd)
          5319 MiB available memory on the node where the printing process lives
------------------
     ethr =  8.46E-04,  avg # of iterations =  5.9

     negative rho (up, down):  7.913E-01 0.000E+00

     total cpu time spent up to now is      169.3 secs

     total energy              =   -4483.18179365 Ry
     estimated scf accuracy    <       4.27356693 Ry

     iteration # 12     ecut=    60.00 Ry     beta= 0.15
     Davidson diagonalization with overlap

---- Real-time Memory Report at c_bands before calling an iterative solver
             0 MiB given to the printing process from OS
             0 MiB allocation reported by mallinfo(arena+hblkhd)
          5255 MiB available memory on the node where the printing process lives
------------------
     ethr =  8.46E-04,  avg # of iterations =  7.4

     negative rho (up, down):  8.018E-01 0.000E+00

     total cpu time spent up to now is      186.5 secs

     total energy              =   -4483.20798960 Ry
     estimated scf accuracy    <       2.08435379 Ry

     iteration # 13     ecut=    60.00 Ry     beta= 0.15
     Davidson diagonalization with overlap

---- Real-time Memory Report at c_bands before calling an iterative solver
             0 MiB given to the printing process from OS
             0 MiB allocation reported by mallinfo(arena+hblkhd)
          5216 MiB available memory on the node where the printing process lives
------------------
     ethr =  4.77E-04,  avg # of iterations =  2.4

     negative rho (up, down):  8.029E-01 0.000E+00

     total cpu time spent up to now is      201.4 secs

     total energy              =   -4483.25441732 Ry
     estimated scf accuracy    <       1.11356549 Ry

     iteration # 14     ecut=    60.00 Ry     beta= 0.15
     Davidson diagonalization with overlap

---- Real-time Memory Report at c_bands before calling an iterative solver
             0 MiB given to the printing process from OS
             0 MiB allocation reported by mallinfo(arena+hblkhd)
          5234 MiB available memory on the node where the printing process lives
------------------
     ethr =  2.55E-04,  avg # of iterations =  6.0

     negative rho (up, down):  8.155E-01 0.000E+00

     total cpu time spent up to now is      218.0 secs

     total energy              =   -4483.10804456 Ry
     estimated scf accuracy    <       0.72582800 Ry

     iteration # 15     ecut=    60.00 Ry     beta= 0.15
     Davidson diagonalization with overlap

---- Real-time Memory Report at c_bands before calling an iterative solver
             0 MiB given to the printing process from OS
             0 MiB allocation reported by mallinfo(arena+hblkhd)
          5743 MiB available memory on the node where the printing process lives
------------------
     ethr =  1.66E-04,  avg # of iterations =  6.5

     negative rho (up, down):  8.185E-01 0.000E+00

     total cpu time spent up to now is      234.8 secs

     total energy              =   -4483.13636334 Ry
     estimated scf accuracy    <       3.52035293 Ry

     iteration # 16     ecut=    60.00 Ry     beta= 0.15
     Davidson diagonalization with overlap

---- Real-time Memory Report at c_bands before calling an iterative solver
             0 MiB given to the printing process from OS
             0 MiB allocation reported by mallinfo(arena+hblkhd)
          5740 MiB available memory on the node where the printing process lives
------------------
     ethr =  1.66E-04,  avg # of iterations =  3.1

     negative rho (up, down):  8.146E-01 0.000E+00

     total cpu time spent up to now is      249.6 secs

     total energy              =   -4483.10581618 Ry
     estimated scf accuracy    <       1.38760926 Ry

     iteration # 17     ecut=    60.00 Ry     beta= 0.15
     Davidson diagonalization with overlap

---- Real-time Memory Report at c_bands before calling an iterative solver
             0 MiB given to the printing process from OS
             0 MiB allocation reported by mallinfo(arena+hblkhd)
          5747 MiB available memory on the node where the printing process lives
------------------
     ethr =  1.66E-04,  avg # of iterations =  2.3

     negative rho (up, down):  8.197E-01 0.000E+00

     total cpu time spent up to now is      264.1 secs

     total energy              =   -4483.04557451 Ry
     estimated scf accuracy    <       0.39090628 Ry

     iteration # 18     ecut=    60.00 Ry     beta= 0.15
     Davidson diagonalization with overlap

---- Real-time Memory Report at c_bands before calling an iterative solver
             0 MiB given to the printing process from OS
             0 MiB allocation reported by mallinfo(arena+hblkhd)
          5750 MiB available memory on the node where the printing process lives
------------------
     c_bands:  1 eigenvalues not converged
     ethr =  8.95E-05,  avg # of iterations = 14.6

     negative rho (up, down):  8.210E-01 0.000E+00

     total cpu time spent up to now is      284.8 secs

     total energy              =   -4483.03190157 Ry
     estimated scf accuracy    <       1.57538681 Ry

     iteration # 19     ecut=    60.00 Ry     beta= 0.15
     Davidson diagonalization with overlap

---- Real-time Memory Report at c_bands before calling an iterative solver
             0 MiB given to the printing process from OS
             0 MiB allocation reported by mallinfo(arena+hblkhd)
          5755 MiB available memory on the node where the printing process lives
------------------
     ethr =  8.95E-05,  avg # of iterations =  3.8

     negative rho (up, down):  8.291E-01 0.000E+00

     total cpu time spent up to now is      300.5 secs

     total energy              =   -4483.02532827 Ry
     estimated scf accuracy    <       0.51733880 Ry

     iteration # 20     ecut=    60.00 Ry     beta= 0.15
     Davidson diagonalization with overlap

---- Real-time Memory Report at c_bands before calling an iterative solver
             0 MiB given to the printing process from OS
             0 MiB allocation reported by mallinfo(arena+hblkhd)
          5739 MiB available memory on the node where the printing process lives
------------------
     ethr =  8.95E-05,  avg # of iterations =  4.3

     negative rho (up, down):  8.259E-01 0.000E+00

     total cpu time spent up to now is      316.7 secs

     total energy              =   -4482.97754701 Ry
     estimated scf accuracy    <       0.71338412 Ry

     iteration # 21     ecut=    60.00 Ry     beta= 0.15
     Davidson diagonalization with overlap

---- Real-time Memory Report at c_bands before calling an iterative solver
             0 MiB given to the printing process from OS
             0 MiB allocation reported by mallinfo(arena+hblkhd)
          5737 MiB available memory on the node where the printing process lives
------------------
     ethr =  8.95E-05,  avg # of iterations =  9.1

     negative rho (up, down):  8.421E-01 0.000E+00

     total cpu time spent up to now is      335.1 secs

     total energy              =   -4482.97889634 Ry
     estimated scf accuracy    <       0.09679077 Ry

     iteration # 22     ecut=    60.00 Ry     beta= 0.15
     Davidson diagonalization with overlap

---- Real-time Memory Report at c_bands before calling an iterative solver
             0 MiB given to the printing process from OS
             0 MiB allocation reported by mallinfo(arena+hblkhd)
          5726 MiB available memory on the node where the printing process lives
------------------
     ethr =  2.21E-05,  avg # of iterations = 11.0

     negative rho (up, down):  8.402E-01 0.000E+00

     total cpu time spent up to now is      355.6 secs

     total energy              =   -4482.97669590 Ry
     estimated scf accuracy    <       0.04870816 Ry

     iteration # 23     ecut=    60.00 Ry     beta= 0.15
     Davidson diagonalization with overlap

---- Real-time Memory Report at c_bands before calling an iterative solver
             0 MiB given to the printing process from OS
             0 MiB allocation reported by mallinfo(arena+hblkhd)
          5585 MiB available memory on the node where the printing process lives
------------------
     ethr =  1.11E-05,  avg # of iterations =  2.7

     negative rho (up, down):  8.252E-01 0.000E+00

     total cpu time spent up to now is      371.4 secs

     total energy              =   -4482.97135141 Ry
     estimated scf accuracy    <       0.03183194 Ry

     iteration # 24     ecut=    60.00 Ry     beta= 0.15
     Davidson diagonalization with overlap

---- Real-time Memory Report at c_bands before calling an iterative solver
             0 MiB given to the printing process from OS
             0 MiB allocation reported by mallinfo(arena+hblkhd)
          5624 MiB available memory on the node where the printing process lives
------------------
     ethr =  7.28E-06,  avg # of iterations = 12.2

     negative rho (up, down):  8.200E-01 0.000E+00

     total cpu time spent up to now is      392.1 secs

     total energy              =   -4482.97154334 Ry
     estimated scf accuracy    <       0.01475520 Ry

     iteration # 25     ecut=    60.00 Ry     beta= 0.15
     Davidson diagonalization with overlap

---- Real-time Memory Report at c_bands before calling an iterative solver
             0 MiB given to the printing process from OS
             0 MiB allocation reported by mallinfo(arena+hblkhd)
          5600 MiB available memory on the node where the printing process lives
------------------
     ethr =  3.38E-06,  avg # of iterations =  2.3

     negative rho (up, down):  8.110E-01 0.000E+00

     total cpu time spent up to now is      407.5 secs

     total energy              =   -4482.97011859 Ry
     estimated scf accuracy    <       0.01054546 Ry

     iteration # 26     ecut=    60.00 Ry     beta= 0.15
     Davidson diagonalization with overlap

---- Real-time Memory Report at c_bands before calling an iterative solver
             0 MiB given to the printing process from OS
             0 MiB allocation reported by mallinfo(arena+hblkhd)
          5591 MiB available memory on the node where the printing process lives
------------------
     ethr =  2.41E-06,  avg # of iterations =  7.5

     negative rho (up, down):  7.964E-01 0.000E+00

     total cpu time spent up to now is      425.2 secs

     total energy              =   -4482.96880973 Ry
     estimated scf accuracy    <       0.00565131 Ry

     iteration # 27     ecut=    60.00 Ry     beta= 0.15
     Davidson diagonalization with overlap

---- Real-time Memory Report at c_bands before calling an iterative solver
             0 MiB given to the printing process from OS
             0 MiB allocation reported by mallinfo(arena+hblkhd)
          5567 MiB available memory on the node where the printing process lives
------------------
     ethr =  1.29E-06,  avg # of iterations = 12.2

     negative rho (up, down):  7.980E-01 0.000E+00

     total cpu time spent up to now is      446.8 secs

     total energy              =   -4482.96927464 Ry
     estimated scf accuracy    <       0.00141031 Ry

     iteration # 28     ecut=    60.00 Ry     beta= 0.15
     Davidson diagonalization with overlap

---- Real-time Memory Report at c_bands before calling an iterative solver
             0 MiB given to the printing process from OS
             0 MiB allocation reported by mallinfo(arena+hblkhd)
          5413 MiB available memory on the node where the printing process lives
------------------
     ethr =  3.23E-07,  avg # of iterations =  4.4

     negative rho (up, down):  7.956E-01 0.000E+00

     total cpu time spent up to now is      462.8 secs

     total energy              =   -4482.96929590 Ry
     estimated scf accuracy    <       0.00078659 Ry

     iteration # 29     ecut=    60.00 Ry     beta= 0.15
     Davidson diagonalization with overlap

---- Real-time Memory Report at c_bands before calling an iterative solver
             0 MiB given to the printing process from OS
             0 MiB allocation reported by mallinfo(arena+hblkhd)
          5410 MiB available memory on the node where the printing process lives
------------------
     ethr =  1.80E-07,  avg # of iterations =  3.6

     negative rho (up, down):  7.942E-01 0.000E+00

     total cpu time spent up to now is      478.8 secs

     total energy              =   -4482.96925147 Ry
     estimated scf accuracy    <       0.00055070 Ry

     iteration # 30     ecut=    60.00 Ry     beta= 0.15
     Davidson diagonalization with overlap

---- Real-time Memory Report at c_bands before calling an iterative solver
             0 MiB given to the printing process from OS
             0 MiB allocation reported by mallinfo(arena+hblkhd)
          5444 MiB available memory on the node where the printing process lives
------------------
     ethr =  1.26E-07,  avg # of iterations =  3.5

     negative rho (up, down):  7.929E-01 0.000E+00

     total cpu time spent up to now is      494.9 secs

     total energy              =   -4482.96922519 Ry
     estimated scf accuracy    <       0.00037196 Ry

     iteration # 31     ecut=    60.00 Ry     beta= 0.15
     Davidson diagonalization with overlap

---- Real-time Memory Report at c_bands before calling an iterative solver
             0 MiB given to the printing process from OS
             0 MiB allocation reported by mallinfo(arena+hblkhd)
          5477 MiB available memory on the node where the printing process lives
------------------
     c_bands:  1 eigenvalues not converged
     ethr =  8.51E-08,  avg # of iterations =  7.9

     negative rho (up, down):  7.928E-01 0.000E+00

     total cpu time spent up to now is      512.9 secs

     total energy              =   -4482.96917191 Ry
     estimated scf accuracy    <       0.00022129 Ry

     iteration # 32     ecut=    60.00 Ry     beta= 0.15
     Davidson diagonalization with overlap

---- Real-time Memory Report at c_bands before calling an iterative solver
             0 MiB given to the printing process from OS
             0 MiB allocation reported by mallinfo(arena+hblkhd)
          5448 MiB available memory on the node where the printing process lives
------------------
     ethr =  5.06E-08,  avg # of iterations =  5.4

     negative rho (up, down):  7.925E-01 0.000E+00

     total cpu time spent up to now is      530.1 secs

     total energy              =   -4482.96915107 Ry
     estimated scf accuracy    <       0.00011911 Ry

     iteration # 33     ecut=    60.00 Ry     beta= 0.15
     Davidson diagonalization with overlap

---- Real-time Memory Report at c_bands before calling an iterative solver
             0 MiB given to the printing process from OS
             0 MiB allocation reported by mallinfo(arena+hblkhd)
          5454 MiB available memory on the node where the printing process lives
------------------
     ethr =  2.73E-08,  avg # of iterations =  3.1

     negative rho (up, down):  7.921E-01 0.000E+00

     total cpu time spent up to now is      545.8 secs

     total energy              =   -4482.96915511 Ry
     estimated scf accuracy    <       0.00006286 Ry

     iteration # 34     ecut=    60.00 Ry     beta= 0.15
     Davidson diagonalization with overlap

---- Real-time Memory Report at c_bands before calling an iterative solver
             0 MiB given to the printing process from OS
             0 MiB allocation reported by mallinfo(arena+hblkhd)
          5451 MiB available memory on the node where the printing process lives
------------------
     ethr =  1.44E-08,  avg # of iterations =  2.7

     negative rho (up, down):  7.920E-01 0.000E+00

     total cpu time spent up to now is      561.3 secs

     total energy              =   -4482.96916918 Ry
     estimated scf accuracy    <       0.00002643 Ry

     iteration # 35     ecut=    60.00 Ry     beta= 0.15
     Davidson diagonalization with overlap

---- Real-time Memory Report at c_bands before calling an iterative solver
             0 MiB given to the printing process from OS
             0 MiB allocation reported by mallinfo(arena+hblkhd)
          5469 MiB available memory on the node where the printing process lives
------------------
     ethr =  6.05E-09,  avg # of iterations =  4.3

     negative rho (up, down):  7.920E-01 0.000E+00

     total cpu time spent up to now is      577.4 secs

     total energy              =   -4482.96917960 Ry
     estimated scf accuracy    <       0.00001276 Ry

     iteration # 36     ecut=    60.00 Ry     beta= 0.15
     Davidson diagonalization with overlap

---- Real-time Memory Report at c_bands before calling an iterative solver
             0 MiB given to the printing process from OS
             0 MiB allocation reported by mallinfo(arena+hblkhd)
          5468 MiB available memory on the node where the printing process lives
------------------
     ethr =  2.92E-09,  avg # of iterations =  3.8

     negative rho (up, down):  7.921E-01 0.000E+00

     total cpu time spent up to now is      592.9 secs

     total energy              =   -4482.96918447 Ry
     estimated scf accuracy    <       0.00000806 Ry

     iteration # 37     ecut=    60.00 Ry     beta= 0.15
     Davidson diagonalization with overlap

---- Real-time Memory Report at c_bands before calling an iterative solver
             0 MiB given to the printing process from OS
             0 MiB allocation reported by mallinfo(arena+hblkhd)
          5478 MiB available memory on the node where the printing process lives
------------------
     ethr =  1.84E-09,  avg # of iterations =  4.4

     negative rho (up, down):  7.923E-01 0.000E+00

     total cpu time spent up to now is      608.8 secs

     total energy              =   -4482.96918934 Ry
     estimated scf accuracy    <       0.00000578 Ry

     iteration # 38     ecut=    60.00 Ry     beta= 0.15
     Davidson diagonalization with overlap

---- Real-time Memory Report at c_bands before calling an iterative solver
             0 MiB given to the printing process from OS
             0 MiB allocation reported by mallinfo(arena+hblkhd)
          5485 MiB available memory on the node where the printing process lives
------------------
     ethr =  1.32E-09,  avg # of iterations =  5.0

     negative rho (up, down):  7.924E-01 0.000E+00

     total cpu time spent up to now is      624.9 secs

     total energy              =   -4482.96918992 Ry
     estimated scf accuracy    <       0.00000314 Ry

     iteration # 39     ecut=    60.00 Ry     beta= 0.15
     Davidson diagonalization with overlap

---- Real-time Memory Report at c_bands before calling an iterative solver
             0 MiB given to the printing process from OS
             0 MiB allocation reported by mallinfo(arena+hblkhd)
          5493 MiB available memory on the node where the printing process lives
------------------
     ethr =  7.19E-10,  avg # of iterations =  4.6

     negative rho (up, down):  7.924E-01 0.000E+00

     total cpu time spent up to now is      640.8 secs

     total energy              =   -4482.96918976 Ry
     estimated scf accuracy    <       0.00000229 Ry

     iteration # 40     ecut=    60.00 Ry     beta= 0.15
     Davidson diagonalization with overlap

---- Real-time Memory Report at c_bands before calling an iterative solver
             0 MiB given to the printing process from OS
             0 MiB allocation reported by mallinfo(arena+hblkhd)
          5430 MiB available memory on the node where the printing process lives
------------------
     ethr =  5.25E-10,  avg # of iterations =  3.7

     negative rho (up, down):  7.923E-01 0.000E+00

     total cpu time spent up to now is      656.2 secs

     total energy              =   -4482.96918964 Ry
     estimated scf accuracy    <       0.00000162 Ry

     iteration # 41     ecut=    60.00 Ry     beta= 0.15
     Davidson diagonalization with overlap

---- Real-time Memory Report at c_bands before calling an iterative solver
             0 MiB given to the printing process from OS
             0 MiB allocation reported by mallinfo(arena+hblkhd)
          5435 MiB available memory on the node where the printing process lives
------------------
     ethr =  3.70E-10,  avg # of iterations =  2.8

     negative rho (up, down):  7.923E-01 0.000E+00

     total cpu time spent up to now is      671.4 secs

     total energy              =   -4482.96918963 Ry
     estimated scf accuracy    <       0.00000107 Ry

     iteration # 42     ecut=    60.00 Ry     beta= 0.15
     Davidson diagonalization with overlap

---- Real-time Memory Report at c_bands before calling an iterative solver
             0 MiB given to the printing process from OS
             0 MiB allocation reported by mallinfo(arena+hblkhd)
          5477 MiB available memory on the node where the printing process lives
------------------
     ethr =  2.45E-10,  avg # of iterations =  3.3

     negative rho (up, down):  7.923E-01 0.000E+00

     total cpu time spent up to now is      686.4 secs

     total energy              =   -4482.96918971 Ry
     estimated scf accuracy    <       0.00000087 Ry

     iteration # 43     ecut=    60.00 Ry     beta= 0.15
     Davidson diagonalization with overlap

---- Real-time Memory Report at c_bands before calling an iterative solver
             0 MiB given to the printing process from OS
             0 MiB allocation reported by mallinfo(arena+hblkhd)
          5481 MiB available memory on the node where the printing process lives
------------------
     ethr =  1.99E-10,  avg # of iterations =  2.2

     negative rho (up, down):  7.922E-01 0.000E+00

     total cpu time spent up to now is      701.3 secs

     total energy              =   -4482.96918989 Ry
     estimated scf accuracy    <       0.00000082 Ry

     iteration # 44     ecut=    60.00 Ry     beta= 0.15
     Davidson diagonalization with overlap

---- Real-time Memory Report at c_bands before calling an iterative solver
             0 MiB given to the printing process from OS
             0 MiB allocation reported by mallinfo(arena+hblkhd)
          5483 MiB available memory on the node where the printing process lives
------------------
     ethr =  1.87E-10,  avg # of iterations =  3.9

     negative rho (up, down):  7.922E-01 0.000E+00

     total cpu time spent up to now is      716.7 secs

     total energy              =   -4482.96918999 Ry
     estimated scf accuracy    <       0.00000057 Ry

     iteration # 45     ecut=    60.00 Ry     beta= 0.15
     Davidson diagonalization with overlap

---- Real-time Memory Report at c_bands before calling an iterative solver
             0 MiB given to the printing process from OS
             0 MiB allocation reported by mallinfo(arena+hblkhd)
          5489 MiB available memory on the node where the printing process lives
------------------
     ethr =  1.30E-10,  avg # of iterations =  3.5

     negative rho (up, down):  7.922E-01 0.000E+00

     total cpu time spent up to now is      732.1 secs

     total energy              =   -4482.96918998 Ry
     estimated scf accuracy    <       0.00000028 Ry

     iteration # 46     ecut=    60.00 Ry     beta= 0.15
     Davidson diagonalization with overlap

---- Real-time Memory Report at c_bands before calling an iterative solver
             0 MiB given to the printing process from OS
             0 MiB allocation reported by mallinfo(arena+hblkhd)
          5492 MiB available memory on the node where the printing process lives
------------------
     ethr =  6.36E-11,  avg # of iterations =  3.2

     negative rho (up, down):  7.922E-01 0.000E+00

     total cpu time spent up to now is      747.2 secs

     total energy              =   -4482.96918997 Ry
     estimated scf accuracy    <       0.00000017 Ry

     iteration # 47     ecut=    60.00 Ry     beta= 0.15
     Davidson diagonalization with overlap

---- Real-time Memory Report at c_bands before calling an iterative solver
             0 MiB given to the printing process from OS
             0 MiB allocation reported by mallinfo(arena+hblkhd)
          5500 MiB available memory on the node where the printing process lives
------------------
     ethr =  3.91E-11,  avg # of iterations =  4.6

     negative rho (up, down):  7.922E-01 0.000E+00

     total cpu time spent up to now is      763.6 secs

     total energy              =   -4482.96918997 Ry
     estimated scf accuracy    <       0.00000009 Ry

     iteration # 48     ecut=    60.00 Ry     beta= 0.15
     Davidson diagonalization with overlap

---- Real-time Memory Report at c_bands before calling an iterative solver
             0 MiB given to the printing process from OS
             0 MiB allocation reported by mallinfo(arena+hblkhd)
          5502 MiB available memory on the node where the printing process lives
------------------
     ethr =  2.07E-11,  avg # of iterations =  3.4

     negative rho (up, down):  7.923E-01 0.000E+00

     total cpu time spent up to now is      779.2 secs

     total energy              =   -4482.96918997 Ry
     estimated scf accuracy    <       0.00000006 Ry

     iteration # 49     ecut=    60.00 Ry     beta= 0.15
     Davidson diagonalization with overlap

---- Real-time Memory Report at c_bands before calling an iterative solver
             0 MiB given to the printing process from OS
             0 MiB allocation reported by mallinfo(arena+hblkhd)
          5505 MiB available memory on the node where the printing process lives
------------------
     ethr =  1.46E-11,  avg # of iterations =  4.6

     negative rho (up, down):  7.923E-01 0.000E+00

     total cpu time spent up to now is      794.9 secs

     total energy              =   -4482.96919002 Ry
     estimated scf accuracy    <       0.00000004 Ry

     iteration # 50     ecut=    60.00 Ry     beta= 0.15
     Davidson diagonalization with overlap

---- Real-time Memory Report at c_bands before calling an iterative solver
             0 MiB given to the printing process from OS
             0 MiB allocation reported by mallinfo(arena+hblkhd)
          5506 MiB available memory on the node where the printing process lives
------------------
     ethr =  8.23E-12,  avg # of iterations =  5.2

     negative rho (up, down):  7.923E-01 0.000E+00

     total cpu time spent up to now is      811.1 secs

     total energy              =   -4482.96919004 Ry
     estimated scf accuracy    <       0.00000001 Ry

     iteration # 51     ecut=    60.00 Ry     beta= 0.15
     Davidson diagonalization with overlap

---- Real-time Memory Report at c_bands before calling an iterative solver
             0 MiB given to the printing process from OS
             0 MiB allocation reported by mallinfo(arena+hblkhd)
          5502 MiB available memory on the node where the printing process lives
------------------
     ethr =  2.80E-12,  avg # of iterations =  3.7

     negative rho (up, down):  7.923E-01 0.000E+00

     total cpu time spent up to now is      826.5 secs

     End of self-consistent calculation

          k = 0.0000 0.0000 0.0000 ( 65197 PWs)   bands (ev):

   -92.3277 -92.2718 -92.1815 -92.1324 -92.0730 -92.0339 -92.0169 -91.8945
   -55.6808 -55.6581 -55.5394 -55.5289 -55.5209 -55.5156 -55.4774 -55.4512
   -55.4351 -55.4328 -55.4229 -55.3819 -55.3633 -55.3252 -55.3073 -55.2724
   -55.2678 -55.2231 -55.2206 -55.2198 -55.2112 -55.1691 -55.1476 -55.0614
   -30.9149 -30.8957 -30.8122 -30.7549 -30.7259 -30.6681 -30.5343 -30.4179
   -29.4797 -29.4359 -29.4104 -29.3015 -22.2470 -14.7130 -14.6768 -14.5918
   -14.4607 -14.2794 -14.1549 -13.8541 -13.8387 -13.8047 -13.7691 -13.7629
   -13.7225 -13.7145 -13.6982 -13.6834 -13.6620 -13.6312 -13.5627 -13.4159
   -13.2473 -13.2056 -13.1719 -13.1481 -13.1271 -13.0830 -13.0422 -12.9618
   -12.8894 -12.8226 -12.8030 -12.7477 -12.7374 -12.7128 -12.6970 -12.6849
   -12.6528 -12.6323 -12.6164 -12.6065 -12.5907 -12.5663 -12.5566 -12.5380
   -12.4885 -12.4689 -12.4476 -12.3585 -12.3271 -12.3169 -11.9800 -11.8351
   -11.7131 -11.6396 -11.4935 -11.4188 -11.4076 -11.3854 -11.3677 -11.3037
   -11.2865 -11.2518 -11.2232 -11.1115 -11.0309 -11.0273  -5.8237  -3.1556
    -3.1451  -2.5737  -2.3399  -2.1104  -1.9651  -1.9002  -1.7573  -1.4517
    -1.4375  -1.4158  -1.3348  -1.3157  -1.2476  -1.2320  -1.1898  -1.1437
    -0.9642  -0.7420  -0.7131  -0.5612  -0.5477  -0.5045  -0.4869  -0.4425
    -0.4274  -0.3647  -0.3387  -0.2725  -0.2584  -0.1776  -0.0523  -0.0370
    -0.0083   0.0682   0.0747   0.0882   0.1606   0.2384   0.2605   0.3313
     0.3531   0.4083   0.4973   0.5477   0.5705   0.5771   0.8297   0.8449
     1.0148   1.0863   1.1481   1.1946   1.2852   1.3003   1.3179   1.3847
     1.4131   1.4483   1.5069   1.6426   1.6941   1.7173   1.7328   1.7413
     1.8126   1.8926   1.9816   1.9961   2.0539   2.0772   2.1137   2.1373
     2.1425   2.1983   2.2481   2.2587   2.2884   2.3334   2.3902   2.5191
     2.5961   2.6480   2.6632   2.8106   2.8268   2.8721   2.8845   2.9862
     3.0237   3.0478   3.0611   3.0690   3.0851   3.0968   3.1612   3.2740
     3.3062   3.3214   3.3287   3.3943   3.3985   3.4236   3.4324   3.4401
     3.4500   3.4578   3.4704   3.4762   3.4905   3.4993   3.5068   3.5270
     3.5481   3.5536   3.5648   3.5839   3.7058   3.7573   4.4301   4.7647
     4.7967   5.1489   5.3907   5.4936   5.6821   6.2833   6.3268   6.3663
     6.6215   6.6396   6.6850   6.7346   6.9538   7.1898   7.2610   7.3937
     7.4285   7.6583   7.7589   7.8904   7.9430   7.9691   8.0072   8.0534
     8.3040   8.3623   8.3940   8.4267   8.4612   8.5780   8.6619

     occupation numbers 
     1.0000   1.0000   1.0000   1.0000   1.0000   1.0000   1.0000   1.0000
     1.0000   1.0000   1.0000   1.0000   1.0000   1.0000   1.0000   1.0000
     1.0000   1.0000   1.0000   1.0000   1.0000   1.0000   1.0000   1.0000
     1.0000   1.0000   1.0000   1.0000   1.0000   1.0000   1.0000   1.0000
     1.0000   1.0000   1.0000   1.0000   1.0000   1.0000   1.0000   1.0000
     1.0000   1.0000   1.0000   1.0000   1.0000   1.0000   1.0000   1.0000
     1.0000   1.0000   1.0000   1.0000   1.0000   1.0000   1.0000   1.0000
     1.0000   1.0000   1.0000   1.0000   1.0000   1.0000   1.0000   1.0000
     1.0000   1.0000   1.0000   1.0000   1.0000   1.0000   1.0000   1.0000
     1.0000   1.0000   1.0000   1.0000   1.0000   1.0000   1.0000   1.0000
     1.0000   1.0000   1.0000   1.0000   1.0000   1.0000   1.0000   1.0000
     1.0000   1.0000   1.0000   1.0000   1.0000   1.0000   1.0000   1.0000
     1.0000   1.0000   1.0000   1.0000   1.0000   1.0000   1.0000   1.0000
     1.0000   1.0000   1.0000   1.0000   1.0000   1.0000   1.0000   1.0000
     1.0000   1.0000   1.0000   1.0000   1.0000   1.0000   1.0000   1.0000
     1.0000   1.0000   1.0000   1.0000   1.0000   1.0000   1.0000   1.0000
     1.0000   1.0000   1.0000   1.0000   1.0000   1.0000   1.0000   1.0000
     1.0000   1.0000   1.0000   1.0000   1.0000   1.0000   1.0000   1.0000
     1.0000   1.0000   1.0000   1.0000   1.0000   1.0000   1.0000   1.0000
     1.0000   1.0000   1.0000   1.0000   1.0000   1.0000   1.0000   1.0000
     1.0000   0.9999   0.9999   0.9999   0.9998   0.9998   0.9998   0.9997
     0.9997   0.9996   0.9994   0.9989   0.9985   0.9984   0.9982   0.9982
     0.9974   0.9963   0.9946   0.9943   0.9927   0.9920   0.9907   0.9898
     0.9896   0.9871   0.9844   0.9837   0.9819   0.9787   0.9740   0.9601
     0.9492   0.9406   0.9379   0.9063   0.9023   0.8901   0.8866   0.8549
     0.8419   0.8331   0.8281   0.8251   0.8188   0.8142   0.7876   0.7358
     0.7199   0.7123   0.7086   0.6743   0.6721   0.6585   0.6537   0.6495
     0.6440   0.6397   0.6327   0.6294   0.6213   0.6163   0.6121   0.6006
     0.5884   0.5853   0.5788   0.5676   0.4957   0.4653   0.1387   0.0567
     0.0515   0.0156   0.0060   0.0038   0.0016   0.0001   0.0000   0.0000
     0.0000   0.0000   0.0000   0.0000   0.0000   0.0000   0.0000   0.0000
     0.0000   0.0000   0.0000   0.0000   0.0000   0.0000   0.0000   0.0000
     0.0000   0.0000   0.0000   0.0000   0.0000   0.0000   0.0000

          k = 0.0000 0.2500 0.0000 ( 65257 PWs)   bands (ev):

   -92.3277 -92.2718 -92.1815 -92.1324 -92.0730 -92.0339 -92.0169 -91.8945
   -55.6808 -55.6581 -55.5394 -55.5289 -55.5209 -55.5156 -55.4774 -55.4512
   -55.4351 -55.4328 -55.4229 -55.3819 -55.3633 -55.3252 -55.3073 -55.2724
   -55.2678 -55.2231 -55.2206 -55.2198 -55.2112 -55.1691 -55.1476 -55.0614
   -30.9147 -30.8955 -30.8119 -30.7551 -30.7263 -30.6682 -30.5341 -30.4182
   -29.4791 -29.4356 -29.4111 -29.3018 -22.2470 -14.6759 -14.6507 -14.5667
   -14.4317 -14.3170 -14.1459 -13.9993 -13.8198 -13.7915 -13.7700 -13.7667
   -13.7401 -13.6832 -13.6775 -13.6621 -13.6470 -13.6150 -13.4830 -13.4466
   -13.2843 -13.2720 -13.2148 -13.1802 -13.1400 -13.0997 -13.0626 -12.9815
   -12.9490 -12.9221 -12.8585 -12.7941 -12.7839 -12.7454 -12.7289 -12.6706
   -12.6208 -12.5953 -12.5724 -12.5489 -12.5454 -12.5216 -12.5023 -12.4825
   -12.4501 -12.4356 -12.4205 -12.3566 -12.2392 -12.1706 -12.0413 -11.8864
   -11.7692 -11.7062 -11.4589 -11.4156 -11.3882 -11.3596 -11.3429 -11.2957
   -11.2843 -11.2620 -11.2280 -11.1257 -11.0726 -11.0619  -5.8237  -3.1558
    -3.1451  -2.4384  -2.2155  -2.0785  -1.8966  -1.8530  -1.6882  -1.4718
    -1.3837  -1.3707  -1.3159  -1.2124  -1.1973  -1.1621  -1.1375  -1.0939
    -0.8953  -0.7679  -0.7552  -0.6799  -0.6680  -0.5635  -0.5325  -0.4785
    -0.4541  -0.4090  -0.3477  -0.3229  -0.2888  -0.2602  -0.2424  -0.2088
    -0.1365  -0.0825  -0.0259   0.0846   0.1034   0.1473   0.2653   0.2995
     0.3634   0.4139   0.4799   0.4972   0.5246   0.5800   0.8775   0.9653
     0.9936   1.0850   1.1280   1.1465   1.2765   1.2947   1.3853   1.4109
     1.4425   1.5582   1.6421   1.6704   1.6932   1.7092   1.7408   1.8017
     1.8268   1.8530   1.9033   1.9324   1.9608   2.0361   2.0694   2.1075
     2.1640   2.2135   2.2450   2.2779   2.3150   2.3353   2.4256   2.5528
     2.6260   2.6465   2.7267   2.7699   2.8061   2.8143   2.8812   2.9239
     3.0047   3.0399   3.0558   3.0594   3.0985   3.2351   3.2567   3.2881
     3.3088   3.3276   3.3367   3.3443   3.3528   3.3826   3.3850   3.4021
     3.4053   3.4183   3.4338   3.4441   3.4553   3.4783   3.4886   3.4935
     3.5285   3.5452   3.6062   3.9549   3.9892   4.2480   4.6139   4.7591
     4.9118   5.0915   5.4237   5.5375   5.8108   5.9073   6.1687   6.3216
     6.3444   6.4685   6.5341   6.7497   6.8919   7.0382   7.2582   7.5172
     7.5597   7.7350   7.8043   7.8716   7.9077   7.9331   8.0881   8.1863
     8.2665   8.3730   8.5235   8.5913   8.6141   8.6888   8.9452

     occupation numbers 
     1.0000   1.0000   1.0000   1.0000   1.0000   1.0000   1.0000   1.0000
     1.0000   1.0000   1.0000   1.0000   1.0000   1.0000   1.0000   1.0000
     1.0000   1.0000   1.0000   1.0000   1.0000   1.0000   1.0000   1.0000
     1.0000   1.0000   1.0000   1.0000   1.0000   1.0000   1.0000   1.0000
     1.0000   1.0000   1.0000   1.0000   1.0000   1.0000   1.0000   1.0000
     1.0000   1.0000   1.0000   1.0000   1.0000   1.0000   1.0000   1.0000
     1.0000   1.0000   1.0000   1.0000   1.0000   1.0000   1.0000   1.0000
     1.0000   1.0000   1.0000   1.0000   1.0000   1.0000   1.0000   1.0000
     1.0000   1.0000   1.0000   1.0000   1.0000   1.0000   1.0000   1.0000
     1.0000   1.0000   1.0000   1.0000   1.0000   1.0000   1.0000   1.0000
     1.0000   1.0000   1.0000   1.0000   1.0000   1.0000   1.0000   1.0000
     1.0000   1.0000   1.0000   1.0000   1.0000   1.0000   1.0000   1.0000
     1.0000   1.0000   1.0000   1.0000   1.0000   1.0000   1.0000   1.0000
     1.0000   1.0000   1.0000   1.0000   1.0000   1.0000   1.0000   1.0000
     1.0000   1.0000   1.0000   1.0000   1.0000   1.0000   1.0000   1.0000
     1.0000   1.0000   1.0000   1.0000   1.0000   1.0000   1.0000   1.0000
     1.0000   1.0000   1.0000   1.0000   1.0000   1.0000   1.0000   1.0000
     1.0000   1.0000   1.0000   1.0000   1.0000   1.0000   1.0000   1.0000
     1.0000   1.0000   1.0000   1.0000   1.0000   1.0000   1.0000   1.0000
     1.0000   1.0000   1.0000   1.0000   1.0000   1.0000   1.0000   1.0000
     1.0000   0.9999   0.9999   0.9999   0.9998   0.9998   0.9997   0.9997
     0.9996   0.9993   0.9989   0.9987   0.9985   0.9984   0.9982   0.9976
     0.9973   0.9969   0.9962   0.9956   0.9951   0.9932   0.9922   0.9909
     0.9887   0.9863   0.9846   0.9826   0.9800   0.9785   0.9706   0.9556
     0.9444   0.9409   0.9255   0.9161   0.9075   0.9054   0.8876   0.8750
     0.8486   0.8360   0.8301   0.8287   0.8136   0.7543   0.7441   0.7289
     0.7187   0.7091   0.7045   0.7006   0.6962   0.6805   0.6793   0.6701
     0.6684   0.6614   0.6529   0.6472   0.6411   0.6282   0.6224   0.6196
     0.5997   0.5901   0.5546   0.3518   0.3331   0.2073   0.0870   0.0577
     0.0358   0.0193   0.0052   0.0032   0.0009   0.0005   0.0001   0.0000
     0.0000   0.0000   0.0000   0.0000   0.0000   0.0000   0.0000   0.0000
     0.0000   0.0000   0.0000   0.0000   0.0000   0.0000   0.0000   0.0000
     0.0000   0.0000   0.0000   0.0000   0.0000   0.0000   0.0000

          k = 0.0000-0.5000 0.0000 ( 65180 PWs)   bands (ev):

   -92.3277 -92.2718 -92.1815 -92.1324 -92.0730 -92.0339 -92.0169 -91.8945
   -55.6808 -55.6581 -55.5394 -55.5289 -55.5209 -55.5156 -55.4774 -55.4512
   -55.4351 -55.4328 -55.4229 -55.3819 -55.3633 -55.3252 -55.3073 -55.2724
   -55.2678 -55.2231 -55.2206 -55.2198 -55.2112 -55.1691 -55.1476 -55.0614
   -30.9145 -30.8954 -30.8115 -30.7553 -30.7267 -30.6684 -30.5338 -30.4185
   -29.4784 -29.4353 -29.4117 -29.3021 -22.2470 -14.6440 -14.5952 -14.5435
   -14.4199 -14.3304 -14.1936 -14.0484 -13.9253 -13.7893 -13.7679 -13.7329
   -13.6863 -13.6702 -13.6269 -13.6058 -13.5598 -13.5447 -13.5161 -13.4809
   -13.4651 -13.4166 -13.2164 -13.1622 -13.1494 -13.0899 -13.0829 -12.9943
   -12.9855 -12.9318 -12.9217 -12.8565 -12.7836 -12.7453 -12.7219 -12.7135
   -12.6066 -12.5944 -12.5669 -12.5405 -12.5199 -12.5191 -12.4851 -12.4387
   -12.4000 -12.3621 -12.3422 -12.2889 -12.1524 -12.1051 -11.9622 -11.9605
   -11.8762 -11.8326 -11.4125 -11.4106 -11.3834 -11.3451 -11.3112 -11.3003
   -11.2576 -11.2536 -11.2095 -11.1472 -11.1333 -11.1189  -5.8237  -3.1560
    -3.1451  -2.2240  -2.1638  -2.0125  -1.9398  -1.6610  -1.5768  -1.4486
    -1.3100  -1.2756  -1.2543  -1.1746  -1.1448  -1.0628  -1.0278  -0.9523
    -0.9102  -0.8704  -0.8439  -0.7888  -0.7509  -0.7051  -0.6691  -0.6342
    -0.6006  -0.4901  -0.4447  -0.4132  -0.4121  -0.3261  -0.2921  -0.2706
    -0.2222  -0.1384  -0.0708   0.0089   0.0348   0.1400   0.1878   0.3389
     0.3634   0.3960   0.4532   0.5694   0.6134   0.7611   0.8246   0.8331
     0.9612   0.9962   1.1075   1.2388   1.3469   1.3773   1.4098   1.4173
     1.4596   1.4766   1.5128   1.5283   1.5399   1.6486   1.7073   1.7352
     1.7623   2.0159   2.0509   2.0696   2.1633   2.1916   2.2202   2.2372
     2.2725   2.2807   2.2915   2.3260   2.3667   2.3939   2.4192   2.4347
     2.4638   2.5171   2.5953   2.6191   2.8062   2.9709   2.9791   2.9976
     3.0332   3.0373   3.0482   3.0611   3.0946   3.1033   3.1149   3.1693
     3.1904   3.2649   3.2783   3.3453   3.3549   3.3791   3.3804   3.4010
     3.4040   3.4083   3.4114   3.4156   3.4275   3.4482   3.4492   3.5138
     3.5196   3.5348   3.5891   4.4894   4.4970   4.5295   4.5996   4.9557
     5.1427   5.2351   5.4658   5.5078   5.5856   5.8255   5.9580   5.9999
     6.2218   6.3797   6.3939   6.4292   7.0164   7.0516   7.1625   7.4204
     7.5920   7.6441   7.6690   8.0323   8.0765   8.1148   8.2064   8.2743
     8.4167   8.6322   8.6469   8.7148   8.7473   8.8520   8.9755

     occupation numbers 
     1.0000   1.0000   1.0000   1.0000   1.0000   1.0000   1.0000   1.0000
     1.0000   1.0000   1.0000   1.0000   1.0000   1.0000   1.0000   1.0000
     1.0000   1.0000   1.0000   1.0000   1.0000   1.0000   1.0000   1.0000
     1.0000   1.0000   1.0000   1.0000   1.0000   1.0000   1.0000   1.0000
     1.0000   1.0000   1.0000   1.0000   1.0000   1.0000   1.0000   1.0000
     1.0000   1.0000   1.0000   1.0000   1.0000   1.0000   1.0000   1.0000
     1.0000   1.0000   1.0000   1.0000   1.0000   1.0000   1.0000   1.0000
     1.0000   1.0000   1.0000   1.0000   1.0000   1.0000   1.0000   1.0000
     1.0000   1.0000   1.0000   1.0000   1.0000   1.0000   1.0000   1.0000
     1.0000   1.0000   1.0000   1.0000   1.0000   1.0000   1.0000   1.0000
     1.0000   1.0000   1.0000   1.0000   1.0000   1.0000   1.0000   1.0000
     1.0000   1.0000   1.0000   1.0000   1.0000   1.0000   1.0000   1.0000
     1.0000   1.0000   1.0000   1.0000   1.0000   1.0000   1.0000   1.0000
     1.0000   1.0000   1.0000   1.0000   1.0000   1.0000   1.0000   1.0000
     1.0000   1.0000   1.0000   1.0000   1.0000   1.0000   1.0000   1.0000
     1.0000   1.0000   1.0000   1.0000   1.0000   1.0000   1.0000   1.0000
     1.0000   1.0000   1.0000   1.0000   1.0000   1.0000   1.0000   1.0000
     1.0000   1.0000   1.0000   1.0000   1.0000   1.0000   1.0000   1.0000
     1.0000   1.0000   1.0000   1.0000   1.0000   1.0000   1.0000   1.0000
     1.0000   1.0000   1.0000   1.0000   1.0000   1.0000   1.0000   1.0000
     1.0000   1.0000   0.9999   0.9999   0.9998   0.9997   0.9997   0.9996
     0.9996   0.9995   0.9994   0.9994   0.9993   0.9988   0.9984   0.9982
     0.9980   0.9938   0.9928   0.9922   0.9887   0.9874   0.9859   0.9850
     0.9829   0.9824   0.9817   0.9792   0.9760   0.9736   0.9713   0.9697
     0.9666   0.9603   0.9493   0.9455   0.9074   0.8600   0.8573   0.8510
     0.8384   0.8370   0.8329   0.8281   0.8151   0.8116   0.8070   0.7841
     0.7748   0.7402   0.7337   0.7001   0.6951   0.6824   0.6817   0.6707
     0.6691   0.6668   0.6651   0.6629   0.6564   0.6450   0.6445   0.6081
     0.6048   0.5961   0.5646   0.1201   0.1179   0.1086   0.0905   0.0310
     0.0160   0.0113   0.0043   0.0036   0.0025   0.0008   0.0004   0.0003
     0.0001   0.0000   0.0000   0.0000   0.0000   0.0000   0.0000   0.0000
     0.0000   0.0000   0.0000   0.0000   0.0000   0.0000   0.0000   0.0000
     0.0000   0.0000   0.0000   0.0000   0.0000   0.0000   0.0000

          k = 0.2500 0.2500 0.0000 ( 65198 PWs)   bands (ev):

   -92.3277 -92.2718 -92.1815 -92.1324 -92.0730 -92.0339 -92.0169 -91.8945
   -55.6808 -55.6581 -55.5394 -55.5289 -55.5209 -55.5156 -55.4774 -55.4512
   -55.4351 -55.4328 -55.4229 -55.3819 -55.3633 -55.3252 -55.3073 -55.2724
   -55.2678 -55.2231 -55.2206 -55.2198 -55.2112 -55.1691 -55.1476 -55.0614
   -30.9130 -30.8972 -30.8118 -30.7548 -30.7262 -30.6686 -30.5342 -30.4183
   -29.4781 -29.4366 -29.4107 -29.3022 -22.2470 -14.6480 -14.6147 -14.5389
   -14.4214 -14.3089 -14.1845 -14.1046 -13.9062 -13.7681 -13.7435 -13.7327
   -13.6986 -13.6678 -13.6463 -13.6233 -13.5937 -13.5772 -13.4760 -13.4608
   -13.3002 -13.2875 -13.2562 -13.2364 -13.2027 -13.1493 -13.1154 -13.0632
   -12.9789 -12.9415 -12.8687 -12.7837 -12.7582 -12.7363 -12.6932 -12.6652
   -12.6566 -12.6056 -12.5864 -12.5804 -12.5434 -12.5257 -12.4725 -12.4417
   -12.3868 -12.3812 -12.3574 -12.3498 -12.1935 -12.0899 -12.0753 -11.9156
   -11.7984 -11.7541 -11.4311 -11.3991 -11.3886 -11.3814 -11.3188 -11.2839
   -11.2772 -11.2419 -11.2344 -11.1422 -11.1008 -11.0833  -5.8237  -3.1558
    -3.1453  -2.3004  -2.0899  -1.9727  -1.8797  -1.7570  -1.6914  -1.4968
    -1.3492  -1.3287  -1.3023  -1.2073  -1.1719  -1.0799  -1.0529  -1.0030
    -0.8704  -0.8230  -0.7515  -0.7057  -0.6622  -0.6372  -0.6117  -0.5708
    -0.5541  -0.4645  -0.4150  -0.3533  -0.3037  -0.2744  -0.2201  -0.2102
    -0.1473  -0.0968  -0.0449  -0.0060   0.0750   0.1285   0.1580   0.2004
     0.2536   0.3130   0.3614   0.3889   0.4567   0.5034   0.7715   0.9152
     0.9564   1.0049   1.0504   1.1075   1.1685   1.2190   1.2574   1.5316
     1.6044   1.6787   1.7047   1.7474   1.7845   1.8190   1.8551   1.8736
     1.9017   1.9382   1.9496   1.9689   2.0085   2.0514   2.0897   2.1317
     2.1726   2.1854   2.2143   2.2545   2.3054   2.3361   2.4675   2.5328
     2.5740   2.6046   2.6615   2.7307   2.7609   2.7987   2.8193   2.8344
     2.9474   2.9821   3.0575   3.0710   3.0969   3.2458   3.2631   3.2698
     3.2853   3.2985   3.3121   3.3252   3.3331   3.3425   3.3561   3.3679
     3.3878   3.3940   3.4049   3.4246   3.4395   3.4491   3.4801   3.7821
     3.8732   3.9087   3.9722   3.9940   4.2180   4.3238   4.6500   4.8084
     4.9870   5.1474   5.3358   5.5708   5.9188   5.9606   5.9954   6.1280
     6.2107   6.2618   6.3674   6.4097   6.9231   6.9881   7.0660   7.1892
     7.7152   7.8112   7.8527   7.8994   8.0348   8.1444   8.2004   8.2735
     8.3459   8.4464   8.5197   8.6826   8.7228   8.7850   8.9205

     occupation numbers 
     1.0000   1.0000   1.0000   1.0000   1.0000   1.0000   1.0000   1.0000
     1.0000   1.0000   1.0000   1.0000   1.0000   1.0000   1.0000   1.0000
     1.0000   1.0000   1.0000   1.0000   1.0000   1.0000   1.0000   1.0000
     1.0000   1.0000   1.0000   1.0000   1.0000   1.0000   1.0000   1.0000
     1.0000   1.0000   1.0000   1.0000   1.0000   1.0000   1.0000   1.0000
     1.0000   1.0000   1.0000   1.0000   1.0000   1.0000   1.0000   1.0000
     1.0000   1.0000   1.0000   1.0000   1.0000   1.0000   1.0000   1.0000
     1.0000   1.0000   1.0000   1.0000   1.0000   1.0000   1.0000   1.0000
     1.0000   1.0000   1.0000   1.0000   1.0000   1.0000   1.0000   1.0000
     1.0000   1.0000   1.0000   1.0000   1.0000   1.0000   1.0000   1.0000
     1.0000   1.0000   1.0000   1.0000   1.0000   1.0000   1.0000   1.0000
     1.0000   1.0000   1.0000   1.0000   1.0000   1.0000   1.0000   1.0000
     1.0000   1.0000   1.0000   1.0000   1.0000   1.0000   1.0000   1.0000
     1.0000   1.0000   1.0000   1.0000   1.0000   1.0000   1.0000   1.0000
     1.0000   1.0000   1.0000   1.0000   1.0000   1.0000   1.0000   1.0000
     1.0000   1.0000   1.0000   1.0000   1.0000   1.0000   1.0000   1.0000
     1.0000   1.0000   1.0000   1.0000   1.0000   1.0000   1.0000   1.0000
     1.0000   1.0000   1.0000   1.0000   1.0000   1.0000   1.0000   1.0000
     1.0000   1.0000   1.0000   1.0000   1.0000   1.0000   1.0000   1.0000
     1.0000   1.0000   1.0000   1.0000   1.0000   1.0000   1.0000   1.0000
     1.0000   1.0000   1.0000   0.9999   0.9999   0.9999   0.9999   0.9994
     0.9991   0.9986   0.9985   0.9981   0.9978   0.9974   0.9969   0.9966
     0.9962   0.9955   0.9953   0.9949   0.9940   0.9928   0.9916   0.9900
     0.9883   0.9877   0.9862   0.9840   0.9807   0.9785   0.9662   0.9583
     0.9525   0.9479   0.9382   0.9247   0.9181   0.9093   0.9042   0.9003
     0.8677   0.8563   0.8294   0.8243   0.8142   0.7493   0.7411   0.7378
     0.7303   0.7238   0.7170   0.7104   0.7063   0.7015   0.6945   0.6883
     0.6778   0.6745   0.6686   0.6579   0.6498   0.6445   0.6272   0.4506
     0.3977   0.3775   0.3423   0.3304   0.2203   0.1766   0.0789   0.0497
     0.0279   0.0157   0.0075   0.0027   0.0005   0.0004   0.0003   0.0002
     0.0001   0.0001   0.0000   0.0000   0.0000   0.0000   0.0000   0.0000
     0.0000   0.0000   0.0000   0.0000   0.0000   0.0000   0.0000   0.0000
     0.0000   0.0000   0.0000   0.0000   0.0000   0.0000   0.0000

          k = 0.2500-0.5000 0.0000 ( 65138 PWs)   bands (ev):

   -92.3277 -92.2718 -92.1815 -92.1324 -92.0730 -92.0339 -92.0169 -91.8945
   -55.6808 -55.6581 -55.5394 -55.5289 -55.5209 -55.5156 -55.4774 -55.4512
   -55.4351 -55.4328 -55.4229 -55.3819 -55.3633 -55.3252 -55.3073 -55.2724
   -55.2678 -55.2231 -55.2206 -55.2198 -55.2112 -55.1691 -55.1476 -55.0614
   -30.9128 -30.8971 -30.8114 -30.7550 -30.7266 -30.6688 -30.5339 -30.4186
   -29.4775 -29.4363 -29.4113 -29.3025 -22.2470 -14.6135 -14.5682 -14.5003
   -14.3886 -14.3550 -14.2335 -14.1504 -14.0212 -13.7679 -13.7072 -13.6621
   -13.6307 -13.6115 -13.5945 -13.5772 -13.5453 -13.5326 -13.4973 -13.4555
   -13.4430 -13.4120 -13.3002 -13.2521 -13.2208 -13.1725 -13.1411 -13.1037
   -13.0363 -12.9930 -12.8442 -12.7805 -12.7695 -12.7227 -12.6887 -12.6671
   -12.6265 -12.6072 -12.5811 -12.5504 -12.5363 -12.5160 -12.4829 -12.4528
   -12.4124 -12.3685 -12.2928 -12.2614 -12.1591 -12.0845 -11.9593 -11.9354
   -11.8670 -11.8366 -11.4065 -11.3947 -11.3836 -11.3565 -11.3251 -11.2967
   -11.2556 -11.2276 -11.2056 -11.1602 -11.1343 -11.1230  -5.8237  -3.1559
    -3.1452  -2.0828  -2.0160  -1.8865  -1.8088  -1.6817  -1.5969  -1.4732
    -1.3217  -1.2696  -1.2468  -1.1833  -1.1700  -1.0736  -1.0067  -0.9208
    -0.8740  -0.8642  -0.7989  -0.7587  -0.7227  -0.6760  -0.6394  -0.6042
    -0.5632  -0.5531  -0.5071  -0.4792  -0.4385  -0.4074  -0.3395  -0.2401
    -0.2000  -0.1236  -0.0604  -0.0141   0.0318   0.0552   0.0993   0.2635
     0.2739   0.3759   0.4198   0.4278   0.4758   0.4984   0.5410   0.5664
     0.6428   0.8976   0.9896   1.0705   1.1354   1.3867   1.4156   1.5037
     1.5303   1.7011   1.7316   1.7765   1.7992   1.8182   1.8378   1.8974
     1.9400   1.9792   2.0576   2.1332   2.1763   2.2016   2.2129   2.2472
     2.2612   2.2705   2.3107   2.3273   2.3432   2.3792   2.3980   2.4259
     2.4571   2.5151   2.5508   2.6265   2.7740   2.9249   2.9411   2.9585
     2.9834   3.0088   3.0355   3.0540   3.0631   3.0752   3.0900   3.1054
     3.1966   3.2434   3.2645   3.2662   3.2826   3.3032   3.3174   3.3357
     3.3433   3.3720   3.3850   3.4013   3.4104   3.4189   3.4300   3.9459
     3.9516   4.1131   4.1608   4.4958   4.5387   4.5465   4.6670   5.0213
     5.1735   5.2655   5.4731   5.5015   5.6260   5.6850   5.8891   5.9262
     6.0951   6.1351   6.2836   6.4798   6.5757   6.6498   7.0978   7.2933
     7.5115   7.6369   7.9656   8.0829   8.1726   8.2119   8.3364   8.3976
     8.5181   8.5708   8.6678   8.7844   8.8626   8.9214   8.9576

     occupation numbers 
     1.0000   1.0000   1.0000   1.0000   1.0000   1.0000   1.0000   1.0000
     1.0000   1.0000   1.0000   1.0000   1.0000   1.0000   1.0000   1.0000
     1.0000   1.0000   1.0000   1.0000   1.0000   1.0000   1.0000   1.0000
     1.0000   1.0000   1.0000   1.0000   1.0000   1.0000   1.0000   1.0000
     1.0000   1.0000   1.0000   1.0000   1.0000   1.0000   1.0000   1.0000
     1.0000   1.0000   1.0000   1.0000   1.0000   1.0000   1.0000   1.0000
     1.0000   1.0000   1.0000   1.0000   1.0000   1.0000   1.0000   1.0000
     1.0000   1.0000   1.0000   1.0000   1.0000   1.0000   1.0000   1.0000
     1.0000   1.0000   1.0000   1.0000   1.0000   1.0000   1.0000   1.0000
     1.0000   1.0000   1.0000   1.0000   1.0000   1.0000   1.0000   1.0000
     1.0000   1.0000   1.0000   1.0000   1.0000   1.0000   1.0000   1.0000
     1.0000   1.0000   1.0000   1.0000   1.0000   1.0000   1.0000   1.0000
     1.0000   1.0000   1.0000   1.0000   1.0000   1.0000   1.0000   1.0000
     1.0000   1.0000   1.0000   1.0000   1.0000   1.0000   1.0000   1.0000
     1.0000   1.0000   1.0000   1.0000   1.0000   1.0000   1.0000   1.0000
     1.0000   1.0000   1.0000   1.0000   1.0000   1.0000   1.0000   1.0000
     1.0000   1.0000   1.0000   1.0000   1.0000   1.0000   1.0000   1.0000
     1.0000   1.0000   1.0000   1.0000   1.0000   1.0000   1.0000   1.0000
     1.0000   1.0000   1.0000   1.0000   1.0000   1.0000   1.0000   1.0000
     1.0000   1.0000   1.0000   1.0000   1.0000   1.0000   1.0000   1.0000
     1.0000   1.0000   1.0000   1.0000   0.9999   0.9997   0.9997   0.9994
     0.9994   0.9985   0.9983   0.9978   0.9976   0.9974   0.9971   0.9963
     0.9955   0.9947   0.9926   0.9899   0.9881   0.9869   0.9863   0.9844
     0.9836   0.9830   0.9803   0.9791   0.9779   0.9749   0.9733   0.9706
     0.9674   0.9606   0.9558   0.9443   0.9151   0.8747   0.8697   0.8641
     0.8559   0.8471   0.8376   0.8308   0.8273   0.8227   0.8169   0.8108
     0.7720   0.7505   0.7404   0.7396   0.7316   0.7215   0.7143   0.7050
     0.7011   0.6861   0.6793   0.6705   0.6657   0.6610   0.6550   0.3567
     0.3536   0.2691   0.2463   0.1183   0.1061   0.1040   0.0752   0.0248
     0.0143   0.0100   0.0042   0.0037   0.0021   0.0016   0.0006   0.0005
     0.0002   0.0001   0.0001   0.0000   0.0000   0.0000   0.0000   0.0000
     0.0000   0.0000   0.0000   0.0000   0.0000   0.0000   0.0000   0.0000
     0.0000   0.0000   0.0000   0.0000   0.0000   0.0000   0.0000

          k =-0.5000-0.5000 0.0000 ( 65132 PWs)   bands (ev):

   -92.3277 -92.2718 -92.1815 -92.1324 -92.0730 -92.0339 -92.0169 -91.8945
   -55.6808 -55.6581 -55.5394 -55.5289 -55.5209 -55.5156 -55.4774 -55.4512
   -55.4351 -55.4328 -55.4229 -55.3819 -55.3633 -55.3252 -55.3073 -55.2724
   -55.2678 -55.2231 -55.2206 -55.2198 -55.2112 -55.1691 -55.1476 -55.0614
   -30.9106 -30.8993 -30.8113 -30.7546 -30.7265 -30.6691 -30.5340 -30.4187
   -29.4765 -29.4373 -29.4109 -29.3029 -22.2470 -14.5673 -14.5407 -14.4237
   -14.4125 -14.3220 -14.2797 -14.2552 -14.1202 -13.7679 -13.6199 -13.6101
   -13.5723 -13.5567 -13.5379 -13.5289 -13.4928 -13.4842 -13.4734 -13.4653
   -13.4505 -13.3705 -13.3627 -13.3440 -13.3176 -13.3000 -13.2173 -13.1976
   -13.0863 -13.0423 -12.7954 -12.7652 -12.6990 -12.6904 -12.6646 -12.6573
   -12.6224 -12.6192 -12.6109 -12.5916 -12.5298 -12.5024 -12.4787 -12.4724
   -12.4273 -12.3795 -12.2426 -12.2350 -12.1755 -12.0653 -11.9558 -11.9068
   -11.8591 -11.8427 -11.4028 -11.3908 -11.3731 -11.3562 -11.3217 -11.3035
   -11.2693 -11.2079 -11.1879 -11.1823 -11.1321 -11.1288  -5.8237  -3.1559
    -3.1454  -1.8599  -1.7833  -1.7733  -1.6988  -1.6609  -1.5828  -1.5150
    -1.3895  -1.2719  -1.2422  -1.2037  -1.1451  -1.0737  -1.0601  -0.9882
    -0.9457  -0.8306  -0.8035  -0.7547  -0.7216  -0.6578  -0.6148  -0.5952
    -0.5841  -0.5320  -0.4829  -0.4724  -0.3570  -0.2992  -0.2526  -0.2042
    -0.1804  -0.1691  -0.1318  -0.0922  -0.0595  -0.0441   0.0428   0.1061
     0.1589   0.1774   0.2549   0.3019   0.3165   0.3745   0.3939   0.4137
     0.4306   0.8643   0.9028   1.0118   1.0527   1.4215   1.4344   1.4657
     1.5060   1.7832   1.8030   1.8098   1.8479   1.9828   2.0796   2.1046
     2.1389   2.1482   2.1775   2.1885   2.2203   2.2260   2.2338   2.2496
     2.3124   2.3150   2.3421   2.3460   2.3725   2.3822   2.4218   2.4537
     2.4632   2.4997   2.5238   2.5974   2.6659   2.9357   2.9687   2.9851
     3.0083   3.0115   3.0381   3.0493   3.0660   3.0690   3.0823   3.0960
     3.1019   3.1196   3.1323   3.1969   3.2005   3.2219   3.2351   3.2457
     3.2647   3.2706   3.2804   3.3802   3.3846   3.4145   3.4248   4.3738
     4.3872   4.4136   4.4156   4.6904   4.7621   4.7900   5.0296   5.1500
     5.1607   5.2373   5.3546   5.4051   5.4908   5.5730   5.6141   5.7211
     6.0028   6.0478   6.1216   6.2475   6.4920   6.7026   6.7388   7.1629
     7.5215   7.5726   7.6474   8.2907   8.3148   8.3924   8.4352   8.5459
     8.6081   8.7944   8.8941   8.9101   8.9362   8.9677   9.0470

     occupation numbers 
     1.0000   1.0000   1.0000   1.0000   1.0000   1.0000   1.0000   1.0000
     1.0000   1.0000   1.0000   1.0000   1.0000   1.0000   1.0000   1.0000
     1.0000   1.0000   1.0000   1.0000   1.0000   1.0000   1.0000   1.0000
     1.0000   1.0000   1.0000   1.0000   1.0000   1.0000   1.0000   1.0000
     1.0000   1.0000   1.0000   1.0000   1.0000   1.0000   1.0000   1.0000
     1.0000   1.0000   1.0000   1.0000   1.0000   1.0000   1.0000   1.0000
[...]
     0.0000   0.0000   0.0000   0.0000   0.0000   0.0000   0.0000   0.0000
     0.0000   0.0000   0.0000   0.0000   0.0000   0.0000   0.0000

          k =-0.5000 0.0000 0.0000 ( 65180 PWs)   bands (ev):

   -92.3277 -92.2718 -92.1815 -92.1324 -92.0730 -92.0339 -92.0169 -91.8945
   -55.6808 -55.6581 -55.5394 -55.5289 -55.5209 -55.5156 -55.4774 -55.4512
   -55.4351 -55.4328 -55.4229 -55.3819 -55.3633 -55.3252 -55.3073 -55.2724
   -55.2678 -55.2231 -55.2206 -55.2198 -55.2112 -55.1691 -55.1476 -55.0614
   -30.9110 -30.8996 -30.8120 -30.7542 -30.7258 -30.6689 -30.5346 -30.4181
   -29.4777 -29.4379 -29.4097 -29.3023 -22.2470 -14.6476 -14.5987 -14.5365
   -14.4340 -14.3224 -14.1792 -14.0390 -13.9057 -13.7699 -13.7677 -13.7616
   -13.7396 -13.6900 -13.6286 -13.5950 -13.5521 -13.5470 -13.5324 -13.4740
   -13.4719 -13.3734 -13.1878 -13.1740 -13.1286 -13.1202 -13.0953 -12.9990
   -12.9749 -12.9068 -12.8887 -12.8832 -12.8005 -12.6924 -12.6886 -12.6836
   -12.6666 -12.6493 -12.6060 -12.5924 -12.5778 -12.5558 -12.4562 -12.3667
   -12.3389 -12.3305 -12.2774 -12.2683 -12.1784 -12.1600 -12.0217 -11.9656
   -11.8534 -11.8145 -11.4100 -11.3888 -11.3819 -11.3667 -11.3490 -11.3078
   -11.2446 -11.2275 -11.1954 -11.1494 -11.1400 -11.1242  -5.8237  -3.1556
    -3.1455  -2.2138  -2.1748  -2.0097  -1.9710  -1.6597  -1.5848  -1.4342
    -1.3167  -1.2787  -1.2324  -1.1839  -1.1579  -1.0369  -0.9911  -0.9778
    -0.8941  -0.8590  -0.8459  -0.8115  -0.7571  -0.6868  -0.6560  -0.6314
    -0.5374  -0.4862  -0.4379  -0.4059  -0.3839  -0.3558  -0.3070  -0.2823
    -0.2456  -0.1520  -0.0759  -0.0173   0.0472   0.1998   0.2498   0.3110
     0.3298   0.3867   0.4211   0.5469   0.5882   0.6352   0.8086   0.9065
     0.9518   1.0293   1.0879   1.2242   1.2360   1.3630   1.3946   1.4489
     1.4717   1.5146   1.5259   1.5702   1.5979   1.6598   1.7073   1.7549
     1.7642   2.0587   2.0627   2.0733   2.0929   2.2157   2.2251   2.2306
     2.2504   2.2818   2.2945   2.3310   2.3609   2.3777   2.4465   2.4493
     2.5074   2.5225   2.5868   2.6907   2.7855   2.8677   2.8825   2.9637
     2.9977   3.0234   3.0581   3.0847   3.0984   3.1044   3.1085   3.1370
     3.2054   3.2492   3.2919   3.3231   3.3699   3.3733   3.3747   3.3871
     3.4013   3.4135   3.4281   3.4315   3.4519   3.4584   3.4793   3.5003
     3.5046   3.6316   3.6385   4.4405   4.4705   4.5350   4.6606   4.9989
     5.1411   5.2547   5.3128   5.4443   5.7199   5.8793   5.9572   5.9896
     6.1640   6.3574   6.3942   6.4631   6.9858   7.0544   7.1576   7.4610
     7.5053   7.6515   7.7872   7.9332   7.9931   8.1021   8.2043   8.3701
     8.5190   8.6496   8.6954   8.7295   8.7330   8.8735   8.9503

     occupation numbers 
     1.0000   1.0000   1.0000   1.0000   1.0000   1.0000   1.0000   1.0000
     1.0000   1.0000   1.0000   1.0000   1.0000   1.0000   1.0000   1.0000
     1.0000   1.0000   1.0000   1.0000   1.0000   1.0000   1.0000   1.0000
     1.0000   1.0000   1.0000   1.0000   1.0000   1.0000   1.0000   1.0000
     1.0000   1.0000   1.0000   1.0000   1.0000   1.0000   1.0000   1.0000
     1.0000   1.0000   1.0000   1.0000   1.0000   1.0000   1.0000   1.0000
     1.0000   1.0000   1.0000   1.0000   1.0000   1.0000   1.0000   1.0000
     1.0000   1.0000   1.0000   1.0000   1.0000   1.0000   1.0000   1.0000
     1.0000   1.0000   1.0000   1.0000   1.0000   1.0000   1.0000   1.0000
     1.0000   1.0000   1.0000   1.0000   1.0000   1.0000   1.0000   1.0000
     1.0000   1.0000   1.0000   1.0000   1.0000   1.0000   1.0000   1.0000
     1.0000   1.0000   1.0000   1.0000   1.0000   1.0000   1.0000   1.0000
     1.0000   1.0000   1.0000   1.0000   1.0000   1.0000   1.0000   1.0000
     1.0000   1.0000   1.0000   1.0000   1.0000   1.0000   1.0000   1.0000
     1.0000   1.0000   1.0000   1.0000   1.0000   1.0000   1.0000   1.0000
     1.0000   1.0000   1.0000   1.0000   1.0000   1.0000   1.0000   1.0000
     1.0000   1.0000   1.0000   1.0000   1.0000   1.0000   1.0000   1.0000
     1.0000   1.0000   1.0000   1.0000   1.0000   1.0000   1.0000   1.0000
     1.0000   1.0000   1.0000   1.0000   1.0000   1.0000   1.0000   1.0000
     1.0000   1.0000   1.0000   1.0000   1.0000   1.0000   1.0000   1.0000
     1.0000   1.0000   0.9999   0.9999   0.9999   0.9997   0.9997   0.9996
     0.9995   0.9994   0.9994   0.9992   0.9991   0.9988   0.9984   0.9981
     0.9980   0.9926   0.9924   0.9921   0.9914   0.9862   0.9857   0.9854
     0.9842   0.9823   0.9815   0.9789   0.9765   0.9751   0.9685   0.9682
     0.9615   0.9596   0.9506   0.9327   0.9124   0.8914   0.8872   0.8624
     0.8510   0.8420   0.8292   0.8190   0.8136   0.8112   0.8096   0.7978
     0.7680   0.7477   0.7271   0.7114   0.6872   0.6855   0.6847   0.6781
     0.6706   0.6640   0.6560   0.6542   0.6430   0.6393   0.6276   0.6158
     0.6134   0.5396   0.5356   0.1353   0.1259   0.1071   0.0766   0.0268
     0.0161   0.0104   0.0083   0.0048   0.0013   0.0006   0.0004   0.0003
     0.0001   0.0000   0.0000   0.0000   0.0000   0.0000   0.0000   0.0000
     0.0000   0.0000   0.0000   0.0000   0.0000   0.0000   0.0000   0.0000
     0.0000   0.0000   0.0000   0.0000   0.0000   0.0000   0.0000

          k =-0.2500 0.2500 0.0000 ( 65198 PWs)   bands (ev):

   -92.3277 -92.2718 -92.1815 -92.1324 -92.0730 -92.0339 -92.0169 -91.8945
   -55.6808 -55.6581 -55.5394 -55.5289 -55.5209 -55.5156 -55.4774 -55.4512
   -55.4351 -55.4328 -55.4229 -55.3819 -55.3633 -55.3252 -55.3073 -55.2724
   -55.2678 -55.2231 -55.2206 -55.2198 -55.2112 -55.1691 -55.1476 -55.0614
   -30.9130 -30.8972 -30.8118 -30.7548 -30.7262 -30.6686 -30.5342 -30.4183
   -29.4781 -29.4366 -29.4107 -29.3022 -22.2470 -14.6494 -14.6136 -14.5375
   -14.4192 -14.3156 -14.1886 -14.0966 -13.8977 -13.7681 -13.7514 -13.7209
   -13.7125 -13.6628 -13.6395 -13.6241 -13.6131 -13.5757 -13.4725 -13.4616
   -13.3089 -13.2830 -13.2553 -13.2340 -13.2038 -13.1351 -13.1063 -13.0730
   -12.9893 -12.9417 -12.8620 -12.7860 -12.7562 -12.7336 -12.6825 -12.6659
   -12.6391 -12.6155 -12.5934 -12.5776 -12.5630 -12.5352 -12.4857 -12.4309
   -12.4080 -12.3754 -12.3543 -12.3289 -12.1724 -12.0978 -12.0796 -11.9213
   -11.8020 -11.7491 -11.4304 -11.4086 -11.3815 -11.3692 -11.3285 -11.2936
   -11.2706 -11.2492 -11.2266 -11.1420 -11.0962 -11.0866  -5.8237  -3.1558
    -3.1453  -2.2988  -2.0888  -1.9684  -1.8817  -1.7611  -1.6941  -1.4945
    -1.3458  -1.3265  -1.3003  -1.2078  -1.1707  -1.0796  -1.0465  -1.0205
    -0.8760  -0.8213  -0.7544  -0.7251  -0.6660  -0.6426  -0.6021  -0.5730
    -0.5332  -0.4711  -0.4244  -0.3648  -0.2948  -0.2705  -0.2166  -0.1884
    -0.1438  -0.0877  -0.0477  -0.0004   0.0932   0.1318   0.1362   0.1871
     0.2512   0.3136   0.3641   0.3924   0.4604   0.5014   0.7533   0.9174
     0.9640   0.9977   1.0549   1.1088   1.1686   1.2265   1.2552   1.5387
     1.6556   1.6944   1.7245   1.7344   1.7770   1.7944   1.8378   1.8678
     1.8854   1.9112   1.9490   1.9616   2.0111   2.0256   2.0703   2.1425
     2.1636   2.1852   2.2207   2.2517   2.2873   2.3411   2.4570   2.5614
     2.6005   2.6430   2.6638   2.7294   2.7738   2.7995   2.8206   2.8452
     2.9487   2.9806   3.0576   3.0689   3.0988   3.2524   3.2612   3.2746
     3.2851   3.2954   3.3087   3.3151   3.3323   3.3411   3.3572   3.3667
     3.3796   3.3890   3.3954   3.4267   3.4389   3.4482   3.4820   3.7752
     3.8561   3.9119   3.9765   4.0015   4.2025   4.3322   4.6490   4.8092
     4.9830   5.1495   5.3461   5.5725   5.9190   5.9522   6.0002   6.1336
     6.2075   6.2591   6.3635   6.4152   6.9239   6.9755   7.0670   7.2102
     7.7149   7.8078   7.8532   7.9041   7.9935   8.1456   8.1935   8.3085
     8.3579   8.4478   8.4954   8.6891   8.7273   8.7883   8.9410

     occupation numbers 
     1.0000   1.0000   1.0000   1.0000   1.0000   1.0000   1.0000   1.0000
     1.0000   1.0000   1.0000   1.0000   1.0000   1.0000   1.0000   1.0000
     1.0000   1.0000   1.0000   1.0000   1.0000   1.0000   1.0000   1.0000
     1.0000   1.0000   1.0000   1.0000   1.0000   1.0000   1.0000   1.0000
     1.0000   1.0000   1.0000   1.0000   1.0000   1.0000   1.0000   1.0000
     1.0000   1.0000   1.0000   1.0000   1.0000   1.0000   1.0000   1.0000
     1.0000   1.0000   1.0000   1.0000   1.0000   1.0000   1.0000   1.0000
     1.0000   1.0000   1.0000   1.0000   1.0000   1.0000   1.0000   1.0000
     1.0000   1.0000   1.0000   1.0000   1.0000   1.0000   1.0000   1.0000
     1.0000   1.0000   1.0000   1.0000   1.0000   1.0000   1.0000   1.0000
     1.0000   1.0000   1.0000   1.0000   1.0000   1.0000   1.0000   1.0000
     1.0000   1.0000   1.0000   1.0000   1.0000   1.0000   1.0000   1.0000
     1.0000   1.0000   1.0000   1.0000   1.0000   1.0000   1.0000   1.0000
     1.0000   1.0000   1.0000   1.0000   1.0000   1.0000   1.0000   1.0000
     1.0000   1.0000   1.0000   1.0000   1.0000   1.0000   1.0000   1.0000
     1.0000   1.0000   1.0000   1.0000   1.0000   1.0000   1.0000   1.0000
     1.0000   1.0000   1.0000   1.0000   1.0000   1.0000   1.0000   1.0000
     1.0000   1.0000   1.0000   1.0000   1.0000   1.0000   1.0000   1.0000
     1.0000   1.0000   1.0000   1.0000   1.0000   1.0000   1.0000   1.0000
     1.0000   1.0000   1.0000   1.0000   1.0000   1.0000   1.0000   1.0000
     1.0000   1.0000   1.0000   0.9999   0.9999   0.9999   0.9999   0.9993
     0.9988   0.9985   0.9983   0.9982   0.9978   0.9977   0.9971   0.9967
     0.9965   0.9960   0.9953   0.9950   0.9939   0.9935   0.9922   0.9896
     0.9887   0.9877   0.9859   0.9842   0.9819   0.9781   0.9674   0.9544
     0.9485   0.9415   0.9378   0.9250   0.9151   0.9091   0.9038   0.8975
     0.8673   0.8568   0.8294   0.8251   0.8134   0.7462   0.7420   0.7355
     0.7304   0.7253   0.7187   0.7155   0.7067   0.7022   0.6939   0.6889
     0.6821   0.6771   0.6737   0.6568   0.6501   0.6450   0.6261   0.4547
     0.4075   0.3757   0.3400   0.3265   0.2271   0.1734   0.0791   0.0496
     0.0282   0.0156   0.0072   0.0027   0.0005   0.0004   0.0003   0.0001
     0.0001   0.0001   0.0000   0.0000   0.0000   0.0000   0.0000   0.0000
     0.0000   0.0000   0.0000   0.0000   0.0000   0.0000   0.0000   0.0000
     0.0000   0.0000   0.0000   0.0000   0.0000   0.0000   0.0000

          k =-0.5000 0.2500 0.0000 ( 65138 PWs)   bands (ev):

   -92.3277 -92.2718 -92.1815 -92.1324 -92.0730 -92.0339 -92.0169 -91.8945
   -55.6808 -55.6581 -55.5394 -55.5289 -55.5209 -55.5156 -55.4774 -55.4512
   -55.4351 -55.4328 -55.4229 -55.3819 -55.3633 -55.3252 -55.3073 -55.2724
   -55.2678 -55.2231 -55.2206 -55.2198 -55.2112 -55.1691 -55.1476 -55.0614
   -30.9108 -30.8995 -30.8116 -30.7544 -30.7261 -30.6690 -30.5343 -30.4184
   -29.4771 -29.4376 -29.4103 -29.3026 -22.2470 -14.6152 -14.5721 -14.4935
   -14.3988 -14.3532 -14.2253 -14.1431 -14.0180 -13.7679 -13.7018 -13.6721
   -13.6592 -13.6148 -13.5995 -13.5681 -13.5390 -13.5312 -13.5087 -13.4726
   -13.4539 -13.3600 -13.2725 -13.2352 -13.2217 -13.2119 -13.1574 -13.1054
   -13.0256 -12.9772 -12.8381 -12.8032 -12.7474 -12.7077 -12.6697 -12.6572
   -12.6518 -12.6206 -12.6053 -12.5815 -12.5733 -12.5392 -12.4664 -12.4095
   -12.3843 -12.3574 -12.2597 -12.2521 -12.1767 -12.1066 -11.9677 -11.9609
   -11.8508 -11.8269 -11.4028 -11.3900 -11.3759 -11.3643 -11.3428 -11.3126
   -11.2322 -11.2232 -11.2004 -11.1638 -11.1356 -11.1267  -5.8237  -3.1557
    -3.1454  -2.0720  -2.0294  -1.8796  -1.8379  -1.6790  -1.6035  -1.4585
    -1.3231  -1.2673  -1.2394  -1.2001  -1.1604  -1.0806  -0.9662  -0.9095
    -0.8862  -0.8613  -0.7861  -0.7556  -0.7193  -0.6994  -0.6389  -0.6125
    -0.5710  -0.5356  -0.5071  -0.4503  -0.4245  -0.3827  -0.3489  -0.2450
    -0.2189  -0.1354  -0.0700  -0.0384   0.0162   0.1047   0.1337   0.2382
     0.2656   0.3290   0.3729   0.3978   0.4808   0.5142   0.5465   0.6000
     0.6363   0.9372   0.9860   1.0618   1.0955   1.3709   1.4298   1.5045
     1.5312   1.7128   1.7497   1.7871   1.8027   1.8203   1.8384   1.9066
     1.9475   1.9840   2.0125   2.1202   2.1595   2.2032   2.2125   2.2457
     2.2738   2.2894   2.3041   2.3265   2.3492   2.3920   2.4178   2.4485
     2.4718   2.4971   2.5656   2.6821   2.7835   2.8118   2.8818   2.9242
     2.9806   3.0204   3.0281   3.0563   3.0635   3.0963   3.0984   3.1235
     3.2054   3.2464   3.2596   3.2671   3.2876   3.3114   3.3239   3.3382
     3.3502   3.3696   3.3834   3.3949   3.4023   3.4129   3.4254   3.9488
     3.9816   4.1447   4.1651   4.4452   4.4974   4.5496   4.7544   5.0580
     5.1538   5.2622   5.3544   5.4524   5.7350   5.7683   5.8431   5.9573
     6.0575   6.1111   6.2714   6.4879   6.5690   6.6659   7.0889   7.2599
     7.5331   7.6568   7.9797   8.0697   8.1797   8.2107   8.3200   8.3599
     8.5201   8.5773   8.6951   8.8141   8.8291   8.9315   8.9883

     occupation numbers 
     1.0000   1.0000   1.0000   1.0000   1.0000   1.0000   1.0000   1.0000
     1.0000   1.0000   1.0000   1.0000   1.0000   1.0000   1.0000   1.0000
     1.0000   1.0000   1.0000   1.0000   1.0000   1.0000   1.0000   1.0000
     1.0000   1.0000   1.0000   1.0000   1.0000   1.0000   1.0000   1.0000
     1.0000   1.0000   1.0000   1.0000   1.0000   1.0000   1.0000   1.0000
     1.0000   1.0000   1.0000   1.0000   1.0000   1.0000   1.0000   1.0000
     1.0000   1.0000   1.0000   1.0000   1.0000   1.0000   1.0000   1.0000
     1.0000   1.0000   1.0000   1.0000   1.0000   1.0000   1.0000   1.0000
     1.0000   1.0000   1.0000   1.0000   1.0000   1.0000   1.0000   1.0000
     1.0000   1.0000   1.0000   1.0000   1.0000   1.0000   1.0000   1.0000
     1.0000   1.0000   1.0000   1.0000   1.0000   1.0000   1.0000   1.0000
     1.0000   1.0000   1.0000   1.0000   1.0000   1.0000   1.0000   1.0000
     1.0000   1.0000   1.0000   1.0000   1.0000   1.0000   1.0000   1.0000
     1.0000   1.0000   1.0000   1.0000   1.0000   1.0000   1.0000   1.0000
     1.0000   1.0000   1.0000   1.0000   1.0000   1.0000   1.0000   1.0000
     1.0000   1.0000   1.0000   1.0000   1.0000   1.0000   1.0000   1.0000
     1.0000   1.0000   1.0000   1.0000   1.0000   1.0000   1.0000   1.0000
     1.0000   1.0000   1.0000   1.0000   1.0000   1.0000   1.0000   1.0000
     1.0000   1.0000   1.0000   1.0000   1.0000   1.0000   1.0000   1.0000
     1.0000   1.0000   1.0000   1.0000   1.0000   1.0000   1.0000   1.0000
     1.0000   1.0000   1.0000   1.0000   0.9999   0.9997   0.9996   0.9994
     0.9994   0.9984   0.9981   0.9977   0.9976   0.9974   0.9971   0.9961
     0.9953   0.9946   0.9939   0.9905   0.9889   0.9868   0.9863   0.9845
     0.9828   0.9818   0.9808   0.9792   0.9775   0.9738   0.9714   0.9683
     0.9657   0.9628   0.9538   0.9344   0.9129   0.9061   0.8874   0.8749
     0.8568   0.8430   0.8403   0.8299   0.8272   0.8144   0.8136   0.8034
     0.7680   0.7491   0.7428   0.7391   0.7292   0.7173   0.7110   0.7037
     0.6975   0.6874   0.6801   0.6740   0.6700   0.6643   0.6575   0.3551
     0.3372   0.2538   0.2442   0.1338   0.1178   0.1032   0.0585   0.0218
     0.0154   0.0101   0.0070   0.0046   0.0012   0.0011   0.0007   0.0004
     0.0002   0.0002   0.0001   0.0000   0.0000   0.0000   0.0000   0.0000
     0.0000   0.0000   0.0000   0.0000   0.0000   0.0000   0.0000   0.0000
     0.0000   0.0000   0.0000   0.0000   0.0000   0.0000   0.0000

     the Fermi energy is     3.6986 ev

!    total energy              =   -4482.96919004 Ry
     estimated scf accuracy    <          4.7E-09 Ry
     smearing contrib. (-TS)   =      -1.17278623 Ry
     internal energy E=F+TS    =   -4481.79640381 Ry

     The total energy is F=E-TS. E is the sum of the following terms:
     one-electron contribution =  -20252.59608390 Ry
     hartree contribution      =   10266.11406145 Ry
     xc contribution           =    -701.57848022 Ry
     ewald contribution        =    6491.92166991 Ry
     one-center paw contrib.   =    -285.65757106 Ry
      -> PAW hartree energy AE =      25.18759942 Ry
      -> PAW hartree energy PS =     -25.07127519 Ry
      -> PAW xc energy AE      =     -16.52090895 Ry
      -> PAW xc energy PS      =       6.88057138 Ry
      -> total E_H with PAW    =   10266.23038569 Ry
      -> total E_XC with PAW   =    -711.21881780 Ry

     convergence has been achieved in  51 iterations

     Writing all to output data dir /bsuhome/zayahcortright/scratch/pwscf.save/
 
     init_run     :      7.49s CPU      8.45s WALL (       1 calls)
     electrons    :    783.33s CPU    817.31s WALL (       1 calls)

     Called by init_run:
     wfcinit      :      6.13s CPU      6.36s WALL (       1 calls)
     wfcinit:atom :      0.06s CPU      0.08s WALL (       5 calls)
     wfcinit:wfcr :      5.80s CPU      5.93s WALL (       5 calls)
     potinit      :      0.16s CPU      0.19s WALL (       1 calls)
     hinit0       :      0.34s CPU      0.79s WALL (       1 calls)

     Called by electrons:
     c_bands      :    621.91s CPU    629.01s WALL (      51 calls)
     sum_band     :    121.96s CPU    135.99s WALL (      51 calls)
     v_of_rho     :      5.59s CPU      5.98s WALL (      52 calls)
     v_h          :      0.49s CPU      0.50s WALL (      52 calls)
     v_xc         :      5.10s CPU      5.48s WALL (      52 calls)
     newd         :     18.83s CPU     30.99s WALL (      52 calls)
     PAW_pot      :      1.71s CPU      1.74s WALL (      52 calls)
     mix_rho      :     12.90s CPU     13.26s WALL (      51 calls)

     Called by c_bands:
     init_us_2    :      7.20s CPU      7.25s WALL (     515 calls)
     init_us_2:cp :      7.19s CPU      7.25s WALL (     515 calls)
     cegterg      :    587.33s CPU    594.13s WALL (     255 calls)

     Called by sum_band:
     sum_band:wei :      0.36s CPU      0.37s WALL (      51 calls)
     sum_band:loo :     98.01s CPU     98.81s WALL (      51 calls)
     sum_band:buf :      1.53s CPU      1.58s WALL (     255 calls)
     sum_band:ini :      3.33s CPU      3.34s WALL (     255 calls)
     sum_band:cal :     21.56s CPU     21.67s WALL (     255 calls)
     sum_band:bec :      0.62s CPU      0.64s WALL (     255 calls)
     addusdens    :     21.29s CPU     34.49s WALL (      51 calls)
                                        0.00s GPU  (      51 calls)
     addusd:skk   :      0.34s CPU      0.92s WALL (     204 calls)
                                        0.00s GPU  (     204 calls)

     Called by *egterg:
     cdiaghg      :     61.63s CPU     61.93s WALL (    1444 calls)
     cegterg:over :     44.96s CPU     45.22s WALL (    1189 calls)
     cegterg:upda :     32.78s CPU     33.39s WALL (    1189 calls)
     cegterg:last :     67.74s CPU     68.01s WALL (     477 calls)
     cdiaghg:chol :      3.59s CPU      3.63s WALL (    1444 calls)
     cdiaghg:inve :      3.72s CPU      3.74s WALL (    1444 calls)
     cdiaghg:para :      8.01s CPU      8.07s WALL (    2888 calls)
     h_psi        :    318.95s CPU    322.34s WALL (    1449 calls)
     s_psi        :     43.24s CPU     43.39s WALL (    1449 calls)
     g_psi        :      1.14s CPU      1.14s WALL (    1189 calls)

     Called by h_psi:
     h_psi:calbec :     49.88s CPU     50.12s WALL (    1449 calls)
     vloc_psi     :    222.76s CPU    225.11s WALL (    1449 calls)
     add_vuspsi   :     43.32s CPU     43.53s WALL (    1449 calls)

     General routines
     calbec       :     71.42s CPU     71.78s WALL (    1704 calls)
     fft          :      4.62s CPU      4.67s WALL (     674 calls)
     ffts         :      4.74s CPU      4.77s WALL (    5375 calls)
     fftw         :    188.77s CPU    190.46s WALL (  351725 calls)
     interpolate  :      0.44s CPU      0.44s WALL (      52 calls)
 
     Parallel routines

     PAW routines
     PAW_pot      :      1.71s CPU      1.74s WALL (      52 calls)
 
     PWSCF        :  13m12.81s CPU  13m51.78s WALL

 
   This run was terminated on:  19:35:16  18Jun2024            

=------------------------------------------------------------------------------=
   JOB DONE.
=------------------------------------------------------------------------------=
