
     Program PWSCF v.7.2 starts on 21Jun2024 at 19:21:42 

     This program is part of the open-source Quantum ESPRESSO suite
     for quantum simulation of materials; please cite
         "P. Giannozzi et al., J. Phys.:Condens. Matter 21 395502 (2009);
         "P. Giannozzi et al., J. Phys.:Condens. Matter 29 465901 (2017);
         "P. Giannozzi et al., J. Chem. Phys. 152 154105 (2020);
          URL http://www.quantum-espresso.org", 
     in publications or presentations arising from this work. More details at
     http://www.quantum-espresso.org/quote

     Parallel version (MPI & OpenMP), running on      48 processor cores
     Number of MPI processes:                48
     Threads/MPI process:                     1

     MPI processes distributed on     1 nodes
     33234 MiB available memory on the printing compute node when the environment starts
 
     Reading input from espresso.pwi
Warning: card &CELL ignored
Warning: card / ignored
Warning: card &FCP ignored
Warning: card / ignored
Warning: card &RISM ignored
Warning: card / ignored

     Current dimensions of program PWSCF are:
     Max number of different atomic species (ntypx) = 10
     Max number of k-points (npk) =  40000
     Max angular momentum in pseudopotentials (lmaxx) =  4
     file O.pbe-n-kjpaw_psl.0.1.UPF: wavefunction(s)  2P renormalized
     signal trapping enabled: kill the code with -SIGUSR1 to stop cleanly the simulation 
 
     K-points division:     npool     =       2
     R & G space division:  proc/nbgrp/npool/nimage =      24
     Subspace diagonalization in iterative solution of the eigenvalue problem:
     one sub-group per band group will be used
     scalapack distributed-memory algorithm (size of sub-group:  3*  3 procs)

 
     Parallelization info
     --------------------
     sticks:   dense  smooth     PW     G-vecs:    dense   smooth      PW
     Min         350     175     47                61430    21716    3036
     Max         351     177     48                61449    21727    3041
     Sum        8421    4205   1137              1474595   521381   72913
 
     Using Slab Decomposition
 


     bravais-lattice index     =            0
     lattice parameter (alat)  =      14.8599  a.u.
     unit-cell volume          =    8305.1283 (a.u.)^3
     number of atoms/cell      =           50
     number of atomic types    =            4
     number of electrons       =       431.00
     number of Kohn-Sham states=          259
     kinetic-energy cutoff     =      60.0000  Ry
     charge density cutoff     =     480.0000  Ry
     scf convergence threshold =      1.0E-08
     mixing beta               =       0.1500
     number of iterations used =            8  local-TF  mixing
     Exchange-correlation= PBE
                           (   1   4   3   4   0   0   0)

     celldm(1)=  14.859904  celldm(2)=   0.000000  celldm(3)=   0.000000
     celldm(4)=   0.000000  celldm(5)=   0.000000  celldm(6)=   0.000000

     crystal axes: (cart. coord. in units of alat)
               a(1) = (   1.000000   0.000000   0.000000 )  
               a(2) = (   0.000000   1.000000   0.000000 )  
               a(3) = (   0.000000   0.000000   2.531036 )  

     reciprocal axes: (cart. coord. in units 2 pi/alat)
               b(1) = (  1.000000  0.000000  0.000000 )  
               b(2) = (  0.000000  1.000000  0.000000 )  
               b(3) = (  0.000000  0.000000  0.395095 )  


     PseudoPot. # 1 for Sr read from file:
     /bsuhome/zayahcortright/q-e/pseudo/Sr_pbe_v1.uspp.F.UPF
     MD5 check sum: 6b418c05fbe9db5448babca5e47b7a5b
     Pseudo is Ultrasoft + core correction, Zval = 10.0
     Generated by new atomic code, or converted to UPF format
     Using radial grid of  883 points,  6 beta functions with: 
                l(1) =   0
                l(2) =   0
                l(3) =   1
                l(4) =   1
                l(5) =   2
                l(6) =   2
     Q(r) pseudized with  6 coefficients,  rinner =    1.400   1.400   1.400
                                                       1.400   1.400

     PseudoPot. # 2 for O  read from file:
     /bsuhome/zayahcortright/q-e/pseudo/O.pbe-n-kjpaw_psl.0.1.UPF
     MD5 check sum: 0234752ac141de4415c5fc33072bef88
     Pseudo is Projector augmented-wave + core cor, Zval =  6.0
     Generated using "atomic" code by A. Dal Corso  v.5.0.99 svn rev. 10869
     Shape of augmentation charge: BESSEL
     Using radial grid of 1095 points,  4 beta functions with: 
                l(1) =   0
                l(2) =   0
                l(3) =   1
                l(4) =   1
     Q(r) pseudized with 0 coefficients 


     PseudoPot. # 3 for Co read from file:
     /bsuhome/zayahcortright/q-e/pseudo/Co_pbe_v1.2.uspp.F.UPF
     MD5 check sum: 5f91765df6ddd3222702df6e7b74a16d
     Pseudo is Ultrasoft + core correction, Zval = 17.0
     Generated by new atomic code, or converted to UPF format
     Using radial grid of  863 points,  6 beta functions with: 
                l(1) =   0
                l(2) =   0
                l(3) =   1
                l(4) =   1
                l(5) =   2
                l(6) =   2
     Q(r) pseudized with  8 coefficients,  rinner =    1.200   1.200   1.200
                                                       1.200   1.200

     PseudoPot. # 4 for H  read from file:
     /bsuhome/zayahcortright/q-e/pseudo/H.pbe-rrkjus_psl.1.0.0.UPF
     MD5 check sum: f52b6d4d1c606e5624b1dc7b2218f220
     Pseudo is Ultrasoft, Zval =  1.0
     Generated using "atomic" code by A. Dal Corso  v.5.1
     Using radial grid of  929 points,  2 beta functions with: 
                l(1) =   0
                l(2) =   0
     Q(r) pseudized with 0 coefficients 


     atomic species   valence    mass     pseudopotential
        Sr            10.00    87.62000     Sr( 1.00)
        O              6.00    15.99900     O ( 1.00)
        Co            17.00    58.93319     Co( 1.00)
        H              1.00     1.00800     H ( 1.00)

     No symmetry found


                                    s                        frac. trans.

      isym =  1     identity                                     

 cryst.   s( 1) = (     1          0          0      )
                  (     0          1          0      )
                  (     0          0          1      )

 cart.    s( 1) = (  1.0000000  0.0000000  0.0000000 )
                  (  0.0000000  1.0000000  0.0000000 )
                  (  0.0000000  0.0000000  1.0000000 )


   Cartesian axes

     site n.     atom                  positions (alat units)
         1           Sr  tau(   1) = (   0.2508693   0.7491307   1.7574407  )
         2           O   tau(   2) = (   0.4985141   0.5014859   1.7715967  )
         3           Sr  tau(   3) = (   0.7482398   0.7454518   1.7648669  )
         4           Sr  tau(   4) = (   0.7441748   0.2558252   1.7667843  )
         5           Sr  tau(   5) = (   0.2508693   0.7491307   1.2696799  )
         6           Sr  tau(   6) = (   0.2508693   0.7491307   0.7632319  )
         7           Co  tau(   7) = (   0.4998914   0.5001086   1.0164559  )
         8           Co  tau(   8) = (   0.4936915   0.5063085   1.5135603  )
         9           O   tau(   9) = (   0.4988895   0.7610401   1.0164559  )
        10           O   tau(  10) = (   0.2389599   0.5011105   1.0164559  )
        11           O   tau(  11) = (   0.0070918   0.7374880   1.0164559  )
        12           O   tau(  12) = (   0.0088340   0.7405089   1.5135603  )
        13           O   tau(  13) = (   0.5066944   0.7415376   1.5135603  )
        14           O   tau(  14) = (   0.2584624   0.4933056   1.5135603  )
        15           O   tau(  15) = (   0.4985141   0.5014859   0.7773880  )
        16           O   tau(  16) = (   0.4985141   0.5014859   1.2555238  )
        17           Sr  tau(  17) = (   0.7482398   0.7454518   0.7706582  )
        18           Sr  tau(  18) = (   0.7482398   0.7454518   1.2622536  )
        19           Sr  tau(  19) = (   0.7441748   0.2558252   0.7725755  )
        20           Sr  tau(  20) = (   0.7441748   0.2558252   1.2603363  )
        21           O   tau(  21) = (   0.7322655   0.0078049   1.5135603  )
        22           O   tau(  22) = (   0.7558175   0.4996027   1.5135603  )
        23           O   tau(  23) = (   0.5003973   0.2441825   1.5135603  )
        24           O   tau(  24) = (   0.7527966   0.4978604   1.0164559  )
        25           O   tau(  25) = (   0.5021396   0.2472034   1.0164559  )
        26           O   tau(  26) = (   0.7517679   0.0000000   1.0164559  )
        27           O   tau(  27) = (   0.0114961   0.4948124   1.7455321  )
        28           O   tau(  28) = (   0.0048226   0.0077944   1.7715967  )
        29           Sr  tau(  29) = (   0.2545482   0.2517602   1.7648669  )
        30           O   tau(  30) = (   0.5048017   0.0015068   1.7786929  )
        31           Co  tau(  31) = (   0.0056869   0.5006215   1.0164559  )
        32           Co  tau(  32) = (   0.0065315   0.4997770   1.5135603  )
        33           Co  tau(  33) = (   0.0061999   0.0064171   1.0164559  )
        34           Co  tau(  34) = (   0.0000000   0.0126169   1.5135603  )
        35           O   tau(  35) = (   0.0114961   0.4948124   1.2815885  )
        36           O   tau(  36) = (   0.0114961   0.4948124   0.7513233  )
        37           O   tau(  37) = (   0.0051979   0.2673486   1.0164559  )
        38           O   tau(  38) = (   0.0130029   0.2478461   1.5135603  )
        39           O   tau(  39) = (   0.0048226   0.0077944   0.7773880  )
        40           O   tau(  40) = (   0.0048226   0.0077944   1.2555238  )
        41           Sr  tau(  41) = (   0.2545482   0.2517602   0.7706582  )
        42           Sr  tau(  42) = (   0.2545482   0.2517602   1.2622536  )
        43           Co  tau(  43) = (   0.4989925   0.0073160   1.5135603  )
        44           Co  tau(  44) = (   0.4998370   0.0064714   1.0164559  )
        45           O   tau(  45) = (   0.5048017   0.0015068   0.7844841  )
        46           O   tau(  46) = (   0.5048017   0.0015068   1.2484277  )
        47           O   tau(  47) = (   0.2621260   0.0059111   1.5135603  )
        48           O   tau(  48) = (   0.2591051   0.0041689   1.0164559  )
        49           O   tau(  49) = (   0.2843291   0.7108228   2.1602013  )
        50           H   tau(  50) = (   0.2843291   0.7108228   2.2847091  )

   Crystallographic axes

     site n.     atom                  positions (cryst. coord.)
         1           Sr  tau(   1) = (  0.2508693  0.7491307  0.6943562  )
         2           O   tau(   2) = (  0.4985141  0.5014859  0.6999492  )
         3           Sr  tau(   3) = (  0.7482398  0.7454518  0.6972903  )
         4           Sr  tau(   4) = (  0.7441748  0.2558252  0.6980478  )
         5           Sr  tau(   5) = (  0.2508693  0.7491307  0.5016443  )
         6           Sr  tau(   6) = (  0.2508693  0.7491307  0.3015492  )
         7           Co  tau(   7) = (  0.4998914  0.5001086  0.4015968  )
         8           Co  tau(   8) = (  0.4936915  0.5063085  0.5980003  )
         9           O   tau(   9) = (  0.4988895  0.7610401  0.4015968  )
        10           O   tau(  10) = (  0.2389599  0.5011105  0.4015968  )
        11           O   tau(  11) = (  0.0070918  0.7374880  0.4015968  )
        12           O   tau(  12) = (  0.0088340  0.7405089  0.5980003  )
        13           O   tau(  13) = (  0.5066944  0.7415376  0.5980003  )
        14           O   tau(  14) = (  0.2584624  0.4933056  0.5980003  )
        15           O   tau(  15) = (  0.4985141  0.5014859  0.3071422  )
        16           O   tau(  16) = (  0.4985141  0.5014859  0.4960513  )
        17           Sr  tau(  17) = (  0.7482398  0.7454518  0.3044833  )
        18           Sr  tau(  18) = (  0.7482398  0.7454518  0.4987103  )
        19           Sr  tau(  19) = (  0.7441748  0.2558252  0.3052408  )
        20           Sr  tau(  20) = (  0.7441748  0.2558252  0.4979527  )
        21           O   tau(  21) = (  0.7322655  0.0078049  0.5980003  )
        22           O   tau(  22) = (  0.7558175  0.4996027  0.5980003  )
        23           O   tau(  23) = (  0.5003973  0.2441825  0.5980003  )
        24           O   tau(  24) = (  0.7527966  0.4978604  0.4015968  )
        25           O   tau(  25) = (  0.5021396  0.2472034  0.4015968  )
        26           O   tau(  26) = (  0.7517679  0.0000000  0.4015968  )
        27           O   tau(  27) = (  0.0114961  0.4948124  0.6896512  )
        28           O   tau(  28) = (  0.0048226  0.0077944  0.6999492  )
        29           Sr  tau(  29) = (  0.2545482  0.2517602  0.6972903  )
        30           O   tau(  30) = (  0.5048017  0.0015068  0.7027529  )
        31           Co  tau(  31) = (  0.0056869  0.5006215  0.4015968  )
        32           Co  tau(  32) = (  0.0065315  0.4997770  0.5980003  )
        33           Co  tau(  33) = (  0.0061999  0.0064171  0.4015968  )
        34           Co  tau(  34) = (  0.0000000  0.0126169  0.5980003  )
        35           O   tau(  35) = (  0.0114961  0.4948124  0.5063494  )
        36           O   tau(  36) = (  0.0114961  0.4948124  0.2968442  )
        37           O   tau(  37) = (  0.0051979  0.2673486  0.4015968  )
        38           O   tau(  38) = (  0.0130029  0.2478461  0.5980003  )
        39           O   tau(  39) = (  0.0048226  0.0077944  0.3071422  )
        40           O   tau(  40) = (  0.0048226  0.0077944  0.4960513  )
        41           Sr  tau(  41) = (  0.2545482  0.2517602  0.3044833  )
        42           Sr  tau(  42) = (  0.2545482  0.2517602  0.4987103  )
        43           Co  tau(  43) = (  0.4989925  0.0073160  0.5980003  )
        44           Co  tau(  44) = (  0.4998370  0.0064714  0.4015968  )
        45           O   tau(  45) = (  0.5048017  0.0015068  0.3099459  )
        46           O   tau(  46) = (  0.5048017  0.0015068  0.4932477  )
        47           O   tau(  47) = (  0.2621260  0.0059111  0.5980003  )
        48           O   tau(  48) = (  0.2591051  0.0041689  0.4015968  )
        49           O   tau(  49) = (  0.2843291  0.7108228  0.8534850  )
        50           H   tau(  50) = (  0.2843291  0.7108228  0.9026774  )

     number of k points=    10  Gaussian smearing, width (Ry)=  0.0700
                       cart. coord. in units 2pi/alat
        k(    1) = (   0.0000000   0.0000000   0.0000000), wk =   0.1250000
        k(    2) = (   0.0000000   0.2500000   0.0000000), wk =   0.2500000
        k(    3) = (   0.0000000  -0.5000000   0.0000000), wk =   0.1250000
        k(    4) = (   0.2500000   0.2500000   0.0000000), wk =   0.2500000
        k(    5) = (   0.2500000  -0.5000000   0.0000000), wk =   0.2500000
        k(    6) = (  -0.5000000  -0.5000000   0.0000000), wk =   0.1250000
        k(    7) = (   0.2500000   0.0000000   0.0000000), wk =   0.2500000
        k(    8) = (  -0.5000000   0.0000000   0.0000000), wk =   0.1250000
        k(    9) = (  -0.2500000   0.2500000   0.0000000), wk =   0.2500000
        k(   10) = (  -0.5000000   0.2500000   0.0000000), wk =   0.2500000

                       cryst. coord.
        k(    1) = (   0.0000000   0.0000000   0.0000000), wk =   0.1250000
        k(    2) = (   0.0000000   0.2500000   0.0000000), wk =   0.2500000
        k(    3) = (   0.0000000  -0.5000000   0.0000000), wk =   0.1250000
        k(    4) = (   0.2500000   0.2500000   0.0000000), wk =   0.2500000
        k(    5) = (   0.2500000  -0.5000000   0.0000000), wk =   0.2500000
        k(    6) = (  -0.5000000  -0.5000000   0.0000000), wk =   0.1250000
        k(    7) = (   0.2500000   0.0000000   0.0000000), wk =   0.2500000
        k(    8) = (  -0.5000000   0.0000000   0.0000000), wk =   0.1250000
        k(    9) = (  -0.2500000   0.2500000   0.0000000), wk =   0.2500000
        k(   10) = (  -0.5000000   0.2500000   0.0000000), wk =   0.2500000

     Dense  grid:  1474595 G-vectors     FFT dimensions: ( 108, 108, 270)

     Smooth grid:   521381 G-vectors     FFT dimensions: (  75,  75, 192)

     Dynamical RAM for                 wfc:      10.73 MB

     Dynamical RAM for     wfc (w. buffer):      64.38 MB

     Dynamical RAM for           str. fact:       3.75 MB

     Dynamical RAM for           local pot:       0.00 MB

     Dynamical RAM for          nlocal pot:      24.61 MB

     Dynamical RAM for                qrad:       7.03 MB

     Dynamical RAM for          rho,v,vnew:       6.02 MB

     Dynamical RAM for               rhoin:       2.01 MB

     Dynamical RAM for            rho*nmix:      15.00 MB

     Dynamical RAM for           G-vectors:       3.68 MB

     Dynamical RAM for          h,s,v(r/c):       1.35 MB

     Dynamical RAM for          <psi|beta>:       2.35 MB

     Dynamical RAM for                 psi:      21.46 MB

     Dynamical RAM for                hpsi:      21.46 MB

     Dynamical RAM for                spsi:      21.46 MB

     Dynamical RAM for      wfcinit/wfcrot:      34.49 MB

     Dynamical RAM for           addusdens:     101.26 MB

     Estimated static dynamical RAM per process >     121.50 MB

     Estimated max dynamical RAM per process >     237.76 MB

     Estimated total dynamical RAM >      10.79 GB

     Check: negative core charge=   -0.000004

     Initial potential from superposition of free atoms

     starting charge     422.5961, renormalised to     431.0000

     negative rho (up, down):  7.819E-01 0.000E+00
     Starting wfcs are  377 randomized atomic wfcs
     Checking if some PAW data can be deallocated... 
       PAW data deallocated on   19 nodes for type:  2

     total cpu time spent up to now is        8.9 secs

     Self-consistent Calculation

     iteration #  1     ecut=    60.00 Ry     beta= 0.15
     Davidson diagonalization with overlap

---- Real-time Memory Report at c_bands before calling an iterative solver
             0 MiB given to the printing process from OS
             0 MiB allocation reported by mallinfo(arena+hblkhd)
         24002 MiB available memory on the node where the printing process lives
------------------
     ethr =  1.00E-02,  avg # of iterations =  2.0

     negative rho (up, down):  7.713E-01 0.000E+00

     total cpu time spent up to now is       26.2 secs

     total energy              =   -4446.52527821 Ry
     estimated scf accuracy    <      44.48923257 Ry

     iteration #  2     ecut=    60.00 Ry     beta= 0.15
     Davidson diagonalization with overlap

---- Real-time Memory Report at c_bands before calling an iterative solver
             0 MiB given to the printing process from OS
             0 MiB allocation reported by mallinfo(arena+hblkhd)
         24263 MiB available memory on the node where the printing process lives
------------------
     ethr =  1.00E-02,  avg # of iterations =  1.0

     negative rho (up, down):  7.585E-01 0.000E+00

     total cpu time spent up to now is       40.8 secs

     total energy              =   -4443.36899156 Ry
     estimated scf accuracy    <      29.29673981 Ry

     iteration #  3     ecut=    60.00 Ry     beta= 0.15
     Davidson diagonalization with overlap

---- Real-time Memory Report at c_bands before calling an iterative solver
             0 MiB given to the printing process from OS
             0 MiB allocation reported by mallinfo(arena+hblkhd)
         23422 MiB available memory on the node where the printing process lives
------------------
     ethr =  6.80E-03,  avg # of iterations =  1.0

     negative rho (up, down):  7.556E-01 0.000E+00

     total cpu time spent up to now is       55.6 secs

     total energy              =   -4444.26089249 Ry
     estimated scf accuracy    <      27.61663565 Ry

     iteration #  4     ecut=    60.00 Ry     beta= 0.15
     Davidson diagonalization with overlap

---- Real-time Memory Report at c_bands before calling an iterative solver
             0 MiB given to the printing process from OS
             0 MiB allocation reported by mallinfo(arena+hblkhd)
         23409 MiB available memory on the node where the printing process lives
------------------
     ethr =  6.41E-03,  avg # of iterations =  1.0

     negative rho (up, down):  7.501E-01 0.000E+00

     total cpu time spent up to now is       70.2 secs

     total energy              =   -4443.06454786 Ry
     estimated scf accuracy    <      20.19174903 Ry

     iteration #  5     ecut=    60.00 Ry     beta= 0.15
     Davidson diagonalization with overlap

---- Real-time Memory Report at c_bands before calling an iterative solver
             0 MiB given to the printing process from OS
             0 MiB allocation reported by mallinfo(arena+hblkhd)
         23383 MiB available memory on the node where the printing process lives
------------------
     ethr =  4.68E-03,  avg # of iterations =  1.0

     negative rho (up, down):  7.403E-01 0.000E+00

     total cpu time spent up to now is       84.8 secs

     total energy              =   -4442.52176661 Ry
     estimated scf accuracy    <      11.57590495 Ry

     iteration #  6     ecut=    60.00 Ry     beta= 0.15
     Davidson diagonalization with overlap

---- Real-time Memory Report at c_bands before calling an iterative solver
             0 MiB given to the printing process from OS
             0 MiB allocation reported by mallinfo(arena+hblkhd)
         23374 MiB available memory on the node where the printing process lives
------------------
     ethr =  2.69E-03,  avg # of iterations =  1.0

     negative rho (up, down):  7.432E-01 0.000E+00

     total cpu time spent up to now is       99.5 secs

     total energy              =   -4442.82013447 Ry
     estimated scf accuracy    <       4.97418044 Ry

     iteration #  7     ecut=    60.00 Ry     beta= 0.15
     Davidson diagonalization with overlap

---- Real-time Memory Report at c_bands before calling an iterative solver
             0 MiB given to the printing process from OS
             0 MiB allocation reported by mallinfo(arena+hblkhd)
         23352 MiB available memory on the node where the printing process lives
------------------
     ethr =  1.15E-03,  avg # of iterations =  1.7

     negative rho (up, down):  7.648E-01 0.000E+00

     total cpu time spent up to now is      114.7 secs

     total energy              =   -4441.64798050 Ry
     estimated scf accuracy    <       3.93163476 Ry

     iteration #  8     ecut=    60.00 Ry     beta= 0.15
     Davidson diagonalization with overlap

---- Real-time Memory Report at c_bands before calling an iterative solver
             0 MiB given to the printing process from OS
             0 MiB allocation reported by mallinfo(arena+hblkhd)
         23328 MiB available memory on the node where the printing process lives
------------------
     ethr =  9.12E-04,  avg # of iterations =  5.1

     negative rho (up, down):  7.736E-01 0.000E+00

     total cpu time spent up to now is      134.5 secs

     total energy              =   -4441.30824718 Ry
     estimated scf accuracy    <      21.26970871 Ry

     iteration #  9     ecut=    60.00 Ry     beta= 0.15
     Davidson diagonalization with overlap

---- Real-time Memory Report at c_bands before calling an iterative solver
             0 MiB given to the printing process from OS
             0 MiB allocation reported by mallinfo(arena+hblkhd)
         23183 MiB available memory on the node where the printing process lives
------------------
     ethr =  9.12E-04,  avg # of iterations =  9.9

     negative rho (up, down):  7.706E-01 0.000E+00

     total cpu time spent up to now is      156.8 secs

     total energy              =   -4441.72543074 Ry
     estimated scf accuracy    <       3.50241759 Ry

     iteration # 10     ecut=    60.00 Ry     beta= 0.15
     Davidson diagonalization with overlap

---- Real-time Memory Report at c_bands before calling an iterative solver
             0 MiB given to the printing process from OS
             0 MiB allocation reported by mallinfo(arena+hblkhd)
         22870 MiB available memory on the node where the printing process lives
------------------
     ethr =  8.13E-04,  avg # of iterations =  1.2

     negative rho (up, down):  7.755E-01 0.000E+00

     total cpu time spent up to now is      171.9 secs

     total energy              =   -4441.89736281 Ry
     estimated scf accuracy    <       1.52742171 Ry

     iteration # 11     ecut=    60.00 Ry     beta= 0.15
     Davidson diagonalization with overlap

---- Real-time Memory Report at c_bands before calling an iterative solver
             0 MiB given to the printing process from OS
             0 MiB allocation reported by mallinfo(arena+hblkhd)
         22848 MiB available memory on the node where the printing process lives
------------------
     ethr =  3.54E-04,  avg # of iterations =  1.9

     negative rho (up, down):  8.025E-01 0.000E+00

     total cpu time spent up to now is      188.3 secs

     total energy              =   -4441.76555016 Ry
     estimated scf accuracy    <       1.14243651 Ry

     iteration # 12     ecut=    60.00 Ry     beta= 0.15
     Davidson diagonalization with overlap

---- Real-time Memory Report at c_bands before calling an iterative solver
             0 MiB given to the printing process from OS
             0 MiB allocation reported by mallinfo(arena+hblkhd)
         22851 MiB available memory on the node where the printing process lives
------------------
     ethr =  2.65E-04,  avg # of iterations =  6.6

     negative rho (up, down):  8.134E-01 0.000E+00

     total cpu time spent up to now is      206.9 secs

     total energy              =   -4441.86838367 Ry
     estimated scf accuracy    <       1.22076680 Ry

     iteration # 13     ecut=    60.00 Ry     beta= 0.15
     Davidson diagonalization with overlap

---- Real-time Memory Report at c_bands before calling an iterative solver
             0 MiB given to the printing process from OS
             0 MiB allocation reported by mallinfo(arena+hblkhd)
         22812 MiB available memory on the node where the printing process lives
------------------
     ethr =  2.65E-04,  avg # of iterations =  8.7

     negative rho (up, down):  8.181E-01 0.000E+00

     total cpu time spent up to now is      226.4 secs

     total energy              =   -4441.81673301 Ry
     estimated scf accuracy    <       0.81895069 Ry

     iteration # 14     ecut=    60.00 Ry     beta= 0.15
     Davidson diagonalization with overlap

---- Real-time Memory Report at c_bands before calling an iterative solver
             0 MiB given to the printing process from OS
             0 MiB allocation reported by mallinfo(arena+hblkhd)
         22793 MiB available memory on the node where the printing process lives
------------------
     ethr =  1.90E-04,  avg # of iterations =  4.3

     negative rho (up, down):  8.212E-01 0.000E+00

     total cpu time spent up to now is      243.8 secs

     total energy              =   -4441.76311318 Ry
     estimated scf accuracy    <       0.40285145 Ry

     iteration # 15     ecut=    60.00 Ry     beta= 0.15
     Davidson diagonalization with overlap

---- Real-time Memory Report at c_bands before calling an iterative solver
             0 MiB given to the printing process from OS
             0 MiB allocation reported by mallinfo(arena+hblkhd)
         22797 MiB available memory on the node where the printing process lives
------------------
     c_bands:  2 eigenvalues not converged
     ethr =  9.35E-05,  avg # of iterations = 13.1

     negative rho (up, down):  8.297E-01 0.000E+00

     total cpu time spent up to now is      266.6 secs

     total energy              =   -4441.73587041 Ry
     estimated scf accuracy    <       0.32566227 Ry

     iteration # 16     ecut=    60.00 Ry     beta= 0.15
     Davidson diagonalization with overlap

---- Real-time Memory Report at c_bands before calling an iterative solver
             0 MiB given to the printing process from OS
             0 MiB allocation reported by mallinfo(arena+hblkhd)
         22854 MiB available memory on the node where the printing process lives
------------------
     c_bands:  1 eigenvalues not converged
     ethr =  7.56E-05,  avg # of iterations =  9.4

     negative rho (up, down):  8.311E-01 0.000E+00

     total cpu time spent up to now is      287.4 secs

     total energy              =   -4441.73377773 Ry
     estimated scf accuracy    <       0.32476757 Ry

     iteration # 17     ecut=    60.00 Ry     beta= 0.15
     Davidson diagonalization with overlap

---- Real-time Memory Report at c_bands before calling an iterative solver
             0 MiB given to the printing process from OS
             0 MiB allocation reported by mallinfo(arena+hblkhd)
         22781 MiB available memory on the node where the printing process lives
------------------
     ethr =  7.54E-05,  avg # of iterations =  1.2

     negative rho (up, down):  8.216E-01 0.000E+00

     total cpu time spent up to now is      302.9 secs

     total energy              =   -4441.71059672 Ry
     estimated scf accuracy    <       0.24296703 Ry

     iteration # 18     ecut=    60.00 Ry     beta= 0.15
     Davidson diagonalization with overlap

---- Real-time Memory Report at c_bands before calling an iterative solver
             0 MiB given to the printing process from OS
             0 MiB allocation reported by mallinfo(arena+hblkhd)
         22801 MiB available memory on the node where the printing process lives
------------------
     ethr =  5.64E-05,  avg # of iterations =  6.5

     negative rho (up, down):  8.161E-01 0.000E+00

     total cpu time spent up to now is      321.7 secs

     total energy              =   -4441.70460345 Ry
     estimated scf accuracy    <       0.14976586 Ry

     iteration # 19     ecut=    60.00 Ry     beta= 0.15
     Davidson diagonalization with overlap

---- Real-time Memory Report at c_bands before calling an iterative solver
             0 MiB given to the printing process from OS
             0 MiB allocation reported by mallinfo(arena+hblkhd)
         22800 MiB available memory on the node where the printing process lives
------------------
     ethr =  3.47E-05,  avg # of iterations =  7.8

     negative rho (up, down):  8.086E-01 0.000E+00

     total cpu time spent up to now is      341.7 secs

     total energy              =   -4441.67701898 Ry
     estimated scf accuracy    <       0.11595333 Ry

     iteration # 20     ecut=    60.00 Ry     beta= 0.15
     Davidson diagonalization with overlap

---- Real-time Memory Report at c_bands before calling an iterative solver
             0 MiB given to the printing process from OS
             0 MiB allocation reported by mallinfo(arena+hblkhd)
         22779 MiB available memory on the node where the printing process lives
------------------
     ethr =  2.69E-05,  avg # of iterations =  9.8

     negative rho (up, down):  8.320E-01 0.000E+00

     total cpu time spent up to now is      364.1 secs

     total energy              =   -4441.67401380 Ry
     estimated scf accuracy    <       0.05919635 Ry

     iteration # 21     ecut=    60.00 Ry     beta= 0.15
     Davidson diagonalization with overlap

---- Real-time Memory Report at c_bands before calling an iterative solver
             0 MiB given to the printing process from OS
             0 MiB allocation reported by mallinfo(arena+hblkhd)
         22751 MiB available memory on the node where the printing process lives
------------------
     ethr =  1.37E-05,  avg # of iterations = 11.0

     negative rho (up, down):  8.322E-01 0.000E+00

     total cpu time spent up to now is      386.5 secs

     total energy              =   -4441.67606966 Ry
     estimated scf accuracy    <       0.03008516 Ry

     iteration # 22     ecut=    60.00 Ry     beta= 0.15
     Davidson diagonalization with overlap

---- Real-time Memory Report at c_bands before calling an iterative solver
             0 MiB given to the printing process from OS
             0 MiB allocation reported by mallinfo(arena+hblkhd)
         22717 MiB available memory on the node where the printing process lives
------------------
     ethr =  6.98E-06,  avg # of iterations =  2.3

     negative rho (up, down):  8.075E-01 0.000E+00

     total cpu time spent up to now is      403.4 secs

     total energy              =   -4441.67122189 Ry
     estimated scf accuracy    <       0.02418697 Ry

     iteration # 23     ecut=    60.00 Ry     beta= 0.15
     Davidson diagonalization with overlap

---- Real-time Memory Report at c_bands before calling an iterative solver
             0 MiB given to the printing process from OS
             0 MiB allocation reported by mallinfo(arena+hblkhd)
         22734 MiB available memory on the node where the printing process lives
------------------
     ethr =  5.61E-06,  avg # of iterations =  8.9

     negative rho (up, down):  8.019E-01 0.000E+00

     total cpu time spent up to now is      424.6 secs

     total energy              =   -4441.67164287 Ry
     estimated scf accuracy    <       0.01502941 Ry

     iteration # 24     ecut=    60.00 Ry     beta= 0.15
     Davidson diagonalization with overlap

---- Real-time Memory Report at c_bands before calling an iterative solver
             0 MiB given to the printing process from OS
             0 MiB allocation reported by mallinfo(arena+hblkhd)
         22702 MiB available memory on the node where the printing process lives
------------------
     ethr =  3.49E-06,  avg # of iterations =  3.7

     negative rho (up, down):  7.950E-01 0.000E+00

     total cpu time spent up to now is      442.9 secs

     total energy              =   -4441.67003242 Ry
     estimated scf accuracy    <       0.01197224 Ry

     iteration # 25     ecut=    60.00 Ry     beta= 0.15
     Davidson diagonalization with overlap

---- Real-time Memory Report at c_bands before calling an iterative solver
             0 MiB given to the printing process from OS
             0 MiB allocation reported by mallinfo(arena+hblkhd)
         22716 MiB available memory on the node where the printing process lives
------------------
     ethr =  2.78E-06,  avg # of iterations = 11.8

     negative rho (up, down):  7.918E-01 0.000E+00

     total cpu time spent up to now is      466.3 secs

     total energy              =   -4441.66875870 Ry
     estimated scf accuracy    <       0.00719611 Ry

     iteration # 26     ecut=    60.00 Ry     beta= 0.15
     Davidson diagonalization with overlap

---- Real-time Memory Report at c_bands before calling an iterative solver
             0 MiB given to the printing process from OS
             0 MiB allocation reported by mallinfo(arena+hblkhd)
         22687 MiB available memory on the node where the printing process lives
------------------
     c_bands:  1 eigenvalues not converged
     c_bands:  2 eigenvalues not converged
     ethr =  1.67E-06,  avg # of iterations = 13.5

     negative rho (up, down):  7.935E-01 0.000E+00

     total cpu time spent up to now is      492.0 secs

     total energy              =   -4441.66895171 Ry
     estimated scf accuracy    <       0.00336246 Ry

     iteration # 27     ecut=    60.00 Ry     beta= 0.15
     Davidson diagonalization with overlap

---- Real-time Memory Report at c_bands before calling an iterative solver
             0 MiB given to the printing process from OS
             0 MiB allocation reported by mallinfo(arena+hblkhd)
         22603 MiB available memory on the node where the printing process lives
------------------
     c_bands:  2 eigenvalues not converged
     ethr =  7.80E-07,  avg # of iterations =  9.4

     negative rho (up, down):  7.940E-01 0.000E+00

     total cpu time spent up to now is      513.1 secs

     total energy              =   -4441.66902576 Ry
     estimated scf accuracy    <       0.00198187 Ry

     iteration # 28     ecut=    60.00 Ry     beta= 0.15
     Davidson diagonalization with overlap

---- Real-time Memory Report at c_bands before calling an iterative solver
             0 MiB given to the printing process from OS
             0 MiB allocation reported by mallinfo(arena+hblkhd)
         22632 MiB available memory on the node where the printing process lives
------------------
     c_bands:  1 eigenvalues not converged
     ethr =  4.60E-07,  avg # of iterations =  4.7

     negative rho (up, down):  7.934E-01 0.000E+00

     total cpu time spent up to now is      532.0 secs

     total energy              =   -4441.66903066 Ry
     estimated scf accuracy    <       0.00133974 Ry

     iteration # 29     ecut=    60.00 Ry     beta= 0.15
     Davidson diagonalization with overlap

---- Real-time Memory Report at c_bands before calling an iterative solver
             0 MiB given to the printing process from OS
             0 MiB allocation reported by mallinfo(arena+hblkhd)
         22701 MiB available memory on the node where the printing process lives
------------------
     ethr =  3.11E-07,  avg # of iterations =  9.7

     negative rho (up, down):  7.928E-01 0.000E+00

     total cpu time spent up to now is      553.4 secs

     total energy              =   -4441.66905617 Ry
     estimated scf accuracy    <       0.00055718 Ry

     iteration # 30     ecut=    60.00 Ry     beta= 0.15
     Davidson diagonalization with overlap

---- Real-time Memory Report at c_bands before calling an iterative solver
             0 MiB given to the printing process from OS
             0 MiB allocation reported by mallinfo(arena+hblkhd)
         22736 MiB available memory on the node where the printing process lives
------------------
     ethr =  1.29E-07,  avg # of iterations =  4.6

     negative rho (up, down):  7.926E-01 0.000E+00

     total cpu time spent up to now is      572.0 secs

     total energy              =   -4441.66907465 Ry
     estimated scf accuracy    <       0.00021471 Ry

     iteration # 31     ecut=    60.00 Ry     beta= 0.15
     Davidson diagonalization with overlap

---- Real-time Memory Report at c_bands before calling an iterative solver
             0 MiB given to the printing process from OS
             0 MiB allocation reported by mallinfo(arena+hblkhd)
         22742 MiB available memory on the node where the printing process lives
------------------
     ethr =  4.98E-08,  avg # of iterations =  7.0

     negative rho (up, down):  7.921E-01 0.000E+00

     total cpu time spent up to now is      591.1 secs

     total energy              =   -4441.66908183 Ry
     estimated scf accuracy    <       0.00006842 Ry

     iteration # 32     ecut=    60.00 Ry     beta= 0.15
     Davidson diagonalization with overlap

---- Real-time Memory Report at c_bands before calling an iterative solver
             0 MiB given to the printing process from OS
             0 MiB allocation reported by mallinfo(arena+hblkhd)
         22746 MiB available memory on the node where the printing process lives
------------------
     ethr =  1.59E-08,  avg # of iterations =  2.2

     negative rho (up, down):  7.921E-01 0.000E+00

     total cpu time spent up to now is      608.0 secs

     total energy              =   -4441.66908499 Ry
     estimated scf accuracy    <       0.00002795 Ry

     iteration # 33     ecut=    60.00 Ry     beta= 0.15
     Davidson diagonalization with overlap

---- Real-time Memory Report at c_bands before calling an iterative solver
             0 MiB given to the printing process from OS
             0 MiB allocation reported by mallinfo(arena+hblkhd)
         22762 MiB available memory on the node where the printing process lives
------------------
     ethr =  6.49E-09,  avg # of iterations =  2.8

     negative rho (up, down):  7.922E-01 0.000E+00

     total cpu time spent up to now is      625.3 secs

     total energy              =   -4441.66908730 Ry
     estimated scf accuracy    <       0.00001250 Ry

     iteration # 34     ecut=    60.00 Ry     beta= 0.15
     Davidson diagonalization with overlap

---- Real-time Memory Report at c_bands before calling an iterative solver
             0 MiB given to the printing process from OS
             0 MiB allocation reported by mallinfo(arena+hblkhd)
         22765 MiB available memory on the node where the printing process lives
------------------
     ethr =  2.90E-09,  avg # of iterations =  2.2

     negative rho (up, down):  7.923E-01 0.000E+00

     total cpu time spent up to now is      642.1 secs

     total energy              =   -4441.66908770 Ry
     estimated scf accuracy    <       0.00000761 Ry

     iteration # 35     ecut=    60.00 Ry     beta= 0.15
     Davidson diagonalization with overlap

---- Real-time Memory Report at c_bands before calling an iterative solver
             0 MiB given to the printing process from OS
             0 MiB allocation reported by mallinfo(arena+hblkhd)
         22769 MiB available memory on the node where the printing process lives
------------------
     ethr =  1.77E-09,  avg # of iterations =  2.3

     negative rho (up, down):  7.924E-01 0.000E+00

     total cpu time spent up to now is      658.9 secs

     total energy              =   -4441.66908913 Ry
     estimated scf accuracy    <       0.00000625 Ry

     iteration # 36     ecut=    60.00 Ry     beta= 0.15
     Davidson diagonalization with overlap

---- Real-time Memory Report at c_bands before calling an iterative solver
             0 MiB given to the printing process from OS
             0 MiB allocation reported by mallinfo(arena+hblkhd)
         22770 MiB available memory on the node where the printing process lives
------------------
     ethr =  1.45E-09,  avg # of iterations =  2.0

     negative rho (up, down):  7.924E-01 0.000E+00

     total cpu time spent up to now is      675.7 secs

     total energy              =   -4441.66908923 Ry
     estimated scf accuracy    <       0.00000526 Ry

     iteration # 37     ecut=    60.00 Ry     beta= 0.15
     Davidson diagonalization with overlap

---- Real-time Memory Report at c_bands before calling an iterative solver
             0 MiB given to the printing process from OS
             0 MiB allocation reported by mallinfo(arena+hblkhd)
         22770 MiB available memory on the node where the printing process lives
------------------
     ethr =  1.22E-09,  avg # of iterations =  1.1

     negative rho (up, down):  7.924E-01 0.000E+00

     total cpu time spent up to now is      690.8 secs

     total energy              =   -4441.66908929 Ry
     estimated scf accuracy    <       0.00000473 Ry

     iteration # 38     ecut=    60.00 Ry     beta= 0.15
     Davidson diagonalization with overlap

---- Real-time Memory Report at c_bands before calling an iterative solver
             0 MiB given to the printing process from OS
             0 MiB allocation reported by mallinfo(arena+hblkhd)
         22780 MiB available memory on the node where the printing process lives
------------------
     ethr =  1.10E-09,  avg # of iterations =  1.1

     negative rho (up, down):  7.924E-01 0.000E+00

     total cpu time spent up to now is      705.9 secs

     total energy              =   -4441.66908981 Ry
     estimated scf accuracy    <       0.00000364 Ry

     iteration # 39     ecut=    60.00 Ry     beta= 0.15
     Davidson diagonalization with overlap

---- Real-time Memory Report at c_bands before calling an iterative solver
             0 MiB given to the printing process from OS
             0 MiB allocation reported by mallinfo(arena+hblkhd)
         22782 MiB available memory on the node where the printing process lives
------------------
     ethr =  8.44E-10,  avg # of iterations =  2.1

     negative rho (up, down):  7.925E-01 0.000E+00

     total cpu time spent up to now is      722.8 secs

     total energy              =   -4441.66909059 Ry
     estimated scf accuracy    <       0.00000258 Ry

     iteration # 40     ecut=    60.00 Ry     beta= 0.15
     Davidson diagonalization with overlap

---- Real-time Memory Report at c_bands before calling an iterative solver
             0 MiB given to the printing process from OS
             0 MiB allocation reported by mallinfo(arena+hblkhd)
         22783 MiB available memory on the node where the printing process lives
------------------
     ethr =  5.99E-10,  avg # of iterations =  2.3

     negative rho (up, down):  7.926E-01 0.000E+00

     total cpu time spent up to now is      739.6 secs

     total energy              =   -4441.66909104 Ry
     estimated scf accuracy    <       0.00000155 Ry

     iteration # 41     ecut=    60.00 Ry     beta= 0.15
     Davidson diagonalization with overlap

---- Real-time Memory Report at c_bands before calling an iterative solver
             0 MiB given to the printing process from OS
             0 MiB allocation reported by mallinfo(arena+hblkhd)
         22791 MiB available memory on the node where the printing process lives
------------------
     ethr =  3.60E-10,  avg # of iterations =  3.0

     negative rho (up, down):  7.926E-01 0.000E+00

     total cpu time spent up to now is      757.1 secs

     total energy              =   -4441.66909110 Ry
     estimated scf accuracy    <       0.00000063 Ry

     iteration # 42     ecut=    60.00 Ry     beta= 0.15
     Davidson diagonalization with overlap

---- Real-time Memory Report at c_bands before calling an iterative solver
             0 MiB given to the printing process from OS
             0 MiB allocation reported by mallinfo(arena+hblkhd)
         22788 MiB available memory on the node where the printing process lives
------------------
     ethr =  1.46E-10,  avg # of iterations =  2.8

     negative rho (up, down):  7.926E-01 0.000E+00

     total cpu time spent up to now is      774.2 secs

     total energy              =   -4441.66909119 Ry
     estimated scf accuracy    <       0.00000039 Ry

     iteration # 43     ecut=    60.00 Ry     beta= 0.15
     Davidson diagonalization with overlap

---- Real-time Memory Report at c_bands before calling an iterative solver
             0 MiB given to the printing process from OS
             0 MiB allocation reported by mallinfo(arena+hblkhd)
         22783 MiB available memory on the node where the printing process lives
------------------
     ethr =  8.98E-11,  avg # of iterations =  2.1

     negative rho (up, down):  7.925E-01 0.000E+00

     total cpu time spent up to now is      791.0 secs

     total energy              =   -4441.66909125 Ry
     estimated scf accuracy    <       0.00000023 Ry

     iteration # 44     ecut=    60.00 Ry     beta= 0.15
     Davidson diagonalization with overlap

---- Real-time Memory Report at c_bands before calling an iterative solver
             0 MiB given to the printing process from OS
             0 MiB allocation reported by mallinfo(arena+hblkhd)
         22789 MiB available memory on the node where the printing process lives
------------------
     ethr =  5.23E-11,  avg # of iterations =  3.1

     negative rho (up, down):  7.925E-01 0.000E+00

     total cpu time spent up to now is      808.5 secs

     total energy              =   -4441.66909128 Ry
     estimated scf accuracy    <       0.00000007 Ry

     iteration # 45     ecut=    60.00 Ry     beta= 0.15
     Davidson diagonalization with overlap

---- Real-time Memory Report at c_bands before calling an iterative solver
             0 MiB given to the printing process from OS
             0 MiB allocation reported by mallinfo(arena+hblkhd)
         22787 MiB available memory on the node where the printing process lives
------------------
     ethr =  1.60E-11,  avg # of iterations =  2.5

     negative rho (up, down):  7.925E-01 0.000E+00

     total cpu time spent up to now is      825.5 secs

     total energy              =   -4441.66909128 Ry
     estimated scf accuracy    <       0.00000004 Ry

     iteration # 46     ecut=    60.00 Ry     beta= 0.15
     Davidson diagonalization with overlap

---- Real-time Memory Report at c_bands before calling an iterative solver
             0 MiB given to the printing process from OS
             0 MiB allocation reported by mallinfo(arena+hblkhd)
         22786 MiB available memory on the node where the printing process lives
------------------
     ethr =  9.93E-12,  avg # of iterations =  3.0

     negative rho (up, down):  7.925E-01 0.000E+00

     total cpu time spent up to now is      842.8 secs

     total energy              =   -4441.66909129 Ry
     estimated scf accuracy    <       0.00000002 Ry

     iteration # 47     ecut=    60.00 Ry     beta= 0.15
     Davidson diagonalization with overlap

---- Real-time Memory Report at c_bands before calling an iterative solver
             0 MiB given to the printing process from OS
             0 MiB allocation reported by mallinfo(arena+hblkhd)
         22786 MiB available memory on the node where the printing process lives
------------------
     ethr =  4.59E-12,  avg # of iterations =  2.8

     negative rho (up, down):  7.925E-01 0.000E+00

     total cpu time spent up to now is      860.2 secs

     total energy              =   -4441.66909128 Ry
     estimated scf accuracy    <       0.00000001 Ry

     iteration # 48     ecut=    60.00 Ry     beta= 0.15
     Davidson diagonalization with overlap

---- Real-time Memory Report at c_bands before calling an iterative solver
             0 MiB given to the printing process from OS
             0 MiB allocation reported by mallinfo(arena+hblkhd)
         22786 MiB available memory on the node where the printing process lives
------------------
     ethr =  3.16E-12,  avg # of iterations =  4.1

     negative rho (up, down):  7.925E-01 0.000E+00

     total cpu time spent up to now is      877.9 secs

     End of self-consistent calculation

          k = 0.0000 0.0000 0.0000 ( 65197 PWs)   bands (ev):

   -92.6987 -92.6486 -92.5527 -92.5064 -92.4506 -92.4053 -92.3876 -92.2667
   -56.0521 -56.0353 -55.9100 -55.8994 -55.8930 -55.8861 -55.8523 -55.8219
   -55.8062 -55.8049 -55.7988 -55.7568 -55.7372 -55.7017 -55.6792 -55.6502
   -55.6420 -55.5933 -55.5924 -55.5904 -55.5820 -55.5417 -55.5180 -55.4329
   -31.2760 -31.2564 -31.1152 -31.0800 -31.0475 -31.0281 -30.7643 -30.5252
   -29.8444 -29.8009 -29.7776 -29.6672 -15.0787 -15.0287 -14.9531 -14.8232
   -14.6265 -14.5027 -14.2145 -14.1962 -14.1647 -14.1209 -14.0755 -14.0643
   -14.0519 -14.0315 -14.0037 -13.9897 -13.9732 -13.9257 -13.7748 -13.5949
   -13.5620 -13.5322 -13.4993 -13.4830 -13.4286 -13.3940 -13.3205 -13.2484
   -13.1249 -13.1076 -13.1040 -13.0782 -13.0723 -13.0553 -13.0117 -13.0003
   -12.9780 -12.9552 -12.9216 -12.9172 -12.8982 -12.8960 -12.8771 -12.7636
   -12.7356 -12.7229 -12.5207 -12.4943 -12.4179 -12.3406 -12.1948 -11.9764
   -11.9030 -11.8573 -11.7834 -11.7734 -11.7493 -11.7323 -11.6685 -11.6518
   -11.6159 -11.5881 -11.4758 -11.3965 -11.3928  -2.9379  -2.7062  -2.4767
    -2.3288  -2.2665  -2.1250  -1.8172  -1.8030  -1.7842  -1.6983  -1.6795
    -1.6115  -1.5948  -1.5539  -1.5108  -1.3330  -1.2536  -1.1022  -1.0720
    -0.9283  -0.9135  -0.8635  -0.8478  -0.8017  -0.7835  -0.7305  -0.7040
    -0.6273  -0.6167  -0.5439  -0.4115  -0.3992  -0.3699  -0.2881  -0.2650
    -0.2476  -0.1979  -0.1229  -0.0674  -0.0263   0.0040   0.0742   0.1354
     0.1845   0.2064   0.2197   0.4765   0.4956   0.6662   0.7303   0.7991
     0.8483   0.9289   0.9438   0.9583   1.0284   1.0541   1.0912   1.1459
     1.2769   1.3381   1.3581   1.3787   1.3921   1.4559   1.5240   1.6356
     1.6477   1.7175   1.7214   1.7656   1.7817   1.7927   1.8489   1.9088
     1.9205   1.9571   1.9953   2.0333   2.1631   2.2528   2.2917   2.3075
     2.4451   2.4500   2.4656   2.4812   2.5151   2.5308   2.6284   2.6615
     2.6881   2.7068   2.7220   2.8048   2.9101   2.9435   2.9542   2.9602
     3.0281   3.0326   3.0557   3.0636   3.0728   3.0855   3.0920   3.1064
     3.1122   3.1232   3.1323   3.1410   3.1600   3.1806   3.1855   3.1981
     3.2252   3.3385   3.4156   4.1092   4.4355   4.7708   4.8648   5.0502
     5.7730   5.9447   5.9873   6.0088   6.3165   6.3634   6.4776   6.4889
     6.7232   7.0054   7.0962   7.3167   7.3888   7.6440   7.6684   7.6837
     7.7543   7.8598   7.9460   8.0196   8.1115   8.1700   8.5159   8.5990
     8.6626   8.7639   8.8585

     occupation numbers 
     1.0000   1.0000   1.0000   1.0000   1.0000   1.0000   1.0000   1.0000
     1.0000   1.0000   1.0000   1.0000   1.0000   1.0000   1.0000   1.0000
     1.0000   1.0000   1.0000   1.0000   1.0000   1.0000   1.0000   1.0000
     1.0000   1.0000   1.0000   1.0000   1.0000   1.0000   1.0000   1.0000
     1.0000   1.0000   1.0000   1.0000   1.0000   1.0000   1.0000   1.0000
     1.0000   1.0000   1.0000   1.0000   1.0000   1.0000   1.0000   1.0000
     1.0000   1.0000   1.0000   1.0000   1.0000   1.0000   1.0000   1.0000
     1.0000   1.0000   1.0000   1.0000   1.0000   1.0000   1.0000   1.0000
     1.0000   1.0000   1.0000   1.0000   1.0000   1.0000   1.0000   1.0000
     1.0000   1.0000   1.0000   1.0000   1.0000   1.0000   1.0000   1.0000
     1.0000   1.0000   1.0000   1.0000   1.0000   1.0000   1.0000   1.0000
     1.0000   1.0000   1.0000   1.0000   1.0000   1.0000   1.0000   1.0000
     1.0000   1.0000   1.0000   1.0000   1.0000   1.0000   1.0000   1.0000
     1.0000   1.0000   1.0000   1.0000   1.0000   1.0000   1.0000   1.0000
     1.0000   1.0000   1.0000   1.0000   1.0000   1.0000   1.0000   1.0000
     1.0000   1.0000   1.0000   1.0000   1.0000   1.0000   1.0000   1.0000
     1.0000   1.0000   1.0000   1.0000   1.0000   1.0000   1.0000   1.0000
     1.0000   1.0000   1.0000   1.0000   1.0000   1.0000   1.0000   1.0000
     1.0000   1.0000   1.0000   1.0000   1.0000   1.0000   1.0000   1.0000
     1.0000   1.0000   1.0000   1.0000   1.0000   1.0000   0.9999   0.9999
     0.9999   0.9998   0.9998   0.9998   0.9997   0.9996   0.9996   0.9994
     0.9988   0.9984   0.9983   0.9981   0.9980   0.9973   0.9963   0.9940
     0.9937   0.9916   0.9915   0.9899   0.9892   0.9887   0.9860   0.9825
     0.9818   0.9792   0.9762   0.9728   0.9583   0.9450   0.9383   0.9353
     0.9053   0.9041   0.9001   0.8960   0.8866   0.8821   0.8509   0.8392
     0.8294   0.8222   0.8163   0.7818   0.7330   0.7165   0.7111   0.7080
     0.6725   0.6701   0.6576   0.6533   0.6482   0.6412   0.6376   0.6295
     0.6263   0.6201   0.6149   0.6100   0.5991   0.5872   0.5844   0.5771
     0.5613   0.4944   0.4489   0.1233   0.0502   0.0161   0.0113   0.0053
     0.0001   0.0001   0.0000   0.0000   0.0000   0.0000   0.0000   0.0000
     0.0000   0.0000   0.0000   0.0000   0.0000   0.0000   0.0000   0.0000
     0.0000   0.0000   0.0000   0.0000   0.0000   0.0000   0.0000   0.0000
     0.0000   0.0000   0.0000

          k = 0.0000 0.2500 0.0000 ( 65257 PWs)   bands (ev):

   -92.6987 -92.6486 -92.5527 -92.5064 -92.4506 -92.4053 -92.3876 -92.2667
   -56.0521 -56.0353 -55.9100 -55.8994 -55.8931 -55.8861 -55.8523 -55.8219
   -55.8062 -55.8049 -55.7988 -55.7568 -55.7372 -55.7017 -55.6792 -55.6502
   -55.6420 -55.5933 -55.5924 -55.5904 -55.5820 -55.5417 -55.5180 -55.4329
   -31.2758 -31.2563 -31.1154 -31.0791 -31.0484 -31.0282 -30.7642 -30.5254
   -29.8438 -29.8006 -29.7782 -29.6675 -15.0424 -15.0027 -14.9279 -14.7937
   -14.6668 -14.4940 -14.3608 -14.1821 -14.1427 -14.1261 -14.0974 -14.0375
   -14.0304 -14.0157 -13.9927 -13.9890 -13.9417 -13.8447 -13.8034 -13.6454
   -13.6166 -13.5739 -13.5385 -13.4887 -13.4490 -13.3997 -13.3402 -13.3059
   -13.2375 -13.1688 -13.1455 -13.1073 -13.0940 -13.0579 -12.9926 -12.9713
   -12.9402 -12.9271 -12.8986 -12.8644 -12.8287 -12.7992 -12.7960 -12.7552
   -12.7275 -12.6976 -12.4610 -12.4113 -12.4018 -12.3788 -12.2460 -12.0321
   -11.9686 -11.8229 -11.7802 -11.7525 -11.7252 -11.7086 -11.6601 -11.6493
   -11.6270 -11.5911 -11.4905 -11.4382 -11.4275  -2.8025  -2.5819  -2.4438
    -2.2618  -2.2184  -2.0553  -1.8352  -1.7515  -1.7385  -1.6793  -1.5776
    -1.5617  -1.5290  -1.5009  -1.4574  -1.2774  -1.2412  -1.1296  -1.1166
    -1.0418  -1.0304  -0.9270  -0.8987  -0.8405  -0.8139  -0.7750  -0.7097
    -0.6819  -0.6506  -0.6175  -0.6011  -0.5670  -0.4964  -0.4449  -0.3749
    -0.2641  -0.2427  -0.2017  -0.0837  -0.0387   0.0146   0.0624   0.1235
     0.1372   0.1641   0.2276   0.5272   0.6128   0.6472   0.7356   0.7800
     0.8035   0.9147   0.9331   1.0288   1.0565   1.0812   1.1944   1.2913
     1.3125   1.3375   1.3543   1.3790   1.4392   1.4665   1.4949   1.5413
     1.5778   1.6092   1.6975   1.7328   1.7673   1.8154   1.8730   1.9186
     1.9431   1.9644   1.9830   2.0830   2.2040   2.2753   2.2904   2.3637
     2.4078   2.4389   2.4507   2.4688   2.4787   2.5226   2.5574   2.6435
     2.6829   2.7006   2.8682   2.8896   2.9234   2.9461   2.9612   2.9695
     2.9774   2.9861   3.0159   3.0181   3.0361   3.0416   3.0501   3.0688
     3.0814   3.0882   3.1101   3.1219   3.1266   3.1619   3.1786   3.2379
     3.6140   3.6388   3.8824   4.3005   4.4306   4.7156   5.0178   5.0708
     5.6466   5.8112   5.9311   5.9847   6.0864   6.1086   6.1857   6.5943
     6.8353   7.0450   7.1115   7.3302   7.4871   7.4982   7.6439   7.6730
     7.8861   7.9572   7.9897   8.1793   8.2854   8.3772   8.4087   8.5191
     8.5984   8.8510   8.9272

     occupation numbers 
     1.0000   1.0000   1.0000   1.0000   1.0000   1.0000   1.0000   1.0000
     1.0000   1.0000   1.0000   1.0000   1.0000   1.0000   1.0000   1.0000
     1.0000   1.0000   1.0000   1.0000   1.0000   1.0000   1.0000   1.0000
     1.0000   1.0000   1.0000   1.0000   1.0000   1.0000   1.0000   1.0000
     1.0000   1.0000   1.0000   1.0000   1.0000   1.0000   1.0000   1.0000
     1.0000   1.0000   1.0000   1.0000   1.0000   1.0000   1.0000   1.0000
     1.0000   1.0000   1.0000   1.0000   1.0000   1.0000   1.0000   1.0000
     1.0000   1.0000   1.0000   1.0000   1.0000   1.0000   1.0000   1.0000
     1.0000   1.0000   1.0000   1.0000   1.0000   1.0000   1.0000   1.0000
     1.0000   1.0000   1.0000   1.0000   1.0000   1.0000   1.0000   1.0000
     1.0000   1.0000   1.0000   1.0000   1.0000   1.0000   1.0000   1.0000
     1.0000   1.0000   1.0000   1.0000   1.0000   1.0000   1.0000   1.0000
     1.0000   1.0000   1.0000   1.0000   1.0000   1.0000   1.0000   1.0000
     1.0000   1.0000   1.0000   1.0000   1.0000   1.0000   1.0000   1.0000
     1.0000   1.0000   1.0000   1.0000   1.0000   1.0000   1.0000   1.0000
     1.0000   1.0000   1.0000   1.0000   1.0000   1.0000   1.0000   1.0000
     1.0000   1.0000   1.0000   1.0000   1.0000   1.0000   1.0000   1.0000
     1.0000   1.0000   1.0000   1.0000   1.0000   1.0000   1.0000   1.0000
     1.0000   1.0000   1.0000   1.0000   1.0000   1.0000   1.0000   1.0000
     1.0000   1.0000   1.0000   1.0000   1.0000   1.0000   0.9999   0.9999
     0.9999   0.9998   0.9998   0.9997   0.9996   0.9996   0.9992   0.9988
     0.9986   0.9984   0.9983   0.9981   0.9975   0.9972   0.9968   0.9960
     0.9953   0.9947   0.9923   0.9911   0.9898   0.9877   0.9847   0.9819
     0.9802   0.9786   0.9772   0.9679   0.9526   0.9412   0.9385   0.9241
     0.9143   0.9069   0.9039   0.8993   0.8967   0.8844   0.8741   0.8457
     0.8313   0.8246   0.7531   0.7430   0.7265   0.7152   0.7076   0.7033
     0.6992   0.6947   0.6790   0.6778   0.6682   0.6653   0.6606   0.6504
     0.6435   0.6397   0.6274   0.6208   0.6181   0.5980   0.5884   0.5538
     0.3361   0.3228   0.2056   0.0746   0.0510   0.0198   0.0061   0.0049
     0.0003   0.0001   0.0001   0.0000   0.0000   0.0000   0.0000   0.0000
     0.0000   0.0000   0.0000   0.0000   0.0000   0.0000   0.0000   0.0000
     0.0000   0.0000   0.0000   0.0000   0.0000   0.0000   0.0000   0.0000
     0.0000   0.0000   0.0000

          k = 0.0000-0.5000 0.0000 ( 65180 PWs)   bands (ev):

   -92.6987 -92.6486 -92.5527 -92.5064 -92.4506 -92.4053 -92.3876 -92.2667
   -56.0521 -56.0353 -55.9100 -55.8993 -55.8931 -55.8861 -55.8523 -55.8219
   -55.8062 -55.8049 -55.7988 -55.7568 -55.7372 -55.7017 -55.6792 -55.6502
   -55.6420 -55.5933 -55.5924 -55.5904 -55.5820 -55.5417 -55.5180 -55.4329
   -31.2756 -31.2561 -31.1156 -31.0781 -31.0494 -31.0284 -30.7641 -30.5255
   -29.8431 -29.8003 -29.7789 -29.6678 -15.0051 -14.9562 -14.9039 -14.7689
   -14.6934 -14.5516 -14.4039 -14.2685 -14.1551 -14.0826 -14.0380 -14.0326
   -13.9907 -13.9809 -13.9657 -13.9207 -13.8941 -13.8736 -13.8349 -13.7791
   -13.7550 -13.5811 -13.5222 -13.4938 -13.4545 -13.3948 -13.3559 -13.3124
   -13.2812 -13.2519 -13.2161 -13.1082 -13.0950 -13.0224 -13.0167 -12.9656
   -12.9488 -12.9270 -12.8800 -12.8066 -12.7892 -12.7549 -12.7115 -12.7024
   -12.6772 -12.6499 -12.5130 -12.4332 -12.3214 -12.3098 -12.1997 -12.1204
   -12.1158 -11.7771 -11.7746 -11.7476 -11.7120 -11.6769 -11.6659 -11.6216
   -11.6176 -11.5714 -11.5130 -11.4991 -11.4847  -2.5878  -2.5288  -2.3785
    -2.3069  -2.0243  -1.9415  -1.8147  -1.6774  -1.6383  -1.6201  -1.5427
    -1.5084  -1.4288  -1.3926  -1.3141  -1.2760  -1.2662  -1.2369  -1.2081
    -1.1506  -1.1158  -1.0589  -1.0302  -1.0000  -0.9592  -0.8556  -0.8108
    -0.7742  -0.7729  -0.6855  -0.6548  -0.6306  -0.5829  -0.4976  -0.4243
    -0.3336  -0.3053  -0.1973  -0.1661  -0.0268   0.0204   0.0437   0.0922
     0.2236   0.2839   0.3945   0.4669   0.4740   0.6012   0.6627   0.7533
     0.8842   0.9853   1.0193   1.0585   1.0685   1.1031   1.1186   1.1541
     1.1738   1.1827   1.2939   1.3520   1.3823   1.4088   1.6760   1.7046
     1.7319   1.8205   1.8428   1.8788   1.8967   1.9177   1.9472   1.9479
     1.9749   2.0111   2.0354   2.0687   2.0713   2.1034   2.1576   2.2464
     2.2829   2.4421   2.4547   2.4627   2.6077   2.6215   2.6346   2.6736
     2.6789   2.6870   2.7360   2.7470   2.8013   2.8233   2.9037   2.9143
     2.9854   2.9878   3.0122   3.0178   3.0330   3.0374   3.0404   3.0469
     3.0499   3.0620   3.0801   3.0822   3.1464   3.1521   3.1682   3.2225
     4.1313   4.1513   4.2011   4.2624   4.7397   4.9098   5.0268   5.1710
     5.4138   5.4659   5.5861   5.7312   6.0318   6.0506   6.2698   6.4887
     6.8505   6.9506   7.2188   7.2686   7.3624   7.4826   7.7482   7.8184
     7.9101   7.9737   8.2383   8.3373   8.3807   8.4777   8.5193   8.6693
     8.8158   8.8494   8.8764

     occupation numbers 
     1.0000   1.0000   1.0000   1.0000   1.0000   1.0000   1.0000   1.0000
     1.0000   1.0000   1.0000   1.0000   1.0000   1.0000   1.0000   1.0000
     1.0000   1.0000   1.0000   1.0000   1.0000   1.0000   1.0000   1.0000
     1.0000   1.0000   1.0000   1.0000   1.0000   1.0000   1.0000   1.0000
     1.0000   1.0000   1.0000   1.0000   1.0000   1.0000   1.0000   1.0000
     1.0000   1.0000   1.0000   1.0000   1.0000   1.0000   1.0000   1.0000
     1.0000   1.0000   1.0000   1.0000   1.0000   1.0000   1.0000   1.0000
     1.0000   1.0000   1.0000   1.0000   1.0000   1.0000   1.0000   1.0000
     1.0000   1.0000   1.0000   1.0000   1.0000   1.0000   1.0000   1.0000
     1.0000   1.0000   1.0000   1.0000   1.0000   1.0000   1.0000   1.0000
     1.0000   1.0000   1.0000   1.0000   1.0000   1.0000   1.0000   1.0000
     1.0000   1.0000   1.0000   1.0000   1.0000   1.0000   1.0000   1.0000
     1.0000   1.0000   1.0000   1.0000   1.0000   1.0000   1.0000   1.0000
     1.0000   1.0000   1.0000   1.0000   1.0000   1.0000   1.0000   1.0000
     1.0000   1.0000   1.0000   1.0000   1.0000   1.0000   1.0000   1.0000
     1.0000   1.0000   1.0000   1.0000   1.0000   1.0000   1.0000   1.0000
     1.0000   1.0000   1.0000   1.0000   1.0000   1.0000   1.0000   1.0000
     1.0000   1.0000   1.0000   1.0000   1.0000   1.0000   1.0000   1.0000
     1.0000   1.0000   1.0000   1.0000   1.0000   1.0000   1.0000   1.0000
     1.0000   1.0000   1.0000   1.0000   1.0000   1.0000   1.0000   0.9999
     0.9999   0.9997   0.9997   0.9996   0.9996   0.9995   0.9995   0.9994
     0.9993   0.9993   0.9987   0.9983   0.9981   0.9978   0.9929   0.9921
     0.9911   0.9875   0.9863   0.9844   0.9833   0.9819   0.9799   0.9799
     0.9778   0.9748   0.9726   0.9694   0.9691   0.9656   0.9590   0.9460
     0.9398   0.9061   0.9029   0.9009   0.8579   0.8533   0.8488   0.8348
     0.8328   0.8298   0.8107   0.8063   0.7834   0.7737   0.7362   0.7310
     0.6951   0.6938   0.6810   0.6780   0.6699   0.6675   0.6659   0.6624
     0.6608   0.6541   0.6442   0.6430   0.6069   0.6036   0.5944   0.5628
     0.1168   0.1111   0.0977   0.0829   0.0181   0.0095   0.0059   0.0031
     0.0010   0.0008   0.0004   0.0002   0.0000   0.0000   0.0000   0.0000
     0.0000   0.0000   0.0000   0.0000   0.0000   0.0000   0.0000   0.0000
     0.0000   0.0000   0.0000   0.0000   0.0000   0.0000   0.0000   0.0000
     0.0000   0.0000   0.0000

          k = 0.2500 0.2500 0.0000 ( 65198 PWs)   bands (ev):

   -92.6987 -92.6486 -92.5527 -92.5064 -92.4506 -92.4053 -92.3876 -92.2667
   -56.0521 -56.0353 -55.9100 -55.8993 -55.8930 -55.8861 -55.8523 -55.8219
   -55.8062 -55.8049 -55.7988 -55.7568 -55.7372 -55.7017 -55.6792 -55.6502
   -55.6420 -55.5933 -55.5924 -55.5904 -55.5820 -55.5417 -55.5180 -55.4329
   -31.2741 -31.2580 -31.1151 -31.0790 -31.0483 -31.0286 -30.7643 -30.5254
   -29.8428 -29.8016 -29.7778 -29.6679 -15.0132 -14.9678 -14.9000 -14.7830
   -14.6607 -14.5345 -14.4668 -14.2561 -14.1057 -14.0921 -14.0544 -14.0255
   -14.0034 -13.9866 -13.9730 -13.9373 -13.9090 -13.8365 -13.8169 -13.6611
   -13.6441 -13.6155 -13.5964 -13.5340 -13.5072 -13.4246 -13.4217 -13.2857
   -13.2575 -13.2274 -13.1397 -13.1003 -13.0519 -13.0381 -13.0161 -12.9879
   -12.9464 -12.9416 -12.9136 -12.8647 -12.8338 -12.7439 -12.7299 -12.7117
   -12.6901 -12.6070 -12.4504 -12.4401 -12.3839 -12.3520 -12.2751 -12.0705
   -11.9963 -11.7953 -11.7638 -11.7527 -11.7462 -11.6828 -11.6499 -11.6424
   -11.6057 -11.5993 -11.5069 -11.4665 -11.4487  -2.6642  -2.4561  -2.3380
    -2.2432  -2.1229  -2.0584  -1.8599  -1.7157  -1.6974  -1.6663  -1.5722
    -1.5393  -1.4443  -1.4172  -1.3667  -1.2664  -1.2313  -1.1832  -1.1118
    -1.0669  -1.0246  -1.0012  -0.9775  -0.9346  -0.9188  -0.8278  -0.7774
    -0.7103  -0.6624  -0.6318  -0.5845  -0.5673  -0.5058  -0.4561  -0.3952
    -0.3664  -0.2769  -0.2239  -0.1958  -0.1594  -0.1045  -0.0158   0.0086
     0.0356   0.1164   0.1443   0.4148   0.5652   0.5969   0.6618   0.7028
     0.7583   0.8120   0.8794   0.9073   1.1804   1.2461   1.3191   1.3429
     1.3948   1.4231   1.4611   1.4978   1.5135   1.5411   1.5880   1.5949
     1.6104   1.6553   1.6937   1.7319   1.7988   1.8374   1.8467   1.8829
     1.9115   1.9690   1.9930   2.1213   2.1843   2.2187   2.2378   2.3072
     2.3728   2.3992   2.4344   2.4405   2.4567   2.4693   2.4889   2.5885
     2.6240   2.7129   2.8794   2.8961   2.9020   2.9187   2.9337   2.9467
     2.9600   2.9659   2.9769   2.9906   3.0038   3.0206   3.0262   3.0388
     3.0612   3.0723   3.0819   3.1133   3.4135   3.5070   3.5509   3.6249
     3.6444   3.8611   3.9565   4.3112   4.5163   4.7202   4.9877   5.1650
     5.6507   5.7058   5.7729   5.8389   5.8983   6.0763   6.1604   6.2113
     6.8926   6.9310   7.0746   7.3111   7.5521   7.6071   7.7139   7.8519
     7.8978   8.0262   8.1963   8.2683   8.3206   8.3933   8.4439   8.4702
     8.5725   8.7812   8.9135

     occupation numbers 
     1.0000   1.0000   1.0000   1.0000   1.0000   1.0000   1.0000   1.0000
     1.0000   1.0000   1.0000   1.0000   1.0000   1.0000   1.0000   1.0000
     1.0000   1.0000   1.0000   1.0000   1.0000   1.0000   1.0000   1.0000
     1.0000   1.0000   1.0000   1.0000   1.0000   1.0000   1.0000   1.0000
     1.0000   1.0000   1.0000   1.0000   1.0000   1.0000   1.0000   1.0000
     1.0000   1.0000   1.0000   1.0000   1.0000   1.0000   1.0000   1.0000
     1.0000   1.0000   1.0000   1.0000   1.0000   1.0000   1.0000   1.0000
     1.0000   1.0000   1.0000   1.0000   1.0000   1.0000   1.0000   1.0000
     1.0000   1.0000   1.0000   1.0000   1.0000   1.0000   1.0000   1.0000
     1.0000   1.0000   1.0000   1.0000   1.0000   1.0000   1.0000   1.0000
     1.0000   1.0000   1.0000   1.0000   1.0000   1.0000   1.0000   1.0000
     1.0000   1.0000   1.0000   1.0000   1.0000   1.0000   1.0000   1.0000
     1.0000   1.0000   1.0000   1.0000   1.0000   1.0000   1.0000   1.0000
     1.0000   1.0000   1.0000   1.0000   1.0000   1.0000   1.0000   1.0000
     1.0000   1.0000   1.0000   1.0000   1.0000   1.0000   1.0000   1.0000
     1.0000   1.0000   1.0000   1.0000   1.0000   1.0000   1.0000   1.0000
     1.0000   1.0000   1.0000   1.0000   1.0000   1.0000   1.0000   1.0000
     1.0000   1.0000   1.0000   1.0000   1.0000   1.0000   1.0000   1.0000
     1.0000   1.0000   1.0000   1.0000   1.0000   1.0000   1.0000   1.0000
     1.0000   1.0000   1.0000   1.0000   1.0000   1.0000   1.0000   1.0000
     0.9999   0.9999   0.9999   0.9998   0.9993   0.9990   0.9986   0.9984
     0.9980   0.9977   0.9972   0.9967   0.9965   0.9960   0.9951   0.9950
     0.9946   0.9935   0.9924   0.9911   0.9885   0.9866   0.9861   0.9841
     0.9823   0.9783   0.9764   0.9635   0.9554   0.9504   0.9474   0.9354
     0.9222   0.9163   0.9080   0.9065   0.9024   0.8991   0.8939   0.8643
     0.8524   0.8199   0.7478   0.7398   0.7370   0.7289   0.7214   0.7149
     0.7081   0.7051   0.6995   0.6924   0.6855   0.6766   0.6735   0.6668
     0.6546   0.6485   0.6432   0.6256   0.4501   0.3958   0.3709   0.3302
     0.3198   0.2147   0.1757   0.0724   0.0390   0.0194   0.0069   0.0032
     0.0003   0.0002   0.0001   0.0001   0.0001   0.0000   0.0000   0.0000
     0.0000   0.0000   0.0000   0.0000   0.0000   0.0000   0.0000   0.0000
     0.0000   0.0000   0.0000   0.0000   0.0000   0.0000   0.0000   0.0000
     0.0000   0.0000   0.0000

          k = 0.2500-0.5000 0.0000 ( 65138 PWs)   bands (ev):

   -92.6987 -92.6486 -92.5527 -92.5064 -92.4506 -92.4053 -92.3876 -92.2667
   -56.0521 -56.0353 -55.9100 -55.8993 -55.8930 -55.8861 -55.8523 -55.8219
   -55.8062 -55.8049 -55.7988 -55.7568 -55.7372 -55.7017 -55.6792 -55.6502
   -55.6420 -55.5933 -55.5924 -55.5904 -55.5820 -55.5417 -55.5180 -55.4329
   -31.2739 -31.2578 -31.1153 -31.0780 -31.0493 -31.0288 -30.7642 -30.5256
   -29.8422 -29.8013 -29.7785 -29.6682 -14.9743 -14.9292 -14.8605 -14.7399
   -14.7153 -14.5937 -14.5056 -14.3681 -14.0706 -14.0152 -13.9924 -13.9873
   -13.9657 -13.9518 -13.9392 -13.9038 -13.8833 -13.8489 -13.8162 -13.7799
   -13.7387 -13.6634 -13.6146 -13.5502 -13.5363 -13.4669 -13.4377 -13.3454
   -13.3088 -13.2046 -13.1403 -13.1187 -13.0350 -13.0110 -12.9934 -12.9837
   -12.9638 -12.9405 -12.9096 -12.8201 -12.8000 -12.7357 -12.6986 -12.6887
   -12.6535 -12.6222 -12.5200 -12.4355 -12.3191 -12.3013 -12.1951 -12.1127
   -12.1001 -11.7709 -11.7589 -11.7484 -11.7219 -11.6892 -11.6624 -11.6190
   -11.5931 -11.5695 -11.5256 -11.5002 -11.4883  -2.4455  -2.3806  -2.2522
    -2.1756  -2.0446  -1.9615  -1.8389  -1.6884  -1.6340  -1.6115  -1.5490
    -1.5365  -1.4400  -1.3711  -1.2874  -1.2631  -1.2363  -1.2265  -1.1654
    -1.1213  -1.0881  -1.0400  -1.0011  -0.9656  -0.9280  -0.9166  -0.8698
    -0.8398  -0.7983  -0.7676  -0.7012  -0.5987  -0.5601  -0.4810  -0.4143
    -0.3623  -0.3243  -0.3045  -0.2422  -0.0876  -0.0770   0.0315   0.0605
     0.0672   0.1110   0.1522   0.1869   0.2167   0.2802   0.5616   0.6696
     0.7190   0.7785   1.0469   1.0666   1.1563   1.1772   1.3430   1.3783
     1.4174   1.4406   1.4549   1.4764   1.5392   1.5881   1.6229   1.6976
     1.8041   1.8351   1.8562   1.8608   1.9032   1.9134   1.9265   1.9694
     1.9789   2.0004   2.0277   2.0461   2.0638   2.0992   2.1580   2.2005
     2.2798   2.4120   2.4493   2.4587   2.5597   2.5772   2.5964   2.6249
     2.6511   2.6733   2.6944   2.7089   2.7315   2.8289   2.8810   2.8975
     2.9030   2.9160   2.9358   2.9494   2.9687   2.9774   3.0118   3.0217
     3.0356   3.0440   3.0522   3.0632   3.5836   3.6018   3.7453   3.7997
     4.1389   4.1931   4.2021   4.3213   4.7596   4.9312   5.0638   5.1418
     5.3075   5.4332   5.6074   5.6430   5.7725   5.7908   6.3624   6.3977
     6.4897   6.6101   7.2507   7.3466   7.5806   7.7011   7.8130   7.8744
     7.9988   8.0411   8.2591   8.4471   8.5003   8.5398   8.5542   8.5803
     8.7121   8.7457   8.7883

     occupation numbers 
     1.0000   1.0000   1.0000   1.0000   1.0000   1.0000   1.0000   1.0000
     1.0000   1.0000   1.0000   1.0000   1.0000   1.0000   1.0000   1.0000
     1.0000   1.0000   1.0000   1.0000   1.0000   1.0000   1.0000   1.0000
     1.0000   1.0000   1.0000   1.0000   1.0000   1.0000   1.0000   1.0000
     1.0000   1.0000   1.0000   1.0000   1.0000   1.0000   1.0000   1.0000
     1.0000   1.0000   1.0000   1.0000   1.0000   1.0000   1.0000   1.0000
     1.0000   1.0000   1.0000   1.0000   1.0000   1.0000   1.0000   1.0000
     1.0000   1.0000   1.0000   1.0000   1.0000   1.0000   1.0000   1.0000
     1.0000   1.0000   1.0000   1.0000   1.0000   1.0000   1.0000   1.0000
     1.0000   1.0000   1.0000   1.0000   1.0000   1.0000   1.0000   1.0000
     1.0000   1.0000   1.0000   1.0000   1.0000   1.0000   1.0000   1.0000
     1.0000   1.0000   1.0000   1.0000   1.0000   1.0000   1.0000   1.0000
     1.0000   1.0000   1.0000   1.0000   1.0000   1.0000   1.0000   1.0000
     1.0000   1.0000   1.0000   1.0000   1.0000   1.0000   1.0000   1.0000
     1.0000   1.0000   1.0000   1.0000   1.0000   1.0000   1.0000   1.0000
     1.0000   1.0000   1.0000   1.0000   1.0000   1.0000   1.0000   1.0000
     1.0000   1.0000   1.0000   1.0000   1.0000   1.0000   1.0000   1.0000
     1.0000   1.0000   1.0000   1.0000   1.0000   1.0000   1.0000   1.0000
     1.0000   1.0000   1.0000   1.0000   1.0000   1.0000   1.0000   1.0000
     1.0000   1.0000   1.0000   1.0000   1.0000   1.0000   1.0000   1.0000
     0.9999   0.9999   0.9996   0.9996   0.9994   0.9993   0.9984   0.9981
     0.9977   0.9975   0.9973   0.9970   0.9961   0.9951   0.9944   0.9923
     0.9882   0.9867   0.9856   0.9854   0.9829   0.9822   0.9814   0.9783
     0.9775   0.9757   0.9733   0.9716   0.9699   0.9661   0.9590   0.9531
     0.9404   0.9134   0.9043   0.9019   0.8734   0.8679   0.8617   0.8521
     0.8430   0.8349   0.8270   0.8214   0.8125   0.7711   0.7471   0.7392
     0.7365   0.7302   0.7204   0.7135   0.7037   0.6992   0.6812   0.6759
     0.6685   0.6640   0.6595   0.6535   0.3527   0.3427   0.2682   0.2423
     0.1146   0.0997   0.0974   0.0703   0.0168   0.0087   0.0050   0.0036
     0.0017   0.0009   0.0004   0.0003   0.0001   0.0001   0.0000   0.0000
     0.0000   0.0000   0.0000   0.0000   0.0000   0.0000   0.0000   0.0000
     0.0000   0.0000   0.0000   0.0000   0.0000   0.0000   0.0000   0.0000
     0.0000   0.0000   0.0000

          k =-0.5000-0.5000 0.0000 ( 65132 PWs)   bands (ev):

   -92.6987 -92.6486 -92.5527 -92.5064 -92.4506 -92.4053 -92.3876 -92.2667
   -56.0521 -56.0353 -55.9100 -55.8993 -55.8930 -55.8861 -55.8523 -55.8219
   -55.8062 -55.8049 -55.7988 -55.7568 -55.7372 -55.7017 -55.6792 -55.6502
   -55.6420 -55.5933 -55.5924 -55.5904 -55.5820 -55.5417 -55.5180 -55.4329
   -31.2718 -31.2600 -31.1149 -31.0780 -31.0492 -31.0291 -30.7643 -30.5256
   -29.8412 -29.8023 -29.7781 -29.6686 -14.9267 -14.9025 -14.7835 -14.7725
   -14.6789 -14.6410 -14.6050 -14.4694 -13.9904 -13.9786 -13.9668 -13.9330
   -13.9175 -13.8979 -13.8826 -13.8537 -13.8441 -13.8325 -13.8175 -13.8057
   -13.7312 -13.7221 -13.6899 -13.6584 -13.6306 -13.5551 -13.4913 -13.3809
   -13.3566 -13.1538 -13.1169 -13.0498 -13.0236 -13.0009 -12.9870 -12.9819
   -12.9720 -12.9621 -12.9508 -12.8252 -12.8074 -12.7333 -12.7022 -12.6777
   -12.6036 -12.5956 -12.5367 -12.4411 -12.3158 -12.2925 -12.1885 -12.1029
   -12.0872 -11.7679 -11.7553 -11.7372 -11.7212 -11.6849 -11.6664 -11.6356
   -11.5738 -11.5536 -11.5472 -11.4976 -11.4935  -2.2206  -2.1458  -2.1366
    -2.0654  -2.0260  -1.9478  -1.8801  -1.7537  -1.6392  -1.6084  -1.5676
    -1.5118  -1.4398  -1.4259  -1.3544  -1.3130  -1.2611  -1.1952  -1.1650
    -1.1147  -1.0898  -1.0251  -0.9778  -0.9587  -0.9461  -0.8917  -0.8501
    -0.8325  -0.7183  -0.6584  -0.6157  -0.5667  -0.5385  -0.5255  -0.4927
    -0.4494  -0.4118  -0.4046  -0.3168  -0.2459  -0.2074  -0.1759  -0.1064
    -0.0433  -0.0344   0.0259   0.0554   0.0604   0.0695   0.5318   0.5992
     0.6675   0.6947   1.0744   1.0926   1.1200   1.1584   1.4281   1.4477
     1.4524   1.4938   1.6210   1.7176   1.7440   1.7815   1.8123   1.8272
     1.8353   1.8660   1.8791   1.9011   1.9048   1.9505   1.9552   1.9838
     2.0134   2.0207   2.0371   2.0776   2.0982   2.1110   2.1440   2.1757
     2.2357   2.3046   2.4474   2.4522   2.5756   2.6031   2.6236   2.6407
     2.6570   2.6833   2.6840   2.7042   2.7155   2.7328   2.7566   2.7646
     2.8299   2.8343   2.8535   2.8699   2.8813   2.9022   2.9059   2.9157
     3.0182   3.0247   3.0489   3.0597   4.0070   4.0447   4.0737   4.0975
     4.3213   4.3960   4.4209   4.6614   4.7838   4.8664   4.9957   5.0874
     5.0963   5.2094   5.3022   5.4243   5.8537   5.8850   5.9576   6.0297
     6.5405   6.8217   6.9547   7.1808   7.8990   7.9350   7.9619   7.9779
     8.0091   8.0768   8.1634   8.2749   8.4050   8.5892   8.6253   8.6606
     8.6855   8.7438   8.7907

     occupation numbers 
     1.0000   1.0000   1.0000   1.0000   1.0000   1.0000   1.0000   1.0000
     1.0000   1.0000   1.0000   1.0000   1.0000   1.0000   1.0000   1.0000
     1.0000   1.0000   1.0000   1.0000   1.0000   1.0000   1.0000   1.0000
     1.0000   1.0000   1.0000   1.0000   1.0000   1.0000   1.0000   1.0000
     1.0000   1.0000   1.0000   1.0000   1.0000   1.0000   1.0000   1.0000
     1.0000   1.0000   1.0000   1.0000   1.0000   1.0000   1.0000   1.0000
     1.0000   1.0000   1.0000   1.0000   1.0000   1.0000   1.0000   1.0000
     1.0000   1.0000   1.0000   1.0000   1.0000   1.0000   1.0000   1.0000
     1.0000   1.0000   1.0000   1.0000   1.0000   1.0000   1.0000   1.0000
     1.0000   1.0000   1.0000   1.0000   1.0000   1.0000   1.0000   1.0000
     1.0000   1.0000   1.0000   1.0000   1.0000   1.0000   1.0000   1.0000
     1.0000   1.0000   1.0000   1.0000   1.0000   1.0000   1.0000   1.0000
     1.0000   1.0000   1.0000   1.0000   1.0000   1.0000   1.0000   1.0000
     1.0000   1.0000   1.0000   1.0000   1.0000   1.0000   1.0000   1.0000
     1.0000   1.0000   1.0000   1.0000   1.0000   1.0000   1.0000   1.0000
     1.0000   1.0000   1.0000   1.0000   1.0000   1.0000   1.0000   1.0000
     1.0000   1.0000   1.0000   1.0000   1.0000   1.0000   1.0000   1.0000
     1.0000   1.0000   1.0000   1.0000   1.0000   1.0000   1.0000   1.0000
     1.0000   1.0000   1.0000   1.0000   1.0000   1.0000   1.0000   1.0000
     1.0000   1.0000   1.0000   1.0000   1.0000   1.0000   1.0000   1.0000
     1.0000   1.0000   0.9996   0.9996   0.9995   0.9994   0.9976   0.9974
     0.9973   0.9968   0.9944   0.9916   0.9907   0.9892   0.9878   0.9871
     0.9867   0.9851   0.9843   0.9830   0.9828   0.9797   0.9793   0.9771
     0.9746   0.9740   0.9725   0.9684   0.9662   0.9647   0.9608   0.9566
     0.9478   0.9359   0.9048   0.9035   0.8684   0.8595   0.8526   0.8467
     0.8409   0.8312   0.8309   0.8232   0.8189   0.8120   0.8023   0.7990
     0.7707   0.7687   0.7600   0.7523   0.7469   0.7369   0.7351   0.7303
     0.6778   0.6743   0.6613   0.6554   0.1570   0.1440   0.1344   0.1269
     0.0703   0.0566   0.0525   0.0239   0.0154   0.0112   0.0067   0.0045
     0.0043   0.0026   0.0017   0.0009   0.0001   0.0001   0.0000   0.0000
     0.0000   0.0000   0.0000   0.0000   0.0000   0.0000   0.0000   0.0000
     0.0000   0.0000   0.0000   0.0000   0.0000   0.0000   0.0000   0.0000
     0.0000   0.0000   0.0000

          k = 0.2500 0.0000 0.0000 ( 65257 PWs)   bands (ev):

   -92.6987 -92.6486 -92.5527 -92.5064 -92.4506 -92.4053 -92.3876 -92.2667
   -56.0521 -56.0353 -55.9100 -55.8994 -55.8931 -55.8861 -55.8523 -55.8219
   -55.8062 -55.8049 -55.7988 -55.7568 -55.7372 -55.7017 -55.6792 -55.6502
   -55.6420 -55.5933 -55.5924 -55.5904 -55.5820 -55.5417 -55.5180 -55.4329
[...]
     0.3526   0.3275   0.2040   0.0783   0.0457   0.0218   0.0060   0.0048
     0.0003   0.0001   0.0001   0.0000   0.0000   0.0000   0.0000   0.0000
     0.0000   0.0000   0.0000   0.0000   0.0000   0.0000   0.0000   0.0000
     0.0000   0.0000   0.0000   0.0000   0.0000   0.0000   0.0000   0.0000
     0.0000   0.0000   0.0000

          k =-0.5000 0.0000 0.0000 ( 65180 PWs)   bands (ev):

   -92.6987 -92.6486 -92.5527 -92.5064 -92.4506 -92.4053 -92.3876 -92.2667
   -56.0521 -56.0353 -55.9100 -55.8994 -55.8930 -55.8861 -55.8523 -55.8219
   -55.8062 -55.8049 -55.7988 -55.7568 -55.7372 -55.7017 -55.6792 -55.6502
   -55.6420 -55.5933 -55.5924 -55.5904 -55.5820 -55.5417 -55.5180 -55.4329
   -31.2722 -31.2602 -31.1145 -31.0799 -31.0473 -31.0289 -30.7646 -30.5254
   -29.8424 -29.8030 -29.7768 -29.6680 -15.0114 -14.9558 -14.8941 -14.7886
   -14.6838 -14.5417 -14.3868 -14.2554 -14.1293 -14.1155 -14.1060 -14.0314
   -13.9894 -13.9860 -13.9523 -13.9036 -13.8976 -13.8795 -13.8352 -13.8179
   -13.6993 -13.5525 -13.5142 -13.4909 -13.4844 -13.4013 -13.3617 -13.2857
   -13.2660 -13.2424 -13.2243 -13.0806 -13.0526 -13.0414 -13.0192 -13.0088
   -12.9554 -12.9457 -12.9256 -12.9067 -12.8926 -12.7223 -12.6386 -12.6295
   -12.5539 -12.5389 -12.5208 -12.4394 -12.4199 -12.3330 -12.3247 -12.1027
   -12.0496 -11.7747 -11.7526 -11.7462 -11.7315 -11.7134 -11.6711 -11.6107
   -11.5938 -11.5610 -11.5136 -11.5046 -11.4897  -2.5776  -2.5398  -2.3763
    -2.3373  -2.0226  -1.9480  -1.7996  -1.6828  -1.6437  -1.5981  -1.5496
    -1.5260  -1.4022  -1.3583  -1.3412  -1.2779  -1.2556  -1.2248  -1.1951
    -1.1778  -1.1168  -1.0491  -1.0221  -0.9920  -0.8935  -0.8501  -0.7989
    -0.7681  -0.7468  -0.7160  -0.6700  -0.6443  -0.6019  -0.5048  -0.4343
    -0.3651  -0.3062  -0.1318  -0.1072  -0.0530  -0.0131   0.0569   0.0624
     0.2058   0.2347   0.2747   0.4439   0.5429   0.5928   0.6771   0.7581
     0.8649   0.8811   1.0124   1.0367   1.0906   1.1175   1.1589   1.1692
     1.2132   1.2407   1.3100   1.3524   1.4001   1.4081   1.7136   1.7263
     1.7451   1.7653   1.8690   1.8748   1.8950   1.9014   1.9284   1.9409
     1.9832   2.0017   2.0287   2.0806   2.0987   2.1484   2.1723   2.2252
     2.3344   2.4319   2.4437   2.4671   2.5125   2.5247   2.6056   2.6290
     2.6608   2.7291   2.7367   2.7430   2.7729   2.8398   2.8858   2.9330
     2.9602   3.0030   3.0078   3.0084   3.0203   3.0353   3.0473   3.0616
     3.0650   3.0861   3.0898   3.1126   3.1319   3.1374   3.2680   3.2721
     4.0697   4.1366   4.1981   4.3301   4.7956   4.8712   5.0491   5.0518
     5.4845   5.5109   5.6042   5.6564   6.0386   6.0412   6.2279   6.5571
     6.7966   7.0034   7.2789   7.3137   7.3752   7.4219   7.7239   7.7794
     7.8549   7.8926   8.1930   8.3451   8.4555   8.5224   8.6125   8.6455
     8.7615   8.8083   8.9030

     occupation numbers 
     1.0000   1.0000   1.0000   1.0000   1.0000   1.0000   1.0000   1.0000
     1.0000   1.0000   1.0000   1.0000   1.0000   1.0000   1.0000   1.0000
     1.0000   1.0000   1.0000   1.0000   1.0000   1.0000   1.0000   1.0000
     1.0000   1.0000   1.0000   1.0000   1.0000   1.0000   1.0000   1.0000
     1.0000   1.0000   1.0000   1.0000   1.0000   1.0000   1.0000   1.0000
     1.0000   1.0000   1.0000   1.0000   1.0000   1.0000   1.0000   1.0000
     1.0000   1.0000   1.0000   1.0000   1.0000   1.0000   1.0000   1.0000
     1.0000   1.0000   1.0000   1.0000   1.0000   1.0000   1.0000   1.0000
     1.0000   1.0000   1.0000   1.0000   1.0000   1.0000   1.0000   1.0000
     1.0000   1.0000   1.0000   1.0000   1.0000   1.0000   1.0000   1.0000
     1.0000   1.0000   1.0000   1.0000   1.0000   1.0000   1.0000   1.0000
     1.0000   1.0000   1.0000   1.0000   1.0000   1.0000   1.0000   1.0000
     1.0000   1.0000   1.0000   1.0000   1.0000   1.0000   1.0000   1.0000
     1.0000   1.0000   1.0000   1.0000   1.0000   1.0000   1.0000   1.0000
     1.0000   1.0000   1.0000   1.0000   1.0000   1.0000   1.0000   1.0000
     1.0000   1.0000   1.0000   1.0000   1.0000   1.0000   1.0000   1.0000
     1.0000   1.0000   1.0000   1.0000   1.0000   1.0000   1.0000   1.0000
     1.0000   1.0000   1.0000   1.0000   1.0000   1.0000   1.0000   1.0000
     1.0000   1.0000   1.0000   1.0000   1.0000   1.0000   1.0000   1.0000
     1.0000   1.0000   1.0000   1.0000   1.0000   1.0000   1.0000   0.9999
     0.9999   0.9999   0.9997   0.9997   0.9996   0.9995   0.9994   0.9993
     0.9992   0.9990   0.9986   0.9983   0.9979   0.9978   0.9918   0.9913
     0.9907   0.9899   0.9849   0.9846   0.9834   0.9830   0.9812   0.9804
     0.9772   0.9756   0.9732   0.9681   0.9661   0.9602   0.9571   0.9494
     0.9302   0.9086   0.9057   0.8997   0.8873   0.8838   0.8587   0.8507
     0.8395   0.8135   0.8105   0.8079   0.7955   0.7662   0.7448   0.7218
     0.7081   0.6859   0.6833   0.6830   0.6767   0.6686   0.6622   0.6544
     0.6525   0.6408   0.6388   0.6261   0.6151   0.6120   0.5361   0.5337
     0.1357   0.1152   0.0984   0.0686   0.0147   0.0110   0.0053   0.0053
     0.0007   0.0006   0.0004   0.0003   0.0000   0.0000   0.0000   0.0000
     0.0000   0.0000   0.0000   0.0000   0.0000   0.0000   0.0000   0.0000
     0.0000   0.0000   0.0000   0.0000   0.0000   0.0000   0.0000   0.0000
     0.0000   0.0000   0.0000

          k =-0.2500 0.2500 0.0000 ( 65198 PWs)   bands (ev):

   -92.6987 -92.6486 -92.5527 -92.5064 -92.4506 -92.4053 -92.3876 -92.2667
   -56.0521 -56.0353 -55.9100 -55.8994 -55.8930 -55.8861 -55.8523 -55.8219
   -55.8062 -55.8049 -55.7988 -55.7568 -55.7372 -55.7017 -55.6792 -55.6502
   -55.6420 -55.5933 -55.5924 -55.5904 -55.5820 -55.5417 -55.5180 -55.4329
   -31.2741 -31.2580 -31.1151 -31.0790 -31.0483 -31.0286 -30.7643 -30.5254
   -29.8428 -29.8016 -29.7778 -29.6679 -15.0145 -14.9668 -14.8982 -14.7819
   -14.6668 -14.5380 -14.4593 -14.2477 -14.1116 -14.0820 -14.0705 -14.0195
   -13.9986 -13.9905 -13.9754 -13.9471 -13.9083 -13.8333 -13.8183 -13.6695
   -13.6418 -13.6098 -13.5929 -13.5365 -13.4942 -13.4334 -13.4211 -13.2975
   -13.2450 -13.2210 -13.1438 -13.1021 -13.0403 -13.0363 -13.0088 -12.9882
   -12.9594 -12.9293 -12.9234 -12.8620 -12.8399 -12.7692 -12.7289 -12.6900
   -12.6771 -12.6352 -12.4594 -12.4399 -12.4069 -12.2991 -12.2808 -12.0504
   -12.0210 -11.7943 -11.7730 -11.7464 -11.7342 -11.6923 -11.6596 -11.6346
   -11.6146 -11.5910 -11.5066 -11.4619 -11.4519  -2.6626  -2.4550  -2.3338
    -2.2446  -2.1272  -2.0612  -1.8576  -1.7127  -1.6950  -1.6643  -1.5728
    -1.5382  -1.4447  -1.4105  -1.3834  -1.2659  -1.2375  -1.1799  -1.1163
    -1.0879  -1.0264  -1.0066  -0.9669  -0.9383  -0.8977  -0.8343  -0.7857
    -0.7226  -0.6537  -0.6275  -0.5780  -0.5497  -0.5031  -0.4464  -0.3984
    -0.3606  -0.2578  -0.2250  -0.2137  -0.1720  -0.1058  -0.0216   0.0125
     0.0441   0.1231   0.1399   0.3950   0.5676   0.6062   0.6478   0.7123
     0.7608   0.8134   0.8792   0.9098   1.1886   1.2957   1.3361   1.3689
     1.3746   1.4197   1.4332   1.4789   1.5101   1.5233   1.5485   1.5974
     1.6113   1.6516   1.6718   1.7159   1.8198   1.8248   1.8449   1.8820
     1.9109   1.9470   2.0038   2.1120   2.2162   2.2383   2.2857   2.3053
     2.3708   2.4081   2.4326   2.4484   2.4572   2.4754   2.4932   2.5862
     2.6219   2.7139   2.8869   2.8943   2.9080   2.9177   2.9284   2.9434
     2.9502   2.9674   2.9760   2.9906   3.0003   3.0130   3.0219   3.0285
     3.0631   3.0731   3.0808   3.1149   3.4067   3.4884   3.5542   3.6288
     3.6530   3.8454   3.9653   4.3107   4.5142   4.7215   4.9973   5.1650
     5.6513   5.7044   5.7767   5.8364   5.8990   6.0750   6.1686   6.2012
     6.8887   6.9364   7.0729   7.3131   7.5658   7.6136   7.6731   7.8602
     7.9234   8.0071   8.1962   8.2578   8.3154   8.3908   8.4496   8.4991
     8.5913   8.7517   8.9158

     occupation numbers 
     1.0000   1.0000   1.0000   1.0000   1.0000   1.0000   1.0000   1.0000
     1.0000   1.0000   1.0000   1.0000   1.0000   1.0000   1.0000   1.0000
     1.0000   1.0000   1.0000   1.0000   1.0000   1.0000   1.0000   1.0000
     1.0000   1.0000   1.0000   1.0000   1.0000   1.0000   1.0000   1.0000
     1.0000   1.0000   1.0000   1.0000   1.0000   1.0000   1.0000   1.0000
     1.0000   1.0000   1.0000   1.0000   1.0000   1.0000   1.0000   1.0000
     1.0000   1.0000   1.0000   1.0000   1.0000   1.0000   1.0000   1.0000
     1.0000   1.0000   1.0000   1.0000   1.0000   1.0000   1.0000   1.0000
     1.0000   1.0000   1.0000   1.0000   1.0000   1.0000   1.0000   1.0000
     1.0000   1.0000   1.0000   1.0000   1.0000   1.0000   1.0000   1.0000
     1.0000   1.0000   1.0000   1.0000   1.0000   1.0000   1.0000   1.0000
     1.0000   1.0000   1.0000   1.0000   1.0000   1.0000   1.0000   1.0000
     1.0000   1.0000   1.0000   1.0000   1.0000   1.0000   1.0000   1.0000
     1.0000   1.0000   1.0000   1.0000   1.0000   1.0000   1.0000   1.0000
     1.0000   1.0000   1.0000   1.0000   1.0000   1.0000   1.0000   1.0000
     1.0000   1.0000   1.0000   1.0000   1.0000   1.0000   1.0000   1.0000
     1.0000   1.0000   1.0000   1.0000   1.0000   1.0000   1.0000   1.0000
     1.0000   1.0000   1.0000   1.0000   1.0000   1.0000   1.0000   1.0000
     1.0000   1.0000   1.0000   1.0000   1.0000   1.0000   1.0000   1.0000
     1.0000   1.0000   1.0000   1.0000   1.0000   1.0000   1.0000   0.9999
     0.9999   0.9999   0.9999   0.9998   0.9993   0.9987   0.9985   0.9982
     0.9981   0.9977   0.9976   0.9970   0.9965   0.9963   0.9959   0.9949
     0.9946   0.9936   0.9931   0.9917   0.9875   0.9872   0.9862   0.9842
     0.9824   0.9799   0.9755   0.9646   0.9508   0.9473   0.9393   0.9358
     0.9226   0.9143   0.9084   0.9045   0.9023   0.8975   0.8927   0.8650
     0.8531   0.8195   0.7442   0.7407   0.7341   0.7293   0.7240   0.7166
     0.7131   0.7043   0.6999   0.6924   0.6873   0.6806   0.6758   0.6723
     0.6535   0.6480   0.6438   0.6247   0.4541   0.4064   0.3691   0.3281
     0.3152   0.2216   0.1724   0.0725   0.0392   0.0193   0.0066   0.0032
     0.0003   0.0002   0.0001   0.0001   0.0001   0.0000   0.0000   0.0000
     0.0000   0.0000   0.0000   0.0000   0.0000   0.0000   0.0000   0.0000
     0.0000   0.0000   0.0000   0.0000   0.0000   0.0000   0.0000   0.0000
     0.0000   0.0000   0.0000

          k =-0.5000 0.2500 0.0000 ( 65138 PWs)   bands (ev):

   -92.6987 -92.6486 -92.5527 -92.5064 -92.4506 -92.4053 -92.3876 -92.2667
   -56.0521 -56.0353 -55.9100 -55.8993 -55.8930 -55.8861 -55.8523 -55.8219
   -55.8062 -55.8049 -55.7988 -55.7568 -55.7372 -55.7017 -55.6792 -55.6502
   -55.6420 -55.5933 -55.5924 -55.5904 -55.5820 -55.5417 -55.5180 -55.4329
   -31.2720 -31.2601 -31.1147 -31.0790 -31.0482 -31.0290 -30.7644 -30.5255
   -29.8418 -29.8026 -29.7774 -29.6683 -14.9780 -14.9302 -14.8512 -14.7541
   -14.7144 -14.5880 -14.4918 -14.3687 -14.0625 -14.0305 -14.0187 -13.9906
   -13.9708 -13.9476 -13.9275 -13.8902 -13.8821 -13.8589 -13.8234 -13.8126
   -13.6946 -13.6351 -13.5861 -13.5799 -13.5565 -13.4676 -13.4454 -13.3298
   -13.3000 -13.1975 -13.1626 -13.0670 -13.0365 -13.0239 -13.0139 -12.9919
   -12.9598 -12.9395 -12.9285 -12.8898 -12.8445 -12.7278 -12.6330 -12.6202
   -12.6141 -12.6072 -12.5375 -12.4358 -12.3484 -12.3200 -12.2529 -12.1022
   -12.0642 -11.7675 -11.7546 -11.7403 -11.7286 -11.7066 -11.6762 -11.5979
   -11.5893 -11.5663 -11.5282 -11.5002 -11.4923  -2.4351  -2.3939  -2.2459
    -2.2038  -2.0420  -1.9665  -1.8239  -1.6892  -1.6317  -1.6057  -1.5659
    -1.5284  -1.4470  -1.3320  -1.2766  -1.2665  -1.2494  -1.2253  -1.1431
    -1.1208  -1.0785  -1.0643  -1.0019  -0.9738  -0.9343  -0.8996  -0.8709
    -0.8129  -0.7849  -0.7438  -0.7095  -0.6046  -0.5762  -0.4864  -0.4295
    -0.3944  -0.3374  -0.2551  -0.2202  -0.1188  -0.0741  -0.0238   0.0333
     0.0593   0.1277   0.1514   0.1839   0.2347   0.2766   0.5927   0.6713
     0.7166   0.7383   1.0264   1.0822   1.1541   1.1832   1.3555   1.3912
     1.4290   1.4408   1.4593   1.4770   1.5481   1.5899   1.6347   1.6615
     1.7964   1.8285   1.8494   1.8601   1.9077   1.9294   1.9425   1.9568
     1.9759   1.9987   2.0427   2.0560   2.0922   2.1155   2.1503   2.2031
     2.3254   2.4226   2.4352   2.4547   2.4701   2.5264   2.5562   2.6223
     2.6566   2.6617   2.7023   2.7349   2.7580   2.8397   2.8821   2.8965
     2.9007   2.9216   2.9442   2.9564   2.9727   2.9842   3.0062   3.0189
     3.0294   3.0370   3.0468   3.0579   3.5862   3.6365   3.7776   3.7996
     4.0777   4.1584   4.2038   4.4116   4.7900   4.8885   5.0464   5.0788
     5.4110   5.4346   5.5906   5.6278   5.7494   5.7970   6.3253   6.3938
     6.4956   6.6899   7.2101   7.3699   7.5482   7.7153   7.7961   7.8867
     7.9906   8.0426   8.2181   8.4258   8.5066   8.5439   8.5771   8.5960
     8.6735   8.7462   8.8240

     occupation numbers 
     1.0000   1.0000   1.0000   1.0000   1.0000   1.0000   1.0000   1.0000
     1.0000   1.0000   1.0000   1.0000   1.0000   1.0000   1.0000   1.0000
     1.0000   1.0000   1.0000   1.0000   1.0000   1.0000   1.0000   1.0000
     1.0000   1.0000   1.0000   1.0000   1.0000   1.0000   1.0000   1.0000
     1.0000   1.0000   1.0000   1.0000   1.0000   1.0000   1.0000   1.0000
     1.0000   1.0000   1.0000   1.0000   1.0000   1.0000   1.0000   1.0000
     1.0000   1.0000   1.0000   1.0000   1.0000   1.0000   1.0000   1.0000
     1.0000   1.0000   1.0000   1.0000   1.0000   1.0000   1.0000   1.0000
     1.0000   1.0000   1.0000   1.0000   1.0000   1.0000   1.0000   1.0000
     1.0000   1.0000   1.0000   1.0000   1.0000   1.0000   1.0000   1.0000
     1.0000   1.0000   1.0000   1.0000   1.0000   1.0000   1.0000   1.0000
     1.0000   1.0000   1.0000   1.0000   1.0000   1.0000   1.0000   1.0000
     1.0000   1.0000   1.0000   1.0000   1.0000   1.0000   1.0000   1.0000
     1.0000   1.0000   1.0000   1.0000   1.0000   1.0000   1.0000   1.0000
     1.0000   1.0000   1.0000   1.0000   1.0000   1.0000   1.0000   1.0000
     1.0000   1.0000   1.0000   1.0000   1.0000   1.0000   1.0000   1.0000
     1.0000   1.0000   1.0000   1.0000   1.0000   1.0000   1.0000   1.0000
     1.0000   1.0000   1.0000   1.0000   1.0000   1.0000   1.0000   1.0000
     1.0000   1.0000   1.0000   1.0000   1.0000   1.0000   1.0000   1.0000
     1.0000   1.0000   1.0000   1.0000   1.0000   1.0000   1.0000   1.0000
     0.9999   0.9999   0.9997   0.9996   0.9994   0.9993   0.9983   0.9980
     0.9976   0.9975   0.9973   0.9970   0.9959   0.9951   0.9941   0.9934
     0.9886   0.9871   0.9860   0.9854   0.9826   0.9812   0.9802   0.9792
     0.9777   0.9759   0.9719   0.9706   0.9669   0.9642   0.9600   0.9527
     0.9319   0.9108   0.9078   0.9029   0.8989   0.8833   0.8744   0.8530
     0.8410   0.8391   0.8240   0.8112   0.8018   0.7663   0.7466   0.7397
     0.7376   0.7274   0.7162   0.7100   0.7016   0.6957   0.6842   0.6774
     0.6718   0.6677   0.6624   0.6564   0.3513   0.3240   0.2527   0.2424
     0.1331   0.1091   0.0970   0.0540   0.0150   0.0103   0.0054   0.0047
     0.0010   0.0009   0.0004   0.0003   0.0002   0.0001   0.0000   0.0000
     0.0000   0.0000   0.0000   0.0000   0.0000   0.0000   0.0000   0.0000
     0.0000   0.0000   0.0000   0.0000   0.0000   0.0000   0.0000   0.0000
     0.0000   0.0000   0.0000

     the Fermi energy is     3.3290 ev

!    total energy              =   -4441.66909127 Ry
     estimated scf accuracy    <          5.3E-09 Ry
     smearing contrib. (-TS)   =      -1.15499601 Ry
     internal energy E=F+TS    =   -4440.51409526 Ry

     The total energy is F=E-TS. E is the sum of the following terms:
     one-electron contribution =  -20804.33790808 Ry
     hartree contribution      =   10534.21111470 Ry
     xc contribution           =    -694.19022179 Ry
     ewald contribution        =    6799.97068410 Ry
     one-center paw contrib.   =    -276.16776419 Ry
      -> PAW hartree energy AE =      25.12598032 Ry
      -> PAW hartree energy PS =     -25.01027004 Ry
      -> PAW xc energy AE      =     -16.51221528 Ry
      -> PAW xc energy PS      =       6.87143659 Ry
      -> total E_H with PAW    =   10534.32682497 Ry
      -> total E_XC with PAW   =    -703.83100048 Ry

     convergence has been achieved in  48 iterations

     Writing all to output data dir /bsuhome/zayahcortright/scratch/pwscf.save/
 
     init_run     :      7.76s CPU      8.40s WALL (       1 calls)
     electrons    :    781.82s CPU    869.18s WALL (       1 calls)

     Called by init_run:
     wfcinit      :      6.00s CPU      6.20s WALL (       1 calls)
     wfcinit:atom :      0.04s CPU      0.06s WALL (       5 calls)
     wfcinit:wfcr :      5.69s CPU      5.80s WALL (       5 calls)
     potinit      :      0.17s CPU      0.19s WALL (       1 calls)
     hinit0       :      0.57s CPU      0.76s WALL (       1 calls)

     Called by electrons:
     c_bands      :    631.78s CPU    644.55s WALL (      48 calls)
     sum_band     :    109.31s CPU    152.06s WALL (      48 calls)
     v_of_rho     :      5.65s CPU      6.06s WALL (      49 calls)
     v_h          :      0.46s CPU      0.47s WALL (      49 calls)
     v_xc         :      5.18s CPU      5.60s WALL (      49 calls)
     newd         :     19.47s CPU     50.34s WALL (      49 calls)
     PAW_pot      :      1.61s CPU      1.64s WALL (      49 calls)
     mix_rho      :     13.59s CPU     14.13s WALL (      48 calls)

     Called by c_bands:
     init_us_2    :      6.15s CPU      6.25s WALL (     485 calls)
     init_us_2:cp :      6.15s CPU      6.25s WALL (     485 calls)
     cegterg      :    597.83s CPU    610.28s WALL (     240 calls)

     Called by sum_band:
     sum_band:wei :      0.36s CPU      0.37s WALL (      48 calls)
     sum_band:loo :     90.49s CPU     91.21s WALL (      48 calls)
     sum_band:buf :      1.30s CPU      1.37s WALL (     240 calls)
     sum_band:ini :      2.70s CPU      2.71s WALL (     240 calls)
     sum_band:cal :     18.81s CPU     18.87s WALL (     240 calls)
     sum_band:bec :      0.54s CPU      0.54s WALL (     240 calls)
     addusdens    :     16.46s CPU     58.41s WALL (      48 calls)
                                        0.00s GPU  (      48 calls)
     addusd:skk   :      0.30s CPU      2.31s WALL (     192 calls)
                                        0.00s GPU  (     192 calls)

     Called by *egterg:
     cdiaghg      :     58.61s CPU     58.92s WALL (    1369 calls)
     cegterg:over :     51.52s CPU     51.73s WALL (    1129 calls)
     cegterg:upda :     52.38s CPU     53.47s WALL (    1129 calls)
     cegterg:last :     70.29s CPU     70.58s WALL (     430 calls)
     cdiaghg:chol :      3.39s CPU      3.42s WALL (    1369 calls)
     cdiaghg:inve :      3.56s CPU      3.58s WALL (    1369 calls)
     cdiaghg:para :      7.00s CPU      7.06s WALL (    2738 calls)
     h_psi        :    297.95s CPU    302.67s WALL (    1374 calls)
     s_psi        :     38.76s CPU     38.87s WALL (    1374 calls)
     g_psi        :      2.62s CPU      2.63s WALL (    1129 calls)

     Called by h_psi:
     h_psi:calbec :     45.51s CPU     45.72s WALL (    1374 calls)
     vloc_psi     :    207.69s CPU    209.68s WALL (    1374 calls)
     add_vuspsi   :     38.52s CPU     38.74s WALL (    1374 calls)

     General routines
     calbec       :     64.32s CPU     64.59s WALL (    1614 calls)
     fft          :      4.41s CPU      4.46s WALL (     635 calls)
     ffts         :      4.60s CPU      4.64s WALL (    5140 calls)
     fftw         :    181.66s CPU    183.18s WALL (  324768 calls)
     interpolate  :      0.44s CPU      0.45s WALL (      49 calls)
 
     Parallel routines

     PAW routines
     PAW_pot      :      1.61s CPU      1.64s WALL (      49 calls)
 
     PWSCF        :  13m11.25s CPU  14m42.18s WALL

 
   This run was terminated on:  19:36:24  21Jun2024            

=------------------------------------------------------------------------------=
   JOB DONE.
=------------------------------------------------------------------------------=
