
     Program PWSCF v.7.2 starts on 22Jun2024 at  1:29:58 

     This program is part of the open-source Quantum ESPRESSO suite
     for quantum simulation of materials; please cite
         "P. Giannozzi et al., J. Phys.:Condens. Matter 21 395502 (2009);
         "P. Giannozzi et al., J. Phys.:Condens. Matter 29 465901 (2017);
         "P. Giannozzi et al., J. Chem. Phys. 152 154105 (2020);
          URL http://www.quantum-espresso.org", 
     in publications or presentations arising from this work. More details at
     http://www.quantum-espresso.org/quote

     Parallel version (MPI & OpenMP), running on      48 processor cores
     Number of MPI processes:                48
     Threads/MPI process:                     1

     MPI processes distributed on     1 nodes
     60567 MiB available memory on the printing compute node when the environment starts
 
     Reading input from espresso.pwi
Warning: card &CELL ignored
Warning: card / ignored
Warning: card &FCP ignored
Warning: card / ignored
Warning: card &RISM ignored
Warning: card / ignored

     Current dimensions of program PWSCF are:
     Max number of different atomic species (ntypx) = 10
     Max number of k-points (npk) =  40000
     Max angular momentum in pseudopotentials (lmaxx) =  4
     file O.pbe-n-kjpaw_psl.0.1.UPF: wavefunction(s)  2P renormalized
     signal trapping enabled: kill the code with -SIGUSR1 to stop cleanly the simulation 
 
     K-points division:     npool     =       2
     R & G space division:  proc/nbgrp/npool/nimage =      24
     Subspace diagonalization in iterative solution of the eigenvalue problem:
     one sub-group per band group will be used
     scalapack distributed-memory algorithm (size of sub-group:  3*  3 procs)

 
     Parallelization info
     --------------------
     sticks:   dense  smooth     PW     G-vecs:    dense   smooth      PW
     Min         350     175     47                61430    21716    3036
     Max         351     177     48                61449    21727    3041
     Sum        8421    4205   1137              1474595   521381   72913
 
     Using Slab Decomposition
 


     bravais-lattice index     =            0
     lattice parameter (alat)  =      14.8599  a.u.
     unit-cell volume          =    8305.1283 (a.u.)^3
     number of atoms/cell      =           49
     number of atomic types    =            3
     number of electrons       =       430.00
     number of Kohn-Sham states=          258
     kinetic-energy cutoff     =      60.0000  Ry
     charge density cutoff     =     480.0000  Ry
     scf convergence threshold =      1.0E-08
     mixing beta               =       0.1500
     number of iterations used =            8  local-TF  mixing
     Exchange-correlation= SLA  PW   PBE  PBE
                           (   1   4   3   4   0   0   0)

     celldm(1)=  14.859904  celldm(2)=   0.000000  celldm(3)=   0.000000
     celldm(4)=   0.000000  celldm(5)=   0.000000  celldm(6)=   0.000000

     crystal axes: (cart. coord. in units of alat)
               a(1) = (   1.000000   0.000000   0.000000 )  
               a(2) = (   0.000000   1.000000   0.000000 )  
               a(3) = (   0.000000   0.000000   2.531036 )  

     reciprocal axes: (cart. coord. in units 2 pi/alat)
               b(1) = (  1.000000  0.000000  0.000000 )  
               b(2) = (  0.000000  1.000000  0.000000 )  
               b(3) = (  0.000000  0.000000  0.395095 )  


     PseudoPot. # 1 for Sr read from file:
     /bsuhome/zayahcortright/q-e/pseudo/Sr_pbe_v1.uspp.F.UPF
     MD5 check sum: 6b418c05fbe9db5448babca5e47b7a5b
     Pseudo is Ultrasoft + core correction, Zval = 10.0
     Generated by new atomic code, or converted to UPF format
     Using radial grid of  883 points,  6 beta functions with: 
                l(1) =   0
                l(2) =   0
                l(3) =   1
                l(4) =   1
                l(5) =   2
                l(6) =   2
     Q(r) pseudized with  6 coefficients,  rinner =    1.400   1.400   1.400
                                                       1.400   1.400

     PseudoPot. # 2 for O  read from file:
     /bsuhome/zayahcortright/q-e/pseudo/O.pbe-n-kjpaw_psl.0.1.UPF
     MD5 check sum: 0234752ac141de4415c5fc33072bef88
     Pseudo is Projector augmented-wave + core cor, Zval =  6.0
     Generated using "atomic" code by A. Dal Corso  v.5.0.99 svn rev. 10869
     Shape of augmentation charge: BESSEL
     Using radial grid of 1095 points,  4 beta functions with: 
                l(1) =   0
                l(2) =   0
                l(3) =   1
                l(4) =   1
     Q(r) pseudized with 0 coefficients 


     PseudoPot. # 3 for Co read from file:
     /bsuhome/zayahcortright/q-e/pseudo/Co_pbe_v1.2.uspp.F.UPF
     MD5 check sum: 5f91765df6ddd3222702df6e7b74a16d
     Pseudo is Ultrasoft + core correction, Zval = 17.0
     Generated by new atomic code, or converted to UPF format
     Using radial grid of  863 points,  6 beta functions with: 
                l(1) =   0
                l(2) =   0
                l(3) =   1
                l(4) =   1
                l(5) =   2
                l(6) =   2
     Q(r) pseudized with  8 coefficients,  rinner =    1.200   1.200   1.200
                                                       1.200   1.200

     atomic species   valence    mass     pseudopotential
        Sr            10.00    87.62000     Sr( 1.00)
        O              6.00    15.99900     O ( 1.00)
        Co            17.00    58.93319     Co( 1.00)

     No symmetry found


                                    s                        frac. trans.

      isym =  1     identity                                     

 cryst.   s( 1) = (     1          0          0      )
                  (     0          1          0      )
                  (     0          0          1      )

 cart.    s( 1) = (  1.0000000  0.0000000  0.0000000 )
                  (  0.0000000  1.0000000  0.0000000 )
                  (  0.0000000  0.0000000  1.0000000 )


   Cartesian axes

     site n.     atom                  positions (alat units)
         1           Sr  tau(   1) = (   0.2508693   0.7491307   1.7574407  )
         2           O   tau(   2) = (   0.4985141   0.5014859   1.7715967  )
         3           Sr  tau(   3) = (   0.7482398   0.7454518   1.7648669  )
         4           Sr  tau(   4) = (   0.7441748   0.2558252   1.7667843  )
         5           Sr  tau(   5) = (   0.2508693   0.7491307   1.2696799  )
         6           Sr  tau(   6) = (   0.2508693   0.7491307   0.7632319  )
         7           Co  tau(   7) = (   0.4998914   0.5001086   1.0164559  )
         8           Co  tau(   8) = (   0.4936915   0.5063085   1.5135603  )
         9           O   tau(   9) = (   0.4988895   0.7610401   1.0164559  )
        10           O   tau(  10) = (   0.2389599   0.5011105   1.0164559  )
        11           O   tau(  11) = (   0.0070918   0.7374880   1.0164559  )
        12           O   tau(  12) = (   0.0088340   0.7405089   1.5135603  )
        13           O   tau(  13) = (   0.5066944   0.7415376   1.5135603  )
        14           O   tau(  14) = (   0.2584624   0.4933056   1.5135603  )
        15           O   tau(  15) = (   0.4985141   0.5014859   0.7773880  )
        16           O   tau(  16) = (   0.4985141   0.5014859   1.2555238  )
        17           Sr  tau(  17) = (   0.7482398   0.7454518   0.7706582  )
        18           Sr  tau(  18) = (   0.7482398   0.7454518   1.2622536  )
        19           Sr  tau(  19) = (   0.7441748   0.2558252   0.7725755  )
        20           Sr  tau(  20) = (   0.7441748   0.2558252   1.2603363  )
        21           O   tau(  21) = (   0.7322655   0.0078049   1.5135603  )
        22           O   tau(  22) = (   0.7558175   0.4996027   1.5135603  )
        23           O   tau(  23) = (   0.5003973   0.2441825   1.5135603  )
        24           O   tau(  24) = (   0.7527966   0.4978604   1.0164559  )
        25           O   tau(  25) = (   0.5021396   0.2472034   1.0164559  )
        26           O   tau(  26) = (   0.7517679   0.0000000   1.0164559  )
        27           O   tau(  27) = (   0.0114961   0.4948124   1.7455321  )
        28           O   tau(  28) = (   0.0048226   0.0077944   1.7715967  )
        29           Sr  tau(  29) = (   0.2545482   0.2517602   1.7648669  )
        30           O   tau(  30) = (   0.5048017   0.0015068   1.7786929  )
        31           Co  tau(  31) = (   0.0056869   0.5006215   1.0164559  )
        32           Co  tau(  32) = (   0.0065315   0.4997770   1.5135603  )
        33           Co  tau(  33) = (   0.0061999   0.0064171   1.0164559  )
        34           Co  tau(  34) = (   0.0000000   0.0126169   1.5135603  )
        35           O   tau(  35) = (   0.0114961   0.4948124   1.2815885  )
        36           O   tau(  36) = (   0.0114961   0.4948124   0.7513233  )
        37           O   tau(  37) = (   0.0051979   0.2673486   1.0164559  )
        38           O   tau(  38) = (   0.0130029   0.2478461   1.5135603  )
        39           O   tau(  39) = (   0.0048226   0.0077944   0.7773880  )
        40           O   tau(  40) = (   0.0048226   0.0077944   1.2555238  )
        41           Sr  tau(  41) = (   0.2545482   0.2517602   0.7706582  )
        42           Sr  tau(  42) = (   0.2545482   0.2517602   1.2622536  )
        43           Co  tau(  43) = (   0.4989925   0.0073160   1.5135603  )
        44           Co  tau(  44) = (   0.4998370   0.0064714   1.0164559  )
        45           O   tau(  45) = (   0.5048017   0.0015068   0.7844841  )
        46           O   tau(  46) = (   0.5048017   0.0015068   1.2484277  )
        47           O   tau(  47) = (   0.2621260   0.0059111   1.5135603  )
        48           O   tau(  48) = (   0.2591051   0.0041689   1.0164559  )
        49           O   tau(  49) = (   0.8529874   0.7108228   2.1602013  )

   Crystallographic axes

     site n.     atom                  positions (cryst. coord.)
         1           Sr  tau(   1) = (  0.2508693  0.7491307  0.6943562  )
         2           O   tau(   2) = (  0.4985141  0.5014859  0.6999492  )
         3           Sr  tau(   3) = (  0.7482398  0.7454518  0.6972903  )
         4           Sr  tau(   4) = (  0.7441748  0.2558252  0.6980478  )
         5           Sr  tau(   5) = (  0.2508693  0.7491307  0.5016443  )
         6           Sr  tau(   6) = (  0.2508693  0.7491307  0.3015492  )
         7           Co  tau(   7) = (  0.4998914  0.5001086  0.4015968  )
         8           Co  tau(   8) = (  0.4936915  0.5063085  0.5980003  )
         9           O   tau(   9) = (  0.4988895  0.7610401  0.4015968  )
        10           O   tau(  10) = (  0.2389599  0.5011105  0.4015968  )
        11           O   tau(  11) = (  0.0070918  0.7374880  0.4015968  )
        12           O   tau(  12) = (  0.0088340  0.7405089  0.5980003  )
        13           O   tau(  13) = (  0.5066944  0.7415376  0.5980003  )
        14           O   tau(  14) = (  0.2584624  0.4933056  0.5980003  )
        15           O   tau(  15) = (  0.4985141  0.5014859  0.3071422  )
        16           O   tau(  16) = (  0.4985141  0.5014859  0.4960513  )
        17           Sr  tau(  17) = (  0.7482398  0.7454518  0.3044833  )
        18           Sr  tau(  18) = (  0.7482398  0.7454518  0.4987103  )
        19           Sr  tau(  19) = (  0.7441748  0.2558252  0.3052408  )
        20           Sr  tau(  20) = (  0.7441748  0.2558252  0.4979527  )
        21           O   tau(  21) = (  0.7322655  0.0078049  0.5980003  )
        22           O   tau(  22) = (  0.7558175  0.4996027  0.5980003  )
        23           O   tau(  23) = (  0.5003973  0.2441825  0.5980003  )
        24           O   tau(  24) = (  0.7527966  0.4978604  0.4015968  )
        25           O   tau(  25) = (  0.5021396  0.2472034  0.4015968  )
        26           O   tau(  26) = (  0.7517679  0.0000000  0.4015968  )
        27           O   tau(  27) = (  0.0114961  0.4948124  0.6896512  )
        28           O   tau(  28) = (  0.0048226  0.0077944  0.6999492  )
        29           Sr  tau(  29) = (  0.2545482  0.2517602  0.6972903  )
        30           O   tau(  30) = (  0.5048017  0.0015068  0.7027529  )
        31           Co  tau(  31) = (  0.0056869  0.5006215  0.4015968  )
        32           Co  tau(  32) = (  0.0065315  0.4997770  0.5980003  )
        33           Co  tau(  33) = (  0.0061999  0.0064171  0.4015968  )
        34           Co  tau(  34) = (  0.0000000  0.0126169  0.5980003  )
        35           O   tau(  35) = (  0.0114961  0.4948124  0.5063494  )
        36           O   tau(  36) = (  0.0114961  0.4948124  0.2968442  )
        37           O   tau(  37) = (  0.0051979  0.2673486  0.4015968  )
        38           O   tau(  38) = (  0.0130029  0.2478461  0.5980003  )
        39           O   tau(  39) = (  0.0048226  0.0077944  0.3071422  )
        40           O   tau(  40) = (  0.0048226  0.0077944  0.4960513  )
        41           Sr  tau(  41) = (  0.2545482  0.2517602  0.3044833  )
        42           Sr  tau(  42) = (  0.2545482  0.2517602  0.4987103  )
        43           Co  tau(  43) = (  0.4989925  0.0073160  0.5980003  )
        44           Co  tau(  44) = (  0.4998370  0.0064714  0.4015968  )
        45           O   tau(  45) = (  0.5048017  0.0015068  0.3099459  )
        46           O   tau(  46) = (  0.5048017  0.0015068  0.4932477  )
        47           O   tau(  47) = (  0.2621260  0.0059111  0.5980003  )
        48           O   tau(  48) = (  0.2591051  0.0041689  0.4015968  )
        49           O   tau(  49) = (  0.8529874  0.7108228  0.8534850  )

     number of k points=    10  Gaussian smearing, width (Ry)=  0.0700
                       cart. coord. in units 2pi/alat
        k(    1) = (   0.0000000   0.0000000   0.0000000), wk =   0.1250000
        k(    2) = (   0.0000000   0.2500000   0.0000000), wk =   0.2500000
        k(    3) = (   0.0000000  -0.5000000   0.0000000), wk =   0.1250000
        k(    4) = (   0.2500000   0.2500000   0.0000000), wk =   0.2500000
        k(    5) = (   0.2500000  -0.5000000   0.0000000), wk =   0.2500000
        k(    6) = (  -0.5000000  -0.5000000   0.0000000), wk =   0.1250000
        k(    7) = (   0.2500000   0.0000000   0.0000000), wk =   0.2500000
        k(    8) = (  -0.5000000   0.0000000   0.0000000), wk =   0.1250000
        k(    9) = (  -0.2500000   0.2500000   0.0000000), wk =   0.2500000
        k(   10) = (  -0.5000000   0.2500000   0.0000000), wk =   0.2500000

                       cryst. coord.
        k(    1) = (   0.0000000   0.0000000   0.0000000), wk =   0.1250000
        k(    2) = (   0.0000000   0.2500000   0.0000000), wk =   0.2500000
        k(    3) = (   0.0000000  -0.5000000   0.0000000), wk =   0.1250000
        k(    4) = (   0.2500000   0.2500000   0.0000000), wk =   0.2500000
        k(    5) = (   0.2500000  -0.5000000   0.0000000), wk =   0.2500000
        k(    6) = (  -0.5000000  -0.5000000   0.0000000), wk =   0.1250000
        k(    7) = (   0.2500000   0.0000000   0.0000000), wk =   0.2500000
        k(    8) = (  -0.5000000   0.0000000   0.0000000), wk =   0.1250000
        k(    9) = (  -0.2500000   0.2500000   0.0000000), wk =   0.2500000
        k(   10) = (  -0.5000000   0.2500000   0.0000000), wk =   0.2500000

     Dense  grid:  1474595 G-vectors     FFT dimensions: ( 108, 108, 270)

     Smooth grid:   521381 G-vectors     FFT dimensions: (  75,  75, 192)

     Dynamical RAM for                 wfc:      10.69 MB

     Dynamical RAM for     wfc (w. buffer):      64.13 MB

     Dynamical RAM for           str. fact:       2.81 MB

     Dynamical RAM for           local pot:       0.00 MB

     Dynamical RAM for          nlocal pot:      24.53 MB

     Dynamical RAM for                qrad:       5.27 MB

     Dynamical RAM for          rho,v,vnew:       6.02 MB

     Dynamical RAM for               rhoin:       2.01 MB

     Dynamical RAM for            rho*nmix:      15.00 MB

     Dynamical RAM for           G-vectors:       3.68 MB

     Dynamical RAM for          h,s,v(r/c):       1.35 MB

     Dynamical RAM for          <psi|beta>:       2.33 MB

     Dynamical RAM for                 psi:      21.38 MB

     Dynamical RAM for                hpsi:      21.38 MB

     Dynamical RAM for                spsi:      21.38 MB

     Dynamical RAM for      wfcinit/wfcrot:      34.39 MB

     Dynamical RAM for           addusdens:     101.26 MB

     Estimated static dynamical RAM per process >     117.53 MB

     Estimated max dynamical RAM per process >     233.79 MB

     Estimated total dynamical RAM >      10.61 GB

     Check: negative core charge=   -0.000004

     Initial potential from superposition of free atoms

     starting charge     421.5961, renormalised to     430.0000

     negative rho (up, down):  7.826E-01 0.000E+00
     Starting wfcs are  376 randomized atomic wfcs
     Checking if some PAW data can be deallocated... 
       PAW data deallocated on   19 nodes for type:  2

     total cpu time spent up to now is        9.4 secs

     Self-consistent Calculation

     iteration #  1     ecut=    60.00 Ry     beta= 0.15
     Davidson diagonalization with overlap

---- Real-time Memory Report at c_bands before calling an iterative solver
             0 MiB given to the printing process from OS
             0 MiB allocation reported by mallinfo(arena+hblkhd)
         51475 MiB available memory on the node where the printing process lives
------------------
     ethr =  1.00E-02,  avg # of iterations =  2.0

     negative rho (up, down):  7.716E-01 0.000E+00

     total cpu time spent up to now is       24.8 secs

     total energy              =   -4445.19176357 Ry
     estimated scf accuracy    <      53.82641294 Ry

     iteration #  2     ecut=    60.00 Ry     beta= 0.15
     Davidson diagonalization with overlap

---- Real-time Memory Report at c_bands before calling an iterative solver
             0 MiB given to the printing process from OS
             0 MiB allocation reported by mallinfo(arena+hblkhd)
         51852 MiB available memory on the node where the printing process lives
------------------
     ethr =  1.00E-02,  avg # of iterations =  1.0

     negative rho (up, down):  7.596E-01 0.000E+00

     total cpu time spent up to now is       37.7 secs

     total energy              =   -4442.07011598 Ry
     estimated scf accuracy    <      27.95978215 Ry

     iteration #  3     ecut=    60.00 Ry     beta= 0.15
     Davidson diagonalization with overlap

---- Real-time Memory Report at c_bands before calling an iterative solver
             0 MiB given to the printing process from OS
             0 MiB allocation reported by mallinfo(arena+hblkhd)
         51082 MiB available memory on the node where the printing process lives
------------------
     ethr =  6.50E-03,  avg # of iterations =  1.0

     negative rho (up, down):  7.527E-01 0.000E+00

     total cpu time spent up to now is       50.5 secs

     total energy              =   -4442.53429438 Ry
     estimated scf accuracy    <      30.56639185 Ry

     iteration #  4     ecut=    60.00 Ry     beta= 0.15
     Davidson diagonalization with overlap

---- Real-time Memory Report at c_bands before calling an iterative solver
             0 MiB given to the printing process from OS
             0 MiB allocation reported by mallinfo(arena+hblkhd)
         51030 MiB available memory on the node where the printing process lives
------------------
     ethr =  6.50E-03,  avg # of iterations =  1.0

     negative rho (up, down):  7.517E-01 0.000E+00

     total cpu time spent up to now is       63.3 secs

     total energy              =   -4443.06794906 Ry
     estimated scf accuracy    <      29.16380281 Ry

     iteration #  5     ecut=    60.00 Ry     beta= 0.15
     Davidson diagonalization with overlap

---- Real-time Memory Report at c_bands before calling an iterative solver
             0 MiB given to the printing process from OS
             0 MiB allocation reported by mallinfo(arena+hblkhd)
         51014 MiB available memory on the node where the printing process lives
------------------
     ethr =  6.50E-03,  avg # of iterations =  1.0

     negative rho (up, down):  7.364E-01 0.000E+00

     total cpu time spent up to now is       76.0 secs

     total energy              =   -4442.22856302 Ry
     estimated scf accuracy    <      42.32797190 Ry

     iteration #  6     ecut=    60.00 Ry     beta= 0.15
     Davidson diagonalization with overlap

---- Real-time Memory Report at c_bands before calling an iterative solver
             0 MiB given to the printing process from OS
             0 MiB allocation reported by mallinfo(arena+hblkhd)
         50991 MiB available memory on the node where the printing process lives
------------------
     ethr =  6.50E-03,  avg # of iterations =  1.0

     negative rho (up, down):  7.431E-01 0.000E+00

     total cpu time spent up to now is       88.6 secs

     total energy              =   -4442.16279484 Ry
     estimated scf accuracy    <      35.75075917 Ry

     iteration #  7     ecut=    60.00 Ry     beta= 0.15
     Davidson diagonalization with overlap

---- Real-time Memory Report at c_bands before calling an iterative solver
             0 MiB given to the printing process from OS
             0 MiB allocation reported by mallinfo(arena+hblkhd)
         50970 MiB available memory on the node where the printing process lives
------------------
     ethr =  6.50E-03,  avg # of iterations =  1.0

     negative rho (up, down):  7.471E-01 0.000E+00

     total cpu time spent up to now is      101.2 secs

     total energy              =   -4439.37568812 Ry
     estimated scf accuracy    <      33.09275309 Ry

     iteration #  8     ecut=    60.00 Ry     beta= 0.15
     Davidson diagonalization with overlap

---- Real-time Memory Report at c_bands before calling an iterative solver
             0 MiB given to the printing process from OS
             0 MiB allocation reported by mallinfo(arena+hblkhd)
         50960 MiB available memory on the node where the printing process lives
------------------
     ethr =  6.50E-03,  avg # of iterations =  1.0

     negative rho (up, down):  7.438E-01 0.000E+00

     total cpu time spent up to now is      113.8 secs

     total energy              =   -4440.22852483 Ry
     estimated scf accuracy    <       4.76672025 Ry

     iteration #  9     ecut=    60.00 Ry     beta= 0.15
     Davidson diagonalization with overlap

---- Real-time Memory Report at c_bands before calling an iterative solver
             0 MiB given to the printing process from OS
             0 MiB allocation reported by mallinfo(arena+hblkhd)
         50938 MiB available memory on the node where the printing process lives
------------------
     ethr =  1.11E-03,  avg # of iterations =  4.6

     negative rho (up, down):  7.580E-01 0.000E+00

     total cpu time spent up to now is      129.1 secs

     total energy              =   -4440.56128646 Ry
     estimated scf accuracy    <       8.01934381 Ry

     iteration # 10     ecut=    60.00 Ry     beta= 0.15
     Davidson diagonalization with overlap

---- Real-time Memory Report at c_bands before calling an iterative solver
             0 MiB given to the printing process from OS
             0 MiB allocation reported by mallinfo(arena+hblkhd)
         50825 MiB available memory on the node where the printing process lives
------------------
     ethr =  1.11E-03,  avg # of iterations =  2.0

     negative rho (up, down):  7.656E-01 0.000E+00

     total cpu time spent up to now is      143.3 secs

     total energy              =   -4440.37087305 Ry
     estimated scf accuracy    <       9.50688063 Ry

     iteration # 11     ecut=    60.00 Ry     beta= 0.15
     Davidson diagonalization with overlap

---- Real-time Memory Report at c_bands before calling an iterative solver
             0 MiB given to the printing process from OS
             0 MiB allocation reported by mallinfo(arena+hblkhd)
         50833 MiB available memory on the node where the printing process lives
------------------
     ethr =  1.11E-03,  avg # of iterations =  9.4

     negative rho (up, down):  7.708E-01 0.000E+00

     total cpu time spent up to now is      160.7 secs

     total energy              =   -4440.56301484 Ry
     estimated scf accuracy    <       2.86673398 Ry

     iteration # 12     ecut=    60.00 Ry     beta= 0.15
     Davidson diagonalization with overlap

---- Real-time Memory Report at c_bands before calling an iterative solver
             0 MiB given to the printing process from OS
             0 MiB allocation reported by mallinfo(arena+hblkhd)
         50582 MiB available memory on the node where the printing process lives
------------------
     c_bands:  1 eigenvalues not converged
     ethr =  6.67E-04,  avg # of iterations =  6.6

     negative rho (up, down):  7.798E-01 0.000E+00

     total cpu time spent up to now is      176.8 secs

     total energy              =   -4440.55086281 Ry
     estimated scf accuracy    <       0.95410388 Ry

     iteration # 13     ecut=    60.00 Ry     beta= 0.15
     Davidson diagonalization with overlap

---- Real-time Memory Report at c_bands before calling an iterative solver
             0 MiB given to the printing process from OS
             0 MiB allocation reported by mallinfo(arena+hblkhd)
         50500 MiB available memory on the node where the printing process lives
------------------
     ethr =  2.22E-04,  avg # of iterations = 12.2

     negative rho (up, down):  8.007E-01 0.000E+00

     total cpu time spent up to now is      195.3 secs

     total energy              =   -4440.49572116 Ry
     estimated scf accuracy    <       0.86415734 Ry

     iteration # 14     ecut=    60.00 Ry     beta= 0.15
     Davidson diagonalization with overlap

---- Real-time Memory Report at c_bands before calling an iterative solver
             0 MiB given to the printing process from OS
             0 MiB allocation reported by mallinfo(arena+hblkhd)
         50615 MiB available memory on the node where the printing process lives
------------------
     ethr =  2.01E-04,  avg # of iterations =  2.2

     negative rho (up, down):  8.182E-01 0.000E+00

     total cpu time spent up to now is      209.4 secs

     total energy              =   -4440.42281612 Ry
     estimated scf accuracy    <       2.56636750 Ry

     iteration # 15     ecut=    60.00 Ry     beta= 0.15
     Davidson diagonalization with overlap

---- Real-time Memory Report at c_bands before calling an iterative solver
             0 MiB given to the printing process from OS
             0 MiB allocation reported by mallinfo(arena+hblkhd)
         50515 MiB available memory on the node where the printing process lives
------------------
     ethr =  2.01E-04,  avg # of iterations =  4.9

     negative rho (up, down):  8.239E-01 0.000E+00

     total cpu time spent up to now is      224.8 secs

     total energy              =   -4440.41314606 Ry
     estimated scf accuracy    <       0.47973795 Ry

     iteration # 16     ecut=    60.00 Ry     beta= 0.15
     Davidson diagonalization with overlap

---- Real-time Memory Report at c_bands before calling an iterative solver
             0 MiB given to the printing process from OS
             0 MiB allocation reported by mallinfo(arena+hblkhd)
         50508 MiB available memory on the node where the printing process lives
------------------
     ethr =  1.12E-04,  avg # of iterations = 13.8

     negative rho (up, down):  8.255E-01 0.000E+00

     total cpu time spent up to now is      244.7 secs

     total energy              =   -4440.38568378 Ry
     estimated scf accuracy    <       0.26101859 Ry

     iteration # 17     ecut=    60.00 Ry     beta= 0.15
     Davidson diagonalization with overlap

---- Real-time Memory Report at c_bands before calling an iterative solver
             0 MiB given to the printing process from OS
             0 MiB allocation reported by mallinfo(arena+hblkhd)
         50473 MiB available memory on the node where the printing process lives
------------------
     ethr =  6.07E-05,  avg # of iterations =  9.0

     negative rho (up, down):  8.272E-01 0.000E+00

     total cpu time spent up to now is      262.9 secs

     total energy              =   -4440.37707714 Ry
     estimated scf accuracy    <       0.18487656 Ry

     iteration # 18     ecut=    60.00 Ry     beta= 0.15
     Davidson diagonalization with overlap

---- Real-time Memory Report at c_bands before calling an iterative solver
             0 MiB given to the printing process from OS
             0 MiB allocation reported by mallinfo(arena+hblkhd)
         50481 MiB available memory on the node where the printing process lives
------------------
     ethr =  4.30E-05,  avg # of iterations =  4.2

     negative rho (up, down):  8.092E-01 0.000E+00

     total cpu time spent up to now is      278.6 secs

     total energy              =   -4440.35474244 Ry
     estimated scf accuracy    <       0.15937742 Ry

     iteration # 19     ecut=    60.00 Ry     beta= 0.15
     Davidson diagonalization with overlap

---- Real-time Memory Report at c_bands before calling an iterative solver
             0 MiB given to the printing process from OS
             0 MiB allocation reported by mallinfo(arena+hblkhd)
         50494 MiB available memory on the node where the printing process lives
------------------
     ethr =  3.71E-05,  avg # of iterations =  3.3

     negative rho (up, down):  7.906E-01 0.000E+00

     total cpu time spent up to now is      294.1 secs

     total energy              =   -4440.33261833 Ry
     estimated scf accuracy    <       0.11592669 Ry

     iteration # 20     ecut=    60.00 Ry     beta= 0.15
     Davidson diagonalization with overlap

---- Real-time Memory Report at c_bands before calling an iterative solver
             0 MiB given to the printing process from OS
             0 MiB allocation reported by mallinfo(arena+hblkhd)
         50514 MiB available memory on the node where the printing process lives
------------------
     ethr =  2.70E-05,  avg # of iterations = 10.4

     negative rho (up, down):  8.080E-01 0.000E+00

     total cpu time spent up to now is      313.0 secs

     total energy              =   -4440.32659185 Ry
     estimated scf accuracy    <       0.06500953 Ry

     iteration # 21     ecut=    60.00 Ry     beta= 0.15
     Davidson diagonalization with overlap

---- Real-time Memory Report at c_bands before calling an iterative solver
             0 MiB given to the printing process from OS
             0 MiB allocation reported by mallinfo(arena+hblkhd)
         50400 MiB available memory on the node where the printing process lives
------------------
     ethr =  1.51E-05,  avg # of iterations =  7.7

     negative rho (up, down):  8.215E-01 0.000E+00

     total cpu time spent up to now is      329.4 secs

     total energy              =   -4440.32275494 Ry
     estimated scf accuracy    <       0.03918204 Ry

     iteration # 22     ecut=    60.00 Ry     beta= 0.15
     Davidson diagonalization with overlap

---- Real-time Memory Report at c_bands before calling an iterative solver
             0 MiB given to the printing process from OS
             0 MiB allocation reported by mallinfo(arena+hblkhd)
         50357 MiB available memory on the node where the printing process lives
------------------
     ethr =  9.11E-06,  avg # of iterations =  7.0

     negative rho (up, down):  8.299E-01 0.000E+00

     total cpu time spent up to now is      346.1 secs

     total energy              =   -4440.32100552 Ry
     estimated scf accuracy    <       0.02747127 Ry

     iteration # 23     ecut=    60.00 Ry     beta= 0.15
     Davidson diagonalization with overlap

---- Real-time Memory Report at c_bands before calling an iterative solver
             0 MiB given to the printing process from OS
             0 MiB allocation reported by mallinfo(arena+hblkhd)
         50354 MiB available memory on the node where the printing process lives
------------------
     ethr =  6.39E-06,  avg # of iterations =  6.3

     negative rho (up, down):  8.224E-01 0.000E+00

     total cpu time spent up to now is      362.3 secs

     total energy              =   -4440.31795128 Ry
     estimated scf accuracy    <       0.02084999 Ry

     iteration # 24     ecut=    60.00 Ry     beta= 0.15
     Davidson diagonalization with overlap

---- Real-time Memory Report at c_bands before calling an iterative solver
             0 MiB given to the printing process from OS
             0 MiB allocation reported by mallinfo(arena+hblkhd)
         50377 MiB available memory on the node where the printing process lives
------------------
     c_bands:  1 eigenvalues not converged
     ethr =  4.85E-06,  avg # of iterations = 11.6

     negative rho (up, down):  8.023E-01 0.000E+00

     total cpu time spent up to now is      380.3 secs

     total energy              =   -4440.31563156 Ry
     estimated scf accuracy    <       0.01158508 Ry

     iteration # 25     ecut=    60.00 Ry     beta= 0.15
     Davidson diagonalization with overlap

---- Real-time Memory Report at c_bands before calling an iterative solver
             0 MiB given to the printing process from OS
             0 MiB allocation reported by mallinfo(arena+hblkhd)
         50400 MiB available memory on the node where the printing process lives
------------------
     c_bands:  1 eigenvalues not converged
     ethr =  2.69E-06,  avg # of iterations = 11.8

     negative rho (up, down):  8.060E-01 0.000E+00

     total cpu time spent up to now is      398.6 secs

     total energy              =   -4440.31567588 Ry
     estimated scf accuracy    <       0.00461342 Ry

     iteration # 26     ecut=    60.00 Ry     beta= 0.15
     Davidson diagonalization with overlap

---- Real-time Memory Report at c_bands before calling an iterative solver
             0 MiB given to the printing process from OS
             0 MiB allocation reported by mallinfo(arena+hblkhd)
         50366 MiB available memory on the node where the printing process lives
------------------
     ethr =  1.07E-06,  avg # of iterations =  7.8

     negative rho (up, down):  8.018E-01 0.000E+00

     total cpu time spent up to now is      415.3 secs

     total energy              =   -4440.31545383 Ry
     estimated scf accuracy    <       0.00221837 Ry

     iteration # 27     ecut=    60.00 Ry     beta= 0.15
     Davidson diagonalization with overlap

---- Real-time Memory Report at c_bands before calling an iterative solver
             0 MiB given to the printing process from OS
             0 MiB allocation reported by mallinfo(arena+hblkhd)
         50370 MiB available memory on the node where the printing process lives
------------------
     c_bands:  1 eigenvalues not converged
     ethr =  5.16E-07,  avg # of iterations =  8.4

     negative rho (up, down):  7.960E-01 0.000E+00

     total cpu time spent up to now is      432.5 secs

     total energy              =   -4440.31530959 Ry
     estimated scf accuracy    <       0.00125074 Ry

     iteration # 28     ecut=    60.00 Ry     beta= 0.15
     Davidson diagonalization with overlap

---- Real-time Memory Report at c_bands before calling an iterative solver
             0 MiB given to the printing process from OS
             0 MiB allocation reported by mallinfo(arena+hblkhd)
         50358 MiB available memory on the node where the printing process lives
------------------
     c_bands:  1 eigenvalues not converged
     ethr =  2.91E-07,  avg # of iterations = 10.9

     negative rho (up, down):  7.953E-01 0.000E+00

     total cpu time spent up to now is      450.7 secs

     total energy              =   -4440.31530120 Ry
     estimated scf accuracy    <       0.00062364 Ry

     iteration # 29     ecut=    60.00 Ry     beta= 0.15
     Davidson diagonalization with overlap

---- Real-time Memory Report at c_bands before calling an iterative solver
             0 MiB given to the printing process from OS
             0 MiB allocation reported by mallinfo(arena+hblkhd)
         50369 MiB available memory on the node where the printing process lives
------------------
     ethr =  1.45E-07,  avg # of iterations =  6.0

     negative rho (up, down):  7.960E-01 0.000E+00

     total cpu time spent up to now is      467.1 secs

     total energy              =   -4440.31537830 Ry
     estimated scf accuracy    <       0.00013249 Ry

     iteration # 30     ecut=    60.00 Ry     beta= 0.15
     Davidson diagonalization with overlap

---- Real-time Memory Report at c_bands before calling an iterative solver
             0 MiB given to the printing process from OS
             0 MiB allocation reported by mallinfo(arena+hblkhd)
         50347 MiB available memory on the node where the printing process lives
------------------
     ethr =  3.08E-08,  avg # of iterations =  2.0

     negative rho (up, down):  7.944E-01 0.000E+00

     total cpu time spent up to now is      481.7 secs

     total energy              =   -4440.31534552 Ry
     estimated scf accuracy    <       0.00008914 Ry

     iteration # 31     ecut=    60.00 Ry     beta= 0.15
     Davidson diagonalization with overlap

---- Real-time Memory Report at c_bands before calling an iterative solver
             0 MiB given to the printing process from OS
             0 MiB allocation reported by mallinfo(arena+hblkhd)
         50364 MiB available memory on the node where the printing process lives
------------------
     ethr =  2.07E-08,  avg # of iterations =  2.0

     negative rho (up, down):  7.937E-01 0.000E+00

     total cpu time spent up to now is      496.0 secs

     total energy              =   -4440.31534347 Ry
     estimated scf accuracy    <       0.00004481 Ry

     iteration # 32     ecut=    60.00 Ry     beta= 0.15
     Davidson diagonalization with overlap

---- Real-time Memory Report at c_bands before calling an iterative solver
             0 MiB given to the printing process from OS
             0 MiB allocation reported by mallinfo(arena+hblkhd)
         50374 MiB available memory on the node where the printing process lives
------------------
     ethr =  1.04E-08,  avg # of iterations =  2.0

     negative rho (up, down):  7.934E-01 0.000E+00

     total cpu time spent up to now is      510.2 secs

     total energy              =   -4440.31534209 Ry
     estimated scf accuracy    <       0.00002108 Ry

     iteration # 33     ecut=    60.00 Ry     beta= 0.15
     Davidson diagonalization with overlap

---- Real-time Memory Report at c_bands before calling an iterative solver
             0 MiB given to the printing process from OS
             0 MiB allocation reported by mallinfo(arena+hblkhd)
         50391 MiB available memory on the node where the printing process lives
------------------
     ethr =  4.90E-09,  avg # of iterations =  2.0

     negative rho (up, down):  7.925E-01 0.000E+00

     total cpu time spent up to now is      524.3 secs

     total energy              =   -4440.31534535 Ry
     estimated scf accuracy    <       0.00001324 Ry

     iteration # 34     ecut=    60.00 Ry     beta= 0.15
     Davidson diagonalization with overlap

---- Real-time Memory Report at c_bands before calling an iterative solver
             0 MiB given to the printing process from OS
             0 MiB allocation reported by mallinfo(arena+hblkhd)
         50397 MiB available memory on the node where the printing process lives
------------------
     ethr =  3.08E-09,  avg # of iterations =  2.1

     negative rho (up, down):  7.925E-01 0.000E+00

     total cpu time spent up to now is      538.8 secs

     total energy              =   -4440.31535125 Ry
     estimated scf accuracy    <       0.00000610 Ry

     iteration # 35     ecut=    60.00 Ry     beta= 0.15
     Davidson diagonalization with overlap

---- Real-time Memory Report at c_bands before calling an iterative solver
             0 MiB given to the printing process from OS
             0 MiB allocation reported by mallinfo(arena+hblkhd)
         50406 MiB available memory on the node where the printing process lives
------------------
     ethr =  1.42E-09,  avg # of iterations =  2.9

     negative rho (up, down):  7.926E-01 0.000E+00

     total cpu time spent up to now is      553.5 secs

     total energy              =   -4440.31535300 Ry
     estimated scf accuracy    <       0.00000236 Ry

     iteration # 36     ecut=    60.00 Ry     beta= 0.15
     Davidson diagonalization with overlap

---- Real-time Memory Report at c_bands before calling an iterative solver
             0 MiB given to the printing process from OS
             0 MiB allocation reported by mallinfo(arena+hblkhd)
         50405 MiB available memory on the node where the printing process lives
------------------
     ethr =  5.48E-10,  avg # of iterations =  3.4

     negative rho (up, down):  7.926E-01 0.000E+00

     total cpu time spent up to now is      568.6 secs

     total energy              =   -4440.31535356 Ry
     estimated scf accuracy    <       0.00000126 Ry

     iteration # 37     ecut=    60.00 Ry     beta= 0.15
     Davidson diagonalization with overlap

---- Real-time Memory Report at c_bands before calling an iterative solver
             0 MiB given to the printing process from OS
             0 MiB allocation reported by mallinfo(arena+hblkhd)
         50392 MiB available memory on the node where the printing process lives
------------------
     ethr =  2.94E-10,  avg # of iterations =  2.1

     negative rho (up, down):  7.926E-01 0.000E+00

     total cpu time spent up to now is      582.8 secs

     total energy              =   -4440.31535368 Ry
     estimated scf accuracy    <       0.00000112 Ry

     iteration # 38     ecut=    60.00 Ry     beta= 0.15
     Davidson diagonalization with overlap

---- Real-time Memory Report at c_bands before calling an iterative solver
             0 MiB given to the printing process from OS
             0 MiB allocation reported by mallinfo(arena+hblkhd)
         50392 MiB available memory on the node where the printing process lives
------------------
     ethr =  2.60E-10,  avg # of iterations =  2.0

     negative rho (up, down):  7.926E-01 0.000E+00

     total cpu time spent up to now is      596.9 secs

     total energy              =   -4440.31535390 Ry
     estimated scf accuracy    <       0.00000075 Ry

     iteration # 39     ecut=    60.00 Ry     beta= 0.15
     Davidson diagonalization with overlap

---- Real-time Memory Report at c_bands before calling an iterative solver
             0 MiB given to the printing process from OS
             0 MiB allocation reported by mallinfo(arena+hblkhd)
         50411 MiB available memory on the node where the printing process lives
------------------
     ethr =  1.74E-10,  avg # of iterations =  2.0

     negative rho (up, down):  7.926E-01 0.000E+00

     total cpu time spent up to now is      611.5 secs

     total energy              =   -4440.31535391 Ry
     estimated scf accuracy    <       0.00000057 Ry

     iteration # 40     ecut=    60.00 Ry     beta= 0.15
     Davidson diagonalization with overlap

---- Real-time Memory Report at c_bands before calling an iterative solver
             0 MiB given to the printing process from OS
             0 MiB allocation reported by mallinfo(arena+hblkhd)
         50410 MiB available memory on the node where the printing process lives
------------------
     ethr =  1.31E-10,  avg # of iterations =  2.7

     negative rho (up, down):  7.926E-01 0.000E+00

     total cpu time spent up to now is      626.0 secs

     total energy              =   -4440.31535387 Ry
     estimated scf accuracy    <       0.00000024 Ry

     iteration # 41     ecut=    60.00 Ry     beta= 0.15
     Davidson diagonalization with overlap

---- Real-time Memory Report at c_bands before calling an iterative solver
             0 MiB given to the printing process from OS
             0 MiB allocation reported by mallinfo(arena+hblkhd)
         50410 MiB available memory on the node where the printing process lives
------------------
     ethr =  5.68E-11,  avg # of iterations =  2.0

     negative rho (up, down):  7.926E-01 0.000E+00

     total cpu time spent up to now is      640.3 secs

     total energy              =   -4440.31535392 Ry
     estimated scf accuracy    <       0.00000019 Ry

     iteration # 42     ecut=    60.00 Ry     beta= 0.15
     Davidson diagonalization with overlap

---- Real-time Memory Report at c_bands before calling an iterative solver
             0 MiB given to the printing process from OS
             0 MiB allocation reported by mallinfo(arena+hblkhd)
         50413 MiB available memory on the node where the printing process lives
------------------
     ethr =  4.53E-11,  avg # of iterations =  1.6

     negative rho (up, down):  7.926E-01 0.000E+00

     total cpu time spent up to now is      654.0 secs

     total energy              =   -4440.31535396 Ry
     estimated scf accuracy    <       0.00000012 Ry

     iteration # 43     ecut=    60.00 Ry     beta= 0.15
     Davidson diagonalization with overlap

---- Real-time Memory Report at c_bands before calling an iterative solver
             0 MiB given to the printing process from OS
             0 MiB allocation reported by mallinfo(arena+hblkhd)
         50411 MiB available memory on the node where the printing process lives
------------------
     ethr =  2.73E-11,  avg # of iterations =  2.0

     negative rho (up, down):  7.926E-01 0.000E+00

     total cpu time spent up to now is      668.3 secs

     total energy              =   -4440.31535396 Ry
     estimated scf accuracy    <       0.00000008 Ry

     iteration # 44     ecut=    60.00 Ry     beta= 0.15
     Davidson diagonalization with overlap

---- Real-time Memory Report at c_bands before calling an iterative solver
             0 MiB given to the printing process from OS
             0 MiB allocation reported by mallinfo(arena+hblkhd)
         50414 MiB available memory on the node where the printing process lives
------------------
     ethr =  1.77E-11,  avg # of iterations =  2.8

     negative rho (up, down):  7.926E-01 0.000E+00

     total cpu time spent up to now is      682.9 secs

     total energy              =   -4440.31535392 Ry
     estimated scf accuracy    <       0.00000005 Ry

     iteration # 45     ecut=    60.00 Ry     beta= 0.15
     Davidson diagonalization with overlap

---- Real-time Memory Report at c_bands before calling an iterative solver
             0 MiB given to the printing process from OS
             0 MiB allocation reported by mallinfo(arena+hblkhd)
         50410 MiB available memory on the node where the printing process lives
------------------
     ethr =  1.08E-11,  avg # of iterations =  2.8

     negative rho (up, down):  7.926E-01 0.000E+00

     total cpu time spent up to now is      697.4 secs

     total energy              =   -4440.31535390 Ry
     estimated scf accuracy    <       0.00000003 Ry

     iteration # 46     ecut=    60.00 Ry     beta= 0.15
     Davidson diagonalization with overlap

---- Real-time Memory Report at c_bands before calling an iterative solver
             0 MiB given to the printing process from OS
             0 MiB allocation reported by mallinfo(arena+hblkhd)
         50413 MiB available memory on the node where the printing process lives
------------------
     ethr =  6.65E-12,  avg # of iterations =  2.0

     negative rho (up, down):  7.927E-01 0.000E+00

     total cpu time spent up to now is      711.7 secs

     total energy              =   -4440.31535388 Ry
     estimated scf accuracy    <       0.00000002 Ry

     iteration # 47     ecut=    60.00 Ry     beta= 0.15
     Davidson diagonalization with overlap

---- Real-time Memory Report at c_bands before calling an iterative solver
             0 MiB given to the printing process from OS
             0 MiB allocation reported by mallinfo(arena+hblkhd)
         50412 MiB available memory on the node where the printing process lives
------------------
     ethr =  5.07E-12,  avg # of iterations =  2.1

     negative rho (up, down):  7.927E-01 0.000E+00

     total cpu time spent up to now is      726.2 secs

     total energy              =   -4440.31535389 Ry
     estimated scf accuracy    <       0.00000001 Ry

     iteration # 48     ecut=    60.00 Ry     beta= 0.15
     Davidson diagonalization with overlap

---- Real-time Memory Report at c_bands before calling an iterative solver
             0 MiB given to the printing process from OS
             0 MiB allocation reported by mallinfo(arena+hblkhd)
         50411 MiB available memory on the node where the printing process lives
------------------
     ethr =  3.32E-12,  avg # of iterations =  2.0

     negative rho (up, down):  7.926E-01 0.000E+00

     total cpu time spent up to now is      740.0 secs

     End of self-consistent calculation

          k = 0.0000 0.0000 0.0000 ( 65197 PWs)   bands (ev):

   -92.9033 -92.8558 -92.7577 -92.7112 -92.6545 -92.6100 -92.5925 -92.4721
   -56.2569 -56.2426 -56.1144 -56.1037 -56.0980 -56.0906 -56.0590 -56.0264
   -56.0115 -56.0099 -56.0052 -55.9615 -55.9415 -55.9048 -55.8845 -55.8544
   -55.8468 -55.7977 -55.7970 -55.7948 -55.7864 -55.7474 -55.7225 -55.6379
   -31.4649 -31.4456 -31.3047 -31.2184 -31.1670 -31.0344 -30.9955 -30.8213
   -30.0459 -30.0026 -29.9775 -29.8712 -15.2793 -15.2313 -15.1522 -15.0234
   -14.8210 -14.7014 -14.4149 -14.3844 -14.3641 -14.3160 -14.2706 -14.2600
   -14.2467 -14.2262 -14.1979 -14.1533 -14.1253 -13.9719 -13.7876 -13.7596
   -13.7319 -13.6925 -13.6785 -13.6206 -13.5886 -13.5078 -13.4405 -13.3002
   -13.2908 -13.2854 -13.2631 -13.2456 -13.1941 -13.1891 -13.1687 -13.1454
   -13.1211 -13.1114 -13.0887 -13.0008 -12.9889 -12.9653 -12.9202 -12.8723
   -12.8586 -12.7790 -12.7682 -12.7046 -12.5324 -12.3862 -12.1785 -12.1050
   -12.0593 -11.9886 -11.9851 -11.9745 -11.9512 -11.9331 -11.8704 -11.8536
   -11.8179 -11.7876 -11.6788 -11.5989 -11.5953  -3.1396  -2.9085  -2.6790
    -2.5304  -2.4693  -2.3278  -2.0196  -2.0048  -1.9868  -1.8991  -1.8797
    -1.8125  -1.7948  -1.7556  -1.7117  -1.5291  -1.3018  -1.2721  -1.1301
    -1.1149  -1.0656  -1.0463  -1.0004  -0.9826  -0.9323  -0.9054  -0.8279
    -0.8171  -0.7456  -0.6105  -0.5970  -0.5677  -0.4890  -0.4614  -0.4280
    -0.3911  -0.3236  -0.2702  -0.2195  -0.1978  -0.1256  -0.0567  -0.0181
     0.0109   0.0189   0.2831   0.2945   0.4723   0.5295   0.5969   0.6492
     0.7355   0.7460   0.7643   0.8280   0.8556   0.8883   0.9458   1.0749
     1.1379   1.1587   1.1851   1.1982   1.2588   1.3204   1.4403   1.4576
     1.5171   1.5203   1.5682   1.5858   1.5971   1.6526   1.7167   1.7277
     1.7652   1.7938   1.8318   1.9654   2.0538   2.0908   2.1171   2.2591
     2.2755   2.3114   2.3188   2.4292   2.4608   2.4835   2.4923   2.5100
     2.5349   2.6024   2.6274   2.6339   2.7102   2.7438   2.7517   2.7579
     2.8257   2.8338   2.8540   2.8604   2.8715   2.8869   2.8909   2.9060
     2.9115   2.9219   2.9295   2.9376   2.9568   2.9785   2.9827   2.9952
     3.0211   3.1355   3.2344   3.9188   4.2347   4.5906   4.8172   4.8507
     5.7519   5.7968   5.8127   5.9055   6.1164   6.1608   6.4205   6.4315
     6.9295   6.9840   7.0834   7.1445   7.4204   7.5205   7.5382   7.5635
     7.8142   7.8738   7.9017   7.9895   8.0172   8.1673   8.3516   8.5065
     8.7536   8.9154

     occupation numbers 
     1.0000   1.0000   1.0000   1.0000   1.0000   1.0000   1.0000   1.0000
     1.0000   1.0000   1.0000   1.0000   1.0000   1.0000   1.0000   1.0000
     1.0000   1.0000   1.0000   1.0000   1.0000   1.0000   1.0000   1.0000
     1.0000   1.0000   1.0000   1.0000   1.0000   1.0000   1.0000   1.0000
     1.0000   1.0000   1.0000   1.0000   1.0000   1.0000   1.0000   1.0000
     1.0000   1.0000   1.0000   1.0000   1.0000   1.0000   1.0000   1.0000
     1.0000   1.0000   1.0000   1.0000   1.0000   1.0000   1.0000   1.0000
     1.0000   1.0000   1.0000   1.0000   1.0000   1.0000   1.0000   1.0000
     1.0000   1.0000   1.0000   1.0000   1.0000   1.0000   1.0000   1.0000
     1.0000   1.0000   1.0000   1.0000   1.0000   1.0000   1.0000   1.0000
     1.0000   1.0000   1.0000   1.0000   1.0000   1.0000   1.0000   1.0000
     1.0000   1.0000   1.0000   1.0000   1.0000   1.0000   1.0000   1.0000
     1.0000   1.0000   1.0000   1.0000   1.0000   1.0000   1.0000   1.0000
     1.0000   1.0000   1.0000   1.0000   1.0000   1.0000   1.0000   1.0000
     1.0000   1.0000   1.0000   1.0000   1.0000   1.0000   1.0000   1.0000
     1.0000   1.0000   1.0000   1.0000   1.0000   1.0000   1.0000   1.0000
     1.0000   1.0000   1.0000   1.0000   1.0000   1.0000   1.0000   1.0000
     1.0000   1.0000   1.0000   1.0000   1.0000   1.0000   1.0000   1.0000
     1.0000   1.0000   1.0000   1.0000   1.0000   1.0000   1.0000   1.0000
     1.0000   1.0000   1.0000   1.0000   1.0000   0.9999   0.9999   0.9999
     0.9998   0.9998   0.9998   0.9997   0.9996   0.9996   0.9994   0.9988
     0.9984   0.9983   0.9980   0.9979   0.9972   0.9963   0.9938   0.9934
     0.9915   0.9914   0.9896   0.9889   0.9884   0.9856   0.9818   0.9810
     0.9783   0.9760   0.9726   0.9575   0.9442   0.9378   0.9328   0.9009
     0.8965   0.8866   0.8845   0.8494   0.8382   0.8298   0.8264   0.8196
     0.8098   0.7813   0.7702   0.7673   0.7313   0.7146   0.7106   0.7074
     0.6719   0.6675   0.6566   0.6531   0.6470   0.6385   0.6362   0.6278
     0.6246   0.6188   0.6145   0.6099   0.5989   0.5864   0.5840   0.5767
     0.5616   0.4941   0.4358   0.1194   0.0498   0.0148   0.0060   0.0052
     0.0000   0.0000   0.0000   0.0000   0.0000   0.0000   0.0000   0.0000
     0.0000   0.0000   0.0000   0.0000   0.0000   0.0000   0.0000   0.0000
     0.0000   0.0000   0.0000   0.0000   0.0000   0.0000   0.0000   0.0000
     0.0000   0.0000

          k = 0.0000 0.2500 0.0000 ( 65257 PWs)   bands (ev):

   -92.9033 -92.8558 -92.7577 -92.7112 -92.6545 -92.6100 -92.5925 -92.4721
   -56.2569 -56.2426 -56.1144 -56.1037 -56.0980 -56.0906 -56.0590 -56.0264
   -56.0115 -56.0099 -56.0052 -55.9615 -55.9415 -55.9048 -55.8845 -55.8544
   -55.8468 -55.7977 -55.7970 -55.7948 -55.7864 -55.7474 -55.7225 -55.6379
   -31.4647 -31.4455 -31.3049 -31.2186 -31.1669 -31.0336 -30.9963 -30.8213
   -30.0453 -30.0023 -29.9781 -29.8716 -15.2429 -15.2055 -15.1273 -14.9934
   -14.8649 -14.6897 -14.5601 -14.3804 -14.3368 -14.3175 -14.2916 -14.2321
   -14.2284 -14.2129 -14.1816 -14.1221 -14.0446 -14.0013 -13.8411 -13.8108
   -13.7716 -13.7361 -13.6781 -13.6449 -13.5883 -13.5335 -13.4936 -13.3936
   -13.3366 -13.3239 -13.2960 -13.2758 -13.1769 -13.1619 -13.1356 -13.1217
   -13.0898 -13.0561 -13.0210 -12.9881 -12.9563 -12.9484 -12.9181 -12.8153
   -12.7979 -12.7171 -12.7074 -12.6321 -12.5937 -12.4374 -12.2355 -12.1731
   -12.0249 -11.9886 -11.9820 -11.9538 -11.9260 -11.9096 -11.8619 -11.8506
   -11.8278 -11.7923 -11.6935 -11.6407 -11.6301  -3.0042  -2.7843  -2.6461
    -2.4638  -2.4205  -2.2579  -2.0356  -1.9546  -1.9415  -1.8798  -1.7795
    -1.7622  -1.7299  -1.7015  -1.6574  -1.4604  -1.3302  -1.3194  -1.2418
    -1.2323  -1.1285  -1.1002  -1.0397  -1.0126  -0.9765  -0.9099  -0.8811
    -0.8509  -0.8168  -0.8019  -0.7687  -0.6954  -0.6455  -0.5682  -0.4604
    -0.4336  -0.3937  -0.2844  -0.2421  -0.1784  -0.1350  -0.0688  -0.0592
    -0.0347   0.0250   0.3287   0.4163   0.4507   0.5380   0.5839   0.6068
     0.7152   0.7327   0.8333   0.8582   0.8802   0.9941   1.0938   1.1133
     1.1385   1.1598   1.1790   1.2376   1.2683   1.2956   1.3414   1.3809
     1.4151   1.5059   1.5378   1.5703   1.6215   1.6773   1.7271   1.7490
     1.7694   1.7807   1.8863   2.0020   2.0761   2.0996   2.1630   2.2107
     2.2538   2.2621   2.3219   2.3557   2.4438   2.4722   2.4978   2.5236
     2.6209   2.6248   2.6692   2.6892   2.7224   2.7462   2.7603   2.7687
     2.7747   2.7836   2.8132   2.8166   2.8341   2.8441   2.8480   2.8709
     2.8809   2.8886   2.9078   2.9191   2.9248   2.9594   2.9760   3.0354
     3.4096   3.4527   3.6843   4.1104   4.2329   4.5295   4.8679   4.9796
     5.4962   5.6272   5.7919   5.8935   5.9397   6.0404   6.0724   6.5358
     7.0178   7.1191   7.2199   7.2425   7.3303   7.3912   7.5303   7.6923
     7.7296   7.9105   8.0526   8.2653   8.2859   8.3279   8.3834   8.4205
     8.5284   8.7993

     occupation numbers 
     1.0000   1.0000   1.0000   1.0000   1.0000   1.0000   1.0000   1.0000
     1.0000   1.0000   1.0000   1.0000   1.0000   1.0000   1.0000   1.0000
     1.0000   1.0000   1.0000   1.0000   1.0000   1.0000   1.0000   1.0000
     1.0000   1.0000   1.0000   1.0000   1.0000   1.0000   1.0000   1.0000
     1.0000   1.0000   1.0000   1.0000   1.0000   1.0000   1.0000   1.0000
     1.0000   1.0000   1.0000   1.0000   1.0000   1.0000   1.0000   1.0000
     1.0000   1.0000   1.0000   1.0000   1.0000   1.0000   1.0000   1.0000
     1.0000   1.0000   1.0000   1.0000   1.0000   1.0000   1.0000   1.0000
     1.0000   1.0000   1.0000   1.0000   1.0000   1.0000   1.0000   1.0000
     1.0000   1.0000   1.0000   1.0000   1.0000   1.0000   1.0000   1.0000
     1.0000   1.0000   1.0000   1.0000   1.0000   1.0000   1.0000   1.0000
     1.0000   1.0000   1.0000   1.0000   1.0000   1.0000   1.0000   1.0000
     1.0000   1.0000   1.0000   1.0000   1.0000   1.0000   1.0000   1.0000
     1.0000   1.0000   1.0000   1.0000   1.0000   1.0000   1.0000   1.0000
     1.0000   1.0000   1.0000   1.0000   1.0000   1.0000   1.0000   1.0000
     1.0000   1.0000   1.0000   1.0000   1.0000   1.0000   1.0000   1.0000
     1.0000   1.0000   1.0000   1.0000   1.0000   1.0000   1.0000   1.0000
     1.0000   1.0000   1.0000   1.0000   1.0000   1.0000   1.0000   1.0000
     1.0000   1.0000   1.0000   1.0000   1.0000   1.0000   1.0000   1.0000
     1.0000   1.0000   1.0000   1.0000   1.0000   0.9999   0.9999   0.9999
     0.9998   0.9998   0.9997   0.9996   0.9996   0.9992   0.9987   0.9986
     0.9984   0.9982   0.9981   0.9975   0.9971   0.9967   0.9960   0.9952
     0.9945   0.9919   0.9908   0.9895   0.9872   0.9842   0.9811   0.9795
     0.9780   0.9771   0.9671   0.9524   0.9404   0.9362   0.9235   0.9128
     0.9022   0.9001   0.8836   0.8735   0.8443   0.8340   0.8244   0.8143
     0.7732   0.7714   0.7510   0.7415   0.7253   0.7134   0.7062   0.7019
     0.6988   0.6942   0.6786   0.6768   0.6674   0.6620   0.6598   0.6473
     0.6418   0.6375   0.6267   0.6204   0.6171   0.5974   0.5878   0.5532
     0.3366   0.3135   0.2033   0.0718   0.0500   0.0185   0.0048   0.0030
     0.0002   0.0001   0.0000   0.0000   0.0000   0.0000   0.0000   0.0000
     0.0000   0.0000   0.0000   0.0000   0.0000   0.0000   0.0000   0.0000
     0.0000   0.0000   0.0000   0.0000   0.0000   0.0000   0.0000   0.0000
     0.0000   0.0000

          k = 0.0000-0.5000 0.0000 ( 65180 PWs)   bands (ev):

   -92.9033 -92.8558 -92.7577 -92.7112 -92.6545 -92.6100 -92.5925 -92.4721
   -56.2569 -56.2426 -56.1144 -56.1037 -56.0980 -56.0906 -56.0590 -56.0264
   -56.0115 -56.0099 -56.0052 -55.9615 -55.9415 -55.9048 -55.8845 -55.8544
   -55.8468 -55.7977 -55.7970 -55.7948 -55.7864 -55.7474 -55.7225 -55.6379
   -31.4645 -31.4454 -31.3051 -31.2187 -31.1669 -31.0327 -30.9972 -30.8214
   -30.0447 -30.0019 -29.9788 -29.8719 -15.2066 -15.1573 -15.1052 -14.9672
   -14.8933 -14.7506 -14.6002 -14.4613 -14.3541 -14.2694 -14.2371 -14.2228
   -14.1765 -14.1640 -14.1188 -14.0891 -14.0669 -14.0269 -13.9638 -13.9515
   -13.7801 -13.7205 -13.6800 -13.6523 -13.5734 -13.5526 -13.4733 -13.4694
   -13.4137 -13.4046 -13.2968 -13.2755 -13.1640 -13.1554 -13.1287 -13.1174
   -13.0741 -13.0482 -12.9625 -12.9408 -12.9057 -12.8954 -12.8417 -12.8086
   -12.7893 -12.7122 -12.7029 -12.5666 -12.5124 -12.4122 -12.3382 -12.3181
   -11.9890 -11.9789 -11.9762 -11.9486 -11.9130 -11.8775 -11.8655 -11.8228
   -11.8180 -11.7740 -11.7160 -11.7021 -11.6879  -2.7896  -2.7304  -2.5815
    -2.5094  -2.2249  -2.1427  -2.0169  -1.8799  -1.8387  -1.8225  -1.7446
    -1.7090  -1.6316  -1.5941  -1.5151  -1.4772  -1.4395  -1.4115  -1.3514
    -1.3157  -1.2659  -1.2283  -1.2009  -1.1635  -1.0566  -1.0124  -0.9743
    -0.9709  -0.8847  -0.8543  -0.8309  -0.7827  -0.6948  -0.6227  -0.5304
    -0.4949  -0.3971  -0.3624  -0.2278  -0.1669  -0.1551  -0.0981   0.0270
     0.0800   0.1931   0.2673   0.2752   0.3996   0.4679   0.5663   0.6793
     0.7863   0.8197   0.8588   0.8734   0.9076   0.9188   0.9549   0.9739
     0.9870   1.0936   1.1544   1.1883   1.2182   1.4877   1.5063   1.5368
     1.6282   1.6495   1.6810   1.6960   1.7159   1.7455   1.7565   1.7709
     1.8120   1.8389   1.8705   1.8796   1.9059   1.9569   2.0489   2.0842
     2.2535   2.4037   2.4106   2.4363   2.4664   2.4787   2.4834   2.5134
     2.5391   2.5438   2.5979   2.6122   2.6218   2.6293   2.7056   2.7195
     2.7861   2.7870   2.8130   2.8185   2.8306   2.8356   2.8393   2.8474
     2.8490   2.8649   2.8790   2.8803   2.9442   2.9492   2.9657   3.0196
     3.9371   3.9546   3.9957   4.0788   4.5473   4.7146   4.8891   4.9918
     5.2677   5.3494   5.4766   5.5732   5.8421   5.8559   6.3221   6.7452
     6.7806   6.8782   7.1316   7.2915   7.5683   7.6635   7.7271   7.7490
     7.7608   7.9127   8.1326   8.2342   8.3130   8.3583   8.4966   8.5025
     8.6710   8.7210

     occupation numbers 
     1.0000   1.0000   1.0000   1.0000   1.0000   1.0000   1.0000   1.0000
     1.0000   1.0000   1.0000   1.0000   1.0000   1.0000   1.0000   1.0000
     1.0000   1.0000   1.0000   1.0000   1.0000   1.0000   1.0000   1.0000
     1.0000   1.0000   1.0000   1.0000   1.0000   1.0000   1.0000   1.0000
     1.0000   1.0000   1.0000   1.0000   1.0000   1.0000   1.0000   1.0000
     1.0000   1.0000   1.0000   1.0000   1.0000   1.0000   1.0000   1.0000
     1.0000   1.0000   1.0000   1.0000   1.0000   1.0000   1.0000   1.0000
     1.0000   1.0000   1.0000   1.0000   1.0000   1.0000   1.0000   1.0000
     1.0000   1.0000   1.0000   1.0000   1.0000   1.0000   1.0000   1.0000
     1.0000   1.0000   1.0000   1.0000   1.0000   1.0000   1.0000   1.0000
     1.0000   1.0000   1.0000   1.0000   1.0000   1.0000   1.0000   1.0000
     1.0000   1.0000   1.0000   1.0000   1.0000   1.0000   1.0000   1.0000
     1.0000   1.0000   1.0000   1.0000   1.0000   1.0000   1.0000   1.0000
     1.0000   1.0000   1.0000   1.0000   1.0000   1.0000   1.0000   1.0000
     1.0000   1.0000   1.0000   1.0000   1.0000   1.0000   1.0000   1.0000
     1.0000   1.0000   1.0000   1.0000   1.0000   1.0000   1.0000   1.0000
     1.0000   1.0000   1.0000   1.0000   1.0000   1.0000   1.0000   1.0000
     1.0000   1.0000   1.0000   1.0000   1.0000   1.0000   1.0000   1.0000
     1.0000   1.0000   1.0000   1.0000   1.0000   1.0000   1.0000   1.0000
     1.0000   1.0000   1.0000   1.0000   1.0000   1.0000   0.9999   0.9999
     0.9997   0.9997   0.9996   0.9996   0.9995   0.9995   0.9994   0.9993
     0.9993   0.9987   0.9983   0.9980   0.9977   0.9925   0.9919   0.9908
     0.9869   0.9858   0.9840   0.9831   0.9818   0.9798   0.9790   0.9779
     0.9744   0.9720   0.9688   0.9678   0.9649   0.9586   0.9451   0.9390
     0.9023   0.8581   0.8558   0.8469   0.8361   0.8316   0.8298   0.8183
     0.8080   0.8062   0.7833   0.7770   0.7728   0.7694   0.7335   0.7267
     0.6929   0.6924   0.6787   0.6758   0.6693   0.6666   0.6646   0.6602
     0.6593   0.6506   0.6428   0.6421   0.6061   0.6033   0.5938   0.5625
     0.1141   0.1091   0.0981   0.0785   0.0174   0.0091   0.0044   0.0028
     0.0007   0.0005   0.0002   0.0001   0.0000   0.0000   0.0000   0.0000
     0.0000   0.0000   0.0000   0.0000   0.0000   0.0000   0.0000   0.0000
     0.0000   0.0000   0.0000   0.0000   0.0000   0.0000   0.0000   0.0000
     0.0000   0.0000

          k = 0.2500 0.2500 0.0000 ( 65198 PWs)   bands (ev):

   -92.9033 -92.8558 -92.7577 -92.7112 -92.6545 -92.6100 -92.5925 -92.4721
   -56.2569 -56.2426 -56.1144 -56.1037 -56.0980 -56.0906 -56.0590 -56.0264
   -56.0115 -56.0099 -56.0052 -55.9615 -55.9415 -55.9048 -55.8845 -55.8544
   -55.8468 -55.7977 -55.7970 -55.7948 -55.7864 -55.7474 -55.7225 -55.6379
   -31.4630 -31.4472 -31.3045 -31.2189 -31.1668 -31.0335 -30.9965 -30.8215
   -30.0443 -30.0032 -29.9777 -29.8720 -15.2139 -15.1715 -15.0993 -14.9825
   -14.8573 -14.7325 -14.6653 -14.4492 -14.3030 -14.2858 -14.2508 -14.2187
   -14.2018 -14.1744 -14.1278 -14.0832 -14.0335 -14.0140 -13.8563 -13.8415
   -13.8129 -13.7927 -13.7168 -13.7036 -13.6188 -13.6118 -13.4548 -13.4203
   -13.3959 -13.3292 -13.2891 -13.2371 -13.2067 -13.1667 -13.1375 -13.1203
   -13.0996 -13.0174 -12.9718 -12.9475 -12.9324 -12.9038 -12.8977 -12.8299
   -12.7900 -12.7190 -12.6804 -12.6418 -12.4959 -12.4664 -12.2566 -12.2375
   -11.9973 -11.9886 -11.9656 -11.9544 -11.9469 -11.8845 -11.8497 -11.8438
   -11.8086 -11.7987 -11.7103 -11.6688 -11.6518  -2.8657  -2.6584  -2.5398
    -2.4445  -2.3256  -2.2612  -2.0601  -1.9188  -1.9003  -1.8673  -1.7741
    -1.7405  -1.6446  -1.6175  -1.5673  -1.4360  -1.3880  -1.3140  -1.2696
    -1.2242  -1.2012  -1.1785  -1.1348  -1.1205  -1.0291  -0.9782  -0.9096
    -0.8603  -0.8308  -0.7863  -0.7695  -0.7046  -0.6562  -0.5911  -0.5640
    -0.4705  -0.4236  -0.3924  -0.3579  -0.3012  -0.2171  -0.1900  -0.1566
    -0.0803  -0.0470   0.2163   0.3674   0.3982   0.4630   0.5034   0.5695
     0.6120   0.6772   0.7162   0.9858   1.0469   1.1190   1.1423   1.1998
     1.2239   1.2611   1.2982   1.3142   1.3409   1.3910   1.3959   1.4137
     1.4617   1.4984   1.5361   1.6053   1.6397   1.6483   1.6854   1.7179
     1.7764   1.7989   1.9234   1.9849   2.0197   2.0361   2.1142   2.1738
     2.2005   2.2342   2.2628   2.2748   2.3871   2.4239   2.4931   2.5262
     2.6185   2.6261   2.6773   2.6972   2.7009   2.7168   2.7337   2.7469
     2.7575   2.7632   2.7757   2.7887   2.8036   2.8190   2.8248   2.8382
     2.8641   2.8712   2.8802   2.9113   3.2106   3.3041   3.3548   3.4269
     3.4450   3.6687   3.7547   4.1146   4.3244   4.5370   4.7898   5.1186
     5.4832   5.5457   5.5925   5.6395   5.7029   6.0782   6.1425   6.1995
     6.8224   7.1146   7.2747   7.3943   7.4386   7.4681   7.5778   7.7431
     7.9085   8.1056   8.1946   8.2410   8.3105   8.4483   8.4679   8.4923
     8.5491   8.6307

     occupation numbers 
     1.0000   1.0000   1.0000   1.0000   1.0000   1.0000   1.0000   1.0000
     1.0000   1.0000   1.0000   1.0000   1.0000   1.0000   1.0000   1.0000
     1.0000   1.0000   1.0000   1.0000   1.0000   1.0000   1.0000   1.0000
     1.0000   1.0000   1.0000   1.0000   1.0000   1.0000   1.0000   1.0000
     1.0000   1.0000   1.0000   1.0000   1.0000   1.0000   1.0000   1.0000
     1.0000   1.0000   1.0000   1.0000   1.0000   1.0000   1.0000   1.0000
     1.0000   1.0000   1.0000   1.0000   1.0000   1.0000   1.0000   1.0000
     1.0000   1.0000   1.0000   1.0000   1.0000   1.0000   1.0000   1.0000
     1.0000   1.0000   1.0000   1.0000   1.0000   1.0000   1.0000   1.0000
     1.0000   1.0000   1.0000   1.0000   1.0000   1.0000   1.0000   1.0000
     1.0000   1.0000   1.0000   1.0000   1.0000   1.0000   1.0000   1.0000
     1.0000   1.0000   1.0000   1.0000   1.0000   1.0000   1.0000   1.0000
     1.0000   1.0000   1.0000   1.0000   1.0000   1.0000   1.0000   1.0000
     1.0000   1.0000   1.0000   1.0000   1.0000   1.0000   1.0000   1.0000
     1.0000   1.0000   1.0000   1.0000   1.0000   1.0000   1.0000   1.0000
     1.0000   1.0000   1.0000   1.0000   1.0000   1.0000   1.0000   1.0000
     1.0000   1.0000   1.0000   1.0000   1.0000   1.0000   1.0000   1.0000
     1.0000   1.0000   1.0000   1.0000   1.0000   1.0000   1.0000   1.0000
     1.0000   1.0000   1.0000   1.0000   1.0000   1.0000   1.0000   1.0000
     1.0000   1.0000   1.0000   1.0000   1.0000   1.0000   1.0000   0.9999
     0.9999   0.9999   0.9998   0.9993   0.9990   0.9986   0.9984   0.9979
     0.9976   0.9972   0.9967   0.9964   0.9960   0.9950   0.9949   0.9945
     0.9933   0.9922   0.9909   0.9880   0.9863   0.9859   0.9838   0.9817
     0.9774   0.9756   0.9629   0.9548   0.9497   0.9471   0.9334   0.9212
     0.9152   0.9072   0.8999   0.8968   0.8636   0.8512   0.8261   0.8132
     0.7742   0.7708   0.7471   0.7376   0.7358   0.7280   0.7196   0.7130
     0.7076   0.7047   0.6982   0.6915   0.6837   0.6755   0.6724   0.6652
     0.6510   0.6472   0.6422   0.6248   0.4497   0.3954   0.3667   0.3273
     0.3176   0.2100   0.1751   0.0710   0.0375   0.0180   0.0067   0.0015
     0.0002   0.0002   0.0001   0.0001   0.0001   0.0000   0.0000   0.0000
     0.0000   0.0000   0.0000   0.0000   0.0000   0.0000   0.0000   0.0000
     0.0000   0.0000   0.0000   0.0000   0.0000   0.0000   0.0000   0.0000
     0.0000   0.0000

          k = 0.2500-0.5000 0.0000 ( 65138 PWs)   bands (ev):

   -92.9033 -92.8558 -92.7577 -92.7112 -92.6545 -92.6100 -92.5925 -92.4721
   -56.2569 -56.2426 -56.1144 -56.1037 -56.0980 -56.0906 -56.0590 -56.0264
   -56.0115 -56.0099 -56.0052 -55.9615 -55.9415 -55.9048 -55.8845 -55.8544
   -55.8468 -55.7977 -55.7970 -55.7948 -55.7864 -55.7474 -55.7225 -55.6379
   -31.4628 -31.4471 -31.3047 -31.2191 -31.1667 -31.0326 -30.9974 -30.8216
   -30.0437 -30.0029 -29.9784 -29.8723 -15.1763 -15.1306 -15.0625 -14.9389
   -14.9134 -14.7930 -14.7003 -14.5622 -14.2681 -14.2090 -14.1862 -14.1634
   -14.1417 -14.1387 -14.1027 -14.0787 -14.0380 -14.0111 -13.9710 -13.9298
   -13.8610 -13.8111 -13.7353 -13.7313 -13.6594 -13.6125 -13.5022 -13.4689
   -13.3953 -13.3303 -13.3053 -13.2216 -13.1804 -13.1654 -13.1353 -13.1191
   -13.1005 -13.0086 -12.9666 -12.9567 -12.9138 -12.8458 -12.8156 -12.8125
   -12.7951 -12.7163 -12.7042 -12.5575 -12.5097 -12.4118 -12.3178 -12.3058
   -11.9892 -11.9725 -11.9603 -11.9500 -11.9226 -11.8900 -11.8627 -11.8188
   -11.7945 -11.7709 -11.7291 -11.7032 -11.6919  -2.6470  -2.5820  -2.4552
    -2.3780  -2.2452  -2.1624  -2.0412  -1.8906  -1.8352  -1.8136  -1.7509
    -1.7382  -1.6423  -1.5723  -1.4898  -1.4375  -1.4273  -1.3670  -1.3224
    -1.2894  -1.2403  -1.2024  -1.1682  -1.1299  -1.1177  -1.0718  -1.0418
    -0.9968  -0.9681  -0.9010  -0.7966  -0.7591  -0.6793  -0.6121  -0.5592
    -0.5224  -0.5031  -0.4396  -0.2854  -0.2757  -0.1572  -0.1381  -0.1276
    -0.0851  -0.0483  -0.0110   0.0150   0.0785   0.3719   0.4650   0.5333
     0.5830   0.8518   0.8696   0.9596   0.9811   1.1433   1.1835   1.2188
     1.2427   1.2536   1.2764   1.3418   1.3938   1.4272   1.5040   1.6069
     1.6386   1.6583   1.6660   1.7051   1.7153   1.7275   1.7688   1.7805
     1.8005   1.8384   1.8493   1.8644   1.9023   1.9575   2.0028   2.0842
     2.2154   2.3551   2.3747   2.3941   2.4236   2.4445   2.4688   2.4893
     2.4989   2.5152   2.5333   2.6106   2.6215   2.6334   2.6823   2.6967
     2.7091   2.7148   2.7336   2.7475   2.7668   2.7773   2.8157   2.8240
     2.8341   2.8422   2.8526   2.8621   3.3864   3.4053   3.5425   3.5968
     3.9409   3.9973   4.0006   4.1296   4.5658   4.7351   4.9076   4.9512
     5.1156   5.2897   5.4965   5.5162   5.6168   5.6520   6.3343   6.4212
     6.4364   6.8479   7.2690   7.5725   7.6500   7.7055   7.7762   7.8264
     7.9070   8.0343   8.2298   8.3541   8.3865   8.4198   8.5330   8.5735
     8.6200   8.6832

     occupation numbers 
     1.0000   1.0000   1.0000   1.0000   1.0000   1.0000   1.0000   1.0000
     1.0000   1.0000   1.0000   1.0000   1.0000   1.0000   1.0000   1.0000
     1.0000   1.0000   1.0000   1.0000   1.0000   1.0000   1.0000   1.0000
     1.0000   1.0000   1.0000   1.0000   1.0000   1.0000   1.0000   1.0000
     1.0000   1.0000   1.0000   1.0000   1.0000   1.0000   1.0000   1.0000
     1.0000   1.0000   1.0000   1.0000   1.0000   1.0000   1.0000   1.0000
     1.0000   1.0000   1.0000   1.0000   1.0000   1.0000   1.0000   1.0000
     1.0000   1.0000   1.0000   1.0000   1.0000   1.0000   1.0000   1.0000
     1.0000   1.0000   1.0000   1.0000   1.0000   1.0000   1.0000   1.0000
     1.0000   1.0000   1.0000   1.0000   1.0000   1.0000   1.0000   1.0000
     1.0000   1.0000   1.0000   1.0000   1.0000   1.0000   1.0000   1.0000
     1.0000   1.0000   1.0000   1.0000   1.0000   1.0000   1.0000   1.0000
     1.0000   1.0000   1.0000   1.0000   1.0000   1.0000   1.0000   1.0000
     1.0000   1.0000   1.0000   1.0000   1.0000   1.0000   1.0000   1.0000
     1.0000   1.0000   1.0000   1.0000   1.0000   1.0000   1.0000   1.0000
     1.0000   1.0000   1.0000   1.0000   1.0000   1.0000   1.0000   1.0000
     1.0000   1.0000   1.0000   1.0000   1.0000   1.0000   1.0000   1.0000
     1.0000   1.0000   1.0000   1.0000   1.0000   1.0000   1.0000   1.0000
     1.0000   1.0000   1.0000   1.0000   1.0000   1.0000   1.0000   1.0000
     1.0000   1.0000   1.0000   1.0000   1.0000   1.0000   1.0000   0.9999
     0.9999   0.9996   0.9996   0.9994   0.9993   0.9984   0.9980   0.9977
     0.9974   0.9973   0.9970   0.9960   0.9949   0.9942   0.9920   0.9879
     0.9864   0.9853   0.9849   0.9825   0.9819   0.9810   0.9780   0.9771
     0.9754   0.9720   0.9710   0.9694   0.9653   0.9586   0.9523   0.9390
     0.9117   0.8737   0.8676   0.8613   0.8514   0.8441   0.8352   0.8276
     0.8239   0.8176   0.8104   0.7777   0.7729   0.7675   0.7448   0.7378
     0.7318   0.7290   0.7197   0.7127   0.7029   0.6974   0.6772   0.6728
     0.6674   0.6630   0.6574   0.6522   0.3492   0.3389   0.2679   0.2420
     0.1130   0.0977   0.0969   0.0680   0.0162   0.0084   0.0041   0.0034
     0.0016   0.0007   0.0002   0.0002   0.0001   0.0001   0.0000   0.0000
     0.0000   0.0000   0.0000   0.0000   0.0000   0.0000   0.0000   0.0000
     0.0000   0.0000   0.0000   0.0000   0.0000   0.0000   0.0000   0.0000
     0.0000   0.0000

          k =-0.5000-0.5000 0.0000 ( 65132 PWs)   bands (ev):

   -92.9033 -92.8558 -92.7577 -92.7112 -92.6545 -92.6100 -92.5925 -92.4721
   -56.2569 -56.2426 -56.1144 -56.1037 -56.0980 -56.0906 -56.0590 -56.0264
   -56.0115 -56.0099 -56.0052 -55.9615 -55.9415 -55.9048 -55.8845 -55.8544
   -55.8468 -55.7977 -55.7970 -55.7948 -55.7864 -55.7474 -55.7225 -55.6379
   -31.4606 -31.4493 -31.3043 -31.2195 -31.1665 -31.0324 -30.9976 -30.8217
   -30.0427 -30.0040 -29.9780 -29.8727 -15.1304 -15.1040 -14.9857 -14.9734
   -14.8735 -14.8434 -14.7960 -14.6639 -14.1802 -14.1632 -14.1300 -14.1116
   -14.0988 -14.0769 -14.0557 -14.0448 -14.0291 -14.0115 -13.9872 -13.9263
   -13.9189 -13.8741 -13.8507 -13.8209 -13.7461 -13.6566 -13.5376 -13.5127
   -13.3459 -13.3021 -13.2390 -13.2147 -13.1805 -13.1734 -13.1642 -13.1458
   -13.0978 -12.9832 -12.9753 -12.9599 -12.9272 -12.8070 -12.8013 -12.7934
   -12.7872 -12.7317 -12.7196 -12.5468 -12.5058 -12.4070 -12.2997 -12.2942
   -11.9890 -11.9699 -11.9568 -11.9382 -11.9223 -11.8857 -11.8684 -11.8340
   -11.7755 -11.7536 -11.7507 -11.7009 -11.6979  -2.4206  -2.3477  -2.3380
    -2.2663  -2.2282  -2.1500  -2.0821  -1.9548  -1.8414  -1.8112  -1.7693
    -1.7152  -1.6415  -1.6276  -1.5571  -1.5140  -1.3943  -1.3637  -1.3160
    -1.2922  -1.2275  -1.1793  -1.1604  -1.1472  -1.0926  -1.0522  -1.0293
    -0.9203  -0.8641  -0.8194  -0.7671  -0.7362  -0.7217  -0.6909  -0.6477
    -0.6083  -0.6001  -0.5182  -0.4479  -0.4091  -0.3769  -0.3067  -0.2403
    -0.2321  -0.1724  -0.1411  -0.1283  -0.1191   0.3491   0.3873   0.4855
     0.4989   0.8829   0.8903   0.9252   0.9654   1.2306   1.2505   1.2571
     1.3015   1.4207   1.5158   1.5438   1.5804   1.6126   1.6282   1.6379
     1.6672   1.6842   1.7049   1.7116   1.7543   1.7562   1.7861   1.8141
     1.8247   1.8386   1.8775   1.9003   1.9185   1.9452   1.9833   2.0374
     2.1065   2.3655   2.3991   2.4195   2.4372   2.4518   2.4745   2.4821
     2.4931   2.5068   2.5200   2.5295   2.5571   2.5626   2.6060   2.6210
     2.6316   2.6363   2.6536   2.6673   2.6880   2.7035   2.7098   2.7170
     2.8204   2.8309   2.8475   2.8617   3.8207   3.8532   3.8703   3.8990
     4.1189   4.1968   4.2175   4.4586   4.5813   4.6630   4.7968   4.9047
     4.9131   5.0090   5.1479   5.2576   5.8014   5.8367   5.8786   5.9962
     6.6625   6.8655   6.9974   7.6733   7.8212   7.8353   7.9136   8.0601
     8.1486   8.2064   8.2526   8.2905   8.3995   8.4594   8.4808   8.5112
     8.5796   8.6560

     occupation numbers 
     1.0000   1.0000   1.0000   1.0000   1.0000   1.0000   1.0000   1.0000
     1.0000   1.0000   1.0000   1.0000   1.0000   1.0000   1.0000   1.0000
     1.0000   1.0000   1.0000   1.0000   1.0000   1.0000   1.0000   1.0000
     1.0000   1.0000   1.0000   1.0000   1.0000   1.0000   1.0000   1.0000
     1.0000   1.0000   1.0000   1.0000   1.0000   1.0000   1.0000   1.0000
     1.0000   1.0000   1.0000   1.0000   1.0000   1.0000   1.0000   1.0000
     1.0000   1.0000   1.0000   1.0000   1.0000   1.0000   1.0000   1.0000
     1.0000   1.0000   1.0000   1.0000   1.0000   1.0000   1.0000   1.0000
     1.0000   1.0000   1.0000   1.0000   1.0000   1.0000   1.0000   1.0000
     1.0000   1.0000   1.0000   1.0000   1.0000   1.0000   1.0000   1.0000
     1.0000   1.0000   1.0000   1.0000   1.0000   1.0000   1.0000   1.0000
     1.0000   1.0000   1.0000   1.0000   1.0000   1.0000   1.0000   1.0000
     1.0000   1.0000   1.0000   1.0000   1.0000   1.0000   1.0000   1.0000
     1.0000   1.0000   1.0000   1.0000   1.0000   1.0000   1.0000   1.0000
     1.0000   1.0000   1.0000   1.0000   1.0000   1.0000   1.0000   1.0000
     1.0000   1.0000   1.0000   1.0000   1.0000   1.0000   1.0000   1.0000
     1.0000   1.0000   1.0000   1.0000   1.0000   1.0000   1.0000   1.0000
     1.0000   1.0000   1.0000   1.0000   1.0000   1.0000   1.0000   1.0000
     1.0000   1.0000   1.0000   1.0000   1.0000   1.0000   1.0000   1.0000
     1.0000   1.0000   1.0000   1.0000   1.0000   1.0000   1.0000   1.0000
     1.0000   0.9996   0.9995   0.9995   0.9993   0.9976   0.9973   0.9972
     0.9966   0.9943   0.9916   0.9906   0.9891   0.9877   0.9869   0.9864
     0.9848   0.9838   0.9825   0.9821   0.9791   0.9790   0.9766   0.9742
     0.9733   0.9720   0.9681   0.9656   0.9635   0.9602   0.9551   0.9469
     0.9349   0.8705   0.8596   0.8527   0.8466   0.8415   0.8331   0.8303
     0.8261   0.8209   0.8157   0.8119   0.8007   0.7984   0.7798   0.7731
     0.7683   0.7662   0.7583   0.7519   0.7420   0.7346   0.7314   0.7279
     0.6747   0.6691   0.6601   0.6524   0.1510   0.1399   0.1344   0.1254
     0.0701   0.0558   0.0524   0.0239   0.0153   0.0112   0.0065   0.0041
     0.0040   0.0026   0.0013   0.0008   0.0000   0.0000   0.0000   0.0000
     0.0000   0.0000   0.0000   0.0000   0.0000   0.0000   0.0000   0.0000
     0.0000   0.0000   0.0000   0.0000   0.0000   0.0000   0.0000   0.0000
     0.0000   0.0000

          k = 0.2500 0.0000 0.0000 ( 65257 PWs)   bands (ev):

   -92.9033 -92.8558 -92.7577 -92.7112 -92.6545 -92.6100 -92.5925 -92.4721
   -56.2569 -56.2426 -56.1144 -56.1037 -56.0980 -56.0906 -56.0590 -56.0264
   -56.0115 -56.0099 -56.0052 -55.9615 -55.9415 -55.9048 -55.8845 -55.8544
   -55.8468 -55.7977 -55.7970 -55.7948 -55.7864 -55.7474 -55.7225 -55.6379
   -31.4632 -31.4474 -31.3043 -31.2188 -31.1668 -31.0343 -30.9957 -30.8214
   -30.0449 -30.0036 -29.9771 -29.8716 -15.2465 -15.2012 -15.1323 -14.9871
   -14.8719 -14.6822 -14.5491 -14.3638 -14.3524 -14.3198 -14.2883 -14.2607
   -14.2356 -14.2093 -14.1808 -14.1283 -14.0345 -14.0004 -13.8541 -13.7809
   -13.7691 -13.7011 -13.6868 -13.6711 -13.5953 -13.5362 -13.4985 -13.3881
   -13.3465 -13.3245 -13.2488 -13.2320 -13.2147 -13.1999 -13.1608 -13.1454
   -13.1177 -13.0283 -13.0099 -12.9612 -12.9359 -12.9122 -12.8916 -12.8635
   -12.8433 -12.7213 -12.6896 -12.6234 -12.5958 -12.4384 -12.2357 -12.1735
   -12.0242 -11.9888 -11.9723 -11.9546 -11.9417 -11.9140 -11.8649 -11.8411
   -11.8333 -11.7811 -11.6949 -11.6389 -11.6331  -3.0037  -2.7833  -2.6528
[...]
     0.6332   0.6209   0.6184   0.6142   0.6094   0.6045   0.5989   0.5251
     0.3493   0.3178   0.2029   0.0761   0.0443   0.0205   0.0049   0.0029
     0.0002   0.0001   0.0000   0.0000   0.0000   0.0000   0.0000   0.0000
     0.0000   0.0000   0.0000   0.0000   0.0000   0.0000   0.0000   0.0000
     0.0000   0.0000   0.0000   0.0000   0.0000   0.0000   0.0000   0.0000
     0.0000   0.0000

          k =-0.5000 0.0000 0.0000 ( 65180 PWs)   bands (ev):

   -92.9033 -92.8558 -92.7577 -92.7112 -92.6545 -92.6100 -92.5925 -92.4721
   -56.2569 -56.2426 -56.1144 -56.1037 -56.0980 -56.0906 -56.0590 -56.0264
   -56.0115 -56.0099 -56.0052 -55.9615 -55.9415 -55.9048 -55.8845 -55.8544
   -55.8468 -55.7977 -55.7970 -55.7948 -55.7864 -55.7474 -55.7225 -55.6379
   -31.4610 -31.4496 -31.3039 -31.2192 -31.1667 -31.0342 -30.9958 -30.8216
   -30.0439 -30.0046 -29.9767 -29.8721 -15.2123 -15.1596 -15.0972 -14.9791
   -14.8859 -14.7401 -14.5951 -14.4338 -14.3287 -14.3061 -14.2994 -14.2322
   -14.1844 -14.1553 -14.1024 -14.0834 -14.0754 -14.0286 -13.9868 -13.8936
   -13.7516 -13.7081 -13.6896 -13.6804 -13.5798 -13.5582 -13.4823 -13.4545
   -13.4308 -13.3969 -13.2425 -13.2300 -13.2065 -13.1967 -13.1359 -13.1246
   -13.1137 -13.0691 -12.9333 -12.9021 -12.8724 -12.8616 -12.8347 -12.8304
   -12.8210 -12.7311 -12.7129 -12.5540 -12.5162 -12.4013 -12.3509 -12.3151
   -11.9896 -11.9763 -11.9542 -11.9472 -11.9337 -11.9142 -11.8730 -11.8119
   -11.7931 -11.7583 -11.7183 -11.7090 -11.6932  -2.7796  -2.7413  -2.5791
    -2.5392  -2.2243  -2.1483  -2.0037  -1.8847  -1.8452  -1.7987  -1.7527
    -1.7285  -1.6036  -1.5599  -1.5425  -1.4618  -1.4253  -1.4080  -1.3796
    -1.3173  -1.2518  -1.2246  -1.1899  -1.0925  -1.0517  -1.0016  -0.9697
    -0.9487  -0.9140  -0.8688  -0.8429  -0.8038  -0.7004  -0.6334  -0.5578
    -0.4990  -0.3339  -0.2964  -0.2532  -0.2025  -0.1463  -0.1373   0.0102
     0.0375   0.0814   0.2417   0.3421   0.3928   0.4936   0.5553   0.6672
     0.6791   0.8132   0.8362   0.8900   0.9259   0.9637   0.9681   1.0202
     1.0375   1.1089   1.1575   1.2031   1.2168   1.5156   1.5298   1.5485
     1.5706   1.6662   1.6799   1.6952   1.7078   1.7343   1.7475   1.7831
     1.8027   1.8322   1.8791   1.9027   1.9509   1.9763   2.0273   2.1454
     2.2399   2.3059   2.3203   2.3991   2.4259   2.4547   2.4975   2.5278
     2.5373   2.5447   2.5723   2.6253   2.6285   2.6395   2.6843   2.7403
     2.7573   2.8014   2.8074   2.8099   2.8176   2.8352   2.8474   2.8580
     2.8658   2.8838   2.8866   2.9124   2.9291   2.9343   3.0640   3.0711
     3.8807   3.9398   4.0047   4.1362   4.5981   4.6807   4.8739   4.9086
     5.3568   5.3901   5.4684   5.5087   5.8415   5.8559   6.3732   6.6464
     6.7193   6.9349   7.1868   7.2424   7.6071   7.6474   7.6709   7.7801
     7.7943   8.0026   8.1115   8.2809   8.3415   8.3449   8.4440   8.4685
     8.6192   8.7893

     occupation numbers 
     1.0000   1.0000   1.0000   1.0000   1.0000   1.0000   1.0000   1.0000
     1.0000   1.0000   1.0000   1.0000   1.0000   1.0000   1.0000   1.0000
     1.0000   1.0000   1.0000   1.0000   1.0000   1.0000   1.0000   1.0000
     1.0000   1.0000   1.0000   1.0000   1.0000   1.0000   1.0000   1.0000
     1.0000   1.0000   1.0000   1.0000   1.0000   1.0000   1.0000   1.0000
     1.0000   1.0000   1.0000   1.0000   1.0000   1.0000   1.0000   1.0000
     1.0000   1.0000   1.0000   1.0000   1.0000   1.0000   1.0000   1.0000
     1.0000   1.0000   1.0000   1.0000   1.0000   1.0000   1.0000   1.0000
     1.0000   1.0000   1.0000   1.0000   1.0000   1.0000   1.0000   1.0000
     1.0000   1.0000   1.0000   1.0000   1.0000   1.0000   1.0000   1.0000
     1.0000   1.0000   1.0000   1.0000   1.0000   1.0000   1.0000   1.0000
     1.0000   1.0000   1.0000   1.0000   1.0000   1.0000   1.0000   1.0000
     1.0000   1.0000   1.0000   1.0000   1.0000   1.0000   1.0000   1.0000
     1.0000   1.0000   1.0000   1.0000   1.0000   1.0000   1.0000   1.0000
     1.0000   1.0000   1.0000   1.0000   1.0000   1.0000   1.0000   1.0000
     1.0000   1.0000   1.0000   1.0000   1.0000   1.0000   1.0000   1.0000
     1.0000   1.0000   1.0000   1.0000   1.0000   1.0000   1.0000   1.0000
     1.0000   1.0000   1.0000   1.0000   1.0000   1.0000   1.0000   1.0000
     1.0000   1.0000   1.0000   1.0000   1.0000   1.0000   1.0000   1.0000
     1.0000   1.0000   1.0000   1.0000   1.0000   1.0000   0.9999   0.9999
     0.9999   0.9997   0.9997   0.9995   0.9995   0.9993   0.9993   0.9991
     0.9990   0.9986   0.9983   0.9978   0.9977   0.9916   0.9911   0.9904
     0.9895   0.9849   0.9841   0.9832   0.9824   0.9806   0.9796   0.9769
     0.9752   0.9726   0.9679   0.9653   0.9594   0.9560   0.9485   0.9272
     0.9058   0.8882   0.8841   0.8596   0.8506   0.8404   0.8245   0.8126
     0.8088   0.8058   0.7943   0.7712   0.7697   0.7648   0.7438   0.7163
     0.7077   0.6848   0.6817   0.6804   0.6763   0.6668   0.6602   0.6544
     0.6501   0.6402   0.6386   0.6241   0.6147   0.6117   0.5364   0.5322
     0.1311   0.1133   0.0959   0.0667   0.0144   0.0105   0.0047   0.0041
     0.0005   0.0004   0.0003   0.0002   0.0000   0.0000   0.0000   0.0000
     0.0000   0.0000   0.0000   0.0000   0.0000   0.0000   0.0000   0.0000
     0.0000   0.0000   0.0000   0.0000   0.0000   0.0000   0.0000   0.0000
     0.0000   0.0000

          k =-0.2500 0.2500 0.0000 ( 65198 PWs)   bands (ev):

   -92.9033 -92.8558 -92.7577 -92.7112 -92.6545 -92.6100 -92.5925 -92.4721
   -56.2569 -56.2426 -56.1144 -56.1037 -56.0980 -56.0906 -56.0590 -56.0264
   -56.0115 -56.0099 -56.0052 -55.9615 -55.9415 -55.9048 -55.8845 -55.8544
   -55.8468 -55.7977 -55.7970 -55.7948 -55.7864 -55.7474 -55.7225 -55.6379
   -31.4630 -31.4472 -31.3045 -31.2189 -31.1668 -31.0335 -30.9965 -30.8215
   -30.0443 -30.0032 -29.9777 -29.8720 -15.2152 -15.1706 -15.0974 -14.9820
   -14.8623 -14.7383 -14.6573 -14.4393 -14.3087 -14.2801 -14.2599 -14.2186
   -14.1896 -14.1756 -14.1424 -14.0903 -14.0286 -14.0134 -13.8645 -13.8388
   -13.8071 -13.7892 -13.7248 -13.6918 -13.6258 -13.5947 -13.4532 -13.4266
   -13.4076 -13.3334 -13.2897 -13.2282 -13.1962 -13.1752 -13.1413 -13.1171
   -13.1126 -13.0140 -12.9717 -12.9619 -12.9493 -12.8871 -12.8816 -12.8377
   -12.7851 -12.7096 -12.6319 -12.6186 -12.5701 -12.4721 -12.2817 -12.2041
   -11.9968 -11.9883 -11.9747 -11.9478 -11.9354 -11.8937 -11.8595 -11.8363
   -11.8147 -11.7924 -11.7100 -11.6643 -11.6551  -2.8641  -2.6574  -2.5360
    -2.4457  -2.3298  -2.2640  -2.0577  -1.9159  -1.8979  -1.8652  -1.7748
    -1.7394  -1.6447  -1.6107  -1.5842  -1.4434  -1.3850  -1.3160  -1.2889
    -1.2282  -1.2075  -1.1682  -1.1397  -1.0994  -1.0343  -0.9870  -0.9177
    -0.8540  -0.8270  -0.7793  -0.7484  -0.7036  -0.6455  -0.5935  -0.5596
    -0.4527  -0.4269  -0.4090  -0.3688  -0.3047  -0.2236  -0.1874  -0.1468
    -0.0759  -0.0492   0.1963   0.3727   0.4056   0.4515   0.5097   0.5681
     0.6165   0.6877   0.7108   0.9933   1.0985   1.1369   1.1693   1.1788
     1.2168   1.2322   1.2808   1.3110   1.3220   1.3487   1.3989   1.4163
     1.4554   1.4788   1.5218   1.6137   1.6331   1.6507   1.6895   1.7145
     1.7564   1.8087   1.9123   2.0148   2.0381   2.0880   2.1097   2.1730
     2.2111   2.2376   2.2637   2.2842   2.3877   2.4215   2.4979   2.5218
     2.6182   2.6260   2.6841   2.6935   2.7070   2.7164   2.7271   2.7414
     2.7507   2.7682   2.7782   2.7890   2.8011   2.8102   2.8200   2.8279
     2.8626   2.8725   2.8785   2.9134   3.2040   3.2855   3.3574   3.4338
     3.4504   3.6543   3.7633   4.1139   4.3222   4.5389   4.7985   5.1187
     5.4846   5.5425   5.5956   5.6364   5.7039   6.0940   6.1245   6.2012
     6.8236   7.1238   7.2665   7.3901   7.4490   7.4725   7.5561   7.7536
     7.9013   8.0992   8.1960   8.2884   8.3136   8.3979   8.4602   8.4890
     8.5706   8.6237

     occupation numbers 
     1.0000   1.0000   1.0000   1.0000   1.0000   1.0000   1.0000   1.0000
     1.0000   1.0000   1.0000   1.0000   1.0000   1.0000   1.0000   1.0000
     1.0000   1.0000   1.0000   1.0000   1.0000   1.0000   1.0000   1.0000
     1.0000   1.0000   1.0000   1.0000   1.0000   1.0000   1.0000   1.0000
     1.0000   1.0000   1.0000   1.0000   1.0000   1.0000   1.0000   1.0000
     1.0000   1.0000   1.0000   1.0000   1.0000   1.0000   1.0000   1.0000
     1.0000   1.0000   1.0000   1.0000   1.0000   1.0000   1.0000   1.0000
     1.0000   1.0000   1.0000   1.0000   1.0000   1.0000   1.0000   1.0000
     1.0000   1.0000   1.0000   1.0000   1.0000   1.0000   1.0000   1.0000
     1.0000   1.0000   1.0000   1.0000   1.0000   1.0000   1.0000   1.0000
     1.0000   1.0000   1.0000   1.0000   1.0000   1.0000   1.0000   1.0000
     1.0000   1.0000   1.0000   1.0000   1.0000   1.0000   1.0000   1.0000
     1.0000   1.0000   1.0000   1.0000   1.0000   1.0000   1.0000   1.0000
     1.0000   1.0000   1.0000   1.0000   1.0000   1.0000   1.0000   1.0000
     1.0000   1.0000   1.0000   1.0000   1.0000   1.0000   1.0000   1.0000
     1.0000   1.0000   1.0000   1.0000   1.0000   1.0000   1.0000   1.0000
     1.0000   1.0000   1.0000   1.0000   1.0000   1.0000   1.0000   1.0000
     1.0000   1.0000   1.0000   1.0000   1.0000   1.0000   1.0000   1.0000
     1.0000   1.0000   1.0000   1.0000   1.0000   1.0000   1.0000   1.0000
     1.0000   1.0000   1.0000   1.0000   1.0000   1.0000   0.9999   0.9999
     0.9999   0.9999   0.9998   0.9992   0.9987   0.9984   0.9982   0.9981
     0.9977   0.9975   0.9969   0.9965   0.9963   0.9958   0.9948   0.9944
     0.9934   0.9928   0.9914   0.9876   0.9867   0.9857   0.9835   0.9819
     0.9790   0.9747   0.9642   0.9504   0.9468   0.9383   0.9343   0.9214
     0.9127   0.9063   0.8997   0.8942   0.8634   0.8521   0.8243   0.8150
     0.7744   0.7709   0.7439   0.7394   0.7328   0.7282   0.7229   0.7158
     0.7111   0.7021   0.6970   0.6914   0.6850   0.6802   0.6750   0.6707
     0.6519   0.6464   0.6431   0.6236   0.4536   0.4061   0.3653   0.3236
     0.3147   0.2162   0.1718   0.0711   0.0378   0.0179   0.0065   0.0015
     0.0002   0.0002   0.0001   0.0001   0.0001   0.0000   0.0000   0.0000
     0.0000   0.0000   0.0000   0.0000   0.0000   0.0000   0.0000   0.0000
     0.0000   0.0000   0.0000   0.0000   0.0000   0.0000   0.0000   0.0000
     0.0000   0.0000

          k =-0.5000 0.2500 0.0000 ( 65138 PWs)   bands (ev):

   -92.9033 -92.8558 -92.7577 -92.7112 -92.6545 -92.6100 -92.5925 -92.4721
   -56.2569 -56.2426 -56.1144 -56.1037 -56.0980 -56.0906 -56.0590 -56.0264
   -56.0115 -56.0099 -56.0052 -55.9615 -55.9415 -55.9048 -55.8845 -55.8544
   -55.8468 -55.7977 -55.7970 -55.7948 -55.7864 -55.7474 -55.7225 -55.6379
   -31.4608 -31.4494 -31.3041 -31.2193 -31.1666 -31.0333 -30.9967 -30.8216
   -30.0433 -30.0043 -29.9773 -29.8724 -15.1795 -15.1334 -15.0546 -14.9478
   -14.9115 -14.7875 -14.6960 -14.5551 -14.2600 -14.2275 -14.2134 -14.1734
   -14.1446 -14.1274 -14.0892 -14.0646 -14.0566 -14.0168 -13.9887 -13.8880
   -13.8319 -13.7832 -13.7754 -13.7470 -13.6602 -13.6193 -13.5084 -13.4557
   -13.3883 -13.3520 -13.2545 -13.2152 -13.2048 -13.1752 -13.1426 -13.1287
   -13.1060 -13.0363 -12.9586 -12.9243 -12.9032 -12.8363 -12.8125 -12.8091
   -12.8024 -12.7303 -12.7123 -12.5516 -12.5114 -12.4081 -12.3237 -12.3032
   -11.9893 -11.9690 -11.9565 -11.9415 -11.9295 -11.9079 -11.8778 -11.7972
   -11.7903 -11.7646 -11.7328 -11.7046 -11.6957  -2.6366  -2.5952  -2.4487
    -2.4056  -2.2437  -2.1668  -2.0278  -1.8903  -1.8333  -1.8067  -1.7686
    -1.7312  -1.6498  -1.5333  -1.4763  -1.4529  -1.4251  -1.3475  -1.3214
    -1.2812  -1.2657  -1.2056  -1.1726  -1.1367  -1.1013  -1.0724  -1.0133
    -0.9855  -0.9431  -0.9081  -0.8031  -0.7771  -0.6819  -0.6256  -0.5944
    -0.5321  -0.4545  -0.4183  -0.3190  -0.2753  -0.2174  -0.1651  -0.1333
    -0.0730  -0.0431  -0.0097   0.0343   0.0761   0.4066   0.4631   0.5300
     0.5412   0.8276   0.8892   0.9603   0.9866   1.1587   1.1929   1.2312
     1.2409   1.2594   1.2768   1.3461   1.3952   1.4357   1.4691   1.5928
     1.6350   1.6551   1.6688   1.7064   1.7297   1.7490   1.7607   1.7755
     1.8001   1.8468   1.8562   1.8957   1.9192   1.9542   2.0052   2.1329
     2.2249   2.2527   2.3195   2.3529   2.4176   2.4498   2.4580   2.4896
     2.5207   2.5315   2.5529   2.6163   2.6250   2.6410   2.6848   2.6944
     2.7009   2.7235   2.7425   2.7542   2.7700   2.7849   2.8078   2.8186
     2.8288   2.8381   2.8454   2.8584   3.3919   3.4323   3.5769   3.5959
     3.8873   3.9568   4.0117   4.2155   4.5906   4.6932   4.8647   4.9229
     5.2209   5.2470   5.4744   5.5656   5.5962   5.6342   6.3188   6.4411
     6.4762   6.7394   7.3535   7.5869   7.6568   7.7150   7.7612   7.8030
     7.8946   8.0342   8.2107   8.3706   8.4076   8.4841   8.5004   8.5462
     8.6201   8.6857

     occupation numbers 
     1.0000   1.0000   1.0000   1.0000   1.0000   1.0000   1.0000   1.0000
     1.0000   1.0000   1.0000   1.0000   1.0000   1.0000   1.0000   1.0000
     1.0000   1.0000   1.0000   1.0000   1.0000   1.0000   1.0000   1.0000
     1.0000   1.0000   1.0000   1.0000   1.0000   1.0000   1.0000   1.0000
     1.0000   1.0000   1.0000   1.0000   1.0000   1.0000   1.0000   1.0000
     1.0000   1.0000   1.0000   1.0000   1.0000   1.0000   1.0000   1.0000
     1.0000   1.0000   1.0000   1.0000   1.0000   1.0000   1.0000   1.0000
     1.0000   1.0000   1.0000   1.0000   1.0000   1.0000   1.0000   1.0000
     1.0000   1.0000   1.0000   1.0000   1.0000   1.0000   1.0000   1.0000
     1.0000   1.0000   1.0000   1.0000   1.0000   1.0000   1.0000   1.0000
     1.0000   1.0000   1.0000   1.0000   1.0000   1.0000   1.0000   1.0000
     1.0000   1.0000   1.0000   1.0000   1.0000   1.0000   1.0000   1.0000
     1.0000   1.0000   1.0000   1.0000   1.0000   1.0000   1.0000   1.0000
     1.0000   1.0000   1.0000   1.0000   1.0000   1.0000   1.0000   1.0000
     1.0000   1.0000   1.0000   1.0000   1.0000   1.0000   1.0000   1.0000
     1.0000   1.0000   1.0000   1.0000   1.0000   1.0000   1.0000   1.0000
     1.0000   1.0000   1.0000   1.0000   1.0000   1.0000   1.0000   1.0000
     1.0000   1.0000   1.0000   1.0000   1.0000   1.0000   1.0000   1.0000
     1.0000   1.0000   1.0000   1.0000   1.0000   1.0000   1.0000   1.0000
     1.0000   1.0000   1.0000   1.0000   1.0000   1.0000   1.0000   0.9999
     0.9999   0.9997   0.9996   0.9993   0.9993   0.9983   0.9979   0.9975
     0.9974   0.9972   0.9970   0.9959   0.9949   0.9940   0.9930   0.9886
     0.9866   0.9855   0.9847   0.9825   0.9809   0.9795   0.9786   0.9775
     0.9755   0.9712   0.9703   0.9661   0.9634   0.9590   0.9519   0.9297
     0.9094   0.9025   0.8843   0.8744   0.8534   0.8422   0.8392   0.8275
     0.8154   0.8111   0.8024   0.7752   0.7713   0.7640   0.7436   0.7390
     0.7358   0.7247   0.7152   0.7093   0.7012   0.6935   0.6815   0.6757
     0.6702   0.6652   0.6613   0.6542   0.3462   0.3243   0.2513   0.2424
     0.1290   0.1085   0.0941   0.0528   0.0148   0.0100   0.0049   0.0038
     0.0009   0.0008   0.0002   0.0001   0.0001   0.0001   0.0000   0.0000
     0.0000   0.0000   0.0000   0.0000   0.0000   0.0000   0.0000   0.0000
     0.0000   0.0000   0.0000   0.0000   0.0000   0.0000   0.0000   0.0000
     0.0000   0.0000

     the Fermi energy is     3.1255 ev

!    total energy              =   -4440.31535392 Ry
     estimated scf accuracy    <          9.0E-09 Ry
     smearing contrib. (-TS)   =      -1.20829452 Ry
     internal energy E=F+TS    =   -4439.10705940 Ry

     The total energy is F=E-TS. E is the sum of the following terms:
     one-electron contribution =  -20888.68695000 Ry
     hartree contribution      =   10573.09420638 Ry
     xc contribution           =    -693.25484480 Ry
     ewald contribution        =    6845.93101880 Ry
     one-center paw contrib.   =    -276.19048978 Ry
      -> PAW hartree energy AE =      25.14544160 Ry
      -> PAW hartree energy PS =     -25.02949788 Ry
      -> PAW xc energy AE      =     -16.51505649 Ry
      -> PAW xc energy PS      =       6.87438644 Ry
      -> total E_H with PAW    =   10573.21015011 Ry
      -> total E_XC with PAW   =    -702.89551484 Ry

     convergence has been achieved in  48 iterations

     Writing all to output data dir /bsuhome/zayahcortright/scratch/pwscf.save/
 
     init_run     :      8.05s CPU      8.70s WALL (       1 calls)
     electrons    :    697.11s CPU    730.95s WALL (       1 calls)

     Called by init_run:
     wfcinit      :      6.34s CPU      6.58s WALL (       1 calls)
     wfcinit:atom :      0.05s CPU      0.07s WALL (       5 calls)
     wfcinit:wfcr :      6.01s CPU      6.16s WALL (       5 calls)
     potinit      :      0.16s CPU      0.23s WALL (       1 calls)
     hinit0       :      0.60s CPU      0.68s WALL (       1 calls)

     Called by electrons:
     c_bands      :    554.25s CPU    561.04s WALL (      48 calls)
     sum_band     :    106.92s CPU    121.92s WALL (      48 calls)
     v_of_rho     :      5.20s CPU      5.59s WALL (      49 calls)
     v_h          :      0.49s CPU      0.49s WALL (      49 calls)
     v_xc         :      4.71s CPU      5.10s WALL (      49 calls)
     newd         :     15.97s CPU     27.02s WALL (      49 calls)
     PAW_pot      :      1.66s CPU      1.70s WALL (      49 calls)
     mix_rho      :     12.70s CPU     13.12s WALL (      48 calls)

     Called by c_bands:
     init_us_2    :      6.72s CPU      6.80s WALL (     485 calls)
     init_us_2:cp :      6.72s CPU      6.80s WALL (     485 calls)
     cegterg      :    522.64s CPU    529.12s WALL (     240 calls)

     Called by sum_band:
     sum_band:wei :      0.35s CPU      0.36s WALL (      48 calls)
     sum_band:loo :     89.51s CPU     90.25s WALL (      48 calls)
     sum_band:buf :      1.45s CPU      1.51s WALL (     240 calls)
     sum_band:ini :      3.11s CPU      3.12s WALL (     240 calls)
     sum_band:cal :     18.98s CPU     19.04s WALL (     240 calls)
     sum_band:bec :      0.52s CPU      0.52s WALL (     240 calls)
     addusdens    :     15.09s CPU     29.30s WALL (      48 calls)
                                        0.00s GPU  (      48 calls)
     addusd:skk   :      0.27s CPU      0.94s WALL (     144 calls)
                                        0.00s GPU  (     144 calls)

     Called by *egterg:
     cdiaghg      :     55.88s CPU     56.12s WALL (    1345 calls)
     cegterg:over :     37.66s CPU     37.82s WALL (    1105 calls)
     cegterg:upda :     28.06s CPU     28.58s WALL (    1105 calls)
     cegterg:last :     58.60s CPU     58.88s WALL (     440 calls)
     cdiaghg:chol :      3.27s CPU      3.29s WALL (    1345 calls)
     cdiaghg:inve :      2.80s CPU      2.82s WALL (    1345 calls)
     cdiaghg:para :      7.11s CPU      7.15s WALL (    2690 calls)
     h_psi        :    287.67s CPU    290.74s WALL (    1350 calls)
     s_psi        :     39.76s CPU     39.90s WALL (    1350 calls)
     g_psi        :      1.08s CPU      1.09s WALL (    1105 calls)

     Called by h_psi:
     h_psi:calbec :     44.23s CPU     44.47s WALL (    1350 calls)
     vloc_psi     :    200.94s CPU    202.91s WALL (    1350 calls)
     add_vuspsi   :     39.62s CPU     39.82s WALL (    1350 calls)

     General routines
     calbec       :     63.21s CPU     63.51s WALL (    1590 calls)
     fft          :      3.51s CPU      3.55s WALL (     635 calls)
     ffts         :      4.52s CPU      4.56s WALL (    5160 calls)
     fftw         :    168.51s CPU    169.93s WALL (  323096 calls)
     interpolate  :      0.39s CPU      0.40s WALL (      49 calls)
 
     Parallel routines

     PAW routines
     PAW_pot      :      1.66s CPU      1.70s WALL (      49 calls)
 
     PWSCF        :  11m46.95s CPU  12m26.28s WALL

 
   This run was terminated on:   1:42:25  22Jun2024            

=------------------------------------------------------------------------------=
   JOB DONE.
=------------------------------------------------------------------------------=
