
     Program PWSCF v.7.2 starts on 21Jun2024 at 22:42:46 

     This program is part of the open-source Quantum ESPRESSO suite
     for quantum simulation of materials; please cite
         "P. Giannozzi et al., J. Phys.:Condens. Matter 21 395502 (2009);
         "P. Giannozzi et al., J. Phys.:Condens. Matter 29 465901 (2017);
         "P. Giannozzi et al., J. Chem. Phys. 152 154105 (2020);
          URL http://www.quantum-espresso.org", 
     in publications or presentations arising from this work. More details at
     http://www.quantum-espresso.org/quote

     Parallel version (MPI & OpenMP), running on      48 processor cores
     Number of MPI processes:                48
     Threads/MPI process:                     1

     MPI processes distributed on     1 nodes
     33237 MiB available memory on the printing compute node when the environment starts
 
     Reading input from espresso.pwi
Warning: card &CELL ignored
Warning: card / ignored
Warning: card &FCP ignored
Warning: card / ignored
Warning: card &RISM ignored
Warning: card / ignored

     Current dimensions of program PWSCF are:
     Max number of different atomic species (ntypx) = 10
     Max number of k-points (npk) =  40000
     Max angular momentum in pseudopotentials (lmaxx) =  4
     file O.pbe-n-kjpaw_psl.0.1.UPF: wavefunction(s)  2P renormalized
     signal trapping enabled: kill the code with -SIGUSR1 to stop cleanly the simulation 
 
     K-points division:     npool     =       2
     R & G space division:  proc/nbgrp/npool/nimage =      24
     Subspace diagonalization in iterative solution of the eigenvalue problem:
     one sub-group per band group will be used
     scalapack distributed-memory algorithm (size of sub-group:  3*  3 procs)

 
     Parallelization info
     --------------------
     sticks:   dense  smooth     PW     G-vecs:    dense   smooth      PW
     Min         350     175     47                61430    21716    3036
     Max         351     177     48                61449    21727    3041
     Sum        8421    4205   1137              1474595   521381   72913
 
     Using Slab Decomposition
 


     bravais-lattice index     =            0
     lattice parameter (alat)  =      14.8599  a.u.
     unit-cell volume          =    8305.1283 (a.u.)^3
     number of atoms/cell      =           50
     number of atomic types    =            4
     number of electrons       =       431.00
     number of Kohn-Sham states=          259
     kinetic-energy cutoff     =      60.0000  Ry
     charge density cutoff     =     480.0000  Ry
     scf convergence threshold =      1.0E-08
     mixing beta               =       0.1500
     number of iterations used =            8  local-TF  mixing
     Exchange-correlation= PBE
                           (   1   4   3   4   0   0   0)

     celldm(1)=  14.859904  celldm(2)=   0.000000  celldm(3)=   0.000000
     celldm(4)=   0.000000  celldm(5)=   0.000000  celldm(6)=   0.000000

     crystal axes: (cart. coord. in units of alat)
               a(1) = (   1.000000   0.000000   0.000000 )  
               a(2) = (   0.000000   1.000000   0.000000 )  
               a(3) = (   0.000000   0.000000   2.531036 )  

     reciprocal axes: (cart. coord. in units 2 pi/alat)
               b(1) = (  1.000000  0.000000  0.000000 )  
               b(2) = (  0.000000  1.000000  0.000000 )  
               b(3) = (  0.000000  0.000000  0.395095 )  


     PseudoPot. # 1 for Sr read from file:
     /bsuhome/zayahcortright/q-e/pseudo/Sr_pbe_v1.uspp.F.UPF
     MD5 check sum: 6b418c05fbe9db5448babca5e47b7a5b
     Pseudo is Ultrasoft + core correction, Zval = 10.0
     Generated by new atomic code, or converted to UPF format
     Using radial grid of  883 points,  6 beta functions with: 
                l(1) =   0
                l(2) =   0
                l(3) =   1
                l(4) =   1
                l(5) =   2
                l(6) =   2
     Q(r) pseudized with  6 coefficients,  rinner =    1.400   1.400   1.400
                                                       1.400   1.400

     PseudoPot. # 2 for O  read from file:
     /bsuhome/zayahcortright/q-e/pseudo/O.pbe-n-kjpaw_psl.0.1.UPF
     MD5 check sum: 0234752ac141de4415c5fc33072bef88
     Pseudo is Projector augmented-wave + core cor, Zval =  6.0
     Generated using "atomic" code by A. Dal Corso  v.5.0.99 svn rev. 10869
     Shape of augmentation charge: BESSEL
     Using radial grid of 1095 points,  4 beta functions with: 
                l(1) =   0
                l(2) =   0
                l(3) =   1
                l(4) =   1
     Q(r) pseudized with 0 coefficients 


     PseudoPot. # 3 for Co read from file:
     /bsuhome/zayahcortright/q-e/pseudo/Co_pbe_v1.2.uspp.F.UPF
     MD5 check sum: 5f91765df6ddd3222702df6e7b74a16d
     Pseudo is Ultrasoft + core correction, Zval = 17.0
     Generated by new atomic code, or converted to UPF format
     Using radial grid of  863 points,  6 beta functions with: 
                l(1) =   0
                l(2) =   0
                l(3) =   1
                l(4) =   1
                l(5) =   2
                l(6) =   2
     Q(r) pseudized with  8 coefficients,  rinner =    1.200   1.200   1.200
                                                       1.200   1.200

     PseudoPot. # 4 for H  read from file:
     /bsuhome/zayahcortright/q-e/pseudo/H.pbe-rrkjus_psl.1.0.0.UPF
     MD5 check sum: f52b6d4d1c606e5624b1dc7b2218f220
     Pseudo is Ultrasoft, Zval =  1.0
     Generated using "atomic" code by A. Dal Corso  v.5.1
     Using radial grid of  929 points,  2 beta functions with: 
                l(1) =   0
                l(2) =   0
     Q(r) pseudized with 0 coefficients 


     atomic species   valence    mass     pseudopotential
        Sr            10.00    87.62000     Sr( 1.00)
        O              6.00    15.99900     O ( 1.00)
        Co            17.00    58.93319     Co( 1.00)
        H              1.00     1.00800     H ( 1.00)

     No symmetry found


                                    s                        frac. trans.

      isym =  1     identity                                     

 cryst.   s( 1) = (     1          0          0      )
                  (     0          1          0      )
                  (     0          0          1      )

 cart.    s( 1) = (  1.0000000  0.0000000  0.0000000 )
                  (  0.0000000  1.0000000  0.0000000 )
                  (  0.0000000  0.0000000  1.0000000 )


   Cartesian axes

     site n.     atom                  positions (alat units)
         1           Sr  tau(   1) = (   0.2508693   0.7491307   1.7574407  )
         2           O   tau(   2) = (   0.4985141   0.5014859   1.7715967  )
         3           Sr  tau(   3) = (   0.7482398   0.7454518   1.7648669  )
         4           Sr  tau(   4) = (   0.7441748   0.2558252   1.7667843  )
         5           Sr  tau(   5) = (   0.2508693   0.7491307   1.2696799  )
         6           Sr  tau(   6) = (   0.2508693   0.7491307   0.7632319  )
         7           Co  tau(   7) = (   0.4998914   0.5001086   1.0164559  )
         8           Co  tau(   8) = (   0.4936915   0.5063085   1.5135603  )
         9           O   tau(   9) = (   0.4988895   0.7610401   1.0164559  )
        10           O   tau(  10) = (   0.2389599   0.5011105   1.0164559  )
        11           O   tau(  11) = (   0.0070918   0.7374880   1.0164559  )
        12           O   tau(  12) = (   0.0088340   0.7405089   1.5135603  )
        13           O   tau(  13) = (   0.5066944   0.7415376   1.5135603  )
        14           O   tau(  14) = (   0.2584624   0.4933056   1.5135603  )
        15           O   tau(  15) = (   0.4985141   0.5014859   0.7773880  )
        16           O   tau(  16) = (   0.4985141   0.5014859   1.2555238  )
        17           Sr  tau(  17) = (   0.7482398   0.7454518   0.7706582  )
        18           Sr  tau(  18) = (   0.7482398   0.7454518   1.2622536  )
        19           Sr  tau(  19) = (   0.7441748   0.2558252   0.7725755  )
        20           Sr  tau(  20) = (   0.7441748   0.2558252   1.2603363  )
        21           O   tau(  21) = (   0.7322655   0.0078049   1.5135603  )
        22           O   tau(  22) = (   0.7558175   0.4996027   1.5135603  )
        23           O   tau(  23) = (   0.5003973   0.2441825   1.5135603  )
        24           O   tau(  24) = (   0.7527966   0.4978604   1.0164559  )
        25           O   tau(  25) = (   0.5021396   0.2472034   1.0164559  )
        26           O   tau(  26) = (   0.7517679   0.0000000   1.0164559  )
        27           O   tau(  27) = (   0.0114961   0.4948124   1.7455321  )
        28           O   tau(  28) = (   0.0048226   0.0077944   1.7715967  )
        29           Sr  tau(  29) = (   0.2545482   0.2517602   1.7648669  )
        30           O   tau(  30) = (   0.5048017   0.0015068   1.7786929  )
        31           Co  tau(  31) = (   0.0056869   0.5006215   1.0164559  )
        32           Co  tau(  32) = (   0.0065315   0.4997770   1.5135603  )
        33           Co  tau(  33) = (   0.0061999   0.0064171   1.0164559  )
        34           Co  tau(  34) = (   0.0000000   0.0126169   1.5135603  )
        35           O   tau(  35) = (   0.0114961   0.4948124   1.2815885  )
        36           O   tau(  36) = (   0.0114961   0.4948124   0.7513233  )
        37           O   tau(  37) = (   0.0051979   0.2673486   1.0164559  )
        38           O   tau(  38) = (   0.0130029   0.2478461   1.5135603  )
        39           O   tau(  39) = (   0.0048226   0.0077944   0.7773880  )
        40           O   tau(  40) = (   0.0048226   0.0077944   1.2555238  )
        41           Sr  tau(  41) = (   0.2545482   0.2517602   0.7706582  )
        42           Sr  tau(  42) = (   0.2545482   0.2517602   1.2622536  )
        43           Co  tau(  43) = (   0.4989925   0.0073160   1.5135603  )
        44           Co  tau(  44) = (   0.4998370   0.0064714   1.0164559  )
        45           O   tau(  45) = (   0.5048017   0.0015068   0.7844841  )
        46           O   tau(  46) = (   0.5048017   0.0015068   1.2484277  )
        47           O   tau(  47) = (   0.2621260   0.0059111   1.5135603  )
        48           O   tau(  48) = (   0.2591051   0.0041689   1.0164559  )
        49           O   tau(  49) = (   0.5686583   0.4264937   2.1602013  )
        50           H   tau(  50) = (   0.5686583   0.4264937   2.2847091  )

   Crystallographic axes

     site n.     atom                  positions (cryst. coord.)
         1           Sr  tau(   1) = (  0.2508693  0.7491307  0.6943562  )
         2           O   tau(   2) = (  0.4985141  0.5014859  0.6999492  )
         3           Sr  tau(   3) = (  0.7482398  0.7454518  0.6972903  )
         4           Sr  tau(   4) = (  0.7441748  0.2558252  0.6980478  )
         5           Sr  tau(   5) = (  0.2508693  0.7491307  0.5016443  )
         6           Sr  tau(   6) = (  0.2508693  0.7491307  0.3015492  )
         7           Co  tau(   7) = (  0.4998914  0.5001086  0.4015968  )
         8           Co  tau(   8) = (  0.4936915  0.5063085  0.5980003  )
         9           O   tau(   9) = (  0.4988895  0.7610401  0.4015968  )
        10           O   tau(  10) = (  0.2389599  0.5011105  0.4015968  )
        11           O   tau(  11) = (  0.0070918  0.7374880  0.4015968  )
        12           O   tau(  12) = (  0.0088340  0.7405089  0.5980003  )
        13           O   tau(  13) = (  0.5066944  0.7415376  0.5980003  )
        14           O   tau(  14) = (  0.2584624  0.4933056  0.5980003  )
        15           O   tau(  15) = (  0.4985141  0.5014859  0.3071422  )
        16           O   tau(  16) = (  0.4985141  0.5014859  0.4960513  )
        17           Sr  tau(  17) = (  0.7482398  0.7454518  0.3044833  )
        18           Sr  tau(  18) = (  0.7482398  0.7454518  0.4987103  )
        19           Sr  tau(  19) = (  0.7441748  0.2558252  0.3052408  )
        20           Sr  tau(  20) = (  0.7441748  0.2558252  0.4979527  )
        21           O   tau(  21) = (  0.7322655  0.0078049  0.5980003  )
        22           O   tau(  22) = (  0.7558175  0.4996027  0.5980003  )
        23           O   tau(  23) = (  0.5003973  0.2441825  0.5980003  )
        24           O   tau(  24) = (  0.7527966  0.4978604  0.4015968  )
        25           O   tau(  25) = (  0.5021396  0.2472034  0.4015968  )
        26           O   tau(  26) = (  0.7517679  0.0000000  0.4015968  )
        27           O   tau(  27) = (  0.0114961  0.4948124  0.6896512  )
        28           O   tau(  28) = (  0.0048226  0.0077944  0.6999492  )
        29           Sr  tau(  29) = (  0.2545482  0.2517602  0.6972903  )
        30           O   tau(  30) = (  0.5048017  0.0015068  0.7027529  )
        31           Co  tau(  31) = (  0.0056869  0.5006215  0.4015968  )
        32           Co  tau(  32) = (  0.0065315  0.4997770  0.5980003  )
        33           Co  tau(  33) = (  0.0061999  0.0064171  0.4015968  )
        34           Co  tau(  34) = (  0.0000000  0.0126169  0.5980003  )
        35           O   tau(  35) = (  0.0114961  0.4948124  0.5063494  )
        36           O   tau(  36) = (  0.0114961  0.4948124  0.2968442  )
        37           O   tau(  37) = (  0.0051979  0.2673486  0.4015968  )
        38           O   tau(  38) = (  0.0130029  0.2478461  0.5980003  )
        39           O   tau(  39) = (  0.0048226  0.0077944  0.3071422  )
        40           O   tau(  40) = (  0.0048226  0.0077944  0.4960513  )
        41           Sr  tau(  41) = (  0.2545482  0.2517602  0.3044833  )
        42           Sr  tau(  42) = (  0.2545482  0.2517602  0.4987103  )
        43           Co  tau(  43) = (  0.4989925  0.0073160  0.5980003  )
        44           Co  tau(  44) = (  0.4998370  0.0064714  0.4015968  )
        45           O   tau(  45) = (  0.5048017  0.0015068  0.3099459  )
        46           O   tau(  46) = (  0.5048017  0.0015068  0.4932477  )
        47           O   tau(  47) = (  0.2621260  0.0059111  0.5980003  )
        48           O   tau(  48) = (  0.2591051  0.0041689  0.4015968  )
        49           O   tau(  49) = (  0.5686583  0.4264937  0.8534850  )
        50           H   tau(  50) = (  0.5686583  0.4264937  0.9026774  )

     number of k points=    10  Gaussian smearing, width (Ry)=  0.0700
                       cart. coord. in units 2pi/alat
        k(    1) = (   0.0000000   0.0000000   0.0000000), wk =   0.1250000
        k(    2) = (   0.0000000   0.2500000   0.0000000), wk =   0.2500000
        k(    3) = (   0.0000000  -0.5000000   0.0000000), wk =   0.1250000
        k(    4) = (   0.2500000   0.2500000   0.0000000), wk =   0.2500000
        k(    5) = (   0.2500000  -0.5000000   0.0000000), wk =   0.2500000
        k(    6) = (  -0.5000000  -0.5000000   0.0000000), wk =   0.1250000
        k(    7) = (   0.2500000   0.0000000   0.0000000), wk =   0.2500000
        k(    8) = (  -0.5000000   0.0000000   0.0000000), wk =   0.1250000
        k(    9) = (  -0.2500000   0.2500000   0.0000000), wk =   0.2500000
        k(   10) = (  -0.5000000   0.2500000   0.0000000), wk =   0.2500000

                       cryst. coord.
        k(    1) = (   0.0000000   0.0000000   0.0000000), wk =   0.1250000
        k(    2) = (   0.0000000   0.2500000   0.0000000), wk =   0.2500000
        k(    3) = (   0.0000000  -0.5000000   0.0000000), wk =   0.1250000
        k(    4) = (   0.2500000   0.2500000   0.0000000), wk =   0.2500000
        k(    5) = (   0.2500000  -0.5000000   0.0000000), wk =   0.2500000
        k(    6) = (  -0.5000000  -0.5000000   0.0000000), wk =   0.1250000
        k(    7) = (   0.2500000   0.0000000   0.0000000), wk =   0.2500000
        k(    8) = (  -0.5000000   0.0000000   0.0000000), wk =   0.1250000
        k(    9) = (  -0.2500000   0.2500000   0.0000000), wk =   0.2500000
        k(   10) = (  -0.5000000   0.2500000   0.0000000), wk =   0.2500000

     Dense  grid:  1474595 G-vectors     FFT dimensions: ( 108, 108, 270)

     Smooth grid:   521381 G-vectors     FFT dimensions: (  75,  75, 192)

     Dynamical RAM for                 wfc:      10.73 MB

     Dynamical RAM for     wfc (w. buffer):      64.38 MB

     Dynamical RAM for           str. fact:       3.75 MB

     Dynamical RAM for           local pot:       0.00 MB

     Dynamical RAM for          nlocal pot:      24.61 MB

     Dynamical RAM for                qrad:       7.03 MB

     Dynamical RAM for          rho,v,vnew:       6.02 MB

     Dynamical RAM for               rhoin:       2.01 MB

     Dynamical RAM for            rho*nmix:      15.00 MB

     Dynamical RAM for           G-vectors:       3.68 MB

     Dynamical RAM for          h,s,v(r/c):       1.35 MB

     Dynamical RAM for          <psi|beta>:       2.35 MB

     Dynamical RAM for                 psi:      21.46 MB

     Dynamical RAM for                hpsi:      21.46 MB

     Dynamical RAM for                spsi:      21.46 MB

     Dynamical RAM for      wfcinit/wfcrot:      34.49 MB

     Dynamical RAM for           addusdens:     101.26 MB

     Estimated static dynamical RAM per process >     121.50 MB

     Estimated max dynamical RAM per process >     237.76 MB

     Estimated total dynamical RAM >      10.79 GB

     Check: negative core charge=   -0.000004

     Initial potential from superposition of free atoms

     starting charge     422.5961, renormalised to     431.0000

     negative rho (up, down):  7.820E-01 0.000E+00
     Starting wfcs are  377 randomized atomic wfcs
     Checking if some PAW data can be deallocated... 
       PAW data deallocated on   19 nodes for type:  2

     total cpu time spent up to now is        9.0 secs

     Self-consistent Calculation

     iteration #  1     ecut=    60.00 Ry     beta= 0.15
     Davidson diagonalization with overlap

---- Real-time Memory Report at c_bands before calling an iterative solver
             0 MiB given to the printing process from OS
             0 MiB allocation reported by mallinfo(arena+hblkhd)
         23985 MiB available memory on the node where the printing process lives
------------------
     ethr =  1.00E-02,  avg # of iterations =  2.0

     negative rho (up, down):  7.716E-01 0.000E+00

     total cpu time spent up to now is       25.2 secs

     total energy              =   -4446.62595026 Ry
     estimated scf accuracy    <      44.88623025 Ry

     iteration #  2     ecut=    60.00 Ry     beta= 0.15
     Davidson diagonalization with overlap

---- Real-time Memory Report at c_bands before calling an iterative solver
             0 MiB given to the printing process from OS
             0 MiB allocation reported by mallinfo(arena+hblkhd)
         24256 MiB available memory on the node where the printing process lives
------------------
     ethr =  1.00E-02,  avg # of iterations =  1.0

     negative rho (up, down):  7.581E-01 0.000E+00

     total cpu time spent up to now is       39.4 secs

     total energy              =   -4443.25958342 Ry
     estimated scf accuracy    <      29.66406843 Ry

     iteration #  3     ecut=    60.00 Ry     beta= 0.15
     Davidson diagonalization with overlap

---- Real-time Memory Report at c_bands before calling an iterative solver
             0 MiB given to the printing process from OS
             0 MiB allocation reported by mallinfo(arena+hblkhd)
         23413 MiB available memory on the node where the printing process lives
------------------
     ethr =  6.88E-03,  avg # of iterations =  1.0

     negative rho (up, down):  7.553E-01 0.000E+00

     total cpu time spent up to now is       54.0 secs

     total energy              =   -4444.26039509 Ry
     estimated scf accuracy    <      28.95677839 Ry

     iteration #  4     ecut=    60.00 Ry     beta= 0.15
     Davidson diagonalization with overlap

---- Real-time Memory Report at c_bands before calling an iterative solver
             0 MiB given to the printing process from OS
             0 MiB allocation reported by mallinfo(arena+hblkhd)
         23396 MiB available memory on the node where the printing process lives
------------------
     ethr =  6.72E-03,  avg # of iterations =  1.0

     negative rho (up, down):  7.497E-01 0.000E+00

     total cpu time spent up to now is       68.6 secs

     total energy              =   -4443.04398935 Ry
     estimated scf accuracy    <      21.10905886 Ry

     iteration #  5     ecut=    60.00 Ry     beta= 0.15
     Davidson diagonalization with overlap

---- Real-time Memory Report at c_bands before calling an iterative solver
             0 MiB given to the printing process from OS
             0 MiB allocation reported by mallinfo(arena+hblkhd)
         23375 MiB available memory on the node where the printing process lives
------------------
     ethr =  4.90E-03,  avg # of iterations =  1.0

     negative rho (up, down):  7.402E-01 0.000E+00

     total cpu time spent up to now is       83.4 secs

     total energy              =   -4442.52903379 Ry
     estimated scf accuracy    <      10.91705493 Ry

     iteration #  6     ecut=    60.00 Ry     beta= 0.15
     Davidson diagonalization with overlap

---- Real-time Memory Report at c_bands before calling an iterative solver
             0 MiB given to the printing process from OS
             0 MiB allocation reported by mallinfo(arena+hblkhd)
         23359 MiB available memory on the node where the printing process lives
------------------
     ethr =  2.53E-03,  avg # of iterations =  1.1

     negative rho (up, down):  7.428E-01 0.000E+00

     total cpu time spent up to now is       98.1 secs

     total energy              =   -4442.81025056 Ry
     estimated scf accuracy    <       4.98594179 Ry

     iteration #  7     ecut=    60.00 Ry     beta= 0.15
     Davidson diagonalization with overlap

---- Real-time Memory Report at c_bands before calling an iterative solver
             0 MiB given to the printing process from OS
             0 MiB allocation reported by mallinfo(arena+hblkhd)
         23338 MiB available memory on the node where the printing process lives
------------------
     ethr =  1.16E-03,  avg # of iterations =  1.7

     negative rho (up, down):  7.637E-01 0.000E+00

     total cpu time spent up to now is      113.2 secs

     total energy              =   -4441.69094952 Ry
     estimated scf accuracy    <       3.97675669 Ry

     iteration #  8     ecut=    60.00 Ry     beta= 0.15
     Davidson diagonalization with overlap

---- Real-time Memory Report at c_bands before calling an iterative solver
             0 MiB given to the printing process from OS
             0 MiB allocation reported by mallinfo(arena+hblkhd)
         23314 MiB available memory on the node where the printing process lives
------------------
     ethr =  9.23E-04,  avg # of iterations =  4.3

     negative rho (up, down):  7.725E-01 0.000E+00

     total cpu time spent up to now is      132.0 secs

     total energy              =   -4441.36308459 Ry
     estimated scf accuracy    <      18.77943436 Ry

     iteration #  9     ecut=    60.00 Ry     beta= 0.15
     Davidson diagonalization with overlap

---- Real-time Memory Report at c_bands before calling an iterative solver
             0 MiB given to the printing process from OS
             0 MiB allocation reported by mallinfo(arena+hblkhd)
         23179 MiB available memory on the node where the printing process lives
------------------
     ethr =  9.23E-04,  avg # of iterations = 10.1

     negative rho (up, down):  7.702E-01 0.000E+00

     total cpu time spent up to now is      153.5 secs

     total energy              =   -4441.75600117 Ry
     estimated scf accuracy    <       2.93402237 Ry

     iteration # 10     ecut=    60.00 Ry     beta= 0.15
     Davidson diagonalization with overlap

---- Real-time Memory Report at c_bands before calling an iterative solver
             0 MiB given to the printing process from OS
             0 MiB allocation reported by mallinfo(arena+hblkhd)
         22836 MiB available memory on the node where the printing process lives
------------------
     ethr =  6.81E-04,  avg # of iterations =  1.4

     negative rho (up, down):  7.767E-01 0.000E+00

     total cpu time spent up to now is      168.7 secs

     total energy              =   -4441.89704849 Ry
     estimated scf accuracy    <       1.37808938 Ry

     iteration # 11     ecut=    60.00 Ry     beta= 0.15
     Davidson diagonalization with overlap

---- Real-time Memory Report at c_bands before calling an iterative solver
             0 MiB given to the printing process from OS
             0 MiB allocation reported by mallinfo(arena+hblkhd)
         22822 MiB available memory on the node where the printing process lives
------------------
     ethr =  3.20E-04,  avg # of iterations =  2.5

     negative rho (up, down):  8.065E-01 0.000E+00

     total cpu time spent up to now is      185.3 secs

     total energy              =   -4441.71497583 Ry
     estimated scf accuracy    <       1.32892712 Ry

     iteration # 12     ecut=    60.00 Ry     beta= 0.15
     Davidson diagonalization with overlap

---- Real-time Memory Report at c_bands before calling an iterative solver
             0 MiB given to the printing process from OS
             0 MiB allocation reported by mallinfo(arena+hblkhd)
         22825 MiB available memory on the node where the printing process lives
------------------
     ethr =  3.08E-04,  avg # of iterations =  6.6

     negative rho (up, down):  8.145E-01 0.000E+00

     total cpu time spent up to now is      204.2 secs

     total energy              =   -4441.85685526 Ry
     estimated scf accuracy    <       1.25532471 Ry

     iteration # 13     ecut=    60.00 Ry     beta= 0.15
     Davidson diagonalization with overlap

---- Real-time Memory Report at c_bands before calling an iterative solver
             0 MiB given to the printing process from OS
             0 MiB allocation reported by mallinfo(arena+hblkhd)
         22827 MiB available memory on the node where the printing process lives
------------------
     ethr =  2.91E-04,  avg # of iterations =  4.6

     negative rho (up, down):  8.178E-01 0.000E+00

     total cpu time spent up to now is      221.9 secs

     total energy              =   -4441.78747553 Ry
     estimated scf accuracy    <       0.82498277 Ry

     iteration # 14     ecut=    60.00 Ry     beta= 0.15
     Davidson diagonalization with overlap

---- Real-time Memory Report at c_bands before calling an iterative solver
             0 MiB given to the printing process from OS
             0 MiB allocation reported by mallinfo(arena+hblkhd)
         22819 MiB available memory on the node where the printing process lives
------------------
     ethr =  1.91E-04,  avg # of iterations =  4.9

     negative rho (up, down):  8.231E-01 0.000E+00

     total cpu time spent up to now is      240.0 secs

     total energy              =   -4441.73851944 Ry
     estimated scf accuracy    <       0.36038552 Ry

     iteration # 15     ecut=    60.00 Ry     beta= 0.15
     Davidson diagonalization with overlap

---- Real-time Memory Report at c_bands before calling an iterative solver
             0 MiB given to the printing process from OS
             0 MiB allocation reported by mallinfo(arena+hblkhd)
         22807 MiB available memory on the node where the printing process lives
------------------
     ethr =  8.36E-05,  avg # of iterations = 12.9

     negative rho (up, down):  8.309E-01 0.000E+00

     total cpu time spent up to now is      263.0 secs

     total energy              =   -4441.72456833 Ry
     estimated scf accuracy    <       0.30668396 Ry

     iteration # 16     ecut=    60.00 Ry     beta= 0.15
     Davidson diagonalization with overlap

---- Real-time Memory Report at c_bands before calling an iterative solver
             0 MiB given to the printing process from OS
             0 MiB allocation reported by mallinfo(arena+hblkhd)
         22736 MiB available memory on the node where the printing process lives
------------------
     c_bands:  1 eigenvalues not converged
     ethr =  7.12E-05,  avg # of iterations =  6.1

     negative rho (up, down):  8.308E-01 0.000E+00

     total cpu time spent up to now is      282.6 secs

     total energy              =   -4441.71715731 Ry
     estimated scf accuracy    <       0.28658242 Ry

     iteration # 17     ecut=    60.00 Ry     beta= 0.15
     Davidson diagonalization with overlap

---- Real-time Memory Report at c_bands before calling an iterative solver
             0 MiB given to the printing process from OS
             0 MiB allocation reported by mallinfo(arena+hblkhd)
         22721 MiB available memory on the node where the printing process lives
------------------
     ethr =  6.65E-05,  avg # of iterations =  1.0

     negative rho (up, down):  8.157E-01 0.000E+00

     total cpu time spent up to now is      297.3 secs

     total energy              =   -4441.69640835 Ry
     estimated scf accuracy    <       0.19904548 Ry

     iteration # 18     ecut=    60.00 Ry     beta= 0.15
     Davidson diagonalization with overlap

---- Real-time Memory Report at c_bands before calling an iterative solver
             0 MiB given to the printing process from OS
             0 MiB allocation reported by mallinfo(arena+hblkhd)
         22732 MiB available memory on the node where the printing process lives
------------------
     ethr =  4.62E-05,  avg # of iterations =  3.1

     negative rho (up, down):  8.098E-01 0.000E+00

     total cpu time spent up to now is      314.6 secs

     total energy              =   -4441.67817734 Ry
     estimated scf accuracy    <       0.13900641 Ry

     iteration # 19     ecut=    60.00 Ry     beta= 0.15
     Davidson diagonalization with overlap

---- Real-time Memory Report at c_bands before calling an iterative solver
             0 MiB given to the printing process from OS
             0 MiB allocation reported by mallinfo(arena+hblkhd)
         22729 MiB available memory on the node where the printing process lives
------------------
     ethr =  3.23E-05,  avg # of iterations =  9.3

     negative rho (up, down):  8.145E-01 0.000E+00

     total cpu time spent up to now is      335.6 secs

     total energy              =   -4441.66399481 Ry
     estimated scf accuracy    <       0.08938657 Ry

     iteration # 20     ecut=    60.00 Ry     beta= 0.15
     Davidson diagonalization with overlap

---- Real-time Memory Report at c_bands before calling an iterative solver
             0 MiB given to the printing process from OS
             0 MiB allocation reported by mallinfo(arena+hblkhd)
         22695 MiB available memory on the node where the printing process lives
------------------
     ethr =  2.07E-05,  avg # of iterations =  9.5

     negative rho (up, down):  8.265E-01 0.000E+00

     total cpu time spent up to now is      357.3 secs

     total energy              =   -4441.66495951 Ry
     estimated scf accuracy    <       0.03569420 Ry

     iteration # 21     ecut=    60.00 Ry     beta= 0.15
     Davidson diagonalization with overlap

---- Real-time Memory Report at c_bands before calling an iterative solver
             0 MiB given to the printing process from OS
             0 MiB allocation reported by mallinfo(arena+hblkhd)
         22666 MiB available memory on the node where the printing process lives
------------------
     ethr =  8.28E-06,  avg # of iterations = 11.9

     negative rho (up, down):  8.234E-01 0.000E+00

     total cpu time spent up to now is      379.7 secs

     total energy              =   -4441.66479635 Ry
     estimated scf accuracy    <       0.02590923 Ry

     iteration # 22     ecut=    60.00 Ry     beta= 0.15
     Davidson diagonalization with overlap

---- Real-time Memory Report at c_bands before calling an iterative solver
             0 MiB given to the printing process from OS
             0 MiB allocation reported by mallinfo(arena+hblkhd)
         22627 MiB available memory on the node where the printing process lives
------------------
     ethr =  6.01E-06,  avg # of iterations =  1.0

     negative rho (up, down):  7.960E-01 0.000E+00

     total cpu time spent up to now is      394.3 secs

     total energy              =   -4441.65950156 Ry
     estimated scf accuracy    <       0.02187580 Ry

     iteration # 23     ecut=    60.00 Ry     beta= 0.15
     Davidson diagonalization with overlap

---- Real-time Memory Report at c_bands before calling an iterative solver
             0 MiB given to the printing process from OS
             0 MiB allocation reported by mallinfo(arena+hblkhd)
         22644 MiB available memory on the node where the printing process lives
------------------
     c_bands:  1 eigenvalues not converged
     ethr =  5.08E-06,  avg # of iterations =  7.2

     negative rho (up, down):  7.987E-01 0.000E+00

     total cpu time spent up to now is      414.3 secs

     total energy              =   -4441.65979077 Ry
     estimated scf accuracy    <       0.01173710 Ry

     iteration # 24     ecut=    60.00 Ry     beta= 0.15
     Davidson diagonalization with overlap

---- Real-time Memory Report at c_bands before calling an iterative solver
             0 MiB given to the printing process from OS
             0 MiB allocation reported by mallinfo(arena+hblkhd)
         22629 MiB available memory on the node where the printing process lives
------------------
     c_bands:  1 eigenvalues not converged
     ethr =  2.72E-06,  avg # of iterations = 10.8

     negative rho (up, down):  7.975E-01 0.000E+00

     total cpu time spent up to now is      436.1 secs

     total energy              =   -4441.65916944 Ry
     estimated scf accuracy    <       0.00840733 Ry

     iteration # 25     ecut=    60.00 Ry     beta= 0.15
     Davidson diagonalization with overlap

---- Real-time Memory Report at c_bands before calling an iterative solver
             0 MiB given to the printing process from OS
             0 MiB allocation reported by mallinfo(arena+hblkhd)
         22593 MiB available memory on the node where the printing process lives
------------------
     ethr =  1.95E-06,  avg # of iterations =  5.6

     negative rho (up, down):  7.956E-01 0.000E+00

     total cpu time spent up to now is      455.4 secs

     total energy              =   -4441.65806178 Ry
     estimated scf accuracy    <       0.00521297 Ry

     iteration # 26     ecut=    60.00 Ry     beta= 0.15
     Davidson diagonalization with overlap

---- Real-time Memory Report at c_bands before calling an iterative solver
             0 MiB given to the printing process from OS
             0 MiB allocation reported by mallinfo(arena+hblkhd)
         22622 MiB available memory on the node where the printing process lives
------------------
     ethr =  1.21E-06,  avg # of iterations =  9.5

     negative rho (up, down):  7.981E-01 0.000E+00

     total cpu time spent up to now is      477.7 secs

     total energy              =   -4441.65827226 Ry
     estimated scf accuracy    <       0.00190088 Ry

     iteration # 27     ecut=    60.00 Ry     beta= 0.15
     Davidson diagonalization with overlap

---- Real-time Memory Report at c_bands before calling an iterative solver
             0 MiB given to the printing process from OS
             0 MiB allocation reported by mallinfo(arena+hblkhd)
         22608 MiB available memory on the node where the printing process lives
------------------
     ethr =  4.41E-07,  avg # of iterations = 11.0

     negative rho (up, down):  7.971E-01 0.000E+00

     total cpu time spent up to now is      500.8 secs

     total energy              =   -4441.65830698 Ry
     estimated scf accuracy    <       0.00073086 Ry

     iteration # 28     ecut=    60.00 Ry     beta= 0.15
     Davidson diagonalization with overlap

---- Real-time Memory Report at c_bands before calling an iterative solver
             0 MiB given to the printing process from OS
             0 MiB allocation reported by mallinfo(arena+hblkhd)
         22526 MiB available memory on the node where the printing process lives
------------------
     ethr =  1.70E-07,  avg # of iterations =  6.8

     negative rho (up, down):  7.960E-01 0.000E+00

     total cpu time spent up to now is      519.9 secs

     total energy              =   -4441.65831447 Ry
     estimated scf accuracy    <       0.00035953 Ry

     iteration # 29     ecut=    60.00 Ry     beta= 0.15
     Davidson diagonalization with overlap

---- Real-time Memory Report at c_bands before calling an iterative solver
             0 MiB given to the printing process from OS
             0 MiB allocation reported by mallinfo(arena+hblkhd)
         22542 MiB available memory on the node where the printing process lives
------------------
     ethr =  8.34E-08,  avg # of iterations =  2.1

     negative rho (up, down):  7.951E-01 0.000E+00

     total cpu time spent up to now is      536.7 secs

     total energy              =   -4441.65830664 Ry
     estimated scf accuracy    <       0.00019080 Ry

     iteration # 30     ecut=    60.00 Ry     beta= 0.15
     Davidson diagonalization with overlap

---- Real-time Memory Report at c_bands before calling an iterative solver
             0 MiB given to the printing process from OS
             0 MiB allocation reported by mallinfo(arena+hblkhd)
         22545 MiB available memory on the node where the printing process lives
------------------
     ethr =  4.43E-08,  avg # of iterations =  3.0

     negative rho (up, down):  7.940E-01 0.000E+00

     total cpu time spent up to now is      554.3 secs

     total energy              =   -4441.65831268 Ry
     estimated scf accuracy    <       0.00009562 Ry

     iteration # 31     ecut=    60.00 Ry     beta= 0.15
     Davidson diagonalization with overlap

---- Real-time Memory Report at c_bands before calling an iterative solver
             0 MiB given to the printing process from OS
             0 MiB allocation reported by mallinfo(arena+hblkhd)
         22559 MiB available memory on the node where the printing process lives
------------------
     ethr =  2.22E-08,  avg # of iterations =  2.1

     negative rho (up, down):  7.924E-01 0.000E+00

     total cpu time spent up to now is      571.3 secs

     total energy              =   -4441.65832048 Ry
     estimated scf accuracy    <       0.00005695 Ry

     iteration # 32     ecut=    60.00 Ry     beta= 0.15
     Davidson diagonalization with overlap

---- Real-time Memory Report at c_bands before calling an iterative solver
             0 MiB given to the printing process from OS
             0 MiB allocation reported by mallinfo(arena+hblkhd)
         22565 MiB available memory on the node where the printing process lives
------------------
     ethr =  1.32E-08,  avg # of iterations =  6.9

     negative rho (up, down):  7.921E-01 0.000E+00

     total cpu time spent up to now is      591.0 secs

     total energy              =   -4441.65832313 Ry
     estimated scf accuracy    <       0.00002796 Ry

     iteration # 33     ecut=    60.00 Ry     beta= 0.15
     Davidson diagonalization with overlap

---- Real-time Memory Report at c_bands before calling an iterative solver
             0 MiB given to the printing process from OS
             0 MiB allocation reported by mallinfo(arena+hblkhd)
         22572 MiB available memory on the node where the printing process lives
------------------
     ethr =  6.49E-09,  avg # of iterations =  4.1

     negative rho (up, down):  7.922E-01 0.000E+00

     total cpu time spent up to now is      609.7 secs

     total energy              =   -4441.65832171 Ry
     estimated scf accuracy    <       0.00001057 Ry

     iteration # 34     ecut=    60.00 Ry     beta= 0.15
     Davidson diagonalization with overlap

---- Real-time Memory Report at c_bands before calling an iterative solver
             0 MiB given to the printing process from OS
             0 MiB allocation reported by mallinfo(arena+hblkhd)
         22576 MiB available memory on the node where the printing process lives
------------------
     ethr =  2.45E-09,  avg # of iterations =  2.9

     negative rho (up, down):  7.924E-01 0.000E+00

     total cpu time spent up to now is      627.1 secs

     total energy              =   -4441.65832393 Ry
     estimated scf accuracy    <       0.00000625 Ry

     iteration # 35     ecut=    60.00 Ry     beta= 0.15
     Davidson diagonalization with overlap

---- Real-time Memory Report at c_bands before calling an iterative solver
             0 MiB given to the printing process from OS
             0 MiB allocation reported by mallinfo(arena+hblkhd)
         22600 MiB available memory on the node where the printing process lives
------------------
     ethr =  1.45E-09,  avg # of iterations =  2.3

     negative rho (up, down):  7.925E-01 0.000E+00

     total cpu time spent up to now is      644.2 secs

     total energy              =   -4441.65832523 Ry
     estimated scf accuracy    <       0.00000280 Ry

     iteration # 36     ecut=    60.00 Ry     beta= 0.15
     Davidson diagonalization with overlap

---- Real-time Memory Report at c_bands before calling an iterative solver
             0 MiB given to the printing process from OS
             0 MiB allocation reported by mallinfo(arena+hblkhd)
         22607 MiB available memory on the node where the printing process lives
------------------
     ethr =  6.50E-10,  avg # of iterations =  2.9

     negative rho (up, down):  7.925E-01 0.000E+00

     total cpu time spent up to now is      661.6 secs

     total energy              =   -4441.65832594 Ry
     estimated scf accuracy    <       0.00000165 Ry

     iteration # 37     ecut=    60.00 Ry     beta= 0.15
     Davidson diagonalization with overlap

---- Real-time Memory Report at c_bands before calling an iterative solver
             0 MiB given to the printing process from OS
             0 MiB allocation reported by mallinfo(arena+hblkhd)
         22604 MiB available memory on the node where the printing process lives
------------------
     ethr =  3.83E-10,  avg # of iterations =  3.1

     negative rho (up, down):  7.925E-01 0.000E+00

     total cpu time spent up to now is      679.3 secs

     total energy              =   -4441.65832642 Ry
     estimated scf accuracy    <       0.00000089 Ry

     iteration # 38     ecut=    60.00 Ry     beta= 0.15
     Davidson diagonalization with overlap

---- Real-time Memory Report at c_bands before calling an iterative solver
             0 MiB given to the printing process from OS
             0 MiB allocation reported by mallinfo(arena+hblkhd)
         22610 MiB available memory on the node where the printing process lives
------------------
     ethr =  2.08E-10,  avg # of iterations =  3.0

     negative rho (up, down):  7.924E-01 0.000E+00

     total cpu time spent up to now is      696.6 secs

     total energy              =   -4441.65832659 Ry
     estimated scf accuracy    <       0.00000067 Ry

     iteration # 39     ecut=    60.00 Ry     beta= 0.15
     Davidson diagonalization with overlap

---- Real-time Memory Report at c_bands before calling an iterative solver
             0 MiB given to the printing process from OS
             0 MiB allocation reported by mallinfo(arena+hblkhd)
         22613 MiB available memory on the node where the printing process lives
------------------
     ethr =  1.56E-10,  avg # of iterations =  2.9

     negative rho (up, down):  7.925E-01 0.000E+00

     total cpu time spent up to now is      713.8 secs

     total energy              =   -4441.65832661 Ry
     estimated scf accuracy    <       0.00000048 Ry

     iteration # 40     ecut=    60.00 Ry     beta= 0.15
     Davidson diagonalization with overlap

---- Real-time Memory Report at c_bands before calling an iterative solver
             0 MiB given to the printing process from OS
             0 MiB allocation reported by mallinfo(arena+hblkhd)
         22613 MiB available memory on the node where the printing process lives
------------------
     ethr =  1.11E-10,  avg # of iterations =  2.1

     negative rho (up, down):  7.924E-01 0.000E+00

     total cpu time spent up to now is      730.7 secs

     total energy              =   -4441.65832661 Ry
     estimated scf accuracy    <       0.00000034 Ry

     iteration # 41     ecut=    60.00 Ry     beta= 0.15
     Davidson diagonalization with overlap

---- Real-time Memory Report at c_bands before calling an iterative solver
             0 MiB given to the printing process from OS
             0 MiB allocation reported by mallinfo(arena+hblkhd)
         22612 MiB available memory on the node where the printing process lives
------------------
     ethr =  7.96E-11,  avg # of iterations =  2.1

     negative rho (up, down):  7.925E-01 0.000E+00

     total cpu time spent up to now is      747.6 secs

     total energy              =   -4441.65832659 Ry
     estimated scf accuracy    <       0.00000030 Ry

     iteration # 42     ecut=    60.00 Ry     beta= 0.15
     Davidson diagonalization with overlap

---- Real-time Memory Report at c_bands before calling an iterative solver
             0 MiB given to the printing process from OS
             0 MiB allocation reported by mallinfo(arena+hblkhd)
         22633 MiB available memory on the node where the printing process lives
------------------
     ethr =  6.93E-11,  avg # of iterations =  1.8

     negative rho (up, down):  7.925E-01 0.000E+00

     total cpu time spent up to now is      763.9 secs

     total energy              =   -4441.65832659 Ry
     estimated scf accuracy    <       0.00000017 Ry

     iteration # 43     ecut=    60.00 Ry     beta= 0.15
     Davidson diagonalization with overlap

---- Real-time Memory Report at c_bands before calling an iterative solver
             0 MiB given to the printing process from OS
             0 MiB allocation reported by mallinfo(arena+hblkhd)
         22634 MiB available memory on the node where the printing process lives
------------------
     ethr =  3.84E-11,  avg # of iterations =  2.2

     negative rho (up, down):  7.925E-01 0.000E+00

     total cpu time spent up to now is      780.8 secs

     total energy              =   -4441.65832660 Ry
     estimated scf accuracy    <       0.00000007 Ry

     iteration # 44     ecut=    60.00 Ry     beta= 0.15
     Davidson diagonalization with overlap

---- Real-time Memory Report at c_bands before calling an iterative solver
             0 MiB given to the printing process from OS
             0 MiB allocation reported by mallinfo(arena+hblkhd)
         22632 MiB available memory on the node where the printing process lives
------------------
     ethr =  1.59E-11,  avg # of iterations =  3.0

     negative rho (up, down):  7.925E-01 0.000E+00

     total cpu time spent up to now is      798.4 secs

     total energy              =   -4441.65832659 Ry
     estimated scf accuracy    <       0.00000005 Ry

     iteration # 45     ecut=    60.00 Ry     beta= 0.15
     Davidson diagonalization with overlap

---- Real-time Memory Report at c_bands before calling an iterative solver
             0 MiB given to the printing process from OS
             0 MiB allocation reported by mallinfo(arena+hblkhd)
         22628 MiB available memory on the node where the printing process lives
------------------
     ethr =  1.20E-11,  avg # of iterations =  3.3

     negative rho (up, down):  7.925E-01 0.000E+00

     total cpu time spent up to now is      815.9 secs

     total energy              =   -4441.65832659 Ry
     estimated scf accuracy    <       0.00000002 Ry

     iteration # 46     ecut=    60.00 Ry     beta= 0.15
     Davidson diagonalization with overlap

---- Real-time Memory Report at c_bands before calling an iterative solver
             0 MiB given to the printing process from OS
             0 MiB allocation reported by mallinfo(arena+hblkhd)
         22628 MiB available memory on the node where the printing process lives
------------------
     ethr =  4.80E-12,  avg # of iterations =  2.9

     negative rho (up, down):  7.925E-01 0.000E+00

     total cpu time spent up to now is      833.0 secs

     total energy              =   -4441.65832659 Ry
     estimated scf accuracy    <       0.00000001 Ry

     iteration # 47     ecut=    60.00 Ry     beta= 0.15
     Davidson diagonalization with overlap

---- Real-time Memory Report at c_bands before calling an iterative solver
             0 MiB given to the printing process from OS
             0 MiB allocation reported by mallinfo(arena+hblkhd)
         22637 MiB available memory on the node where the printing process lives
------------------
     ethr =  2.50E-12,  avg # of iterations =  1.3

     negative rho (up, down):  7.925E-01 0.000E+00

     total cpu time spent up to now is      848.3 secs

     End of self-consistent calculation

          k = 0.0000 0.0000 0.0000 ( 65197 PWs)   bands (ev):

   -92.6944 -92.6428 -92.5484 -92.5025 -92.4454 -92.4018 -92.3832 -92.2608
   -56.0479 -56.0298 -55.9057 -55.8951 -55.8887 -55.8819 -55.8456 -55.8176
   -55.8018 -55.8017 -55.7942 -55.7516 -55.7340 -55.6960 -55.6748 -55.6449
   -55.6381 -55.5890 -55.5879 -55.5867 -55.5782 -55.5353 -55.5137 -55.4271
   -31.2717 -31.2524 -31.1104 -31.0453 -31.0237 -30.9038 -30.8308 -30.7312
   -29.8414 -29.7985 -29.7722 -29.6639 -15.0747 -15.0300 -14.9495 -14.8191
   -14.6256 -14.5014 -14.2119 -14.1921 -14.1630 -14.1159 -14.0684 -14.0583
   -14.0504 -14.0291 -14.0113 -13.9664 -13.9496 -13.9235 -13.7711 -13.5921
   -13.5573 -13.5289 -13.4959 -13.4803 -13.4204 -13.3826 -13.3162 -13.2442
   -13.1135 -13.1032 -13.0936 -13.0687 -13.0503 -13.0354 -12.9956 -12.9866
   -12.9694 -12.9454 -12.9166 -12.8950 -12.8584 -12.8352 -12.8138 -12.7546
   -12.7406 -12.7282 -12.6678 -12.6356 -12.6126 -12.3361 -12.1905 -12.0125
   -11.9277 -11.8548 -11.7808 -11.7695 -11.7470 -11.7294 -11.6656 -11.6482
   -11.6138 -11.5844 -11.4727 -11.3930 -11.3893  -2.9345  -2.7026  -2.4724
    -2.3262  -2.2628  -2.1212  -1.8136  -1.7994  -1.7802  -1.6959  -1.6760
    -1.6074  -1.5909  -1.5494  -1.5078  -1.3248  -1.1166  -1.0994  -1.0651
    -0.9242  -0.9096  -0.8633  -0.8429  -0.7973  -0.7811  -0.7276  -0.6999
    -0.6229  -0.6153  -0.5400  -0.4072  -0.3957  -0.3661  -0.2854  -0.2591
    -0.2519  -0.1962  -0.1213  -0.0504  -0.0240   0.0048   0.1044   0.1344
     0.1906   0.2056   0.2331   0.4807   0.4958   0.6682   0.7342   0.8029
     0.8543   0.9363   0.9464   0.9608   1.0312   1.0575   1.0910   1.1503
     1.2806   1.3395   1.3613   1.3810   1.3996   1.4591   1.5282   1.6394
     1.6503   1.7152   1.7268   1.7707   1.7832   1.7968   1.8618   1.9157
     1.9203   1.9659   1.9923   2.0364   2.1670   2.2601   2.2949   2.3055
     2.4493   2.4638   2.4656   2.4926   2.5191   2.5408   2.6294   2.6653
     2.6904   2.7090   2.7241   2.8067   2.9134   2.9473   2.9591   2.9643
     3.0317   3.0363   3.0601   3.0676   3.0765   3.0875   3.0964   3.1098
     3.1165   3.1278   3.1359   3.1452   3.1636   3.1848   3.1895   3.2021
     3.2311   3.3438   3.4204   4.1163   4.4422   4.7738   4.8705   5.0628
     5.7897   5.9535   5.9926   6.0086   6.3208   6.3676   6.4858   6.4968
     6.7528   7.0086   7.1048   7.3243   7.5394   7.6209   7.6607   7.6763
     7.7111   7.8679   7.9455   8.0954   8.1185   8.2124   8.3761   8.4575
     8.7093   8.7963   8.8784

     occupation numbers 
     1.0000   1.0000   1.0000   1.0000   1.0000   1.0000   1.0000   1.0000
     1.0000   1.0000   1.0000   1.0000   1.0000   1.0000   1.0000   1.0000
     1.0000   1.0000   1.0000   1.0000   1.0000   1.0000   1.0000   1.0000
     1.0000   1.0000   1.0000   1.0000   1.0000   1.0000   1.0000   1.0000
     1.0000   1.0000   1.0000   1.0000   1.0000   1.0000   1.0000   1.0000
     1.0000   1.0000   1.0000   1.0000   1.0000   1.0000   1.0000   1.0000
     1.0000   1.0000   1.0000   1.0000   1.0000   1.0000   1.0000   1.0000
     1.0000   1.0000   1.0000   1.0000   1.0000   1.0000   1.0000   1.0000
     1.0000   1.0000   1.0000   1.0000   1.0000   1.0000   1.0000   1.0000
     1.0000   1.0000   1.0000   1.0000   1.0000   1.0000   1.0000   1.0000
     1.0000   1.0000   1.0000   1.0000   1.0000   1.0000   1.0000   1.0000
     1.0000   1.0000   1.0000   1.0000   1.0000   1.0000   1.0000   1.0000
     1.0000   1.0000   1.0000   1.0000   1.0000   1.0000   1.0000   1.0000
     1.0000   1.0000   1.0000   1.0000   1.0000   1.0000   1.0000   1.0000
     1.0000   1.0000   1.0000   1.0000   1.0000   1.0000   1.0000   1.0000
     1.0000   1.0000   1.0000   1.0000   1.0000   1.0000   1.0000   1.0000
     1.0000   1.0000   1.0000   1.0000   1.0000   1.0000   1.0000   1.0000
     1.0000   1.0000   1.0000   1.0000   1.0000   1.0000   1.0000   1.0000
     1.0000   1.0000   1.0000   1.0000   1.0000   1.0000   1.0000   1.0000
     1.0000   1.0000   1.0000   1.0000   1.0000   1.0000   0.9999   0.9999
     0.9999   0.9998   0.9998   0.9998   0.9997   0.9996   0.9996   0.9994
     0.9988   0.9985   0.9983   0.9981   0.9980   0.9973   0.9963   0.9941
     0.9938   0.9919   0.9915   0.9898   0.9893   0.9887   0.9856   0.9823
     0.9820   0.9788   0.9768   0.9729   0.9583   0.9445   0.9384   0.9365
     0.9053   0.9016   0.9012   0.8940   0.8866   0.8803   0.8520   0.8394
     0.8301   0.8230   0.8171   0.7828   0.7335   0.7167   0.7107   0.7081
     0.6728   0.6703   0.6575   0.6534   0.6485   0.6424   0.6374   0.6299
     0.6262   0.6198   0.6152   0.6099   0.5994   0.5872   0.5845   0.5772
     0.5603   0.4937   0.4485   0.1225   0.0498   0.0162   0.0112   0.0051
     0.0001   0.0000   0.0000   0.0000   0.0000   0.0000   0.0000   0.0000
     0.0000   0.0000   0.0000   0.0000   0.0000   0.0000   0.0000   0.0000
     0.0000   0.0000   0.0000   0.0000   0.0000   0.0000   0.0000   0.0000
     0.0000   0.0000   0.0000

          k = 0.0000 0.2500 0.0000 ( 65257 PWs)   bands (ev):

   -92.6944 -92.6428 -92.5484 -92.5025 -92.4454 -92.4018 -92.3832 -92.2608
   -56.0479 -56.0298 -55.9057 -55.8951 -55.8887 -55.8819 -55.8456 -55.8176
   -55.8018 -55.8017 -55.7942 -55.7516 -55.7340 -55.6960 -55.6748 -55.6449
   -55.6381 -55.5890 -55.5879 -55.5867 -55.5782 -55.5353 -55.5137 -55.4271
   -31.2715 -31.2522 -31.1107 -31.0451 -31.0239 -30.9036 -30.8310 -30.7314
   -29.8408 -29.7982 -29.7728 -29.6642 -15.0381 -15.0039 -14.9243 -14.7897
   -14.6671 -14.4914 -14.3576 -14.1782 -14.1427 -14.1221 -14.0917 -14.0344
   -14.0249 -14.0131 -13.9944 -13.9561 -13.9307 -13.8423 -13.8023 -13.6410
   -13.6142 -13.5704 -13.5341 -13.4879 -13.4427 -13.3778 -13.3362 -13.3014
   -13.2201 -13.1557 -13.1411 -13.1027 -13.0862 -13.0245 -12.9782 -12.9540
   -12.9277 -12.8967 -12.8706 -12.8593 -12.8365 -12.8133 -12.7910 -12.7318
   -12.6800 -12.6676 -12.6392 -12.5695 -12.4901 -12.3974 -12.2417 -12.0676
   -11.9929 -11.8203 -11.7776 -11.7495 -11.7213 -11.7049 -11.6575 -11.6461
   -11.6234 -11.5896 -11.4870 -11.4345 -11.4241  -2.7991  -2.5783  -2.4401
    -2.2586  -2.2148  -2.0513  -1.8318  -1.7475  -1.7344  -1.6769  -1.5721
    -1.5580  -1.5257  -1.4973  -1.4537  -1.2560  -1.1361  -1.1154  -1.1008
    -1.0389  -1.0291  -0.9246  -0.8949  -0.8352  -0.8100  -0.7708  -0.7075
    -0.6799  -0.6475  -0.6138  -0.5979  -0.5652  -0.4911  -0.4420  -0.3762
    -0.2563  -0.2420  -0.2002  -0.0766  -0.0158   0.0125   0.0741   0.1184
     0.1427   0.1722   0.2379   0.5316   0.6170   0.6589   0.7366   0.7815
     0.8106   0.9150   0.9350   1.0388   1.0585   1.0849   1.1968   1.2929
     1.3168   1.3425   1.3558   1.3810   1.4441   1.4694   1.4995   1.5445
     1.5819   1.6139   1.7039   1.7324   1.7710   1.8169   1.8833   1.9266
     1.9422   1.9632   1.9820   2.0899   2.2109   2.2776   2.2910   2.3663
     2.4124   2.4448   2.4518   2.4796   2.4952   2.5246   2.5612   2.6439
     2.6854   2.7015   2.8718   2.8939   2.9283   2.9503   2.9651   2.9738
     2.9819   2.9895   3.0198   3.0214   3.0394   3.0434   3.0543   3.0737
     3.0851   3.0930   3.1143   3.1256   3.1303   3.1660   3.1824   3.2428
     3.6221   3.6446   3.8842   4.3088   4.4349   4.7231   5.0259   5.0776
     5.6543   5.8087   5.9474   6.0002   6.0912   6.1110   6.1907   6.6037
     6.8762   7.0910   7.1153   7.3361   7.4929   7.5062   7.6489   7.6850
     7.8558   7.9529   8.0450   8.2047   8.2801   8.3856   8.4031   8.4177
     8.5413   8.8176   8.9381

     occupation numbers 
     1.0000   1.0000   1.0000   1.0000   1.0000   1.0000   1.0000   1.0000
     1.0000   1.0000   1.0000   1.0000   1.0000   1.0000   1.0000   1.0000
     1.0000   1.0000   1.0000   1.0000   1.0000   1.0000   1.0000   1.0000
     1.0000   1.0000   1.0000   1.0000   1.0000   1.0000   1.0000   1.0000
     1.0000   1.0000   1.0000   1.0000   1.0000   1.0000   1.0000   1.0000
     1.0000   1.0000   1.0000   1.0000   1.0000   1.0000   1.0000   1.0000
     1.0000   1.0000   1.0000   1.0000   1.0000   1.0000   1.0000   1.0000
     1.0000   1.0000   1.0000   1.0000   1.0000   1.0000   1.0000   1.0000
     1.0000   1.0000   1.0000   1.0000   1.0000   1.0000   1.0000   1.0000
     1.0000   1.0000   1.0000   1.0000   1.0000   1.0000   1.0000   1.0000
     1.0000   1.0000   1.0000   1.0000   1.0000   1.0000   1.0000   1.0000
     1.0000   1.0000   1.0000   1.0000   1.0000   1.0000   1.0000   1.0000
     1.0000   1.0000   1.0000   1.0000   1.0000   1.0000   1.0000   1.0000
     1.0000   1.0000   1.0000   1.0000   1.0000   1.0000   1.0000   1.0000
     1.0000   1.0000   1.0000   1.0000   1.0000   1.0000   1.0000   1.0000
     1.0000   1.0000   1.0000   1.0000   1.0000   1.0000   1.0000   1.0000
     1.0000   1.0000   1.0000   1.0000   1.0000   1.0000   1.0000   1.0000
     1.0000   1.0000   1.0000   1.0000   1.0000   1.0000   1.0000   1.0000
     1.0000   1.0000   1.0000   1.0000   1.0000   1.0000   1.0000   1.0000
     1.0000   1.0000   1.0000   1.0000   1.0000   1.0000   0.9999   0.9999
     0.9999   0.9998   0.9998   0.9997   0.9996   0.9996   0.9992   0.9988
     0.9986   0.9984   0.9983   0.9981   0.9975   0.9972   0.9968   0.9960
     0.9953   0.9947   0.9922   0.9913   0.9898   0.9878   0.9843   0.9816
     0.9806   0.9790   0.9776   0.9676   0.9522   0.9415   0.9391   0.9245
     0.9142   0.9064   0.9047   0.8975   0.8933   0.8851   0.8742   0.8470
     0.8320   0.8259   0.7534   0.7429   0.7261   0.7152   0.7077   0.7032
     0.6991   0.6951   0.6792   0.6783   0.6687   0.6665   0.6606   0.6500
     0.6437   0.6394   0.6274   0.6211   0.6184   0.5981   0.5886   0.5534
     0.3340   0.3219   0.2066   0.0737   0.0509   0.0195   0.0060   0.0048
     0.0003   0.0001   0.0001   0.0000   0.0000   0.0000   0.0000   0.0000
     0.0000   0.0000   0.0000   0.0000   0.0000   0.0000   0.0000   0.0000
     0.0000   0.0000   0.0000   0.0000   0.0000   0.0000   0.0000   0.0000
     0.0000   0.0000   0.0000

          k = 0.0000-0.5000 0.0000 ( 65180 PWs)   bands (ev):

   -92.6944 -92.6428 -92.5484 -92.5025 -92.4454 -92.4018 -92.3832 -92.2608
   -56.0479 -56.0298 -55.9057 -55.8951 -55.8887 -55.8819 -55.8456 -55.8176
   -55.8018 -55.8017 -55.7942 -55.7516 -55.7340 -55.6960 -55.6748 -55.6449
   -55.6381 -55.5890 -55.5879 -55.5867 -55.5782 -55.5353 -55.5137 -55.4271
   -31.2713 -31.2521 -31.1109 -31.0450 -31.0240 -30.9034 -30.8311 -30.7316
   -29.8402 -29.7978 -29.7734 -29.6645 -15.0025 -14.9547 -14.8996 -14.7717
   -14.6866 -14.5529 -14.3922 -14.2772 -14.1509 -14.0740 -14.0339 -14.0274
   -13.9784 -13.9633 -13.9540 -13.9134 -13.8918 -13.8679 -13.8367 -13.7905
   -13.7436 -13.5762 -13.5181 -13.4929 -13.4502 -13.3532 -13.3475 -13.3018
   -13.2771 -13.2574 -13.2117 -13.1036 -13.0874 -13.0158 -12.9621 -12.9506
   -12.9227 -12.9075 -12.8757 -12.8376 -12.8080 -12.7221 -12.6994 -12.6772
   -12.6550 -12.6454 -12.6364 -12.5083 -12.4330 -12.3168 -12.2889 -12.1606
   -12.1116 -11.7746 -11.7718 -11.7444 -11.7071 -11.6727 -11.6616 -11.6197
   -11.6155 -11.5714 -11.5085 -11.4950 -11.4812  -2.5838  -2.5260  -2.3749
    -2.3033  -2.0205  -1.9383  -1.8097  -1.6736  -1.6353  -1.6158  -1.5389
    -1.5066  -1.4238  -1.3893  -1.3106  -1.2720  -1.2341  -1.2067  -1.1479
    -1.1184  -1.1070  -1.0592  -1.0276  -0.9944  -0.9620  -0.8508  -0.8072
    -0.7705  -0.7676  -0.6821  -0.6533  -0.6287  -0.5819  -0.4959  -0.4179
    -0.3311  -0.3054  -0.1729  -0.1613  -0.0234   0.0145   0.0572   0.0878
     0.2171   0.3155   0.3990   0.4685   0.4796   0.6051   0.6800   0.7466
     0.8938   0.9870   1.0208   1.0624   1.0722   1.1013   1.1223   1.1580
     1.1742   1.1989   1.2993   1.3562   1.3829   1.4051   1.6812   1.7176
     1.7368   1.8212   1.8374   1.8831   1.9051   1.9218   1.9417   1.9642
     1.9785   2.0104   2.0373   2.0678   2.0742   2.1047   2.1585   2.2509
     2.2920   2.4476   2.4619   2.4705   2.6099   2.6253   2.6343   2.6783
     2.6842   2.6916   2.7407   2.7522   2.8061   2.8280   2.9046   2.9173
     2.9907   2.9910   3.0176   3.0202   3.0365   3.0398   3.0436   3.0504
     3.0545   3.0675   3.0845   3.0865   3.1516   3.1549   3.1720   3.2297
     4.1279   4.1544   4.2272   4.2645   4.7372   4.9263   5.0311   5.1746
     5.4198   5.4695   5.5917   5.7312   6.0334   6.0540   6.3344   6.4911
     6.8576   6.9600   7.2299   7.3164   7.4001   7.4557   7.7590   7.7966
     7.9145   8.0755   8.1344   8.2621   8.3566   8.4593   8.4949   8.6761
     8.8177   8.8620   8.8762

     occupation numbers 
     1.0000   1.0000   1.0000   1.0000   1.0000   1.0000   1.0000   1.0000
     1.0000   1.0000   1.0000   1.0000   1.0000   1.0000   1.0000   1.0000
     1.0000   1.0000   1.0000   1.0000   1.0000   1.0000   1.0000   1.0000
     1.0000   1.0000   1.0000   1.0000   1.0000   1.0000   1.0000   1.0000
     1.0000   1.0000   1.0000   1.0000   1.0000   1.0000   1.0000   1.0000
     1.0000   1.0000   1.0000   1.0000   1.0000   1.0000   1.0000   1.0000
     1.0000   1.0000   1.0000   1.0000   1.0000   1.0000   1.0000   1.0000
     1.0000   1.0000   1.0000   1.0000   1.0000   1.0000   1.0000   1.0000
     1.0000   1.0000   1.0000   1.0000   1.0000   1.0000   1.0000   1.0000
     1.0000   1.0000   1.0000   1.0000   1.0000   1.0000   1.0000   1.0000
     1.0000   1.0000   1.0000   1.0000   1.0000   1.0000   1.0000   1.0000
     1.0000   1.0000   1.0000   1.0000   1.0000   1.0000   1.0000   1.0000
     1.0000   1.0000   1.0000   1.0000   1.0000   1.0000   1.0000   1.0000
     1.0000   1.0000   1.0000   1.0000   1.0000   1.0000   1.0000   1.0000
     1.0000   1.0000   1.0000   1.0000   1.0000   1.0000   1.0000   1.0000
     1.0000   1.0000   1.0000   1.0000   1.0000   1.0000   1.0000   1.0000
     1.0000   1.0000   1.0000   1.0000   1.0000   1.0000   1.0000   1.0000
     1.0000   1.0000   1.0000   1.0000   1.0000   1.0000   1.0000   1.0000
     1.0000   1.0000   1.0000   1.0000   1.0000   1.0000   1.0000   1.0000
     1.0000   1.0000   1.0000   1.0000   1.0000   1.0000   1.0000   0.9999
     0.9999   0.9998   0.9997   0.9996   0.9996   0.9995   0.9995   0.9994
     0.9993   0.9992   0.9987   0.9983   0.9981   0.9979   0.9929   0.9918
     0.9911   0.9876   0.9868   0.9844   0.9830   0.9820   0.9806   0.9790
     0.9779   0.9753   0.9728   0.9699   0.9692   0.9659   0.9594   0.9460
     0.9390   0.9058   0.9021   0.8999   0.8586   0.8534   0.8503   0.8346
     0.8324   0.8297   0.8105   0.8059   0.7831   0.7734   0.7378   0.7316
     0.6945   0.6943   0.6804   0.6789   0.6703   0.6684   0.6664   0.6627
     0.6605   0.6534   0.6441   0.6430   0.6063   0.6044   0.5946   0.5611
     0.1190   0.1114   0.0922   0.0834   0.0185   0.0090   0.0058   0.0031
     0.0010   0.0008   0.0004   0.0002   0.0000   0.0000   0.0000   0.0000
     0.0000   0.0000   0.0000   0.0000   0.0000   0.0000   0.0000   0.0000
     0.0000   0.0000   0.0000   0.0000   0.0000   0.0000   0.0000   0.0000
     0.0000   0.0000   0.0000

          k = 0.2500 0.2500 0.0000 ( 65198 PWs)   bands (ev):

   -92.6944 -92.6428 -92.5484 -92.5025 -92.4454 -92.4018 -92.3832 -92.2608
   -56.0479 -56.0298 -55.9057 -55.8951 -55.8887 -55.8819 -55.8456 -55.8176
   -55.8018 -55.8017 -55.7942 -55.7516 -55.7340 -55.6960 -55.6748 -55.6449
   -55.6381 -55.5890 -55.5879 -55.5867 -55.5782 -55.5353 -55.5137 -55.4271
   -31.2698 -31.2540 -31.1103 -31.0449 -31.0243 -30.9038 -30.8307 -30.7317
   -29.8398 -29.7992 -29.7724 -29.6646 -15.0093 -14.9695 -14.8961 -14.7792
   -14.6592 -14.5326 -14.4631 -14.2550 -14.1014 -14.0883 -14.0511 -14.0227
   -13.9976 -13.9722 -13.9542 -13.9378 -13.8959 -13.8326 -13.8162 -13.6554
   -13.6412 -13.6109 -13.5933 -13.5382 -13.5028 -13.4204 -13.3936 -13.2821
   -13.2508 -13.2211 -13.1360 -13.0954 -13.0444 -13.0125 -12.9919 -12.9639
   -12.9403 -12.9100 -12.8686 -12.8307 -12.7774 -12.7413 -12.7363 -12.7198
   -12.7075 -12.6680 -12.6633 -12.4879 -12.4459 -12.3733 -12.2709 -12.1010
   -12.0394 -11.7926 -11.7611 -11.7501 -11.7427 -11.6808 -11.6455 -11.6391
   -11.6036 -11.5955 -11.5037 -11.4627 -11.4456  -2.6607  -2.4525  -2.3338
    -2.2404  -2.1193  -2.0548  -1.8565  -1.7122  -1.6932  -1.6638  -1.5671
    -1.5359  -1.4407  -1.4131  -1.3631  -1.2331  -1.1838  -1.1175  -1.1020
    -1.0654  -1.0203  -0.9977  -0.9737  -0.9301  -0.9159  -0.8249  -0.7740
    -0.7073  -0.6594  -0.6270  -0.5807  -0.5652  -0.5026  -0.4530  -0.3954
    -0.3624  -0.2762  -0.2184  -0.1951  -0.1546  -0.1006   0.0056   0.0120
     0.0366   0.1256   0.1544   0.4184   0.5709   0.6021   0.6676   0.7143
     0.7697   0.8076   0.8802   0.9110   1.1821   1.2482   1.3223   1.3486
     1.3973   1.4261   1.4623   1.5007   1.5175   1.5460   1.5943   1.5990
     1.6133   1.6553   1.6929   1.7357   1.8094   1.8379   1.8492   1.8890
     1.9213   1.9682   1.9928   2.1261   2.1886   2.2242   2.2422   2.3069
     2.3752   2.4028   2.4365   2.4500   2.4645   2.4771   2.5019   2.5867
     2.6264   2.7141   2.8834   2.9003   2.9063   2.9234   2.9391   2.9509
     2.9634   2.9695   2.9804   2.9935   3.0057   3.0240   3.0306   3.0423
     3.0641   3.0762   3.0861   3.1171   3.4175   3.5105   3.5537   3.6268
     3.6593   3.8630   3.9608   4.3246   4.5169   4.7236   4.9999   5.1719
     5.6599   5.7098   5.7731   5.8442   5.9032   6.1102   6.1618   6.2218
     6.9040   6.9576   7.1644   7.2669   7.5568   7.6125   7.7195   7.8608
     7.9029   8.0413   8.1759   8.2278   8.3198   8.3590   8.4523   8.4851
     8.5707   8.7022   8.9044

     occupation numbers 
     1.0000   1.0000   1.0000   1.0000   1.0000   1.0000   1.0000   1.0000
     1.0000   1.0000   1.0000   1.0000   1.0000   1.0000   1.0000   1.0000
     1.0000   1.0000   1.0000   1.0000   1.0000   1.0000   1.0000   1.0000
     1.0000   1.0000   1.0000   1.0000   1.0000   1.0000   1.0000   1.0000
     1.0000   1.0000   1.0000   1.0000   1.0000   1.0000   1.0000   1.0000
     1.0000   1.0000   1.0000   1.0000   1.0000   1.0000   1.0000   1.0000
     1.0000   1.0000   1.0000   1.0000   1.0000   1.0000   1.0000   1.0000
     1.0000   1.0000   1.0000   1.0000   1.0000   1.0000   1.0000   1.0000
     1.0000   1.0000   1.0000   1.0000   1.0000   1.0000   1.0000   1.0000
     1.0000   1.0000   1.0000   1.0000   1.0000   1.0000   1.0000   1.0000
     1.0000   1.0000   1.0000   1.0000   1.0000   1.0000   1.0000   1.0000
     1.0000   1.0000   1.0000   1.0000   1.0000   1.0000   1.0000   1.0000
     1.0000   1.0000   1.0000   1.0000   1.0000   1.0000   1.0000   1.0000
     1.0000   1.0000   1.0000   1.0000   1.0000   1.0000   1.0000   1.0000
     1.0000   1.0000   1.0000   1.0000   1.0000   1.0000   1.0000   1.0000
     1.0000   1.0000   1.0000   1.0000   1.0000   1.0000   1.0000   1.0000
     1.0000   1.0000   1.0000   1.0000   1.0000   1.0000   1.0000   1.0000
     1.0000   1.0000   1.0000   1.0000   1.0000   1.0000   1.0000   1.0000
     1.0000   1.0000   1.0000   1.0000   1.0000   1.0000   1.0000   1.0000
     1.0000   1.0000   1.0000   1.0000   1.0000   1.0000   1.0000   0.9999
     0.9999   0.9999   0.9999   0.9998   0.9993   0.9990   0.9986   0.9984
     0.9980   0.9977   0.9973   0.9967   0.9965   0.9960   0.9951   0.9950
     0.9947   0.9936   0.9926   0.9912   0.9882   0.9868   0.9862   0.9840
     0.9820   0.9787   0.9767   0.9635   0.9554   0.9502   0.9474   0.9362
     0.9226   0.9164   0.9085   0.9052   0.9015   0.8982   0.8915   0.8662
     0.8530   0.8210   0.7479   0.7398   0.7369   0.7286   0.7208   0.7149
     0.7086   0.7054   0.6998   0.6930   0.6866   0.6769   0.6734   0.6671
     0.6553   0.6486   0.6431   0.6259   0.4502   0.3962   0.3717   0.3314
     0.3141   0.2158   0.1757   0.0705   0.0394   0.0195   0.0067   0.0032
     0.0003   0.0002   0.0001   0.0001   0.0001   0.0000   0.0000   0.0000
     0.0000   0.0000   0.0000   0.0000   0.0000   0.0000   0.0000   0.0000
     0.0000   0.0000   0.0000   0.0000   0.0000   0.0000   0.0000   0.0000
     0.0000   0.0000   0.0000

          k = 0.2500-0.5000 0.0000 ( 65138 PWs)   bands (ev):

   -92.6944 -92.6428 -92.5484 -92.5025 -92.4454 -92.4018 -92.3832 -92.2608
   -56.0479 -56.0298 -55.9057 -55.8951 -55.8887 -55.8819 -55.8456 -55.8176
   -55.8018 -55.8017 -55.7942 -55.7516 -55.7340 -55.6960 -55.6748 -55.6449
   -55.6381 -55.5890 -55.5879 -55.5867 -55.5782 -55.5353 -55.5137 -55.4271
   -31.2696 -31.2538 -31.1105 -31.0448 -31.0244 -30.9036 -30.8308 -30.7319
   -29.8392 -29.7988 -29.7730 -29.6649 -14.9719 -14.9279 -14.8568 -14.7423
   -14.7091 -14.5932 -14.4960 -14.3723 -14.0659 -14.0105 -13.9862 -13.9624
   -13.9535 -13.9464 -13.9353 -13.8972 -13.8799 -13.8498 -13.8132 -13.7859
   -13.7305 -13.6587 -13.6109 -13.5532 -13.5319 -13.4619 -13.3921 -13.3414
   -13.3122 -13.2008 -13.1359 -13.1145 -13.0286 -12.9839 -12.9768 -12.9670
   -12.9371 -12.9054 -12.8635 -12.8472 -12.7885 -12.7327 -12.6991 -12.6837
   -12.6672 -12.6485 -12.6171 -12.5149 -12.3965 -12.3143 -12.2497 -12.1527
   -12.1194 -11.7682 -11.7562 -11.7452 -11.7179 -11.6868 -11.6579 -11.6172
   -11.5895 -11.5676 -11.5217 -11.4960 -11.4853  -2.4417  -2.3778  -2.2487
    -2.1720  -2.0409  -1.9584  -1.8341  -1.6849  -1.6306  -1.6081  -1.5462
    -1.5332  -1.4344  -1.3687  -1.2838  -1.2334  -1.2243  -1.1619  -1.1213
    -1.1081  -1.0844  -1.0354  -0.9991  -0.9635  -0.9250  -0.9103  -0.8683
    -0.8387  -0.7957  -0.7649  -0.6987  -0.5961  -0.5583  -0.4782  -0.4102
    -0.3598  -0.3211  -0.3014  -0.2295  -0.0830  -0.0594   0.0275   0.0596
     0.0687   0.1124   0.1603   0.1870   0.2300   0.2856   0.5785   0.6906
     0.7212   0.7732   1.0532   1.0666   1.1548   1.1836   1.3452   1.3794
     1.4216   1.4483   1.4579   1.4799   1.5423   1.5905   1.6252   1.6968
     1.8153   1.8395   1.8588   1.8659   1.9067   1.9156   1.9369   1.9748
     1.9830   2.0020   2.0237   2.0462   2.0682   2.1007   2.1592   2.2048
     2.2860   2.4141   2.4625   2.4661   2.5625   2.5781   2.5961   2.6287
     2.6536   2.6803   2.6997   2.7138   2.7383   2.8332   2.8837   2.9026
     2.9054   2.9195   2.9401   2.9534   2.9735   2.9806   3.0150   3.0239
     3.0400   3.0473   3.0557   3.0667   3.5819   3.6113   3.7494   3.8093
     4.1374   4.1934   4.2243   4.3264   4.7578   4.9461   5.0673   5.1479
     5.3113   5.4382   5.6118   5.6441   5.7756   5.7981   6.3990   6.4408
     6.4960   6.6188   7.3036   7.3958   7.5701   7.7093   7.7723   7.8426
     7.8904   8.0471   8.3629   8.4080   8.4676   8.5444   8.5560   8.5616
     8.7123   8.7342   8.7810

     occupation numbers 
     1.0000   1.0000   1.0000   1.0000   1.0000   1.0000   1.0000   1.0000
     1.0000   1.0000   1.0000   1.0000   1.0000   1.0000   1.0000   1.0000
     1.0000   1.0000   1.0000   1.0000   1.0000   1.0000   1.0000   1.0000
     1.0000   1.0000   1.0000   1.0000   1.0000   1.0000   1.0000   1.0000
     1.0000   1.0000   1.0000   1.0000   1.0000   1.0000   1.0000   1.0000
     1.0000   1.0000   1.0000   1.0000   1.0000   1.0000   1.0000   1.0000
     1.0000   1.0000   1.0000   1.0000   1.0000   1.0000   1.0000   1.0000
     1.0000   1.0000   1.0000   1.0000   1.0000   1.0000   1.0000   1.0000
     1.0000   1.0000   1.0000   1.0000   1.0000   1.0000   1.0000   1.0000
     1.0000   1.0000   1.0000   1.0000   1.0000   1.0000   1.0000   1.0000
     1.0000   1.0000   1.0000   1.0000   1.0000   1.0000   1.0000   1.0000
     1.0000   1.0000   1.0000   1.0000   1.0000   1.0000   1.0000   1.0000
     1.0000   1.0000   1.0000   1.0000   1.0000   1.0000   1.0000   1.0000
     1.0000   1.0000   1.0000   1.0000   1.0000   1.0000   1.0000   1.0000
     1.0000   1.0000   1.0000   1.0000   1.0000   1.0000   1.0000   1.0000
     1.0000   1.0000   1.0000   1.0000   1.0000   1.0000   1.0000   1.0000
     1.0000   1.0000   1.0000   1.0000   1.0000   1.0000   1.0000   1.0000
     1.0000   1.0000   1.0000   1.0000   1.0000   1.0000   1.0000   1.0000
     1.0000   1.0000   1.0000   1.0000   1.0000   1.0000   1.0000   1.0000
     1.0000   1.0000   1.0000   1.0000   1.0000   1.0000   1.0000   1.0000
     0.9999   0.9999   0.9996   0.9996   0.9994   0.9993   0.9984   0.9981
     0.9977   0.9974   0.9973   0.9970   0.9961   0.9952   0.9944   0.9925
     0.9879   0.9867   0.9857   0.9853   0.9829   0.9824   0.9809   0.9782
     0.9775   0.9760   0.9741   0.9720   0.9698   0.9664   0.9594   0.9531
     0.9400   0.9138   0.9020   0.9010   0.8738   0.8689   0.8631   0.8522
     0.8436   0.8339   0.8266   0.8212   0.8115   0.7711   0.7478   0.7387
     0.7374   0.7305   0.7203   0.7136   0.7034   0.6997   0.6817   0.6770
     0.6683   0.6644   0.6599   0.6538   0.3560   0.3398   0.2683   0.2398
     0.1162   0.1008   0.0929   0.0701   0.0172   0.0083   0.0050   0.0035
     0.0017   0.0009   0.0004   0.0003   0.0001   0.0001   0.0000   0.0000
     0.0000   0.0000   0.0000   0.0000   0.0000   0.0000   0.0000   0.0000
     0.0000   0.0000   0.0000   0.0000   0.0000   0.0000   0.0000   0.0000
     0.0000   0.0000   0.0000

          k =-0.5000-0.5000 0.0000 ( 65132 PWs)   bands (ev):

   -92.6944 -92.6428 -92.5484 -92.5025 -92.4454 -92.4018 -92.3832 -92.2608
   -56.0479 -56.0298 -55.9057 -55.8951 -55.8887 -55.8819 -55.8456 -55.8176
   -55.8018 -55.8017 -55.7942 -55.7516 -55.7340 -55.6960 -55.6748 -55.6449
   -55.6381 -55.5890 -55.5879 -55.5867 -55.5782 -55.5353 -55.5137 -55.4271
   -31.2674 -31.2560 -31.1101 -31.0446 -31.0248 -30.9039 -30.8305 -30.7322
   -29.8382 -29.7999 -29.7726 -29.6654 -14.9255 -14.9007 -14.7826 -14.7696
   -14.6709 -14.6409 -14.6006 -14.4704 -13.9765 -13.9633 -13.9536 -13.9315
   -13.9120 -13.8941 -13.8763 -13.8539 -13.8424 -13.8210 -13.8190 -13.8014
   -13.7251 -13.7199 -13.6798 -13.6558 -13.6429 -13.5519 -13.4502 -13.3763
   -13.3582 -13.1519 -13.1114 -13.0429 -13.0190 -12.9831 -12.9779 -12.9683
   -12.9508 -12.9447 -12.8490 -12.7965 -12.7810 -12.7483 -12.7420 -12.7012
   -12.6939 -12.5985 -12.5909 -12.5311 -12.3660 -12.3107 -12.2093 -12.1440
   -12.1328 -11.7648 -11.7523 -11.7346 -11.7177 -11.6829 -11.6656 -11.6299
   -11.5698 -11.5497 -11.5443 -11.4938 -11.4912  -2.2171  -2.1416  -2.1333
    -2.0624  -2.0229  -1.9442  -1.8761  -1.7510  -1.6353  -1.6053  -1.5654
    -1.5084  -1.4365  -1.4209  -1.3508  -1.3087  -1.1913  -1.1633  -1.1139
    -1.1089  -1.0857  -1.0211  -0.9729  -0.9543  -0.9431  -0.8895  -0.8461
    -0.8279  -0.7169  -0.6601  -0.6135  -0.5620  -0.5366  -0.5240  -0.4883
    -0.4446  -0.4095  -0.3998  -0.3156  -0.2372  -0.2030  -0.1712  -0.1027
    -0.0332  -0.0263   0.0380   0.0546   0.0608   0.0685   0.5371   0.6526
     0.6554   0.6907   1.0803   1.0945   1.1236   1.1566   1.4304   1.4498
     1.4569   1.4926   1.6250   1.7182   1.7467   1.7830   1.8212   1.8273
     1.8384   1.8700   1.8862   1.9043   1.9255   1.9519   1.9616   1.9871
     2.0148   2.0213   2.0350   2.0792   2.0989   2.1123   2.1514   2.1759
     2.2416   2.3058   2.4525   2.4627   2.5788   2.6073   2.6285   2.6446
     2.6588   2.6862   2.6927   2.7113   2.7211   2.7362   2.7578   2.7698
     2.8336   2.8370   2.8584   2.8722   2.8863   2.9036   2.9107   2.9212
     3.0200   3.0270   3.0524   3.0632   4.0006   4.0452   4.0728   4.1377
     4.3250   4.3973   4.4248   4.6660   4.7876   4.8704   4.9996   5.0882
     5.1147   5.2140   5.3071   5.4216   5.8583   5.8912   5.9648   6.0407
     6.6370   6.9056   6.9632   7.1006   7.8841   7.9406   7.9591   7.9751
     7.9852   8.0283   8.0909   8.2790   8.5597   8.5952   8.6114   8.6290
     8.6647   8.7672   8.8182

     occupation numbers 
     1.0000   1.0000   1.0000   1.0000   1.0000   1.0000   1.0000   1.0000
     1.0000   1.0000   1.0000   1.0000   1.0000   1.0000   1.0000   1.0000
     1.0000   1.0000   1.0000   1.0000   1.0000   1.0000   1.0000   1.0000
     1.0000   1.0000   1.0000   1.0000   1.0000   1.0000   1.0000   1.0000
     1.0000   1.0000   1.0000   1.0000   1.0000   1.0000   1.0000   1.0000
     1.0000   1.0000   1.0000   1.0000   1.0000   1.0000   1.0000   1.0000
     1.0000   1.0000   1.0000   1.0000   1.0000   1.0000   1.0000   1.0000
     1.0000   1.0000   1.0000   1.0000   1.0000   1.0000   1.0000   1.0000
     1.0000   1.0000   1.0000   1.0000   1.0000   1.0000   1.0000   1.0000
     1.0000   1.0000   1.0000   1.0000   1.0000   1.0000   1.0000   1.0000
     1.0000   1.0000   1.0000   1.0000   1.0000   1.0000   1.0000   1.0000
     1.0000   1.0000   1.0000   1.0000   1.0000   1.0000   1.0000   1.0000
     1.0000   1.0000   1.0000   1.0000   1.0000   1.0000   1.0000   1.0000
     1.0000   1.0000   1.0000   1.0000   1.0000   1.0000   1.0000   1.0000
     1.0000   1.0000   1.0000   1.0000   1.0000   1.0000   1.0000   1.0000
     1.0000   1.0000   1.0000   1.0000   1.0000   1.0000   1.0000   1.0000
     1.0000   1.0000   1.0000   1.0000   1.0000   1.0000   1.0000   1.0000
     1.0000   1.0000   1.0000   1.0000   1.0000   1.0000   1.0000   1.0000
     1.0000   1.0000   1.0000   1.0000   1.0000   1.0000   1.0000   1.0000
     1.0000   1.0000   1.0000   1.0000   1.0000   1.0000   1.0000   1.0000
     1.0000   1.0000   0.9996   0.9996   0.9995   0.9994   0.9976   0.9974
     0.9973   0.9969   0.9944   0.9918   0.9908   0.9893   0.9876   0.9873
     0.9868   0.9851   0.9842   0.9831   0.9817   0.9799   0.9792   0.9772
     0.9749   0.9743   0.9731   0.9687   0.9666   0.9651   0.9604   0.9571
     0.9475   0.9364   0.9045   0.9019   0.8687   0.8595   0.8523   0.8467
     0.8417   0.8317   0.8292   0.8221   0.8183   0.8123   0.8036   0.7986
     0.7709   0.7694   0.7596   0.7532   0.7465   0.7382   0.7348   0.7296
     0.6791   0.6754   0.6617   0.6558   0.1608   0.1452   0.1361   0.1161
     0.0704   0.0570   0.0525   0.0239   0.0154   0.0112   0.0067   0.0046
     0.0041   0.0026   0.0017   0.0010   0.0001   0.0001   0.0000   0.0000
     0.0000   0.0000   0.0000   0.0000   0.0000   0.0000   0.0000   0.0000
     0.0000   0.0000   0.0000   0.0000   0.0000   0.0000   0.0000   0.0000
     0.0000   0.0000   0.0000

          k = 0.2500 0.0000 0.0000 ( 65257 PWs)   bands (ev):

   -92.6944 -92.6428 -92.5484 -92.5025 -92.4454 -92.4018 -92.3832 -92.2608
   -56.0479 -56.0298 -55.9057 -55.8951 -55.8887 -55.8819 -55.8456 -55.8176
   -55.8018 -55.8017 -55.7942 -55.7516 -55.7340 -55.6960 -55.6748 -55.6449
   -55.6381 -55.5890 -55.5879 -55.5867 -55.5782 -55.5353 -55.5137 -55.4271
   -31.2700 -31.2541 -31.1101 -31.0451 -31.0241 -30.9040 -30.8305 -30.7315
   -29.8404 -29.7995 -29.7718 -29.6643 -15.0418 -14.9996 -14.9298 -14.7826
   -14.6749 -14.4812 -14.3472 -14.1688 -14.1514 -14.1211 -14.0892 -14.0657
   -14.0300 -14.0138 -13.9938 -13.9572 -13.9357 -13.8322 -13.8008 -13.6526
   -13.5814 -13.5735 -13.5102 -13.4852 -13.4708 -13.3872 -13.3386 -13.3066
   -13.2100 -13.1537 -13.1463 -13.0545 -13.0404 -13.0283 -13.0165 -12.9984
   -12.9638 -12.9275 -12.8812 -12.8137 -12.8079 -12.7935 -12.7658 -12.7447
   -12.6985 -12.6871 -12.6578 -12.5546 -12.4734 -12.3995 -12.2427 -12.0680
   -11.9947 -11.8197 -11.7675 -11.7506 -11.7374 -11.7106 -11.6598 -11.6367
   -11.6284 -11.5775 -11.4887 -11.4329 -11.4270  -2.7986  -2.5773  -2.4468
    -2.2747  -2.2108  -2.0414  -1.8330  -1.7567  -1.7127  -1.6777  -1.5751
[...]
     0.3554   0.3252   0.2029   0.0762   0.0461   0.0221   0.0059   0.0046
     0.0003   0.0001   0.0000   0.0000   0.0000   0.0000   0.0000   0.0000
     0.0000   0.0000   0.0000   0.0000   0.0000   0.0000   0.0000   0.0000
     0.0000   0.0000   0.0000   0.0000   0.0000   0.0000   0.0000   0.0000
     0.0000   0.0000   0.0000

          k =-0.5000 0.0000 0.0000 ( 65180 PWs)   bands (ev):

   -92.6944 -92.6428 -92.5484 -92.5025 -92.4454 -92.4018 -92.3832 -92.2608
   -56.0479 -56.0298 -55.9057 -55.8951 -55.8887 -55.8819 -55.8456 -55.8176
   -55.8018 -55.8017 -55.7942 -55.7516 -55.7340 -55.6960 -55.6748 -55.6449
   -55.6381 -55.5890 -55.5879 -55.5867 -55.5782 -55.5353 -55.5137 -55.4271
   -31.2678 -31.2563 -31.1097 -31.0448 -31.0245 -30.9042 -30.8302 -30.7318
   -29.8394 -29.8005 -29.7714 -29.6647 -15.0080 -14.9564 -14.8942 -14.7815
   -14.6811 -14.5376 -14.3922 -14.2422 -14.1258 -14.1119 -14.1018 -14.0392
   -13.9841 -13.9563 -13.9497 -13.9023 -13.8906 -13.8750 -13.8307 -13.8000
   -13.7019 -13.5484 -13.5185 -13.4881 -13.4804 -13.3690 -13.3569 -13.3068
   -13.2615 -13.2382 -13.2184 -13.0481 -13.0370 -13.0169 -13.0074 -12.9871
   -12.9454 -12.9328 -12.9123 -12.8025 -12.7830 -12.7446 -12.6870 -12.6779
   -12.6574 -12.6340 -12.6247 -12.5344 -12.4153 -12.3208 -12.2676 -12.1648
   -12.1234 -11.7716 -11.7503 -11.7433 -11.7291 -11.7110 -11.6696 -11.6064
   -11.5885 -11.5556 -11.5115 -11.5022 -11.4866  -2.5742  -2.5359  -2.3728
    -2.3333  -2.0195  -1.9449  -1.7973  -1.6789  -1.6400  -1.5950  -1.5465
    -1.5217  -1.3981  -1.3544  -1.3387  -1.2568  -1.2212  -1.2057  -1.1741
    -1.1187  -1.1067  -1.0449  -1.0192  -0.9865  -0.8899  -0.8468  -0.7984
    -0.7646  -0.7441  -0.7139  -0.6650  -0.6405  -0.5970  -0.5028  -0.4335
    -0.3642  -0.3049  -0.1187  -0.1082  -0.0484  -0.0098   0.0591   0.0862
     0.2131   0.2510   0.2730   0.4493   0.5484   0.5981   0.6723   0.7717
     0.8638   0.8908   1.0195   1.0410   1.0926   1.1180   1.1556   1.1765
     1.2183   1.2397   1.3135   1.3539   1.3994   1.4115   1.7161   1.7292
     1.7401   1.7768   1.8741   1.8850   1.8985   1.9045   1.9297   1.9482
     1.9860   2.0033   2.0356   2.0844   2.1023   2.1515   2.1736   2.2287
     2.3287   2.4462   2.4569   2.4658   2.5163   2.5399   2.6084   2.6331
     2.6661   2.7308   2.7382   2.7461   2.7746   2.8426   2.8912   2.9360
     2.9661   3.0060   3.0112   3.0131   3.0242   3.0378   3.0497   3.0647
     3.0680   3.0919   3.0933   3.1170   3.1357   3.1414   3.2709   3.2783
     4.0621   4.1419   4.2217   4.3331   4.8002   4.8844   5.0492   5.0587
     5.4922   5.5152   5.6091   5.6646   6.0422   6.0491   6.3164   6.5067
     6.8043   7.0094   7.2775   7.3300   7.3645   7.4688   7.7258   7.7841
     7.8951   8.0943   8.1930   8.2717   8.3327   8.4119   8.5257   8.6341
     8.7652   8.8038   8.9022

     occupation numbers 
     1.0000   1.0000   1.0000   1.0000   1.0000   1.0000   1.0000   1.0000
     1.0000   1.0000   1.0000   1.0000   1.0000   1.0000   1.0000   1.0000
     1.0000   1.0000   1.0000   1.0000   1.0000   1.0000   1.0000   1.0000
     1.0000   1.0000   1.0000   1.0000   1.0000   1.0000   1.0000   1.0000
     1.0000   1.0000   1.0000   1.0000   1.0000   1.0000   1.0000   1.0000
     1.0000   1.0000   1.0000   1.0000   1.0000   1.0000   1.0000   1.0000
     1.0000   1.0000   1.0000   1.0000   1.0000   1.0000   1.0000   1.0000
     1.0000   1.0000   1.0000   1.0000   1.0000   1.0000   1.0000   1.0000
     1.0000   1.0000   1.0000   1.0000   1.0000   1.0000   1.0000   1.0000
     1.0000   1.0000   1.0000   1.0000   1.0000   1.0000   1.0000   1.0000
     1.0000   1.0000   1.0000   1.0000   1.0000   1.0000   1.0000   1.0000
     1.0000   1.0000   1.0000   1.0000   1.0000   1.0000   1.0000   1.0000
     1.0000   1.0000   1.0000   1.0000   1.0000   1.0000   1.0000   1.0000
     1.0000   1.0000   1.0000   1.0000   1.0000   1.0000   1.0000   1.0000
     1.0000   1.0000   1.0000   1.0000   1.0000   1.0000   1.0000   1.0000
     1.0000   1.0000   1.0000   1.0000   1.0000   1.0000   1.0000   1.0000
     1.0000   1.0000   1.0000   1.0000   1.0000   1.0000   1.0000   1.0000
     1.0000   1.0000   1.0000   1.0000   1.0000   1.0000   1.0000   1.0000
     1.0000   1.0000   1.0000   1.0000   1.0000   1.0000   1.0000   1.0000
     1.0000   1.0000   1.0000   1.0000   1.0000   1.0000   1.0000   0.9999
     0.9999   0.9999   0.9997   0.9997   0.9996   0.9995   0.9994   0.9993
     0.9992   0.9991   0.9986   0.9984   0.9980   0.9978   0.9918   0.9914
     0.9910   0.9896   0.9849   0.9842   0.9834   0.9831   0.9814   0.9801
     0.9773   0.9759   0.9730   0.9682   0.9662   0.9603   0.9575   0.9495
     0.9321   0.9061   0.9034   0.9011   0.8874   0.8806   0.8591   0.8508
     0.8391   0.8145   0.8115   0.8083   0.7966   0.7669   0.7442   0.7224
     0.7071   0.6865   0.6837   0.6827   0.6768   0.6696   0.6631   0.6549
     0.6531   0.6400   0.6392   0.6259   0.6153   0.6121   0.5368   0.5325
     0.1396   0.1149   0.0935   0.0688   0.0147   0.0106   0.0054   0.0052
     0.0007   0.0006   0.0004   0.0003   0.0000   0.0000   0.0000   0.0000
     0.0000   0.0000   0.0000   0.0000   0.0000   0.0000   0.0000   0.0000
     0.0000   0.0000   0.0000   0.0000   0.0000   0.0000   0.0000   0.0000
     0.0000   0.0000   0.0000

          k =-0.2500 0.2500 0.0000 ( 65198 PWs)   bands (ev):

   -92.6944 -92.6428 -92.5484 -92.5025 -92.4454 -92.4018 -92.3832 -92.2608
   -56.0479 -56.0298 -55.9057 -55.8951 -55.8887 -55.8819 -55.8456 -55.8176
   -55.8018 -55.8017 -55.7942 -55.7516 -55.7340 -55.6960 -55.6748 -55.6449
   -55.6381 -55.5890 -55.5879 -55.5867 -55.5782 -55.5353 -55.5137 -55.4271
   -31.2698 -31.2540 -31.1103 -31.0449 -31.0243 -30.9038 -30.8307 -30.7317
   -29.8398 -29.7992 -29.7724 -29.6646 -15.0106 -14.9683 -14.8949 -14.7776
   -14.6649 -14.5377 -14.4547 -14.2458 -14.1078 -14.0795 -14.0650 -14.0169
   -13.9925 -13.9710 -13.9564 -13.9528 -13.8984 -13.8282 -13.8166 -13.6651
   -13.6375 -13.6079 -13.5886 -13.5407 -13.4893 -13.4292 -13.3900 -13.2852
   -13.2488 -13.2159 -13.1403 -13.0971 -13.0339 -13.0047 -12.9834 -12.9725
   -12.9386 -12.9201 -12.8698 -12.8313 -12.7958 -12.7652 -12.7384 -12.7235
   -12.6874 -12.6744 -12.6454 -12.4769 -12.4356 -12.3803 -12.2766 -12.1003
   -12.0405 -11.7918 -11.7703 -11.7432 -11.7309 -11.6902 -11.6551 -11.6325
   -11.6105 -11.5882 -11.5035 -11.4584 -11.4486  -2.6591  -2.4514  -2.3297
    -2.2420  -2.1235  -2.0575  -1.8542  -1.7090  -1.6909  -1.6618  -1.5677
    -1.5349  -1.4403  -1.4067  -1.3801  -1.2385  -1.1830  -1.1157  -1.1072
    -1.0851  -1.0218  -1.0032  -0.9634  -0.9346  -0.8943  -0.8316  -0.7828
    -0.7191  -0.6503  -0.6231  -0.5746  -0.5471  -0.4999  -0.4434  -0.3973
    -0.3582  -0.2549  -0.2244  -0.2097  -0.1678  -0.1015  -0.0006   0.0155
     0.0454   0.1325   0.1503   0.3990   0.5721   0.6114   0.6556   0.7221
     0.7687   0.8129   0.8841   0.9100   1.1902   1.2985   1.3413   1.3733
     1.3760   1.4200   1.4375   1.4817   1.5144   1.5275   1.5527   1.6007
     1.6168   1.6528   1.6720   1.7173   1.8242   1.8304   1.8503   1.8849
     1.9198   1.9527   2.0006   2.1160   2.2219   2.2417   2.2864   2.3062
     2.3730   2.4133   2.4420   2.4493   2.4645   2.4823   2.5075   2.5870
     2.6250   2.7141   2.8902   2.8995   2.9123   2.9218   2.9328   2.9475
     2.9545   2.9717   2.9786   2.9945   3.0037   3.0163   3.0252   3.0324
     3.0658   3.0762   3.0851   3.1190   3.4107   3.4922   3.5567   3.6266
     3.6721   3.8476   3.9698   4.3239   4.5150   4.7246   5.0089   5.1718
     5.6612   5.7071   5.7762   5.8406   5.9040   6.1105   6.1740   6.2077
     6.9029   6.9697   7.1451   7.2804   7.5694   7.6197   7.6795   7.8704
     7.9065   8.0390   8.1829   8.2269   8.3178   8.3569   8.4552   8.5018
     8.5631   8.7032   8.9001

     occupation numbers 
     1.0000   1.0000   1.0000   1.0000   1.0000   1.0000   1.0000   1.0000
     1.0000   1.0000   1.0000   1.0000   1.0000   1.0000   1.0000   1.0000
     1.0000   1.0000   1.0000   1.0000   1.0000   1.0000   1.0000   1.0000
     1.0000   1.0000   1.0000   1.0000   1.0000   1.0000   1.0000   1.0000
     1.0000   1.0000   1.0000   1.0000   1.0000   1.0000   1.0000   1.0000
     1.0000   1.0000   1.0000   1.0000   1.0000   1.0000   1.0000   1.0000
     1.0000   1.0000   1.0000   1.0000   1.0000   1.0000   1.0000   1.0000
     1.0000   1.0000   1.0000   1.0000   1.0000   1.0000   1.0000   1.0000
     1.0000   1.0000   1.0000   1.0000   1.0000   1.0000   1.0000   1.0000
     1.0000   1.0000   1.0000   1.0000   1.0000   1.0000   1.0000   1.0000
     1.0000   1.0000   1.0000   1.0000   1.0000   1.0000   1.0000   1.0000
     1.0000   1.0000   1.0000   1.0000   1.0000   1.0000   1.0000   1.0000
     1.0000   1.0000   1.0000   1.0000   1.0000   1.0000   1.0000   1.0000
     1.0000   1.0000   1.0000   1.0000   1.0000   1.0000   1.0000   1.0000
     1.0000   1.0000   1.0000   1.0000   1.0000   1.0000   1.0000   1.0000
     1.0000   1.0000   1.0000   1.0000   1.0000   1.0000   1.0000   1.0000
     1.0000   1.0000   1.0000   1.0000   1.0000   1.0000   1.0000   1.0000
     1.0000   1.0000   1.0000   1.0000   1.0000   1.0000   1.0000   1.0000
     1.0000   1.0000   1.0000   1.0000   1.0000   1.0000   1.0000   1.0000
     1.0000   1.0000   1.0000   1.0000   1.0000   1.0000   1.0000   0.9999
     0.9999   0.9999   0.9999   0.9998   0.9993   0.9987   0.9985   0.9982
     0.9982   0.9978   0.9976   0.9970   0.9965   0.9963   0.9959   0.9950
     0.9946   0.9937   0.9932   0.9918   0.9875   0.9872   0.9862   0.9842
     0.9821   0.9798   0.9761   0.9647   0.9505   0.9475   0.9400   0.9364
     0.9230   0.9140   0.9071   0.9053   0.9015   0.8968   0.8899   0.8661
     0.8535   0.8210   0.7447   0.7402   0.7340   0.7294   0.7239   0.7166
     0.7131   0.7043   0.7008   0.6925   0.6877   0.6810   0.6763   0.6725
     0.6544   0.6486   0.6437   0.6248   0.4542   0.4067   0.3700   0.3315
     0.3074   0.2225   0.1723   0.0706   0.0396   0.0194   0.0064   0.0032
     0.0003   0.0002   0.0001   0.0001   0.0001   0.0000   0.0000   0.0000
     0.0000   0.0000   0.0000   0.0000   0.0000   0.0000   0.0000   0.0000
     0.0000   0.0000   0.0000   0.0000   0.0000   0.0000   0.0000   0.0000
     0.0000   0.0000   0.0000

          k =-0.5000 0.2500 0.0000 ( 65138 PWs)   bands (ev):

   -92.6944 -92.6428 -92.5484 -92.5025 -92.4454 -92.4018 -92.3832 -92.2608
   -56.0479 -56.0298 -55.9057 -55.8951 -55.8887 -55.8819 -55.8456 -55.8176
   -55.8018 -55.8017 -55.7942 -55.7516 -55.7340 -55.6960 -55.6748 -55.6449
   -55.6381 -55.5890 -55.5879 -55.5867 -55.5782 -55.5353 -55.5137 -55.4271
   -31.2676 -31.2562 -31.1099 -31.0447 -31.0246 -30.9040 -30.8304 -30.7320
   -29.8388 -29.8002 -29.7720 -29.6650 -14.9751 -14.9301 -14.8513 -14.7491
   -14.7080 -14.5849 -14.4953 -14.3623 -14.0585 -14.0280 -14.0163 -13.9706
   -13.9547 -13.9481 -13.9237 -13.8888 -13.8759 -13.8555 -13.8163 -13.7994
   -13.6963 -13.6306 -13.5814 -13.5773 -13.5634 -13.4628 -13.4097 -13.3424
   -13.2888 -13.1942 -13.1579 -13.0610 -13.0212 -13.0096 -12.9863 -12.9627
   -12.9393 -12.9317 -12.8931 -12.8047 -12.7867 -12.7425 -12.7161 -12.6819
   -12.6769 -12.6156 -12.6081 -12.5326 -12.3893 -12.3161 -12.2388 -12.1557
   -12.1262 -11.7643 -11.7518 -11.7378 -11.7256 -11.7046 -11.6744 -11.5931
   -11.5850 -11.5615 -11.5258 -11.4979 -11.4890  -2.4316  -2.3902  -2.2424
    -2.1998  -2.0387  -1.9635  -1.8214  -1.6850  -1.6290  -1.6020  -1.5629
    -1.5240  -1.4436  -1.3281  -1.2710  -1.2478  -1.2224  -1.1470  -1.1177
    -1.1103  -1.0765  -1.0580  -1.0000  -0.9690  -0.9320  -0.8972  -0.8683
    -0.8100  -0.7813  -0.7390  -0.7053  -0.6020  -0.5716  -0.4847  -0.4255
    -0.3943  -0.3370  -0.2526  -0.2136  -0.1179  -0.0594  -0.0216   0.0415
     0.0667   0.1391   0.1559   0.1870   0.2381   0.2820   0.5923   0.7033
     0.7154   0.7387   1.0320   1.0819   1.1596   1.1818   1.3580   1.3942
     1.4324   1.4429   1.4613   1.4795   1.5489   1.5936   1.6384   1.6620
     1.8062   1.8340   1.8529   1.8627   1.9103   1.9343   1.9460   1.9589
     1.9796   2.0104   2.0443   2.0598   2.0944   2.1178   2.1514   2.2039
     2.3245   2.4266   2.4439   2.4569   2.4888   2.5336   2.5604   2.6242
     2.6616   2.6670   2.7039   2.7381   2.7596   2.8419   2.8874   2.8999
     2.9049   2.9259   2.9474   2.9600   2.9762   2.9898   3.0099   3.0216
     3.0325   3.0395   3.0501   3.0617   3.5875   3.6480   3.7800   3.8039
     4.0710   4.1695   4.2197   4.4157   4.7942   4.9016   5.0446   5.0872
     5.4137   5.4398   5.6004   5.6368   5.7550   5.7970   6.3990   6.4196
     6.5038   6.6423   7.2868   7.3971   7.5879   7.7213   7.7972   7.8047
     7.8975   8.0322   8.3749   8.4101   8.4490   8.5323   8.5759   8.5881
     8.6728   8.7015   8.7589

     occupation numbers 
     1.0000   1.0000   1.0000   1.0000   1.0000   1.0000   1.0000   1.0000
     1.0000   1.0000   1.0000   1.0000   1.0000   1.0000   1.0000   1.0000
     1.0000   1.0000   1.0000   1.0000   1.0000   1.0000   1.0000   1.0000
     1.0000   1.0000   1.0000   1.0000   1.0000   1.0000   1.0000   1.0000
     1.0000   1.0000   1.0000   1.0000   1.0000   1.0000   1.0000   1.0000
     1.0000   1.0000   1.0000   1.0000   1.0000   1.0000   1.0000   1.0000
     1.0000   1.0000   1.0000   1.0000   1.0000   1.0000   1.0000   1.0000
     1.0000   1.0000   1.0000   1.0000   1.0000   1.0000   1.0000   1.0000
     1.0000   1.0000   1.0000   1.0000   1.0000   1.0000   1.0000   1.0000
     1.0000   1.0000   1.0000   1.0000   1.0000   1.0000   1.0000   1.0000
     1.0000   1.0000   1.0000   1.0000   1.0000   1.0000   1.0000   1.0000
     1.0000   1.0000   1.0000   1.0000   1.0000   1.0000   1.0000   1.0000
     1.0000   1.0000   1.0000   1.0000   1.0000   1.0000   1.0000   1.0000
     1.0000   1.0000   1.0000   1.0000   1.0000   1.0000   1.0000   1.0000
     1.0000   1.0000   1.0000   1.0000   1.0000   1.0000   1.0000   1.0000
     1.0000   1.0000   1.0000   1.0000   1.0000   1.0000   1.0000   1.0000
     1.0000   1.0000   1.0000   1.0000   1.0000   1.0000   1.0000   1.0000
     1.0000   1.0000   1.0000   1.0000   1.0000   1.0000   1.0000   1.0000
     1.0000   1.0000   1.0000   1.0000   1.0000   1.0000   1.0000   1.0000
     1.0000   1.0000   1.0000   1.0000   1.0000   1.0000   1.0000   1.0000
     0.9999   0.9999   0.9997   0.9996   0.9994   0.9993   0.9983   0.9980
     0.9976   0.9975   0.9973   0.9970   0.9960   0.9951   0.9941   0.9935
     0.9883   0.9870   0.9860   0.9855   0.9827   0.9811   0.9803   0.9794
     0.9778   0.9752   0.9722   0.9707   0.9671   0.9644   0.9604   0.9532
     0.9329   0.9109   0.9067   0.9034   0.8951   0.8825   0.8744   0.8538
     0.8407   0.8387   0.8250   0.8116   0.8028   0.7672   0.7460   0.7400
     0.7376   0.7273   0.7166   0.7103   0.7020   0.6949   0.6844   0.6782
     0.6724   0.6687   0.6629   0.6566   0.3529   0.3201   0.2535   0.2423
     0.1366   0.1071   0.0940   0.0540   0.0150   0.0099   0.0055   0.0046
     0.0010   0.0009   0.0004   0.0003   0.0002   0.0001   0.0000   0.0000
     0.0000   0.0000   0.0000   0.0000   0.0000   0.0000   0.0000   0.0000
     0.0000   0.0000   0.0000   0.0000   0.0000   0.0000   0.0000   0.0000
     0.0000   0.0000   0.0000

     the Fermi energy is     3.3332 ev

!    total energy              =   -4441.65832659 Ry
     estimated scf accuracy    <          7.2E-09 Ry
     smearing contrib. (-TS)   =      -1.15446810 Ry
     internal energy E=F+TS    =   -4440.50385849 Ry

     The total energy is F=E-TS. E is the sum of the following terms:
     one-electron contribution =  -20804.98771345 Ry
     hartree contribution      =   10534.57319188 Ry
     xc contribution           =    -694.18112979 Ry
     ewald contribution        =    6800.26233711 Ry
     one-center paw contrib.   =    -276.17054424 Ry
      -> PAW hartree energy AE =      25.05840144 Ry
      -> PAW hartree energy PS =     -24.94348977 Ry
      -> PAW xc energy AE      =     -16.50248016 Ry
      -> PAW xc energy PS      =       6.86127568 Ry
      -> total E_H with PAW    =   10534.68810355 Ry
      -> total E_XC with PAW   =    -703.82233427 Ry

     convergence has been achieved in  47 iterations

     Writing all to output data dir /bsuhome/zayahcortright/scratch/pwscf.save/
 
     init_run     :      7.54s CPU      8.53s WALL (       1 calls)
     electrons    :    759.98s CPU    839.51s WALL (       1 calls)

     Called by init_run:
     wfcinit      :      6.12s CPU      6.35s WALL (       1 calls)
     wfcinit:atom :      0.04s CPU      0.07s WALL (       5 calls)
     wfcinit:wfcr :      5.79s CPU      5.93s WALL (       5 calls)
     potinit      :      0.15s CPU      0.18s WALL (       1 calls)
     hinit0       :      0.35s CPU      0.81s WALL (       1 calls)

     Called by electrons:
     c_bands      :    611.60s CPU    623.40s WALL (      47 calls)
     sum_band     :    110.73s CPU    148.64s WALL (      47 calls)
     v_of_rho     :      5.10s CPU      5.51s WALL (      48 calls)
     v_h          :      0.45s CPU      0.45s WALL (      48 calls)
     v_xc         :      4.65s CPU      5.06s WALL (      48 calls)
     newd         :     18.53s CPU     47.56s WALL (      48 calls)
     PAW_pot      :      1.54s CPU      1.57s WALL (      48 calls)
     mix_rho      :     12.20s CPU     12.59s WALL (      47 calls)

     Called by c_bands:
     init_us_2    :      6.27s CPU      6.39s WALL (     475 calls)
     init_us_2:cp :      6.26s CPU      6.38s WALL (     475 calls)
     cegterg      :    581.73s CPU    593.18s WALL (     235 calls)

     Called by sum_band:
     sum_band:wei :      0.34s CPU      0.35s WALL (      47 calls)
     sum_band:loo :     90.70s CPU     91.39s WALL (      47 calls)
     sum_band:buf :      1.28s CPU      1.36s WALL (     235 calls)
     sum_band:ini :      2.73s CPU      2.74s WALL (     235 calls)
     sum_band:cal :     18.70s CPU     18.77s WALL (     235 calls)
     sum_band:bec :      0.55s CPU      0.55s WALL (     235 calls)
     addusdens    :     18.00s CPU     55.09s WALL (      47 calls)
                                        0.00s GPU  (      47 calls)
     addusd:skk   :      0.33s CPU      2.02s WALL (     188 calls)
                                        0.00s GPU  (     188 calls)

     Called by *egterg:
     cdiaghg      :     59.06s CPU     59.33s WALL (    1313 calls)
     cegterg:over :     47.13s CPU     47.33s WALL (    1078 calls)
     cegterg:upda :     49.65s CPU     50.68s WALL (    1078 calls)
     cegterg:last :     68.20s CPU     68.44s WALL (     422 calls)
     cdiaghg:chol :      3.21s CPU      3.23s WALL (    1313 calls)
     cdiaghg:inve :      3.55s CPU      3.57s WALL (    1313 calls)
     cdiaghg:para :      7.47s CPU      7.51s WALL (    2626 calls)
     h_psi        :    294.48s CPU    298.98s WALL (    1318 calls)
     s_psi        :     38.13s CPU     38.24s WALL (    1318 calls)
     g_psi        :      2.58s CPU      2.59s WALL (    1078 calls)

     Called by h_psi:
     h_psi:calbec :     44.23s CPU     44.45s WALL (    1318 calls)
     vloc_psi     :    206.58s CPU    208.50s WALL (    1318 calls)
     add_vuspsi   :     38.36s CPU     38.59s WALL (    1318 calls)

     General routines
     calbec       :     62.92s CPU     63.21s WALL (    1553 calls)
     fft          :      4.04s CPU      4.10s WALL (     622 calls)
     ffts         :      4.50s CPU      4.56s WALL (    5079 calls)
     fftw         :    163.73s CPU    165.07s WALL (  318971 calls)
     interpolate  :      0.39s CPU      0.40s WALL (      48 calls)
 
     Parallel routines

     PAW routines
     PAW_pot      :      1.54s CPU      1.57s WALL (      48 calls)
 
     PWSCF        :  12m49.28s CPU  14m13.80s WALL

 
   This run was terminated on:  22:57: 0  21Jun2024            

=------------------------------------------------------------------------------=
   JOB DONE.
=------------------------------------------------------------------------------=
