
     Program PWSCF v.7.2 starts on 21Jun2024 at 14:59:41 

     This program is part of the open-source Quantum ESPRESSO suite
     for quantum simulation of materials; please cite
         "P. Giannozzi et al., J. Phys.:Condens. Matter 21 395502 (2009);
         "P. Giannozzi et al., J. Phys.:Condens. Matter 29 465901 (2017);
         "P. Giannozzi et al., J. Chem. Phys. 152 154105 (2020);
          URL http://www.quantum-espresso.org", 
     in publications or presentations arising from this work. More details at
     http://www.quantum-espresso.org/quote

     Parallel version (MPI & OpenMP), running on      48 processor cores
     Number of MPI processes:                48
     Threads/MPI process:                     1

     MPI processes distributed on     1 nodes
     180158 MiB available memory on the printing compute node when the environment starts
 
     Reading input from espresso.pwi
Warning: card &CELL ignored
Warning: card / ignored
Warning: card &FCP ignored
Warning: card / ignored
Warning: card &RISM ignored
Warning: card / ignored

     Current dimensions of program PWSCF are:
     Max number of different atomic species (ntypx) = 10
     Max number of k-points (npk) =  40000
     Max angular momentum in pseudopotentials (lmaxx) =  4
     file O.pbe-n-kjpaw_psl.0.1.UPF: wavefunction(s)  2P renormalized
     signal trapping enabled: kill the code with -SIGUSR1 to stop cleanly the simulation 
 
     K-points division:     npool     =       2
     R & G space division:  proc/nbgrp/npool/nimage =      24
     Subspace diagonalization in iterative solution of the eigenvalue problem:
     one sub-group per band group will be used
     scalapack distributed-memory algorithm (size of sub-group:  3*  3 procs)

 
     Parallelization info
     --------------------
     sticks:   dense  smooth     PW     G-vecs:    dense   smooth      PW
     Min         350     175     47                61430    21716    3036
     Max         351     177     48                61449    21727    3041
     Sum        8421    4205   1137              1474595   521381   72913
 
     Using Slab Decomposition
 


     bravais-lattice index     =            0
     lattice parameter (alat)  =      14.8599  a.u.
     unit-cell volume          =    8305.1283 (a.u.)^3
     number of atoms/cell      =           49
     number of atomic types    =            4
     number of electrons       =       425.00
     number of Kohn-Sham states=          256
     kinetic-energy cutoff     =      60.0000  Ry
     charge density cutoff     =     480.0000  Ry
     scf convergence threshold =      1.0E-08
     mixing beta               =       0.1500
     number of iterations used =            8  local-TF  mixing
     Exchange-correlation= PBE
                           (   1   4   3   4   0   0   0)

     celldm(1)=  14.859904  celldm(2)=   0.000000  celldm(3)=   0.000000
     celldm(4)=   0.000000  celldm(5)=   0.000000  celldm(6)=   0.000000

     crystal axes: (cart. coord. in units of alat)
               a(1) = (   1.000000   0.000000   0.000000 )  
               a(2) = (   0.000000   1.000000   0.000000 )  
               a(3) = (   0.000000   0.000000   2.531036 )  

     reciprocal axes: (cart. coord. in units 2 pi/alat)
               b(1) = (  1.000000  0.000000  0.000000 )  
               b(2) = (  0.000000  1.000000  0.000000 )  
               b(3) = (  0.000000  0.000000  0.395095 )  


     PseudoPot. # 1 for Sr read from file:
     /bsuhome/zayahcortright/q-e/pseudo/Sr_pbe_v1.uspp.F.UPF
     MD5 check sum: 6b418c05fbe9db5448babca5e47b7a5b
     Pseudo is Ultrasoft + core correction, Zval = 10.0
     Generated by new atomic code, or converted to UPF format
     Using radial grid of  883 points,  6 beta functions with: 
                l(1) =   0
                l(2) =   0
                l(3) =   1
                l(4) =   1
                l(5) =   2
                l(6) =   2
     Q(r) pseudized with  6 coefficients,  rinner =    1.400   1.400   1.400
                                                       1.400   1.400

     PseudoPot. # 2 for O  read from file:
     /bsuhome/zayahcortright/q-e/pseudo/O.pbe-n-kjpaw_psl.0.1.UPF
     MD5 check sum: 0234752ac141de4415c5fc33072bef88
     Pseudo is Projector augmented-wave + core cor, Zval =  6.0
     Generated using "atomic" code by A. Dal Corso  v.5.0.99 svn rev. 10869
     Shape of augmentation charge: BESSEL
     Using radial grid of 1095 points,  4 beta functions with: 
                l(1) =   0
                l(2) =   0
                l(3) =   1
                l(4) =   1
     Q(r) pseudized with 0 coefficients 


     PseudoPot. # 3 for Co read from file:
     /bsuhome/zayahcortright/q-e/pseudo/Co_pbe_v1.2.uspp.F.UPF
     MD5 check sum: 5f91765df6ddd3222702df6e7b74a16d
     Pseudo is Ultrasoft + core correction, Zval = 17.0
     Generated by new atomic code, or converted to UPF format
     Using radial grid of  863 points,  6 beta functions with: 
                l(1) =   0
                l(2) =   0
                l(3) =   1
                l(4) =   1
                l(5) =   2
                l(6) =   2
     Q(r) pseudized with  8 coefficients,  rinner =    1.200   1.200   1.200
                                                       1.200   1.200

     PseudoPot. # 4 for H  read from file:
     /bsuhome/zayahcortright/q-e/pseudo/H.pbe-rrkjus_psl.1.0.0.UPF
     MD5 check sum: f52b6d4d1c606e5624b1dc7b2218f220
     Pseudo is Ultrasoft, Zval =  1.0
     Generated using "atomic" code by A. Dal Corso  v.5.1
     Using radial grid of  929 points,  2 beta functions with: 
                l(1) =   0
                l(2) =   0
     Q(r) pseudized with 0 coefficients 


     atomic species   valence    mass     pseudopotential
        Sr            10.00    87.62000     Sr( 1.00)
        O              6.00    15.99900     O ( 1.00)
        Co            17.00    58.93319     Co( 1.00)
        H              1.00     1.00800     H ( 1.00)

     No symmetry found


                                    s                        frac. trans.

      isym =  1     identity                                     

 cryst.   s( 1) = (     1          0          0      )
                  (     0          1          0      )
                  (     0          0          1      )

 cart.    s( 1) = (  1.0000000  0.0000000  0.0000000 )
                  (  0.0000000  1.0000000  0.0000000 )
                  (  0.0000000  0.0000000  1.0000000 )


   Cartesian axes

     site n.     atom                  positions (alat units)
         1           Sr  tau(   1) = (   0.2508693   0.7491307   1.7574407  )
         2           O   tau(   2) = (   0.4985141   0.5014859   1.7715967  )
         3           Sr  tau(   3) = (   0.7482398   0.7454518   1.7648669  )
         4           Sr  tau(   4) = (   0.7441748   0.2558252   1.7667843  )
         5           Sr  tau(   5) = (   0.2508693   0.7491307   1.2696799  )
         6           Sr  tau(   6) = (   0.2508693   0.7491307   0.7632319  )
         7           Co  tau(   7) = (   0.4998914   0.5001086   1.0164559  )
         8           Co  tau(   8) = (   0.4936915   0.5063085   1.5135603  )
         9           O   tau(   9) = (   0.4988895   0.7610401   1.0164559  )
        10           O   tau(  10) = (   0.2389599   0.5011105   1.0164559  )
        11           O   tau(  11) = (   0.0070918   0.7374880   1.0164559  )
        12           O   tau(  12) = (   0.0088340   0.7405089   1.5135603  )
        13           O   tau(  13) = (   0.5066944   0.7415376   1.5135603  )
        14           O   tau(  14) = (   0.2584624   0.4933056   1.5135603  )
        15           O   tau(  15) = (   0.4985141   0.5014859   0.7773880  )
        16           O   tau(  16) = (   0.4985141   0.5014859   1.2555238  )
        17           Sr  tau(  17) = (   0.7482398   0.7454518   0.7706582  )
        18           Sr  tau(  18) = (   0.7482398   0.7454518   1.2622536  )
        19           Sr  tau(  19) = (   0.7441748   0.2558252   0.7725755  )
        20           Sr  tau(  20) = (   0.7441748   0.2558252   1.2603363  )
        21           O   tau(  21) = (   0.7322655   0.0078049   1.5135603  )
        22           O   tau(  22) = (   0.7558175   0.4996027   1.5135603  )
        23           O   tau(  23) = (   0.5003973   0.2441825   1.5135603  )
        24           O   tau(  24) = (   0.7527966   0.4978604   1.0164559  )
        25           O   tau(  25) = (   0.5021396   0.2472034   1.0164559  )
        26           O   tau(  26) = (   0.7517679   0.0000000   1.0164559  )
        27           O   tau(  27) = (   0.0114961   0.4948124   1.7455321  )
        28           O   tau(  28) = (   0.0048226   0.0077944   1.7715967  )
        29           Sr  tau(  29) = (   0.2545482   0.2517602   1.7648669  )
        30           O   tau(  30) = (   0.5048017   0.0015068   1.7786929  )
        31           Co  tau(  31) = (   0.0056869   0.5006215   1.0164559  )
        32           Co  tau(  32) = (   0.0065315   0.4997770   1.5135603  )
        33           Co  tau(  33) = (   0.0061999   0.0064171   1.0164559  )
        34           Co  tau(  34) = (   0.0000000   0.0126169   1.5135603  )
        35           O   tau(  35) = (   0.0114961   0.4948124   1.2815885  )
        36           O   tau(  36) = (   0.0114961   0.4948124   0.7513233  )
        37           O   tau(  37) = (   0.0051979   0.2673486   1.0164559  )
        38           O   tau(  38) = (   0.0130029   0.2478461   1.5135603  )
        39           O   tau(  39) = (   0.0048226   0.0077944   0.7773880  )
        40           O   tau(  40) = (   0.0048226   0.0077944   1.2555238  )
        41           Sr  tau(  41) = (   0.2545482   0.2517602   0.7706582  )
        42           Sr  tau(  42) = (   0.2545482   0.2517602   1.2622536  )
        43           Co  tau(  43) = (   0.4989925   0.0073160   1.5135603  )
        44           Co  tau(  44) = (   0.4998370   0.0064714   1.0164559  )
        45           O   tau(  45) = (   0.5048017   0.0015068   0.7844841  )
        46           O   tau(  46) = (   0.5048017   0.0015068   1.2484277  )
        47           O   tau(  47) = (   0.2621260   0.0059111   1.5135603  )
        48           O   tau(  48) = (   0.2591051   0.0041689   1.0164559  )
        49           H   tau(  49) = (   0.1421646   0.9951520   2.1602013  )

   Crystallographic axes

     site n.     atom                  positions (cryst. coord.)
         1           Sr  tau(   1) = (  0.2508693  0.7491307  0.6943562  )
         2           O   tau(   2) = (  0.4985141  0.5014859  0.6999492  )
         3           Sr  tau(   3) = (  0.7482398  0.7454518  0.6972903  )
         4           Sr  tau(   4) = (  0.7441748  0.2558252  0.6980478  )
         5           Sr  tau(   5) = (  0.2508693  0.7491307  0.5016443  )
         6           Sr  tau(   6) = (  0.2508693  0.7491307  0.3015492  )
         7           Co  tau(   7) = (  0.4998914  0.5001086  0.4015968  )
         8           Co  tau(   8) = (  0.4936915  0.5063085  0.5980003  )
         9           O   tau(   9) = (  0.4988895  0.7610401  0.4015968  )
        10           O   tau(  10) = (  0.2389599  0.5011105  0.4015968  )
        11           O   tau(  11) = (  0.0070918  0.7374880  0.4015968  )
        12           O   tau(  12) = (  0.0088340  0.7405089  0.5980003  )
        13           O   tau(  13) = (  0.5066944  0.7415376  0.5980003  )
        14           O   tau(  14) = (  0.2584624  0.4933056  0.5980003  )
        15           O   tau(  15) = (  0.4985141  0.5014859  0.3071422  )
        16           O   tau(  16) = (  0.4985141  0.5014859  0.4960513  )
        17           Sr  tau(  17) = (  0.7482398  0.7454518  0.3044833  )
        18           Sr  tau(  18) = (  0.7482398  0.7454518  0.4987103  )
        19           Sr  tau(  19) = (  0.7441748  0.2558252  0.3052408  )
        20           Sr  tau(  20) = (  0.7441748  0.2558252  0.4979527  )
        21           O   tau(  21) = (  0.7322655  0.0078049  0.5980003  )
        22           O   tau(  22) = (  0.7558175  0.4996027  0.5980003  )
        23           O   tau(  23) = (  0.5003973  0.2441825  0.5980003  )
        24           O   tau(  24) = (  0.7527966  0.4978604  0.4015968  )
        25           O   tau(  25) = (  0.5021396  0.2472034  0.4015968  )
        26           O   tau(  26) = (  0.7517679  0.0000000  0.4015968  )
        27           O   tau(  27) = (  0.0114961  0.4948124  0.6896512  )
        28           O   tau(  28) = (  0.0048226  0.0077944  0.6999492  )
        29           Sr  tau(  29) = (  0.2545482  0.2517602  0.6972903  )
        30           O   tau(  30) = (  0.5048017  0.0015068  0.7027529  )
        31           Co  tau(  31) = (  0.0056869  0.5006215  0.4015968  )
        32           Co  tau(  32) = (  0.0065315  0.4997770  0.5980003  )
        33           Co  tau(  33) = (  0.0061999  0.0064171  0.4015968  )
        34           Co  tau(  34) = (  0.0000000  0.0126169  0.5980003  )
        35           O   tau(  35) = (  0.0114961  0.4948124  0.5063494  )
        36           O   tau(  36) = (  0.0114961  0.4948124  0.2968442  )
        37           O   tau(  37) = (  0.0051979  0.2673486  0.4015968  )
        38           O   tau(  38) = (  0.0130029  0.2478461  0.5980003  )
        39           O   tau(  39) = (  0.0048226  0.0077944  0.3071422  )
        40           O   tau(  40) = (  0.0048226  0.0077944  0.4960513  )
        41           Sr  tau(  41) = (  0.2545482  0.2517602  0.3044833  )
        42           Sr  tau(  42) = (  0.2545482  0.2517602  0.4987103  )
        43           Co  tau(  43) = (  0.4989925  0.0073160  0.5980003  )
        44           Co  tau(  44) = (  0.4998370  0.0064714  0.4015968  )
        45           O   tau(  45) = (  0.5048017  0.0015068  0.3099459  )
        46           O   tau(  46) = (  0.5048017  0.0015068  0.4932477  )
        47           O   tau(  47) = (  0.2621260  0.0059111  0.5980003  )
        48           O   tau(  48) = (  0.2591051  0.0041689  0.4015968  )
        49           H   tau(  49) = (  0.1421646  0.9951520  0.8534850  )

     number of k points=    10  Gaussian smearing, width (Ry)=  0.0700
                       cart. coord. in units 2pi/alat
        k(    1) = (   0.0000000   0.0000000   0.0000000), wk =   0.1250000
        k(    2) = (   0.0000000   0.2500000   0.0000000), wk =   0.2500000
        k(    3) = (   0.0000000  -0.5000000   0.0000000), wk =   0.1250000
        k(    4) = (   0.2500000   0.2500000   0.0000000), wk =   0.2500000
        k(    5) = (   0.2500000  -0.5000000   0.0000000), wk =   0.2500000
        k(    6) = (  -0.5000000  -0.5000000   0.0000000), wk =   0.1250000
        k(    7) = (   0.2500000   0.0000000   0.0000000), wk =   0.2500000
        k(    8) = (  -0.5000000   0.0000000   0.0000000), wk =   0.1250000
        k(    9) = (  -0.2500000   0.2500000   0.0000000), wk =   0.2500000
        k(   10) = (  -0.5000000   0.2500000   0.0000000), wk =   0.2500000

                       cryst. coord.
        k(    1) = (   0.0000000   0.0000000   0.0000000), wk =   0.1250000
        k(    2) = (   0.0000000   0.2500000   0.0000000), wk =   0.2500000
        k(    3) = (   0.0000000  -0.5000000   0.0000000), wk =   0.1250000
        k(    4) = (   0.2500000   0.2500000   0.0000000), wk =   0.2500000
        k(    5) = (   0.2500000  -0.5000000   0.0000000), wk =   0.2500000
        k(    6) = (  -0.5000000  -0.5000000   0.0000000), wk =   0.1250000
        k(    7) = (   0.2500000   0.0000000   0.0000000), wk =   0.2500000
        k(    8) = (  -0.5000000   0.0000000   0.0000000), wk =   0.1250000
        k(    9) = (  -0.2500000   0.2500000   0.0000000), wk =   0.2500000
        k(   10) = (  -0.5000000   0.2500000   0.0000000), wk =   0.2500000

     Dense  grid:  1474595 G-vectors     FFT dimensions: ( 108, 108, 270)

     Smooth grid:   521381 G-vectors     FFT dimensions: (  75,  75, 192)

     Dynamical RAM for                 wfc:      10.61 MB

     Dynamical RAM for     wfc (w. buffer):      63.63 MB

     Dynamical RAM for           str. fact:       3.75 MB

     Dynamical RAM for           local pot:       0.00 MB

     Dynamical RAM for          nlocal pot:      24.28 MB

     Dynamical RAM for                qrad:       7.03 MB

     Dynamical RAM for          rho,v,vnew:       6.02 MB

     Dynamical RAM for               rhoin:       2.01 MB

     Dynamical RAM for            rho*nmix:      15.00 MB

     Dynamical RAM for           G-vectors:       3.68 MB

     Dynamical RAM for          h,s,v(r/c):       1.32 MB

     Dynamical RAM for          <psi|beta>:       2.29 MB

     Dynamical RAM for                 psi:      21.21 MB

     Dynamical RAM for                hpsi:      21.21 MB

     Dynamical RAM for                spsi:      21.21 MB

     Dynamical RAM for      wfcinit/wfcrot:      34.09 MB

     Dynamical RAM for           addusdens:     100.79 MB

     Estimated static dynamical RAM per process >     120.42 MB

     Estimated max dynamical RAM per process >     236.21 MB

     Estimated total dynamical RAM >      10.72 GB

     Check: negative core charge=   -0.000004

     Initial potential from superposition of free atoms

     starting charge     416.5961, renormalised to     425.0000

     negative rho (up, down):  7.826E-01 0.000E+00
     Starting wfcs are  373 randomized atomic wfcs
     Checking if some PAW data can be deallocated... 
       PAW data deallocated on   20 nodes for type:  2

     total cpu time spent up to now is        8.5 secs

     Self-consistent Calculation

     iteration #  1     ecut=    60.00 Ry     beta= 0.15
     Davidson diagonalization with overlap

---- Real-time Memory Report at c_bands before calling an iterative solver
             0 MiB given to the printing process from OS
             0 MiB allocation reported by mallinfo(arena+hblkhd)
        170505 MiB available memory on the node where the printing process lives
------------------
     ethr =  1.00E-02,  avg # of iterations =  2.0

     negative rho (up, down):  7.719E-01 0.000E+00

     total cpu time spent up to now is       23.4 secs

     total energy              =   -4404.78515092 Ry
     estimated scf accuracy    <      42.17032154 Ry

     iteration #  2     ecut=    60.00 Ry     beta= 0.15
     Davidson diagonalization with overlap

---- Real-time Memory Report at c_bands before calling an iterative solver
             0 MiB given to the printing process from OS
             0 MiB allocation reported by mallinfo(arena+hblkhd)
        170732 MiB available memory on the node where the printing process lives
------------------
     ethr =  9.92E-03,  avg # of iterations =  1.0

     negative rho (up, down):  7.532E-01 0.000E+00

     total cpu time spent up to now is       35.5 secs

     total energy              =   -4400.00997108 Ry
     estimated scf accuracy    <      26.71681977 Ry

     iteration #  3     ecut=    60.00 Ry     beta= 0.15
     Davidson diagonalization with overlap

---- Real-time Memory Report at c_bands before calling an iterative solver
             0 MiB given to the printing process from OS
             0 MiB allocation reported by mallinfo(arena+hblkhd)
        169975 MiB available memory on the node where the printing process lives
------------------
     ethr =  6.29E-03,  avg # of iterations =  2.0

     negative rho (up, down):  7.544E-01 0.000E+00

     total cpu time spent up to now is       49.0 secs

     total energy              =   -4402.39903285 Ry
     estimated scf accuracy    <      49.69429883 Ry

     iteration #  4     ecut=    60.00 Ry     beta= 0.15
     Davidson diagonalization with overlap

---- Real-time Memory Report at c_bands before calling an iterative solver
             0 MiB given to the printing process from OS
             0 MiB allocation reported by mallinfo(arena+hblkhd)
        169853 MiB available memory on the node where the printing process lives
------------------
     ethr =  6.29E-03,  avg # of iterations =  1.0

     negative rho (up, down):  7.411E-01 0.000E+00

     total cpu time spent up to now is       61.2 secs

     total energy              =   -4401.67212927 Ry
     estimated scf accuracy    <      29.71117415 Ry

     iteration #  5     ecut=    60.00 Ry     beta= 0.15
     Davidson diagonalization with overlap

---- Real-time Memory Report at c_bands before calling an iterative solver
             0 MiB given to the printing process from OS
             0 MiB allocation reported by mallinfo(arena+hblkhd)
        169836 MiB available memory on the node where the printing process lives
------------------
     ethr =  6.29E-03,  avg # of iterations =  1.0

     negative rho (up, down):  7.469E-01 0.000E+00

     total cpu time spent up to now is       73.3 secs

     total energy              =   -4399.93267454 Ry
     estimated scf accuracy    <      44.32402143 Ry

     iteration #  6     ecut=    60.00 Ry     beta= 0.15
     Davidson diagonalization with overlap

---- Real-time Memory Report at c_bands before calling an iterative solver
             0 MiB given to the printing process from OS
             0 MiB allocation reported by mallinfo(arena+hblkhd)
        169812 MiB available memory on the node where the printing process lives
------------------
     ethr =  6.29E-03,  avg # of iterations =  1.0

     negative rho (up, down):  7.422E-01 0.000E+00

     total cpu time spent up to now is       85.4 secs

     total energy              =   -4400.68129593 Ry
     estimated scf accuracy    <      11.73786380 Ry

     iteration #  7     ecut=    60.00 Ry     beta= 0.15
     Davidson diagonalization with overlap

---- Real-time Memory Report at c_bands before calling an iterative solver
             0 MiB given to the printing process from OS
             0 MiB allocation reported by mallinfo(arena+hblkhd)
        169797 MiB available memory on the node where the printing process lives
------------------
     ethr =  2.76E-03,  avg # of iterations =  1.1

     negative rho (up, down):  7.443E-01 0.000E+00

     total cpu time spent up to now is       97.9 secs

     total energy              =   -4400.79743969 Ry
     estimated scf accuracy    <       4.14536310 Ry

     iteration #  8     ecut=    60.00 Ry     beta= 0.15
     Davidson diagonalization with overlap

---- Real-time Memory Report at c_bands before calling an iterative solver
             0 MiB given to the printing process from OS
             0 MiB allocation reported by mallinfo(arena+hblkhd)
        169770 MiB available memory on the node where the printing process lives
------------------
     ethr =  9.75E-04,  avg # of iterations =  1.5

     negative rho (up, down):  7.529E-01 0.000E+00

     total cpu time spent up to now is      110.4 secs

     total energy              =   -4400.34289059 Ry
     estimated scf accuracy    <       3.71117641 Ry

     iteration #  9     ecut=    60.00 Ry     beta= 0.15
     Davidson diagonalization with overlap

---- Real-time Memory Report at c_bands before calling an iterative solver
             0 MiB given to the printing process from OS
             0 MiB allocation reported by mallinfo(arena+hblkhd)
        169755 MiB available memory on the node where the printing process lives
------------------
     ethr =  8.73E-04,  avg # of iterations =  3.1

     negative rho (up, down):  7.767E-01 0.000E+00

     total cpu time spent up to now is      124.6 secs

     total energy              =   -4399.85259726 Ry
     estimated scf accuracy    <      39.59628683 Ry

     iteration # 10     ecut=    60.00 Ry     beta= 0.15
     Davidson diagonalization with overlap

---- Real-time Memory Report at c_bands before calling an iterative solver
             0 MiB given to the printing process from OS
             0 MiB allocation reported by mallinfo(arena+hblkhd)
        169697 MiB available memory on the node where the printing process lives
------------------
     ethr =  8.73E-04,  avg # of iterations =  9.6

     negative rho (up, down):  7.785E-01 0.000E+00

     total cpu time spent up to now is      143.0 secs

     total energy              =   -4399.80781050 Ry
     estimated scf accuracy    <      11.88065680 Ry

     iteration # 11     ecut=    60.00 Ry     beta= 0.15
     Davidson diagonalization with overlap

---- Real-time Memory Report at c_bands before calling an iterative solver
             0 MiB given to the printing process from OS
             0 MiB allocation reported by mallinfo(arena+hblkhd)
        169286 MiB available memory on the node where the printing process lives
------------------
     ethr =  8.73E-04,  avg # of iterations =  1.1

     negative rho (up, down):  7.813E-01 0.000E+00

     total cpu time spent up to now is      155.1 secs

     total energy              =   -4400.12646784 Ry
     estimated scf accuracy    <       1.17514792 Ry

     iteration # 12     ecut=    60.00 Ry     beta= 0.15
     Davidson diagonalization with overlap

---- Real-time Memory Report at c_bands before calling an iterative solver
             0 MiB given to the printing process from OS
             0 MiB allocation reported by mallinfo(arena+hblkhd)
        169295 MiB available memory on the node where the printing process lives
------------------
     ethr =  2.77E-04,  avg # of iterations =  2.6

     negative rho (up, down):  7.879E-01 0.000E+00

     total cpu time spent up to now is      168.6 secs

     total energy              =   -4400.09613327 Ry
     estimated scf accuracy    <       0.77729130 Ry

     iteration # 13     ecut=    60.00 Ry     beta= 0.15
     Davidson diagonalization with overlap

---- Real-time Memory Report at c_bands before calling an iterative solver
             0 MiB given to the printing process from OS
             0 MiB allocation reported by mallinfo(arena+hblkhd)
        169288 MiB available memory on the node where the printing process lives
------------------
     ethr =  1.83E-04,  avg # of iterations =  3.6

     negative rho (up, down):  8.030E-01 0.000E+00

     total cpu time spent up to now is      183.2 secs

     total energy              =   -4400.08137613 Ry
     estimated scf accuracy    <       0.93444259 Ry

     iteration # 14     ecut=    60.00 Ry     beta= 0.15
     Davidson diagonalization with overlap

---- Real-time Memory Report at c_bands before calling an iterative solver
             0 MiB given to the printing process from OS
             0 MiB allocation reported by mallinfo(arena+hblkhd)
        169262 MiB available memory on the node where the printing process lives
------------------
     ethr =  1.83E-04,  avg # of iterations =  7.4

     negative rho (up, down):  8.015E-01 0.000E+00

     total cpu time spent up to now is      198.9 secs

     total energy              =   -4400.01128231 Ry
     estimated scf accuracy    <       2.15920725 Ry

     iteration # 15     ecut=    60.00 Ry     beta= 0.15
     Davidson diagonalization with overlap

---- Real-time Memory Report at c_bands before calling an iterative solver
             0 MiB given to the printing process from OS
             0 MiB allocation reported by mallinfo(arena+hblkhd)
        169248 MiB available memory on the node where the printing process lives
------------------
     ethr =  1.83E-04,  avg # of iterations =  2.6

     negative rho (up, down):  8.057E-01 0.000E+00

     total cpu time spent up to now is      212.3 secs

     total energy              =   -4400.04952686 Ry
     estimated scf accuracy    <       0.42303783 Ry

     iteration # 16     ecut=    60.00 Ry     beta= 0.15
     Davidson diagonalization with overlap

---- Real-time Memory Report at c_bands before calling an iterative solver
             0 MiB given to the printing process from OS
             0 MiB allocation reported by mallinfo(arena+hblkhd)
        169256 MiB available memory on the node where the printing process lives
------------------
     c_bands:  2 eigenvalues not converged
     ethr =  9.95E-05,  avg # of iterations =  5.4

     negative rho (up, down):  8.084E-01 0.000E+00

     total cpu time spent up to now is      227.7 secs

     total energy              =   -4400.02707789 Ry
     estimated scf accuracy    <       0.32805321 Ry

     iteration # 17     ecut=    60.00 Ry     beta= 0.15
     Davidson diagonalization with overlap

---- Real-time Memory Report at c_bands before calling an iterative solver
             0 MiB given to the printing process from OS
             0 MiB allocation reported by mallinfo(arena+hblkhd)
        169241 MiB available memory on the node where the printing process lives
------------------
     ethr =  7.72E-05,  avg # of iterations =  7.5

     negative rho (up, down):  8.176E-01 0.000E+00

     total cpu time spent up to now is      244.1 secs

     total energy              =   -4399.94937528 Ry
     estimated scf accuracy    <       0.32444025 Ry

     iteration # 18     ecut=    60.00 Ry     beta= 0.15
     Davidson diagonalization with overlap

---- Real-time Memory Report at c_bands before calling an iterative solver
             0 MiB given to the printing process from OS
             0 MiB allocation reported by mallinfo(arena+hblkhd)
        169260 MiB available memory on the node where the printing process lives
------------------
     c_bands:  1 eigenvalues not converged
     ethr =  7.63E-05,  avg # of iterations = 12.8

     negative rho (up, down):  8.315E-01 0.000E+00

     total cpu time spent up to now is      262.8 secs

     total energy              =   -4399.93812594 Ry
     estimated scf accuracy    <       0.27492466 Ry

     iteration # 19     ecut=    60.00 Ry     beta= 0.15
     Davidson diagonalization with overlap

---- Real-time Memory Report at c_bands before calling an iterative solver
             0 MiB given to the printing process from OS
             0 MiB allocation reported by mallinfo(arena+hblkhd)
        169183 MiB available memory on the node where the printing process lives
------------------
     ethr =  6.47E-05,  avg # of iterations =  2.8

     negative rho (up, down):  8.269E-01 0.000E+00

     total cpu time spent up to now is      276.9 secs

     total energy              =   -4399.93695050 Ry
     estimated scf accuracy    <       0.09971602 Ry

     iteration # 20     ecut=    60.00 Ry     beta= 0.15
     Davidson diagonalization with overlap

---- Real-time Memory Report at c_bands before calling an iterative solver
             0 MiB given to the printing process from OS
             0 MiB allocation reported by mallinfo(arena+hblkhd)
        169216 MiB available memory on the node where the printing process lives
------------------
     ethr =  2.35E-05,  avg # of iterations =  7.1

     negative rho (up, down):  8.248E-01 0.000E+00

     total cpu time spent up to now is      292.7 secs

     total energy              =   -4399.93210848 Ry
     estimated scf accuracy    <       0.13382539 Ry

     iteration # 21     ecut=    60.00 Ry     beta= 0.15
     Davidson diagonalization with overlap

---- Real-time Memory Report at c_bands before calling an iterative solver
             0 MiB given to the printing process from OS
             0 MiB allocation reported by mallinfo(arena+hblkhd)
        169180 MiB available memory on the node where the printing process lives
------------------
     ethr =  2.35E-05,  avg # of iterations =  1.9

     negative rho (up, down):  8.065E-01 0.000E+00

     total cpu time spent up to now is      306.0 secs

     total energy              =   -4399.91455030 Ry
     estimated scf accuracy    <       0.07208237 Ry

     iteration # 22     ecut=    60.00 Ry     beta= 0.15
     Davidson diagonalization with overlap

---- Real-time Memory Report at c_bands before calling an iterative solver
             0 MiB given to the printing process from OS
             0 MiB allocation reported by mallinfo(arena+hblkhd)
        169188 MiB available memory on the node where the printing process lives
------------------
     ethr =  1.70E-05,  avg # of iterations =  9.5

     negative rho (up, down):  8.104E-01 0.000E+00

     total cpu time spent up to now is      323.8 secs

     total energy              =   -4399.91539752 Ry
     estimated scf accuracy    <       0.03201790 Ry

     iteration # 23     ecut=    60.00 Ry     beta= 0.15
     Davidson diagonalization with overlap

---- Real-time Memory Report at c_bands before calling an iterative solver
             0 MiB given to the printing process from OS
             0 MiB allocation reported by mallinfo(arena+hblkhd)
        169094 MiB available memory on the node where the printing process lives
------------------
     ethr =  7.53E-06,  avg # of iterations =  9.3

     negative rho (up, down):  8.023E-01 0.000E+00

     total cpu time spent up to now is      340.1 secs

     total energy              =   -4399.91419625 Ry
     estimated scf accuracy    <       0.02062722 Ry

     iteration # 24     ecut=    60.00 Ry     beta= 0.15
     Davidson diagonalization with overlap

---- Real-time Memory Report at c_bands before calling an iterative solver
             0 MiB given to the printing process from OS
             0 MiB allocation reported by mallinfo(arena+hblkhd)
        169129 MiB available memory on the node where the printing process lives
------------------
     ethr =  4.85E-06,  avg # of iterations = 10.1

     negative rho (up, down):  7.937E-01 0.000E+00

     total cpu time spent up to now is      357.0 secs

     total energy              =   -4399.91320336 Ry
     estimated scf accuracy    <       0.01437898 Ry

     iteration # 25     ecut=    60.00 Ry     beta= 0.15
     Davidson diagonalization with overlap

---- Real-time Memory Report at c_bands before calling an iterative solver
             0 MiB given to the printing process from OS
             0 MiB allocation reported by mallinfo(arena+hblkhd)
        169150 MiB available memory on the node where the printing process lives
------------------
     ethr =  3.38E-06,  avg # of iterations =  6.6

     negative rho (up, down):  7.916E-01 0.000E+00

     total cpu time spent up to now is      373.0 secs

     total energy              =   -4399.91304635 Ry
     estimated scf accuracy    <       0.01002426 Ry

     iteration # 26     ecut=    60.00 Ry     beta= 0.15
     Davidson diagonalization with overlap

---- Real-time Memory Report at c_bands before calling an iterative solver
             0 MiB given to the printing process from OS
             0 MiB allocation reported by mallinfo(arena+hblkhd)
        169173 MiB available memory on the node where the printing process lives
------------------
     ethr =  2.36E-06,  avg # of iterations =  5.3

     negative rho (up, down):  7.908E-01 0.000E+00

     total cpu time spent up to now is      389.0 secs

     total energy              =   -4399.91238810 Ry
     estimated scf accuracy    <       0.00711061 Ry

     iteration # 27     ecut=    60.00 Ry     beta= 0.15
     Davidson diagonalization with overlap

---- Real-time Memory Report at c_bands before calling an iterative solver
             0 MiB given to the printing process from OS
             0 MiB allocation reported by mallinfo(arena+hblkhd)
        169149 MiB available memory on the node where the printing process lives
------------------
     c_bands:  1 eigenvalues not converged
     ethr =  1.67E-06,  avg # of iterations = 10.3

     negative rho (up, down):  8.000E-01 0.000E+00

     total cpu time spent up to now is      406.9 secs

     total energy              =   -4399.91194190 Ry
     estimated scf accuracy    <       0.00410258 Ry

     iteration # 28     ecut=    60.00 Ry     beta= 0.15
     Davidson diagonalization with overlap

---- Real-time Memory Report at c_bands before calling an iterative solver
             0 MiB given to the printing process from OS
             0 MiB allocation reported by mallinfo(arena+hblkhd)
        169130 MiB available memory on the node where the printing process lives
------------------
     ethr =  9.65E-07,  avg # of iterations = 12.6

     negative rho (up, down):  8.002E-01 0.000E+00

     total cpu time spent up to now is      428.2 secs

     total energy              =   -4399.91223369 Ry
     estimated scf accuracy    <       0.00085750 Ry

     iteration # 29     ecut=    60.00 Ry     beta= 0.15
     Davidson diagonalization with overlap

---- Real-time Memory Report at c_bands before calling an iterative solver
             0 MiB given to the printing process from OS
             0 MiB allocation reported by mallinfo(arena+hblkhd)
        168836 MiB available memory on the node where the printing process lives
------------------
     ethr =  2.02E-07,  avg # of iterations =  2.2

     negative rho (up, down):  7.978E-01 0.000E+00

     total cpu time spent up to now is      441.8 secs

     total energy              =   -4399.91209456 Ry
     estimated scf accuracy    <       0.00049480 Ry

     iteration # 30     ecut=    60.00 Ry     beta= 0.15
     Davidson diagonalization with overlap

---- Real-time Memory Report at c_bands before calling an iterative solver
             0 MiB given to the printing process from OS
             0 MiB allocation reported by mallinfo(arena+hblkhd)
        168933 MiB available memory on the node where the printing process lives
------------------
     c_bands:  1 eigenvalues not converged
     ethr =  1.16E-07,  avg # of iterations =  6.4

     negative rho (up, down):  7.943E-01 0.000E+00

     total cpu time spent up to now is      457.2 secs

     total energy              =   -4399.91205514 Ry
     estimated scf accuracy    <       0.00022990 Ry

     iteration # 31     ecut=    60.00 Ry     beta= 0.15
     Davidson diagonalization with overlap

---- Real-time Memory Report at c_bands before calling an iterative solver
             0 MiB given to the printing process from OS
             0 MiB allocation reported by mallinfo(arena+hblkhd)
        169003 MiB available memory on the node where the printing process lives
------------------
     ethr =  5.41E-08,  avg # of iterations =  4.9

     negative rho (up, down):  7.937E-01 0.000E+00

     total cpu time spent up to now is      472.6 secs

     total energy              =   -4399.91207753 Ry
     estimated scf accuracy    <       0.00010617 Ry

     iteration # 32     ecut=    60.00 Ry     beta= 0.15
     Davidson diagonalization with overlap

---- Real-time Memory Report at c_bands before calling an iterative solver
             0 MiB given to the printing process from OS
             0 MiB allocation reported by mallinfo(arena+hblkhd)
        169060 MiB available memory on the node where the printing process lives
------------------
     ethr =  2.50E-08,  avg # of iterations =  2.0

     negative rho (up, down):  7.929E-01 0.000E+00

     total cpu time spent up to now is      486.1 secs

     total energy              =   -4399.91208784 Ry
     estimated scf accuracy    <       0.00005678 Ry

     iteration # 33     ecut=    60.00 Ry     beta= 0.15
     Davidson diagonalization with overlap

---- Real-time Memory Report at c_bands before calling an iterative solver
             0 MiB given to the printing process from OS
             0 MiB allocation reported by mallinfo(arena+hblkhd)
        169088 MiB available memory on the node where the printing process lives
------------------
     ethr =  1.34E-08,  avg # of iterations =  2.1

     negative rho (up, down):  7.926E-01 0.000E+00

     total cpu time spent up to now is      499.9 secs

     total energy              =   -4399.91209449 Ry
     estimated scf accuracy    <       0.00002503 Ry

     iteration # 34     ecut=    60.00 Ry     beta= 0.15
     Davidson diagonalization with overlap

---- Real-time Memory Report at c_bands before calling an iterative solver
             0 MiB given to the printing process from OS
             0 MiB allocation reported by mallinfo(arena+hblkhd)
        169105 MiB available memory on the node where the printing process lives
------------------
     ethr =  5.89E-09,  avg # of iterations =  2.2

     negative rho (up, down):  7.926E-01 0.000E+00

     total cpu time spent up to now is      513.6 secs

     total energy              =   -4399.91209540 Ry
     estimated scf accuracy    <       0.00001335 Ry

     iteration # 35     ecut=    60.00 Ry     beta= 0.15
     Davidson diagonalization with overlap

---- Real-time Memory Report at c_bands before calling an iterative solver
             0 MiB given to the printing process from OS
             0 MiB allocation reported by mallinfo(arena+hblkhd)
        169116 MiB available memory on the node where the printing process lives
------------------
     ethr =  3.14E-09,  avg # of iterations =  1.8

     negative rho (up, down):  7.923E-01 0.000E+00

     total cpu time spent up to now is      526.9 secs

     total energy              =   -4399.91209804 Ry
     estimated scf accuracy    <       0.00001034 Ry

     iteration # 36     ecut=    60.00 Ry     beta= 0.15
     Davidson diagonalization with overlap

---- Real-time Memory Report at c_bands before calling an iterative solver
             0 MiB given to the printing process from OS
             0 MiB allocation reported by mallinfo(arena+hblkhd)
        169129 MiB available memory on the node where the printing process lives
------------------
     ethr =  2.43E-09,  avg # of iterations =  2.8

     negative rho (up, down):  7.922E-01 0.000E+00

     total cpu time spent up to now is      540.8 secs

     total energy              =   -4399.91209867 Ry
     estimated scf accuracy    <       0.00000595 Ry

     iteration # 37     ecut=    60.00 Ry     beta= 0.15
     Davidson diagonalization with overlap

---- Real-time Memory Report at c_bands before calling an iterative solver
             0 MiB given to the printing process from OS
             0 MiB allocation reported by mallinfo(arena+hblkhd)
        169150 MiB available memory on the node where the printing process lives
------------------
     ethr =  1.40E-09,  avg # of iterations =  4.0

     negative rho (up, down):  7.922E-01 0.000E+00

     total cpu time spent up to now is      555.4 secs

     total energy              =   -4399.91209759 Ry
     estimated scf accuracy    <       0.00000373 Ry

     iteration # 38     ecut=    60.00 Ry     beta= 0.15
     Davidson diagonalization with overlap

---- Real-time Memory Report at c_bands before calling an iterative solver
             0 MiB given to the printing process from OS
             0 MiB allocation reported by mallinfo(arena+hblkhd)
        169178 MiB available memory on the node where the printing process lives
------------------
     ethr =  8.77E-10,  avg # of iterations =  2.7

     negative rho (up, down):  7.923E-01 0.000E+00

     total cpu time spent up to now is      569.6 secs

     total energy              =   -4399.91209699 Ry
     estimated scf accuracy    <       0.00000293 Ry

     iteration # 39     ecut=    60.00 Ry     beta= 0.15
     Davidson diagonalization with overlap

---- Real-time Memory Report at c_bands before calling an iterative solver
             0 MiB given to the printing process from OS
             0 MiB allocation reported by mallinfo(arena+hblkhd)
        169195 MiB available memory on the node where the printing process lives
------------------
     ethr =  6.89E-10,  avg # of iterations =  2.8

     negative rho (up, down):  7.924E-01 0.000E+00

     total cpu time spent up to now is      584.0 secs

     total energy              =   -4399.91209831 Ry
     estimated scf accuracy    <       0.00000152 Ry

     iteration # 40     ecut=    60.00 Ry     beta= 0.15
     Davidson diagonalization with overlap

---- Real-time Memory Report at c_bands before calling an iterative solver
             0 MiB given to the printing process from OS
             0 MiB allocation reported by mallinfo(arena+hblkhd)
        169186 MiB available memory on the node where the printing process lives
------------------
     ethr =  3.58E-10,  avg # of iterations =  2.8

     negative rho (up, down):  7.925E-01 0.000E+00

     total cpu time spent up to now is      598.4 secs

     total energy              =   -4399.91209892 Ry
     estimated scf accuracy    <       0.00000075 Ry

     iteration # 41     ecut=    60.00 Ry     beta= 0.15
     Davidson diagonalization with overlap

---- Real-time Memory Report at c_bands before calling an iterative solver
             0 MiB given to the printing process from OS
             0 MiB allocation reported by mallinfo(arena+hblkhd)
        169182 MiB available memory on the node where the printing process lives
------------------
     ethr =  1.76E-10,  avg # of iterations =  3.8

     negative rho (up, down):  7.925E-01 0.000E+00

     total cpu time spent up to now is      613.3 secs

     total energy              =   -4399.91209892 Ry
     estimated scf accuracy    <       0.00000056 Ry

     iteration # 42     ecut=    60.00 Ry     beta= 0.15
     Davidson diagonalization with overlap

---- Real-time Memory Report at c_bands before calling an iterative solver
             0 MiB given to the printing process from OS
             0 MiB allocation reported by mallinfo(arena+hblkhd)
        169170 MiB available memory on the node where the printing process lives
------------------
     ethr =  1.32E-10,  avg # of iterations =  3.4

     negative rho (up, down):  7.925E-01 0.000E+00

     total cpu time spent up to now is      627.9 secs

     total energy              =   -4399.91209894 Ry
     estimated scf accuracy    <       0.00000028 Ry

     iteration # 43     ecut=    60.00 Ry     beta= 0.15
     Davidson diagonalization with overlap

---- Real-time Memory Report at c_bands before calling an iterative solver
             0 MiB given to the printing process from OS
             0 MiB allocation reported by mallinfo(arena+hblkhd)
        169170 MiB available memory on the node where the printing process lives
------------------
     ethr =  6.65E-11,  avg # of iterations =  1.5

     negative rho (up, down):  7.924E-01 0.000E+00

     total cpu time spent up to now is      641.0 secs

     total energy              =   -4399.91209897 Ry
     estimated scf accuracy    <       0.00000030 Ry

     iteration # 44     ecut=    60.00 Ry     beta= 0.15
     Davidson diagonalization with overlap

---- Real-time Memory Report at c_bands before calling an iterative solver
             0 MiB given to the printing process from OS
             0 MiB allocation reported by mallinfo(arena+hblkhd)
        169174 MiB available memory on the node where the printing process lives
------------------
     ethr =  6.65E-11,  avg # of iterations =  1.9

     negative rho (up, down):  7.924E-01 0.000E+00

     total cpu time spent up to now is      654.5 secs

     total energy              =   -4399.91209899 Ry
     estimated scf accuracy    <       0.00000023 Ry

     iteration # 45     ecut=    60.00 Ry     beta= 0.15
     Davidson diagonalization with overlap

---- Real-time Memory Report at c_bands before calling an iterative solver
             0 MiB given to the printing process from OS
             0 MiB allocation reported by mallinfo(arena+hblkhd)
        169172 MiB available memory on the node where the printing process lives
------------------
     ethr =  5.30E-11,  avg # of iterations =  2.1

     negative rho (up, down):  7.924E-01 0.000E+00

     total cpu time spent up to now is      668.1 secs

     total energy              =   -4399.91209900 Ry
     estimated scf accuracy    <       0.00000015 Ry

     iteration # 46     ecut=    60.00 Ry     beta= 0.15
     Davidson diagonalization with overlap

---- Real-time Memory Report at c_bands before calling an iterative solver
             0 MiB given to the printing process from OS
             0 MiB allocation reported by mallinfo(arena+hblkhd)
        169174 MiB available memory on the node where the printing process lives
------------------
     ethr =  3.58E-11,  avg # of iterations =  1.6

     negative rho (up, down):  7.924E-01 0.000E+00

     total cpu time spent up to now is      681.2 secs

     total energy              =   -4399.91209899 Ry
     estimated scf accuracy    <       0.00000009 Ry

     iteration # 47     ecut=    60.00 Ry     beta= 0.15
     Davidson diagonalization with overlap

---- Real-time Memory Report at c_bands before calling an iterative solver
             0 MiB given to the printing process from OS
             0 MiB allocation reported by mallinfo(arena+hblkhd)
        169175 MiB available memory on the node where the printing process lives
------------------
     ethr =  2.14E-11,  avg # of iterations =  1.2

     negative rho (up, down):  7.924E-01 0.000E+00

     total cpu time spent up to now is      693.8 secs

     total energy              =   -4399.91209899 Ry
     estimated scf accuracy    <       0.00000005 Ry

     iteration # 48     ecut=    60.00 Ry     beta= 0.15
     Davidson diagonalization with overlap

---- Real-time Memory Report at c_bands before calling an iterative solver
             0 MiB given to the printing process from OS
             0 MiB allocation reported by mallinfo(arena+hblkhd)
        169181 MiB available memory on the node where the printing process lives
------------------
     ethr =  1.21E-11,  avg # of iterations =  2.6

     negative rho (up, down):  7.924E-01 0.000E+00

     total cpu time spent up to now is      707.4 secs

     total energy              =   -4399.91209899 Ry
     estimated scf accuracy    <       0.00000002 Ry

     iteration # 49     ecut=    60.00 Ry     beta= 0.15
     Davidson diagonalization with overlap

---- Real-time Memory Report at c_bands before calling an iterative solver
             0 MiB given to the printing process from OS
             0 MiB allocation reported by mallinfo(arena+hblkhd)
        169185 MiB available memory on the node where the printing process lives
------------------
     ethr =  5.26E-12,  avg # of iterations =  3.1

     negative rho (up, down):  7.924E-01 0.000E+00

     total cpu time spent up to now is      721.2 secs

     End of self-consistent calculation

          k = 0.0000 0.0000 0.0000 ( 65197 PWs)   bands (ev):

   -92.7077 -92.6536 -92.5615 -92.5134 -92.4544 -92.4139 -92.3971 -92.2716
   -56.0612 -56.0402 -55.9190 -55.9084 -55.9015 -55.8952 -55.8588 -55.8308
   -55.8158 -55.8133 -55.8036 -55.7625 -55.7437 -55.7060 -55.6879 -55.6541
   -55.6491 -55.6026 -55.5993 -55.5981 -55.5909 -55.5442 -55.5274 -55.4403
   -31.2845 -31.2647 -31.1497 -31.1236 -31.0659 -31.0361 -30.8384 -30.7292
   -29.8566 -29.8127 -29.7876 -29.6784 -15.0885 -15.0480 -14.9660 -14.8350
   -14.6473 -14.5227 -14.2277 -14.2102 -14.1785 -14.1356 -14.0912 -14.0817
   -14.0688 -14.0532 -14.0303 -14.0009 -13.9384 -13.7892 -13.6152 -13.5778
   -13.5456 -13.5189 -13.4990 -13.4489 -13.4124 -13.3288 -13.2577 -13.1647
   -13.1498 -13.1170 -13.1032 -13.0819 -13.0649 -13.0361 -13.0146 -12.9970
   -12.9742 -12.9548 -12.9437 -12.9293 -12.9148 -12.9030 -12.8198 -12.7950
   -12.7712 -12.6736 -12.6451 -12.6292 -12.3490 -12.2034 -12.0518 -11.9799
   -11.8699 -11.7956 -11.7846 -11.7618 -11.7443 -11.6804 -11.6632 -11.6284
   -11.5999 -11.4878 -11.4078 -11.4042  -2.9499  -2.7170  -2.4873  -2.3414
    -2.2776  -2.1349  -1.8285  -1.8144  -1.7938  -1.7110  -1.6915  -1.6232
    -1.6071  -1.5658  -1.5194  -1.3400  -1.1166  -1.0873  -0.9382  -0.9243
    -0.8793  -0.8619  -0.8162  -0.8002  -0.7416  -0.7153  -0.6456  -0.6318
    -0.5547  -0.4240  -0.4103  -0.3827  -0.3015  -0.2925  -0.2795  -0.2083
    -0.1369  -0.1026  -0.0415  -0.0179   0.0407   0.1257   0.1717   0.1952
     0.2036   0.4595   0.4747   0.6464   0.7140   0.7778   0.8236   0.9129
     0.9271   0.9455   1.0121   1.0396   1.0744   1.1324   1.2656   1.3215
     1.3432   1.3633   1.3721   1.4392   1.5143   1.6136   1.6268   1.6878
     1.7047   1.7453   1.7667   1.7721   1.8278   1.8801   1.8915   1.9257
     1.9615   2.0168   2.1474   2.2278   2.2747   2.2971   2.4416   2.4582
     2.5003   2.5059   2.6112   2.6487   2.6758   2.6939   2.7081   2.7668
     2.8200   2.8987   2.9316   2.9447   2.9508   3.0177   3.0213   3.0460
     3.0544   3.0629   3.0806   3.0818   3.0950   3.1002   3.1158   3.1247
     3.1307   3.1496   3.1703   3.1760   3.1874   3.2173   3.3284   3.4404
     4.1067   4.4163   4.7597   4.8663   5.0292   5.7986   5.9207   5.9794
     6.0227   6.3071   6.3544   6.4810   6.4914   6.7279   7.0054   7.0944
     7.1208   7.2865   7.3144   7.5602   7.6350   7.6586   7.6841   7.9016
     7.9453   8.0854   8.1124   8.1643   8.5595   8.6588   8.7203   8.8286

     occupation numbers 
     1.0000   1.0000   1.0000   1.0000   1.0000   1.0000   1.0000   1.0000
     1.0000   1.0000   1.0000   1.0000   1.0000   1.0000   1.0000   1.0000
     1.0000   1.0000   1.0000   1.0000   1.0000   1.0000   1.0000   1.0000
     1.0000   1.0000   1.0000   1.0000   1.0000   1.0000   1.0000   1.0000
     1.0000   1.0000   1.0000   1.0000   1.0000   1.0000   1.0000   1.0000
     1.0000   1.0000   1.0000   1.0000   1.0000   1.0000   1.0000   1.0000
     1.0000   1.0000   1.0000   1.0000   1.0000   1.0000   1.0000   1.0000
     1.0000   1.0000   1.0000   1.0000   1.0000   1.0000   1.0000   1.0000
     1.0000   1.0000   1.0000   1.0000   1.0000   1.0000   1.0000   1.0000
     1.0000   1.0000   1.0000   1.0000   1.0000   1.0000   1.0000   1.0000
     1.0000   1.0000   1.0000   1.0000   1.0000   1.0000   1.0000   1.0000
     1.0000   1.0000   1.0000   1.0000   1.0000   1.0000   1.0000   1.0000
     1.0000   1.0000   1.0000   1.0000   1.0000   1.0000   1.0000   1.0000
     1.0000   1.0000   1.0000   1.0000   1.0000   1.0000   1.0000   1.0000
     1.0000   1.0000   1.0000   1.0000   1.0000   1.0000   1.0000   1.0000
     1.0000   1.0000   1.0000   1.0000   1.0000   1.0000   1.0000   1.0000
     1.0000   1.0000   1.0000   1.0000   1.0000   1.0000   1.0000   1.0000
     1.0000   1.0000   1.0000   1.0000   1.0000   1.0000   1.0000   1.0000
     1.0000   1.0000   1.0000   1.0000   1.0000   1.0000   1.0000   1.0000
     1.0000   1.0000   1.0000   1.0000   0.9999   0.9999   0.9999   0.9998
     0.9998   0.9998   0.9997   0.9996   0.9996   0.9994   0.9989   0.9985
     0.9983   0.9982   0.9981   0.9974   0.9963   0.9944   0.9940   0.9923
     0.9918   0.9903   0.9895   0.9892   0.9866   0.9837   0.9830   0.9808
     0.9782   0.9735   0.9592   0.9476   0.9397   0.9356   0.9039   0.8997
     0.8882   0.8866   0.8537   0.8406   0.8306   0.8237   0.8182   0.7943
     0.7711   0.7342   0.7179   0.7113   0.7082   0.6732   0.6713   0.6579
     0.6533   0.6486   0.6388   0.6382   0.6308   0.6279   0.6191   0.6140
     0.6106   0.5998   0.5879   0.5846   0.5780   0.5605   0.4949   0.4290
     0.1213   0.0518   0.0163   0.0108   0.0056   0.0001   0.0001   0.0000
     0.0000   0.0000   0.0000   0.0000   0.0000   0.0000   0.0000   0.0000
     0.0000   0.0000   0.0000   0.0000   0.0000   0.0000   0.0000   0.0000
     0.0000   0.0000   0.0000   0.0000   0.0000   0.0000   0.0000   0.0000

          k = 0.0000 0.2500 0.0000 ( 65257 PWs)   bands (ev):

   -92.7077 -92.6536 -92.5615 -92.5134 -92.4544 -92.4139 -92.3971 -92.2716
   -56.0612 -56.0402 -55.9190 -55.9084 -55.9015 -55.8952 -55.8588 -55.8308
   -55.8158 -55.8133 -55.8036 -55.7625 -55.7437 -55.7060 -55.6879 -55.6541
   -55.6491 -55.6026 -55.5993 -55.5981 -55.5909 -55.5442 -55.5274 -55.4403
   -31.2843 -31.2646 -31.1493 -31.1238 -31.0663 -31.0362 -30.8381 -30.7295
   -29.8560 -29.8123 -29.7882 -29.6788 -15.0518 -15.0217 -14.9409 -14.8058
   -14.6868 -14.5141 -14.3733 -14.1935 -14.1614 -14.1398 -14.1117 -14.0538
   -14.0481 -14.0321 -14.0157 -13.9777 -13.8577 -13.8197 -13.6555 -13.6408
   -13.5873 -13.5520 -13.5103 -13.4660 -13.4297 -13.3508 -13.3153 -13.2755
   -13.2090 -13.1548 -13.1321 -13.1141 -13.0919 -13.0178 -12.9865 -12.9576
   -12.9397 -12.9106 -12.8836 -12.8745 -12.8606 -12.8114 -12.8014 -12.7814
   -12.7460 -12.6726 -12.5624 -12.4982 -12.4103 -12.2546 -12.1082 -12.0458
   -11.8354 -11.7924 -11.7648 -11.7364 -11.7197 -11.6723 -11.6611 -11.6387
   -11.6045 -11.5021 -11.4495 -11.4388  -2.8147  -2.5927  -2.4552  -2.2733
    -2.2298  -2.0656  -1.8474  -1.7616  -1.7486  -1.6921  -1.5890  -1.5733
    -1.5379  -1.5128  -1.4690  -1.2712  -1.1430  -1.1311  -1.0547  -1.0441
    -0.9398  -0.9092  -0.8534  -0.8284  -0.7859  -0.7226  -0.6968  -0.6642
    -0.6336  -0.6163  -0.5834  -0.5093  -0.4578  -0.3950  -0.2832  -0.2640
    -0.2211  -0.1039  -0.0708  -0.0041   0.0423   0.1087   0.1243   0.1505
     0.2072   0.5063   0.5949   0.6239   0.7149   0.7606   0.7788   0.9021
     0.9200   1.0122   1.0390   1.0670   1.1826   1.2724   1.2965   1.3202
     1.3388   1.3662   1.4256   1.4527   1.4790   1.5283   1.5618   1.5902
     1.6693   1.7034   1.7418   1.7951   1.8475   1.8861   1.9155   1.9459
     1.9656   2.0480   2.1812   2.2553   2.2787   2.3511   2.3971   2.4345
     2.4450   2.5070   2.5470   2.6291   2.6676   2.6819   2.7933   2.8591
     2.8899   2.9119   2.9337   2.9534   2.9604   2.9670   2.9827   3.0067
     3.0085   3.0280   3.0344   3.0426   3.0624   3.0740   3.0792   3.1006
     3.1121   3.1162   3.1510   3.1678   3.2322   3.5914   3.6491   3.8771
     4.2963   4.4146   4.6963   5.0152   5.0621   5.6274   5.7652   5.9064
     5.9687   6.0825   6.1148   6.1793   6.5983   6.8452   6.8949   7.1097
     7.3279   7.3792   7.4792   7.4952   7.6395   7.7356   7.7742   7.9484
     8.0379   8.0864   8.1637   8.2992   8.4053   8.6089   8.7641   8.8859

     occupation numbers 
     1.0000   1.0000   1.0000   1.0000   1.0000   1.0000   1.0000   1.0000
     1.0000   1.0000   1.0000   1.0000   1.0000   1.0000   1.0000   1.0000
     1.0000   1.0000   1.0000   1.0000   1.0000   1.0000   1.0000   1.0000
     1.0000   1.0000   1.0000   1.0000   1.0000   1.0000   1.0000   1.0000
     1.0000   1.0000   1.0000   1.0000   1.0000   1.0000   1.0000   1.0000
     1.0000   1.0000   1.0000   1.0000   1.0000   1.0000   1.0000   1.0000
     1.0000   1.0000   1.0000   1.0000   1.0000   1.0000   1.0000   1.0000
     1.0000   1.0000   1.0000   1.0000   1.0000   1.0000   1.0000   1.0000
     1.0000   1.0000   1.0000   1.0000   1.0000   1.0000   1.0000   1.0000
     1.0000   1.0000   1.0000   1.0000   1.0000   1.0000   1.0000   1.0000
     1.0000   1.0000   1.0000   1.0000   1.0000   1.0000   1.0000   1.0000
     1.0000   1.0000   1.0000   1.0000   1.0000   1.0000   1.0000   1.0000
     1.0000   1.0000   1.0000   1.0000   1.0000   1.0000   1.0000   1.0000
     1.0000   1.0000   1.0000   1.0000   1.0000   1.0000   1.0000   1.0000
     1.0000   1.0000   1.0000   1.0000   1.0000   1.0000   1.0000   1.0000
     1.0000   1.0000   1.0000   1.0000   1.0000   1.0000   1.0000   1.0000
     1.0000   1.0000   1.0000   1.0000   1.0000   1.0000   1.0000   1.0000
     1.0000   1.0000   1.0000   1.0000   1.0000   1.0000   1.0000   1.0000
     1.0000   1.0000   1.0000   1.0000   1.0000   1.0000   1.0000   1.0000
     1.0000   1.0000   1.0000   1.0000   0.9999   0.9999   0.9999   0.9998
     0.9998   0.9997   0.9996   0.9996   0.9992   0.9988   0.9987   0.9985
     0.9984   0.9981   0.9975   0.9972   0.9969   0.9961   0.9955   0.9949
     0.9929   0.9918   0.9904   0.9882   0.9856   0.9834   0.9815   0.9793
     0.9778   0.9705   0.9546   0.9430   0.9390   0.9249   0.9147   0.9057
     0.9031   0.8863   0.8744   0.8475   0.8336   0.8283   0.7829   0.7531
     0.7384   0.7277   0.7168   0.7068   0.7033   0.6999   0.6917   0.6791
     0.6781   0.6677   0.6642   0.6597   0.6489   0.6425   0.6396   0.6276
     0.6212   0.6189   0.5990   0.5893   0.5518   0.3434   0.3125   0.2040
     0.0736   0.0520   0.0205   0.0059   0.0048   0.0003   0.0001   0.0001
     0.0000   0.0000   0.0000   0.0000   0.0000   0.0000   0.0000   0.0000
     0.0000   0.0000   0.0000   0.0000   0.0000   0.0000   0.0000   0.0000
     0.0000   0.0000   0.0000   0.0000   0.0000   0.0000   0.0000   0.0000

          k = 0.0000-0.5000 0.0000 ( 65180 PWs)   bands (ev):

   -92.7077 -92.6536 -92.5615 -92.5134 -92.4544 -92.4139 -92.3971 -92.2716
   -56.0612 -56.0402 -55.9190 -55.9084 -55.9015 -55.8952 -55.8588 -55.8308
   -55.8158 -55.8133 -55.8036 -55.7625 -55.7437 -55.7060 -55.6879 -55.6541
   -55.6491 -55.6026 -55.5993 -55.5981 -55.5909 -55.5442 -55.5274 -55.4403
   -31.2841 -31.2644 -31.1490 -31.1240 -31.0666 -31.0364 -30.8378 -30.7298
   -29.8553 -29.8120 -29.7889 -29.6791 -15.0179 -14.9693 -14.9167 -14.7911
   -14.7046 -14.5671 -14.4176 -14.2936 -14.1644 -14.1015 -14.0561 -14.0456
   -13.9970 -13.9788 -13.9321 -13.9131 -13.8872 -13.8511 -13.8249 -13.7819
   -13.5908 -13.5336 -13.5188 -13.4633 -13.4397 -13.3656 -13.3425 -13.2896
   -13.2886 -13.2244 -13.1284 -13.1136 -13.0771 -13.0523 -12.9742 -12.9599
   -12.9354 -12.8889 -12.8700 -12.8563 -12.8104 -12.7700 -12.7243 -12.7117
   -12.6773 -12.6582 -12.5213 -12.4309 -12.3297 -12.2985 -12.2149 -12.1709
   -11.7893 -11.7870 -11.7597 -11.7222 -11.6880 -11.6770 -11.6342 -11.6302
   -11.5858 -11.5238 -11.5101 -11.4958  -2.6002  -2.5403  -2.3894  -2.3173
    -2.0368  -1.9525  -1.8255  -1.6875  -1.6516  -1.6312  -1.5512  -1.5213
    -1.4394  -1.4042  -1.3275  -1.2866  -1.2477  -1.2208  -1.1632  -1.1268
    -1.0799  -1.0446  -1.0105  -0.9765  -0.8666  -0.8214  -0.7879  -0.7865
    -0.7005  -0.6668  -0.6457  -0.5961  -0.5113  -0.4411  -0.3591  -0.3331
    -0.2259  -0.1805  -0.0366  -0.0030   0.0235   0.0848   0.1992   0.2478
     0.3846   0.4509   0.4582   0.5868   0.6297   0.7400   0.8650   0.9739
     1.0041   1.0413   1.0454   1.0891   1.1031   1.1392   1.1551   1.1655
     1.2759   1.3370   1.3661   1.3916   1.6496   1.6830   1.7000   1.7990
     1.8265   1.8540   1.8702   1.9013   1.9103   1.9250   1.9574   1.9931
     2.0223   2.0504   2.0593   2.0882   2.1434   2.2231   2.2511   2.4386
     2.5950   2.6054   2.6208   2.6572   2.6620   2.6732   2.7235   2.7373
     2.7747   2.7950   2.8304   2.8977   2.9054   2.9699   2.9923   3.0018
     3.0048   3.0238   3.0315   3.0349   3.0384   3.0446   3.0620   3.0706
     3.0829   3.1361   3.1435   3.1575   3.2114   4.1232   4.1540   4.1668
     4.2474   4.7462   4.8885   5.0235   5.1425   5.4105   5.4592   5.5864
     5.6915   5.9811   6.0308   6.0413   6.6870   6.8552   6.9509   7.2184
     7.3014   7.3196   7.4041   7.4945   7.7483   7.8063   7.8342   7.9035
     8.0934   8.1795   8.4193   8.5015   8.6610   8.7067   8.8106   8.8395

     occupation numbers 
     1.0000   1.0000   1.0000   1.0000   1.0000   1.0000   1.0000   1.0000
     1.0000   1.0000   1.0000   1.0000   1.0000   1.0000   1.0000   1.0000
     1.0000   1.0000   1.0000   1.0000   1.0000   1.0000   1.0000   1.0000
     1.0000   1.0000   1.0000   1.0000   1.0000   1.0000   1.0000   1.0000
     1.0000   1.0000   1.0000   1.0000   1.0000   1.0000   1.0000   1.0000
     1.0000   1.0000   1.0000   1.0000   1.0000   1.0000   1.0000   1.0000
     1.0000   1.0000   1.0000   1.0000   1.0000   1.0000   1.0000   1.0000
     1.0000   1.0000   1.0000   1.0000   1.0000   1.0000   1.0000   1.0000
     1.0000   1.0000   1.0000   1.0000   1.0000   1.0000   1.0000   1.0000
     1.0000   1.0000   1.0000   1.0000   1.0000   1.0000   1.0000   1.0000
     1.0000   1.0000   1.0000   1.0000   1.0000   1.0000   1.0000   1.0000
     1.0000   1.0000   1.0000   1.0000   1.0000   1.0000   1.0000   1.0000
     1.0000   1.0000   1.0000   1.0000   1.0000   1.0000   1.0000   1.0000
     1.0000   1.0000   1.0000   1.0000   1.0000   1.0000   1.0000   1.0000
     1.0000   1.0000   1.0000   1.0000   1.0000   1.0000   1.0000   1.0000
     1.0000   1.0000   1.0000   1.0000   1.0000   1.0000   1.0000   1.0000
     1.0000   1.0000   1.0000   1.0000   1.0000   1.0000   1.0000   1.0000
     1.0000   1.0000   1.0000   1.0000   1.0000   1.0000   1.0000   1.0000
     1.0000   1.0000   1.0000   1.0000   1.0000   1.0000   1.0000   1.0000
     1.0000   1.0000   1.0000   1.0000   1.0000   0.9999   0.9999   0.9998
     0.9997   0.9996   0.9996   0.9995   0.9995   0.9994   0.9993   0.9993
     0.9988   0.9984   0.9981   0.9979   0.9934   0.9925   0.9919   0.9880
     0.9867   0.9853   0.9843   0.9824   0.9818   0.9808   0.9785   0.9756
     0.9730   0.9703   0.9694   0.9663   0.9597   0.9483   0.9438   0.9047
     0.8591   0.8557   0.8504   0.8375   0.8357   0.8315   0.8121   0.8065
     0.7909   0.7821   0.7664   0.7346   0.7309   0.6984   0.6867   0.6817
     0.6801   0.6699   0.6658   0.6639   0.6620   0.6587   0.6491   0.6444
     0.6376   0.6075   0.6033   0.5953   0.5640   0.1165   0.1077   0.1043
     0.0842   0.0171   0.0099   0.0057   0.0034   0.0010   0.0007   0.0004
     0.0002   0.0000   0.0000   0.0000   0.0000   0.0000   0.0000   0.0000
     0.0000   0.0000   0.0000   0.0000   0.0000   0.0000   0.0000   0.0000
     0.0000   0.0000   0.0000   0.0000   0.0000   0.0000   0.0000   0.0000

          k = 0.2500 0.2500 0.0000 ( 65198 PWs)   bands (ev):

   -92.7077 -92.6536 -92.5615 -92.5134 -92.4544 -92.4139 -92.3971 -92.2716
   -56.0612 -56.0402 -55.9190 -55.9084 -55.9015 -55.8952 -55.8588 -55.8308
   -55.8158 -55.8133 -55.8036 -55.7625 -55.7437 -55.7060 -55.6879 -55.6541
   -55.6491 -55.6026 -55.5993 -55.5981 -55.5909 -55.5442 -55.5274 -55.4403
   -31.2827 -31.2662 -31.1493 -31.1234 -31.0662 -31.0366 -30.8382 -30.7296
   -29.8550 -29.8133 -29.7878 -29.6792 -15.0234 -14.9861 -14.9130 -14.7956
   -14.6792 -14.5539 -14.4790 -14.2762 -14.1170 -14.1045 -14.0698 -14.0399
   -14.0179 -13.9912 -13.9609 -13.9418 -13.8497 -13.8337 -13.6721 -13.6586
   -13.6293 -13.6082 -13.5662 -13.5192 -13.4735 -13.4336 -13.3285 -13.2904
   -13.2368 -13.1503 -13.1123 -13.0936 -13.0565 -13.0266 -13.0130 -12.9685
   -12.9534 -12.9333 -12.9009 -12.8661 -12.7890 -12.7648 -12.7503 -12.7207
   -12.7130 -12.6726 -12.5211 -12.4588 -12.4104 -12.2837 -12.1368 -12.0926
   -11.8077 -11.7758 -11.7651 -11.7582 -11.6953 -11.6607 -11.6539 -11.6185
   -11.6111 -11.5186 -11.4777 -11.4602  -2.6765  -2.4669  -2.3492  -2.2557
    -2.1341  -2.0688  -1.8722  -1.7268  -1.7068  -1.6787  -1.5839  -1.5481
    -1.4559  -1.4283  -1.3783  -1.2468  -1.1987  -1.1265  -1.0814  -1.0373
    -1.0134  -0.9885  -0.9467  -0.9308  -0.8405  -0.7908  -0.7267  -0.6772
    -0.6476  -0.5960  -0.5835  -0.5204  -0.4707  -0.4159  -0.3790  -0.2953
    -0.2424  -0.2134  -0.1736  -0.1184  -0.0518  -0.0088   0.0180   0.0901
     0.1326   0.3988   0.5446   0.5824   0.6362   0.6794   0.7402   0.7931
     0.8520   0.8889   1.1622   1.2307   1.3044   1.3298   1.3770   1.4100
     1.4449   1.4816   1.4995   1.5271   1.5682   1.5785   1.5942   1.6381
     1.6805   1.7173   1.7669   1.8100   1.8181   1.8513   1.8883   1.9432
     1.9730   2.0921   2.1632   2.1998   2.2277   2.2931   2.3580   2.3866
     2.4228   2.4461   2.4598   2.5738   2.6075   2.6942   2.8242   2.8686
     2.8876   2.8923   2.9085   2.9223   2.9355   2.9483   2.9559   2.9677
     2.9811   2.9916   3.0131   3.0182   3.0292   3.0493   3.0630   3.0715
     3.1032   3.4046   3.4994   3.5385   3.6039   3.6533   3.8578   3.9478
     4.2960   4.5065   4.7070   4.9697   5.1691   5.6351   5.6854   5.7376
     5.8266   5.8864   5.9907   6.1728   6.2089   6.7679   6.8979   7.0408
     7.1269   7.5496   7.5988   7.7031   7.7138   7.8657   7.9171   8.0927
     8.1601   8.1823   8.2724   8.3149   8.4317   8.4619   8.6919   8.8395

     occupation numbers 
     1.0000   1.0000   1.0000   1.0000   1.0000   1.0000   1.0000   1.0000
     1.0000   1.0000   1.0000   1.0000   1.0000   1.0000   1.0000   1.0000
     1.0000   1.0000   1.0000   1.0000   1.0000   1.0000   1.0000   1.0000
     1.0000   1.0000   1.0000   1.0000   1.0000   1.0000   1.0000   1.0000
     1.0000   1.0000   1.0000   1.0000   1.0000   1.0000   1.0000   1.0000
     1.0000   1.0000   1.0000   1.0000   1.0000   1.0000   1.0000   1.0000
     1.0000   1.0000   1.0000   1.0000   1.0000   1.0000   1.0000   1.0000
     1.0000   1.0000   1.0000   1.0000   1.0000   1.0000   1.0000   1.0000
     1.0000   1.0000   1.0000   1.0000   1.0000   1.0000   1.0000   1.0000
     1.0000   1.0000   1.0000   1.0000   1.0000   1.0000   1.0000   1.0000
     1.0000   1.0000   1.0000   1.0000   1.0000   1.0000   1.0000   1.0000
     1.0000   1.0000   1.0000   1.0000   1.0000   1.0000   1.0000   1.0000
     1.0000   1.0000   1.0000   1.0000   1.0000   1.0000   1.0000   1.0000
     1.0000   1.0000   1.0000   1.0000   1.0000   1.0000   1.0000   1.0000
     1.0000   1.0000   1.0000   1.0000   1.0000   1.0000   1.0000   1.0000
     1.0000   1.0000   1.0000   1.0000   1.0000   1.0000   1.0000   1.0000
     1.0000   1.0000   1.0000   1.0000   1.0000   1.0000   1.0000   1.0000
     1.0000   1.0000   1.0000   1.0000   1.0000   1.0000   1.0000   1.0000
     1.0000   1.0000   1.0000   1.0000   1.0000   1.0000   1.0000   1.0000
     1.0000   1.0000   1.0000   1.0000   1.0000   1.0000   0.9999   0.9999
     0.9999   0.9998   0.9993   0.9990   0.9986   0.9984   0.9980   0.9977
     0.9973   0.9968   0.9966   0.9961   0.9954   0.9951   0.9948   0.9937
     0.9925   0.9913   0.9894   0.9875   0.9871   0.9854   0.9832   0.9795
     0.9772   0.9659   0.9571   0.9519   0.9476   0.9363   0.9234   0.9171
     0.9086   0.9028   0.8992   0.8660   0.8549   0.8236   0.7691   0.7486
     0.7395   0.7373   0.7294   0.7225   0.7159   0.7095   0.7056   0.6995
     0.6925   0.6871   0.6757   0.6729   0.6670   0.6561   0.6486   0.6439
     0.6262   0.4500   0.3949   0.3727   0.3366   0.3103   0.2122   0.1756
     0.0736   0.0390   0.0197   0.0071   0.0030   0.0003   0.0002   0.0002
     0.0001   0.0001   0.0000   0.0000   0.0000   0.0000   0.0000   0.0000
     0.0000   0.0000   0.0000   0.0000   0.0000   0.0000   0.0000   0.0000
     0.0000   0.0000   0.0000   0.0000   0.0000   0.0000   0.0000   0.0000

          k = 0.2500-0.5000 0.0000 ( 65138 PWs)   bands (ev):

   -92.7077 -92.6536 -92.5615 -92.5134 -92.4544 -92.4139 -92.3971 -92.2716
   -56.0612 -56.0402 -55.9190 -55.9084 -55.9015 -55.8952 -55.8588 -55.8308
   -55.8158 -55.8133 -55.8036 -55.7625 -55.7437 -55.7060 -55.6879 -55.6541
   -55.6491 -55.6026 -55.5993 -55.5981 -55.5909 -55.5442 -55.5274 -55.4403
   -31.2825 -31.2661 -31.1489 -31.1236 -31.0665 -31.0368 -30.8379 -30.7299
   -29.8544 -29.8130 -29.7885 -29.6795 -14.9872 -14.9424 -14.8734 -14.7604
   -14.7284 -14.6074 -14.5207 -14.3910 -14.0813 -14.0323 -14.0033 -13.9822
   -13.9665 -13.9506 -13.9170 -13.9015 -13.8681 -13.8268 -13.8087 -13.7754
   -13.6735 -13.6247 -13.5837 -13.5450 -13.4953 -13.4731 -13.3860 -13.3436
   -13.2133 -13.1490 -13.1327 -13.0702 -13.0347 -13.0306 -12.9937 -12.9744
   -12.9495 -12.9187 -12.8695 -12.8524 -12.8074 -12.7841 -12.7361 -12.6847
   -12.6612 -12.6302 -12.5279 -12.4108 -12.3272 -12.2735 -12.2050 -12.1748
   -11.7832 -11.7712 -11.7603 -11.7333 -11.7017 -11.6734 -11.6320 -11.6043
   -11.5822 -11.5368 -11.5112 -11.4999  -2.4586  -2.3922  -2.2633  -2.1861
    -2.0574  -1.9725  -1.8499  -1.6990  -1.6461  -1.6235  -1.5600  -1.5468
    -1.4502  -1.3834  -1.2980  -1.2492  -1.2397  -1.1757  -1.1337  -1.0990
    -1.0521  -1.0150  -0.9802  -0.9398  -0.9291  -0.8833  -0.8543  -0.8133
    -0.7823  -0.7144  -0.6137  -0.5730  -0.4960  -0.4318  -0.3844  -0.3401
    -0.3181  -0.2697  -0.1061  -0.0958   0.0090   0.0480   0.0555   0.1016
     0.1278   0.1688   0.1945   0.2670   0.5322   0.6257   0.7052   0.7601
     1.0199   1.0471   1.1348   1.1606   1.3277   1.3608   1.4038   1.4253
     1.4427   1.4627   1.5238   1.5697   1.6060   1.6875   1.7695   1.8121
     1.8347   1.8432   1.8801   1.8945   1.8993   1.9444   1.9573   1.9738
     2.0141   2.0273   2.0507   2.0829   2.1424   2.1779   2.2571   2.3979
     2.5476   2.5641   2.5827   2.6094   2.6345   2.6607   2.6841   2.6946
     2.7197   2.7924   2.8444   2.8714   2.8877   2.9012   2.9131   2.9265
     2.9402   2.9588   2.9659   2.9965   3.0101   3.0244   3.0350   3.0435
     3.0539   3.5812   3.5987   3.7357   3.7845   4.1272   4.1709   4.1964
     4.3059   4.7638   4.9118   5.0592   5.1180   5.2979   5.4267   5.5993
     5.6174   5.7593   5.7804   6.0938   6.3952   6.4866   6.6219   6.9594
     7.4462   7.5217   7.6996   7.7722   7.8086   7.8744   8.0371   8.1108
     8.2965   8.3914   8.4263   8.5224   8.5373   8.6170   8.7086   8.7677

     occupation numbers 
     1.0000   1.0000   1.0000   1.0000   1.0000   1.0000   1.0000   1.0000
     1.0000   1.0000   1.0000   1.0000   1.0000   1.0000   1.0000   1.0000
     1.0000   1.0000   1.0000   1.0000   1.0000   1.0000   1.0000   1.0000
     1.0000   1.0000   1.0000   1.0000   1.0000   1.0000   1.0000   1.0000
     1.0000   1.0000   1.0000   1.0000   1.0000   1.0000   1.0000   1.0000
     1.0000   1.0000   1.0000   1.0000   1.0000   1.0000   1.0000   1.0000
     1.0000   1.0000   1.0000   1.0000   1.0000   1.0000   1.0000   1.0000
     1.0000   1.0000   1.0000   1.0000   1.0000   1.0000   1.0000   1.0000
     1.0000   1.0000   1.0000   1.0000   1.0000   1.0000   1.0000   1.0000
     1.0000   1.0000   1.0000   1.0000   1.0000   1.0000   1.0000   1.0000
     1.0000   1.0000   1.0000   1.0000   1.0000   1.0000   1.0000   1.0000
     1.0000   1.0000   1.0000   1.0000   1.0000   1.0000   1.0000   1.0000
     1.0000   1.0000   1.0000   1.0000   1.0000   1.0000   1.0000   1.0000
     1.0000   1.0000   1.0000   1.0000   1.0000   1.0000   1.0000   1.0000
     1.0000   1.0000   1.0000   1.0000   1.0000   1.0000   1.0000   1.0000
     1.0000   1.0000   1.0000   1.0000   1.0000   1.0000   1.0000   1.0000
     1.0000   1.0000   1.0000   1.0000   1.0000   1.0000   1.0000   1.0000
     1.0000   1.0000   1.0000   1.0000   1.0000   1.0000   1.0000   1.0000
     1.0000   1.0000   1.0000   1.0000   1.0000   1.0000   1.0000   1.0000
     1.0000   1.0000   1.0000   1.0000   1.0000   1.0000   0.9999   0.9999
     0.9997   0.9996   0.9994   0.9993   0.9985   0.9982   0.9978   0.9975
     0.9973   0.9971   0.9962   0.9953   0.9945   0.9923   0.9893   0.9874
     0.9863   0.9858   0.9837   0.9829   0.9825   0.9794   0.9785   0.9772
     0.9737   0.9725   0.9703   0.9669   0.9598   0.9550   0.9427   0.9145
     0.8743   0.8691   0.8632   0.8543   0.8456   0.8362   0.8274   0.8234
     0.8136   0.7833   0.7599   0.7473   0.7395   0.7329   0.7271   0.7204
     0.7136   0.7041   0.7004   0.6844   0.6772   0.6696   0.6638   0.6592
     0.6536   0.3490   0.3394   0.2685   0.2451   0.1153   0.1032   0.0965
     0.0716   0.0160   0.0090   0.0049   0.0038   0.0017   0.0009   0.0004
     0.0003   0.0001   0.0001   0.0000   0.0000   0.0000   0.0000   0.0000
     0.0000   0.0000   0.0000   0.0000   0.0000   0.0000   0.0000   0.0000
     0.0000   0.0000   0.0000   0.0000   0.0000   0.0000   0.0000   0.0000

          k =-0.5000-0.5000 0.0000 ( 65132 PWs)   bands (ev):

   -92.7077 -92.6536 -92.5615 -92.5134 -92.4544 -92.4139 -92.3971 -92.2716
   -56.0612 -56.0402 -55.9190 -55.9084 -55.9015 -55.8952 -55.8588 -55.8308
   -55.8158 -55.8133 -55.8036 -55.7625 -55.7437 -55.7060 -55.6879 -55.6541
   -55.6491 -55.6026 -55.5993 -55.5981 -55.5909 -55.5442 -55.5274 -55.4403
   -31.2804 -31.2682 -31.1488 -31.1232 -31.0665 -31.0371 -30.8380 -30.7300
   -29.8534 -29.8140 -29.7881 -29.6799 -14.9404 -14.9152 -14.7977 -14.7856
   -14.6938 -14.6539 -14.6254 -14.4910 -13.9933 -13.9818 -13.9464 -13.9296
   -13.9103 -13.8991 -13.8675 -13.8567 -13.8456 -13.8366 -13.8220 -13.7425
   -13.7336 -13.7121 -13.6747 -13.6701 -13.5673 -13.5620 -13.4301 -13.3882
   -13.1636 -13.1302 -13.0587 -13.0447 -13.0326 -13.0115 -12.9910 -12.9832
   -12.9774 -12.9610 -12.8704 -12.8391 -12.8068 -12.7917 -12.7546 -12.6931
   -12.6115 -12.6036 -12.5443 -12.3919 -12.3236 -12.2460 -12.1949 -12.1816
   -11.7795 -11.7676 -11.7497 -11.7329 -11.6981 -11.6799 -11.6460 -11.5845
   -11.5648 -11.5590 -11.5089 -11.5057  -2.2349  -2.1589  -2.1489  -2.0748
    -2.0372  -1.9593  -1.8914  -1.7658  -1.6494  -1.6195  -1.5803  -1.5224
    -1.4509  -1.4368  -1.3655  -1.3225  -1.2067  -1.1780  -1.1299  -1.0994
    -1.0354  -0.9900  -0.9715  -0.9592  -0.9066  -0.8601  -0.8469  -0.7329
    -0.6748  -0.6283  -0.5793  -0.5529  -0.5419  -0.5061  -0.4640  -0.4305
    -0.4187  -0.3313  -0.2668  -0.2177  -0.1954  -0.1196  -0.0678  -0.0506
     0.0044   0.0295   0.0426   0.0613   0.5023   0.5419   0.6527   0.6721
     1.0532   1.0667   1.0979   1.1379   1.4123   1.4321   1.4385   1.4768
     1.6079   1.7042   1.7301   1.7658   1.7807   1.8092   1.8171   1.8488
     1.8567   1.8695   1.8842   1.9395   1.9407   1.9698   1.9836   2.0038
     2.0160   2.0534   2.0825   2.0952   2.1266   2.1558   2.2228   2.2879
     2.5587   2.5914   2.6115   2.6305   2.6374   2.6700   2.6734   2.6928
     2.7045   2.7180   2.7340   2.7542   2.7935   2.8225   2.8322   2.8473
     2.8664   2.8810   2.8918   2.9027   2.9228   3.0051   3.0096   3.0404
     3.0498   4.0164   4.0293   4.0541   4.0667   4.3142   4.3909   4.4116
     4.6519   4.7741   4.8575   4.9858   5.0694   5.0932   5.1978   5.2952
     5.3754   5.8478   5.8941   5.9534   6.0284   6.3374   6.5287   6.5594
     7.7150   7.8295   7.8739   7.9087   7.9144   7.9728   8.0108   8.0821
     8.2585   8.2763   8.5191   8.5751   8.6053   8.6279   8.6529   8.7396

     occupation numbers 
     1.0000   1.0000   1.0000   1.0000   1.0000   1.0000   1.0000   1.0000
     1.0000   1.0000   1.0000   1.0000   1.0000   1.0000   1.0000   1.0000
     1.0000   1.0000   1.0000   1.0000   1.0000   1.0000   1.0000   1.0000
     1.0000   1.0000   1.0000   1.0000   1.0000   1.0000   1.0000   1.0000
     1.0000   1.0000   1.0000   1.0000   1.0000   1.0000   1.0000   1.0000
     1.0000   1.0000   1.0000   1.0000   1.0000   1.0000   1.0000   1.0000
     1.0000   1.0000   1.0000   1.0000   1.0000   1.0000   1.0000   1.0000
     1.0000   1.0000   1.0000   1.0000   1.0000   1.0000   1.0000   1.0000
     1.0000   1.0000   1.0000   1.0000   1.0000   1.0000   1.0000   1.0000
     1.0000   1.0000   1.0000   1.0000   1.0000   1.0000   1.0000   1.0000
     1.0000   1.0000   1.0000   1.0000   1.0000   1.0000   1.0000   1.0000
     1.0000   1.0000   1.0000   1.0000   1.0000   1.0000   1.0000   1.0000
     1.0000   1.0000   1.0000   1.0000   1.0000   1.0000   1.0000   1.0000
     1.0000   1.0000   1.0000   1.0000   1.0000   1.0000   1.0000   1.0000
     1.0000   1.0000   1.0000   1.0000   1.0000   1.0000   1.0000   1.0000
     1.0000   1.0000   1.0000   1.0000   1.0000   1.0000   1.0000   1.0000
     1.0000   1.0000   1.0000   1.0000   1.0000   1.0000   1.0000   1.0000
     1.0000   1.0000   1.0000   1.0000   1.0000   1.0000   1.0000   1.0000
     1.0000   1.0000   1.0000   1.0000   1.0000   1.0000   1.0000   1.0000
     1.0000   1.0000   1.0000   1.0000   1.0000   1.0000   1.0000   1.0000
     0.9996   0.9996   0.9995   0.9994   0.9977   0.9975   0.9974   0.9969
     0.9945   0.9918   0.9909   0.9895   0.9889   0.9876   0.9872   0.9855
     0.9851   0.9844   0.9835   0.9798   0.9797   0.9775   0.9764   0.9747
     0.9736   0.9700   0.9669   0.9655   0.9618   0.9581   0.9483   0.9373
     0.8708   0.8603   0.8536   0.8470   0.8446   0.8327   0.8315   0.8241
     0.8196   0.8143   0.8078   0.7996   0.7828   0.7699   0.7655   0.7586
     0.7497   0.7427   0.7375   0.7322   0.7223   0.6799   0.6775   0.6609
     0.6558   0.1505   0.1461   0.1378   0.1337   0.0699   0.0559   0.0525
     0.0240   0.0154   0.0112   0.0067   0.0047   0.0042   0.0026   0.0017
     0.0011   0.0001   0.0001   0.0000   0.0000   0.0000   0.0000   0.0000
     0.0000   0.0000   0.0000   0.0000   0.0000   0.0000   0.0000   0.0000
     0.0000   0.0000   0.0000   0.0000   0.0000   0.0000   0.0000   0.0000

          k = 0.2500 0.0000 0.0000 ( 65257 PWs)   bands (ev):

   -92.7077 -92.6536 -92.5615 -92.5134 -92.4544 -92.4139 -92.3971 -92.2716
   -56.0612 -56.0402 -55.9190 -55.9084 -55.9015 -55.8952 -55.8588 -55.8308
   -55.8158 -55.8133 -55.8036 -55.7625 -55.7437 -55.7060 -55.6879 -55.6541
[...]
     0.7422   0.7314   0.7180   0.7151   0.7041   0.6989   0.6915   0.6796
     0.6774   0.6626   0.6583   0.6543   0.6471   0.6362   0.6214   0.6195
     0.6153   0.6104   0.6054   0.5995   0.5275   0.3502   0.3148   0.2052
     0.0787   0.0466   0.0221   0.0057   0.0050   0.0003   0.0001   0.0001
     0.0000   0.0000   0.0000   0.0000   0.0000   0.0000   0.0000   0.0000
     0.0000   0.0000   0.0000   0.0000   0.0000   0.0000   0.0000   0.0000
     0.0000   0.0000   0.0000   0.0000   0.0000   0.0000   0.0000   0.0000

          k =-0.5000 0.0000 0.0000 ( 65180 PWs)   bands (ev):

   -92.7077 -92.6536 -92.5615 -92.5134 -92.4544 -92.4139 -92.3971 -92.2716
   -56.0612 -56.0402 -55.9190 -55.9084 -55.9015 -55.8952 -55.8588 -55.8308
   -55.8158 -55.8133 -55.8036 -55.7625 -55.7437 -55.7060 -55.6879 -55.6541
   -55.6491 -55.6026 -55.5993 -55.5981 -55.5909 -55.5442 -55.5274 -55.4403
   -31.2808 -31.2684 -31.1495 -31.1228 -31.0657 -31.0369 -30.8386 -30.7294
   -29.8546 -29.8147 -29.7868 -29.6793 -15.0225 -14.9714 -14.9096 -14.8056
   -14.6966 -14.5534 -14.4076 -14.2743 -14.1403 -14.1343 -14.1152 -14.0585
   -13.9998 -13.9670 -13.9196 -13.9186 -13.9008 -13.8461 -13.8398 -13.7329
   -13.5618 -13.5419 -13.5020 -13.4948 -13.4538 -13.3714 -13.3255 -13.2747
   -13.2510 -13.2479 -13.1359 -13.0612 -13.0515 -13.0319 -13.0182 -13.0154
   -12.9562 -12.9474 -12.9386 -12.9196 -12.7717 -12.6803 -12.6558 -12.6470
   -12.6420 -12.6372 -12.5474 -12.5012 -12.3731 -12.3335 -12.1889 -12.1484
   -11.7869 -11.7653 -11.7587 -11.7433 -11.7255 -11.6842 -11.6216 -11.6044
   -11.5721 -11.5259 -11.5165 -11.5011  -2.5899  -2.5513  -2.3869  -2.3482
    -2.0353  -1.9604  -1.8109  -1.6941  -1.6552  -1.6085  -1.5606  -1.5357
    -1.4132  -1.3685  -1.3535  -1.2706  -1.2357  -1.2207  -1.1885  -1.1320
    -1.0628  -1.0327  -1.0060  -0.9119  -0.8623  -0.8134  -0.7809  -0.7595
    -0.7304  -0.6818  -0.6574  -0.6194  -0.5228  -0.4481  -0.3858  -0.3228
    -0.1641  -0.1190  -0.0642  -0.0365   0.0227   0.0467   0.1803   0.2151
     0.2618   0.4325   0.5313   0.5769   0.6603   0.7233   0.8503   0.8615
     0.9940   1.0213   1.0758   1.1026   1.1421   1.1528   1.1970   1.2233
     1.2881   1.3372   1.3841   1.3925   1.6876   1.6945   1.7128   1.7291
     1.8444   1.8588   1.8652   1.8806   1.9118   1.9242   1.9621   1.9898
     2.0089   2.0702   2.0803   2.1335   2.1550   2.2111   2.3260   2.4173
     2.4934   2.5072   2.5901   2.6196   2.6396   2.7094   2.7217   2.7313
     2.7598   2.7909   2.8590   2.8844   2.9217   2.9483   2.9947   2.9967
     3.0017   3.0093   3.0274   3.0360   3.0507   3.0603   3.0748   3.0827
     3.1017   3.1224   3.1268   3.2544   3.2680   4.0935   4.1175   4.1739
     4.3099   4.7839   4.8538   5.0382   5.0428   5.4899   5.5032   5.5910
     5.6367   5.9754   6.0245   6.0533   6.7241   6.7958   7.0054   7.2752
     7.3033   7.3550   7.3831   7.4697   7.5761   7.7479   7.7752   7.8833
     8.1015   8.2712   8.4953   8.5281   8.6396   8.7203   8.7549   8.8231

     occupation numbers 
     1.0000   1.0000   1.0000   1.0000   1.0000   1.0000   1.0000   1.0000
     1.0000   1.0000   1.0000   1.0000   1.0000   1.0000   1.0000   1.0000
     1.0000   1.0000   1.0000   1.0000   1.0000   1.0000   1.0000   1.0000
     1.0000   1.0000   1.0000   1.0000   1.0000   1.0000   1.0000   1.0000
     1.0000   1.0000   1.0000   1.0000   1.0000   1.0000   1.0000   1.0000
     1.0000   1.0000   1.0000   1.0000   1.0000   1.0000   1.0000   1.0000
     1.0000   1.0000   1.0000   1.0000   1.0000   1.0000   1.0000   1.0000
     1.0000   1.0000   1.0000   1.0000   1.0000   1.0000   1.0000   1.0000
     1.0000   1.0000   1.0000   1.0000   1.0000   1.0000   1.0000   1.0000
     1.0000   1.0000   1.0000   1.0000   1.0000   1.0000   1.0000   1.0000
     1.0000   1.0000   1.0000   1.0000   1.0000   1.0000   1.0000   1.0000
     1.0000   1.0000   1.0000   1.0000   1.0000   1.0000   1.0000   1.0000
     1.0000   1.0000   1.0000   1.0000   1.0000   1.0000   1.0000   1.0000
     1.0000   1.0000   1.0000   1.0000   1.0000   1.0000   1.0000   1.0000
     1.0000   1.0000   1.0000   1.0000   1.0000   1.0000   1.0000   1.0000
     1.0000   1.0000   1.0000   1.0000   1.0000   1.0000   1.0000   1.0000
     1.0000   1.0000   1.0000   1.0000   1.0000   1.0000   1.0000   1.0000
     1.0000   1.0000   1.0000   1.0000   1.0000   1.0000   1.0000   1.0000
     1.0000   1.0000   1.0000   1.0000   1.0000   1.0000   1.0000   1.0000
     1.0000   1.0000   1.0000   1.0000   1.0000   0.9999   0.9999   0.9999
     0.9997   0.9997   0.9996   0.9995   0.9994   0.9994   0.9992   0.9991
     0.9987   0.9984   0.9980   0.9979   0.9923   0.9921   0.9915   0.9909
     0.9858   0.9850   0.9846   0.9837   0.9817   0.9809   0.9781   0.9759
     0.9742   0.9683   0.9672   0.9609   0.9582   0.9502   0.9300   0.9099
     0.8901   0.8862   0.8607   0.8508   0.8438   0.8177   0.8128   0.8089
     0.7972   0.7839   0.7531   0.7411   0.7228   0.7094   0.6854   0.6844
     0.6817   0.6777   0.6680   0.6633   0.6553   0.6501   0.6420   0.6377
     0.6270   0.6153   0.6128   0.5387   0.5307   0.1253   0.1181   0.1024
     0.0708   0.0149   0.0114   0.0054   0.0053   0.0006   0.0006   0.0004
     0.0003   0.0000   0.0000   0.0000   0.0000   0.0000   0.0000   0.0000
     0.0000   0.0000   0.0000   0.0000   0.0000   0.0000   0.0000   0.0000
     0.0000   0.0000   0.0000   0.0000   0.0000   0.0000   0.0000   0.0000

          k =-0.2500 0.2500 0.0000 ( 65198 PWs)   bands (ev):

   -92.7077 -92.6536 -92.5615 -92.5134 -92.4544 -92.4139 -92.3971 -92.2716
   -56.0612 -56.0402 -55.9190 -55.9084 -55.9015 -55.8952 -55.8588 -55.8308
   -55.8158 -55.8133 -55.8036 -55.7625 -55.7437 -55.7060 -55.6879 -55.6541
   -55.6491 -55.6026 -55.5993 -55.5981 -55.5909 -55.5442 -55.5274 -55.4403
   -31.2827 -31.2662 -31.1493 -31.1234 -31.0662 -31.0366 -30.8382 -30.7296
   -29.8550 -29.8133 -29.7878 -29.6792 -15.0248 -14.9850 -14.9116 -14.7936
   -14.6857 -14.5582 -14.4709 -14.2675 -14.1243 -14.0938 -14.0833 -14.0347
   -14.0117 -13.9931 -13.9786 -13.9408 -13.8458 -13.8346 -13.6799 -13.6554
   -13.6271 -13.6052 -13.5684 -13.5056 -13.4660 -13.4425 -13.3380 -13.2898
   -13.2305 -13.1538 -13.1146 -13.0855 -13.0476 -13.0239 -13.0022 -12.9774
   -12.9462 -12.9355 -12.9226 -12.8786 -12.8042 -12.7771 -12.7528 -12.7033
   -12.6952 -12.6703 -12.5012 -12.4485 -12.4329 -12.2894 -12.1404 -12.0876
   -11.8069 -11.7853 -11.7581 -11.7460 -11.7050 -11.6704 -11.6471 -11.6260
   -11.6033 -11.5184 -11.4731 -11.4634  -2.6748  -2.4659  -2.3449  -2.2575
    -2.1383  -2.0715  -1.8699  -1.7235  -1.7046  -1.6767  -1.5845  -1.5468
    -1.4556  -1.4219  -1.3957  -1.2524  -1.1972  -1.1294  -1.1007  -1.0409
    -1.0190  -0.9787  -0.9497  -0.9097  -0.8470  -0.7998  -0.7381  -0.6686
    -0.6436  -0.5911  -0.5627  -0.5176  -0.4609  -0.4190  -0.3735  -0.2769
    -0.2415  -0.2331  -0.1867  -0.1205  -0.0535  -0.0062   0.0246   0.0923
     0.1311   0.3802   0.5470   0.5903   0.6270   0.6849   0.7411   0.7949
     0.8585   0.8871   1.1700   1.2812   1.3203   1.3533   1.3600   1.4031
     1.4197   1.4639   1.4943   1.5101   1.5360   1.5778   1.5920   1.6385
     1.6548   1.7000   1.7794   1.8010   1.8177   1.8579   1.8841   1.9233
     1.9803   2.0820   2.1913   2.2247   2.2723   2.2918   2.3568   2.3987
     2.4247   2.4469   2.4707   2.5716   2.6069   2.6971   2.8224   2.8753
     2.8840   2.8987   2.9081   2.9185   2.9316   2.9385   2.9560   2.9682
     2.9803   2.9915   3.0029   3.0130   3.0214   3.0513   3.0618   3.0706
     3.1055   3.3979   3.4809   3.5403   3.6191   3.6510   3.8435   3.9562
     4.2954   4.5039   4.7079   4.9805   5.1693   5.6369   5.6822   5.7396
     5.8250   5.8877   5.9965   6.1786   6.1984   6.7371   6.8960   7.0498
     7.1579   7.5629   7.6074   7.6668   7.7197   7.8706   7.9019   8.1092
     8.1620   8.1844   8.2510   8.3137   8.4408   8.4705   8.6954   8.8418

     occupation numbers 
     1.0000   1.0000   1.0000   1.0000   1.0000   1.0000   1.0000   1.0000
     1.0000   1.0000   1.0000   1.0000   1.0000   1.0000   1.0000   1.0000
     1.0000   1.0000   1.0000   1.0000   1.0000   1.0000   1.0000   1.0000
     1.0000   1.0000   1.0000   1.0000   1.0000   1.0000   1.0000   1.0000
     1.0000   1.0000   1.0000   1.0000   1.0000   1.0000   1.0000   1.0000
     1.0000   1.0000   1.0000   1.0000   1.0000   1.0000   1.0000   1.0000
     1.0000   1.0000   1.0000   1.0000   1.0000   1.0000   1.0000   1.0000
     1.0000   1.0000   1.0000   1.0000   1.0000   1.0000   1.0000   1.0000
     1.0000   1.0000   1.0000   1.0000   1.0000   1.0000   1.0000   1.0000
     1.0000   1.0000   1.0000   1.0000   1.0000   1.0000   1.0000   1.0000
     1.0000   1.0000   1.0000   1.0000   1.0000   1.0000   1.0000   1.0000
     1.0000   1.0000   1.0000   1.0000   1.0000   1.0000   1.0000   1.0000
     1.0000   1.0000   1.0000   1.0000   1.0000   1.0000   1.0000   1.0000
     1.0000   1.0000   1.0000   1.0000   1.0000   1.0000   1.0000   1.0000
     1.0000   1.0000   1.0000   1.0000   1.0000   1.0000   1.0000   1.0000
     1.0000   1.0000   1.0000   1.0000   1.0000   1.0000   1.0000   1.0000
     1.0000   1.0000   1.0000   1.0000   1.0000   1.0000   1.0000   1.0000
     1.0000   1.0000   1.0000   1.0000   1.0000   1.0000   1.0000   1.0000
     1.0000   1.0000   1.0000   1.0000   1.0000   1.0000   1.0000   1.0000
     1.0000   1.0000   1.0000   1.0000   1.0000   1.0000   0.9999   0.9999
     0.9999   0.9998   0.9993   0.9988   0.9985   0.9983   0.9982   0.9978
     0.9976   0.9971   0.9966   0.9964   0.9960   0.9952   0.9949   0.9937
     0.9933   0.9919   0.9889   0.9879   0.9871   0.9850   0.9835   0.9810
     0.9767   0.9670   0.9531   0.9481   0.9401   0.9366   0.9237   0.9143
     0.9081   0.9026   0.8963   0.8667   0.8551   0.8225   0.7700   0.7454
     0.7413   0.7342   0.7295   0.7244   0.7179   0.7144   0.7055   0.6992
     0.6930   0.6871   0.6811   0.6757   0.6712   0.6550   0.6493   0.6444
     0.6249   0.4539   0.4055   0.3717   0.3284   0.3115   0.2184   0.1724
     0.0737   0.0394   0.0196   0.0068   0.0030   0.0003   0.0002   0.0002
     0.0001   0.0001   0.0000   0.0000   0.0000   0.0000   0.0000   0.0000
     0.0000   0.0000   0.0000   0.0000   0.0000   0.0000   0.0000   0.0000
     0.0000   0.0000   0.0000   0.0000   0.0000   0.0000   0.0000   0.0000

          k =-0.5000 0.2500 0.0000 ( 65138 PWs)   bands (ev):

   -92.7077 -92.6536 -92.5615 -92.5134 -92.4544 -92.4139 -92.3971 -92.2716
   -56.0612 -56.0402 -55.9190 -55.9084 -55.9015 -55.8952 -55.8588 -55.8308
   -55.8158 -55.8133 -55.8036 -55.7625 -55.7437 -55.7060 -55.6879 -55.6541
   -55.6491 -55.6026 -55.5993 -55.5981 -55.5909 -55.5442 -55.5274 -55.4403
   -31.2806 -31.2683 -31.1492 -31.1230 -31.0661 -31.0370 -30.8383 -30.7297
   -29.8540 -29.8143 -29.7874 -29.6796 -14.9897 -14.9451 -14.8664 -14.7708
   -14.7270 -14.5997 -14.5127 -14.3881 -14.0749 -14.0445 -14.0323 -13.9862
   -13.9689 -13.9403 -13.9066 -13.9038 -13.8772 -13.8416 -13.8267 -13.7232
   -13.6449 -13.6003 -13.5950 -13.5826 -13.5099 -13.4756 -13.3730 -13.3289
   -13.2064 -13.1721 -13.0912 -13.0725 -13.0340 -13.0229 -13.0097 -12.9788
   -12.9569 -12.9451 -12.9349 -12.8834 -12.7811 -12.7267 -12.7125 -12.6736
   -12.6288 -12.6206 -12.5456 -12.4382 -12.3289 -12.3111 -12.1874 -12.1621
   -11.7796 -11.7667 -11.7526 -11.7409 -11.7192 -11.6890 -11.6090 -11.6000
   -11.5772 -11.5403 -11.5123 -11.5037  -2.4478  -2.4056  -2.2567  -2.2149
    -2.0546  -1.9789  -1.8351  -1.7004  -1.6436  -1.6159  -1.5770  -1.5380
    -1.4578  -1.3429  -1.2857  -1.2627  -1.2374  -1.1605  -1.1322  -1.0941
    -1.0761  -1.0152  -0.9875  -0.9473  -0.9119  -0.8833  -0.8257  -0.7995
    -0.7580  -0.7232  -0.6190  -0.5925  -0.5059  -0.4425  -0.4101  -0.3557
    -0.2682  -0.2372  -0.1352  -0.1016  -0.0393   0.0070   0.0309   0.1089
     0.1401   0.1729   0.2243   0.2612   0.5705   0.6222   0.7006   0.7170
     1.0029   1.0625   1.1350   1.1616   1.3405   1.3773   1.4142   1.4278
     1.4453   1.4631   1.5330   1.5745   1.6146   1.6424   1.7580   1.7951
     1.8339   1.8455   1.8795   1.9053   1.9190   1.9350   1.9569   1.9788
     2.0245   2.0436   2.0765   2.1000   2.1296   2.1913   2.3130   2.4109
     2.4382   2.5060   2.5461   2.6053   2.6419   2.6501   2.6864   2.7213
     2.7446   2.7865   2.8605   2.8777   2.8889   2.8977   2.9108   2.9338
     2.9485   2.9624   2.9729   2.9936   3.0074   3.0178   3.0265   3.0386
     3.0497   3.5829   3.6155   3.7707   3.7878   4.0951   4.1328   4.1902
     4.3955   4.7786   4.8711   5.0397   5.0675   5.3956   5.4250   5.5820
     5.6216   5.7394   5.7724   6.1107   6.3899   6.4824   6.6148   7.0044
     7.4616   7.4999   7.6731   7.7119   7.7936   7.8852   8.0203   8.0908
     8.2989   8.3949   8.4770   8.4895   8.5588   8.6246   8.7148   8.7411

     occupation numbers 
     1.0000   1.0000   1.0000   1.0000   1.0000   1.0000   1.0000   1.0000
     1.0000   1.0000   1.0000   1.0000   1.0000   1.0000   1.0000   1.0000
     1.0000   1.0000   1.0000   1.0000   1.0000   1.0000   1.0000   1.0000
     1.0000   1.0000   1.0000   1.0000   1.0000   1.0000   1.0000   1.0000
     1.0000   1.0000   1.0000   1.0000   1.0000   1.0000   1.0000   1.0000
     1.0000   1.0000   1.0000   1.0000   1.0000   1.0000   1.0000   1.0000
     1.0000   1.0000   1.0000   1.0000   1.0000   1.0000   1.0000   1.0000
     1.0000   1.0000   1.0000   1.0000   1.0000   1.0000   1.0000   1.0000
     1.0000   1.0000   1.0000   1.0000   1.0000   1.0000   1.0000   1.0000
     1.0000   1.0000   1.0000   1.0000   1.0000   1.0000   1.0000   1.0000
     1.0000   1.0000   1.0000   1.0000   1.0000   1.0000   1.0000   1.0000
     1.0000   1.0000   1.0000   1.0000   1.0000   1.0000   1.0000   1.0000
     1.0000   1.0000   1.0000   1.0000   1.0000   1.0000   1.0000   1.0000
     1.0000   1.0000   1.0000   1.0000   1.0000   1.0000   1.0000   1.0000
     1.0000   1.0000   1.0000   1.0000   1.0000   1.0000   1.0000   1.0000
     1.0000   1.0000   1.0000   1.0000   1.0000   1.0000   1.0000   1.0000
     1.0000   1.0000   1.0000   1.0000   1.0000   1.0000   1.0000   1.0000
     1.0000   1.0000   1.0000   1.0000   1.0000   1.0000   1.0000   1.0000
     1.0000   1.0000   1.0000   1.0000   1.0000   1.0000   1.0000   1.0000
     1.0000   1.0000   1.0000   1.0000   1.0000   1.0000   0.9999   0.9999
     0.9997   0.9996   0.9994   0.9993   0.9984   0.9980   0.9977   0.9975
     0.9973   0.9971   0.9960   0.9952   0.9943   0.9936   0.9898   0.9882
     0.9863   0.9857   0.9838   0.9822   0.9812   0.9801   0.9785   0.9768
     0.9728   0.9710   0.9676   0.9650   0.9614   0.9531   0.9326   0.9114
     0.9048   0.8866   0.8747   0.8557   0.8430   0.8400   0.8266   0.8130
     0.8035   0.7859   0.7524   0.7443   0.7389   0.7347   0.7282   0.7168
     0.7093   0.7023   0.6968   0.6860   0.6787   0.6731   0.6685   0.6619
     0.6559   0.3481   0.3304   0.2516   0.2436   0.1248   0.1137   0.0981
     0.0551   0.0152   0.0106   0.0053   0.0047   0.0010   0.0009   0.0004
     0.0003   0.0002   0.0001   0.0000   0.0000   0.0000   0.0000   0.0000
     0.0000   0.0000   0.0000   0.0000   0.0000   0.0000   0.0000   0.0000
     0.0000   0.0000   0.0000   0.0000   0.0000   0.0000   0.0000   0.0000

     the Fermi energy is     3.3199 ev

!    total energy              =   -4399.91209898 Ry
     estimated scf accuracy    <          9.3E-09 Ry
     smearing contrib. (-TS)   =      -1.14572356 Ry
     internal energy E=F+TS    =   -4398.76637542 Ry

     The total energy is F=E-TS. E is the sum of the following terms:
     one-electron contribution =  -21253.06062820 Ry
     hartree contribution      =   10754.52423674 Ry
     xc contribution           =    -686.72767369 Ry
     ewald contribution        =    7053.14291848 Ry
     one-center paw contrib.   =    -266.64522875 Ry
      -> PAW hartree energy AE =      25.18054758 Ry
      -> PAW hartree energy PS =     -25.06427763 Ry
      -> PAW xc energy AE      =     -16.51996118 Ry
      -> PAW xc energy PS      =       6.87955789 Ry
      -> total E_H with PAW    =   10754.64050669 Ry
      -> total E_XC with PAW   =    -696.36807698 Ry

     convergence has been achieved in  49 iterations

     Writing all to output data dir /bsuhome/zayahcortright/scratch/pwscf.save/
 
     init_run     :      7.76s CPU      8.17s WALL (       1 calls)
     electrons    :    700.70s CPU    712.91s WALL (       1 calls)

     Called by init_run:
     wfcinit      :      6.13s CPU      6.26s WALL (       1 calls)
     wfcinit:atom :      0.04s CPU      0.05s WALL (       5 calls)
     wfcinit:wfcr :      5.82s CPU      5.90s WALL (       5 calls)
     potinit      :      0.18s CPU      0.20s WALL (       1 calls)
     hinit0       :      0.57s CPU      0.77s WALL (       1 calls)

     Called by electrons:
     c_bands      :    551.59s CPU    556.23s WALL (      49 calls)
     sum_band     :    111.97s CPU    116.26s WALL (      49 calls)
     v_of_rho     :      5.39s CPU      5.70s WALL (      50 calls)
     v_h          :      0.47s CPU      0.47s WALL (      50 calls)
     v_xc         :      4.92s CPU      5.23s WALL (      50 calls)
     newd         :     16.81s CPU     19.30s WALL (      50 calls)
     PAW_pot      :      1.58s CPU      1.61s WALL (      50 calls)
     mix_rho      :     13.08s CPU     13.34s WALL (      49 calls)

     Called by c_bands:
     init_us_2    :      6.89s CPU      6.95s WALL (     495 calls)
     init_us_2:cp :      6.88s CPU      6.94s WALL (     495 calls)
     cegterg      :    519.41s CPU    523.85s WALL (     245 calls)

     Called by sum_band:
     sum_band:wei :      0.34s CPU      0.35s WALL (      49 calls)
     sum_band:loo :     91.82s CPU     92.45s WALL (      49 calls)
     sum_band:buf :      1.48s CPU      1.50s WALL (     245 calls)
     sum_band:ini :      3.27s CPU      3.28s WALL (     245 calls)
     sum_band:cal :     18.59s CPU     18.64s WALL (     245 calls)
     sum_band:bec :      0.58s CPU      0.59s WALL (     245 calls)
     addusdens    :     18.28s CPU     21.91s WALL (      49 calls)
                                        0.00s GPU  (      49 calls)
     addusd:skk   :      0.36s CPU      0.68s WALL (     196 calls)
                                        0.00s GPU  (     196 calls)

     Called by *egterg:
     cdiaghg      :     54.70s CPU     54.94s WALL (    1296 calls)
     cegterg:over :     39.10s CPU     39.28s WALL (    1051 calls)
     cegterg:upda :     27.72s CPU     28.04s WALL (    1051 calls)
     cegterg:last :     55.59s CPU     55.75s WALL (     439 calls)
     cdiaghg:chol :      3.12s CPU      3.13s WALL (    1296 calls)
     cdiaghg:inve :      3.34s CPU      3.35s WALL (    1296 calls)
     cdiaghg:para :      7.13s CPU      7.17s WALL (    2592 calls)
     h_psi        :    288.80s CPU    291.31s WALL (    1301 calls)
     s_psi        :     37.61s CPU     37.70s WALL (    1301 calls)
     g_psi        :      1.11s CPU      1.11s WALL (    1051 calls)

     Called by h_psi:
     h_psi:calbec :     42.77s CPU     42.90s WALL (    1301 calls)
     vloc_psi     :    205.29s CPU    207.18s WALL (    1301 calls)
     add_vuspsi   :     37.55s CPU     37.67s WALL (    1301 calls)

     General routines
     calbec       :     61.35s CPU     61.53s WALL (    1546 calls)
     fft          :      3.65s CPU      3.70s WALL (     648 calls)
     ffts         :      4.84s CPU      4.89s WALL (    5277 calls)
     fftw         :    177.18s CPU    178.57s WALL (  327260 calls)
     interpolate  :      0.39s CPU      0.40s WALL (      50 calls)
 
     Parallel routines

     PAW routines
     PAW_pot      :      1.58s CPU      1.61s WALL (      50 calls)
 
     PWSCF        :  11m49.99s CPU  12m 5.57s WALL

 
   This run was terminated on:  15:11:47  21Jun2024            

=------------------------------------------------------------------------------=
   JOB DONE.
=------------------------------------------------------------------------------=
