
     Program PWSCF v.7.2 starts on 21Jun2024 at 21:39:26 

     This program is part of the open-source Quantum ESPRESSO suite
     for quantum simulation of materials; please cite
         "P. Giannozzi et al., J. Phys.:Condens. Matter 21 395502 (2009);
         "P. Giannozzi et al., J. Phys.:Condens. Matter 29 465901 (2017);
         "P. Giannozzi et al., J. Chem. Phys. 152 154105 (2020);
          URL http://www.quantum-espresso.org", 
     in publications or presentations arising from this work. More details at
     http://www.quantum-espresso.org/quote

     Parallel version (MPI & OpenMP), running on      48 processor cores
     Number of MPI processes:                48
     Threads/MPI process:                     1

     MPI processes distributed on     1 nodes
     180141 MiB available memory on the printing compute node when the environment starts
 
     Reading input from espresso.pwi
Warning: card &CELL ignored
Warning: card / ignored
Warning: card &FCP ignored
Warning: card / ignored
Warning: card &RISM ignored
Warning: card / ignored

     Current dimensions of program PWSCF are:
     Max number of different atomic species (ntypx) = 10
     Max number of k-points (npk) =  40000
     Max angular momentum in pseudopotentials (lmaxx) =  4
     file O.pbe-n-kjpaw_psl.0.1.UPF: wavefunction(s)  2P renormalized
     signal trapping enabled: kill the code with -SIGUSR1 to stop cleanly the simulation 
 
     K-points division:     npool     =       2
     R & G space division:  proc/nbgrp/npool/nimage =      24
     Subspace diagonalization in iterative solution of the eigenvalue problem:
     one sub-group per band group will be used
     scalapack distributed-memory algorithm (size of sub-group:  3*  3 procs)

 
     Parallelization info
     --------------------
     sticks:   dense  smooth     PW     G-vecs:    dense   smooth      PW
     Min         350     175     47                61430    21716    3036
     Max         351     177     48                61449    21727    3041
     Sum        8421    4205   1137              1474595   521381   72913
 
     Using Slab Decomposition
 


     bravais-lattice index     =            0
     lattice parameter (alat)  =      14.8599  a.u.
     unit-cell volume          =    8305.1283 (a.u.)^3
     number of atoms/cell      =           49
     number of atomic types    =            4
     number of electrons       =       425.00
     number of Kohn-Sham states=          256
     kinetic-energy cutoff     =      60.0000  Ry
     charge density cutoff     =     480.0000  Ry
     scf convergence threshold =      1.0E-08
     mixing beta               =       0.1500
     number of iterations used =            8  local-TF  mixing
     Exchange-correlation= PBE
                           (   1   4   3   4   0   0   0)

     celldm(1)=  14.859904  celldm(2)=   0.000000  celldm(3)=   0.000000
     celldm(4)=   0.000000  celldm(5)=   0.000000  celldm(6)=   0.000000

     crystal axes: (cart. coord. in units of alat)
               a(1) = (   1.000000   0.000000   0.000000 )  
               a(2) = (   0.000000   1.000000   0.000000 )  
               a(3) = (   0.000000   0.000000   2.531036 )  

     reciprocal axes: (cart. coord. in units 2 pi/alat)
               b(1) = (  1.000000  0.000000  0.000000 )  
               b(2) = (  0.000000  1.000000  0.000000 )  
               b(3) = (  0.000000  0.000000  0.395095 )  


     PseudoPot. # 1 for Sr read from file:
     /bsuhome/zayahcortright/q-e/pseudo/Sr_pbe_v1.uspp.F.UPF
     MD5 check sum: 6b418c05fbe9db5448babca5e47b7a5b
     Pseudo is Ultrasoft + core correction, Zval = 10.0
     Generated by new atomic code, or converted to UPF format
     Using radial grid of  883 points,  6 beta functions with: 
                l(1) =   0
                l(2) =   0
                l(3) =   1
                l(4) =   1
                l(5) =   2
                l(6) =   2
     Q(r) pseudized with  6 coefficients,  rinner =    1.400   1.400   1.400
                                                       1.400   1.400

     PseudoPot. # 2 for O  read from file:
     /bsuhome/zayahcortright/q-e/pseudo/O.pbe-n-kjpaw_psl.0.1.UPF
     MD5 check sum: 0234752ac141de4415c5fc33072bef88
     Pseudo is Projector augmented-wave + core cor, Zval =  6.0
     Generated using "atomic" code by A. Dal Corso  v.5.0.99 svn rev. 10869
     Shape of augmentation charge: BESSEL
     Using radial grid of 1095 points,  4 beta functions with: 
                l(1) =   0
                l(2) =   0
                l(3) =   1
                l(4) =   1
     Q(r) pseudized with 0 coefficients 


     PseudoPot. # 3 for Co read from file:
     /bsuhome/zayahcortright/q-e/pseudo/Co_pbe_v1.2.uspp.F.UPF
     MD5 check sum: 5f91765df6ddd3222702df6e7b74a16d
     Pseudo is Ultrasoft + core correction, Zval = 17.0
     Generated by new atomic code, or converted to UPF format
     Using radial grid of  863 points,  6 beta functions with: 
                l(1) =   0
                l(2) =   0
                l(3) =   1
                l(4) =   1
                l(5) =   2
                l(6) =   2
     Q(r) pseudized with  8 coefficients,  rinner =    1.200   1.200   1.200
                                                       1.200   1.200

     PseudoPot. # 4 for H  read from file:
     /bsuhome/zayahcortright/q-e/pseudo/H.pbe-rrkjus_psl.1.0.0.UPF
     MD5 check sum: f52b6d4d1c606e5624b1dc7b2218f220
     Pseudo is Ultrasoft, Zval =  1.0
     Generated using "atomic" code by A. Dal Corso  v.5.1
     Using radial grid of  929 points,  2 beta functions with: 
                l(1) =   0
                l(2) =   0
     Q(r) pseudized with 0 coefficients 


     atomic species   valence    mass     pseudopotential
        Sr            10.00    87.62000     Sr( 1.00)
        O              6.00    15.99900     O ( 1.00)
        Co            17.00    58.93319     Co( 1.00)
        H              1.00     1.00800     H ( 1.00)

     No symmetry found


                                    s                        frac. trans.

      isym =  1     identity                                     

 cryst.   s( 1) = (     1          0          0      )
                  (     0          1          0      )
                  (     0          0          1      )

 cart.    s( 1) = (  1.0000000  0.0000000  0.0000000 )
                  (  0.0000000  1.0000000  0.0000000 )
                  (  0.0000000  0.0000000  1.0000000 )


   Cartesian axes

     site n.     atom                  positions (alat units)
         1           Sr  tau(   1) = (   0.2508693   0.7491307   1.7574407  )
         2           O   tau(   2) = (   0.4985141   0.5014859   1.7715967  )
         3           Sr  tau(   3) = (   0.7482398   0.7454518   1.7648669  )
         4           Sr  tau(   4) = (   0.7441748   0.2558252   1.7667843  )
         5           Sr  tau(   5) = (   0.2508693   0.7491307   1.2696799  )
         6           Sr  tau(   6) = (   0.2508693   0.7491307   0.7632319  )
         7           Co  tau(   7) = (   0.4998914   0.5001086   1.0164559  )
         8           Co  tau(   8) = (   0.4936915   0.5063085   1.5135603  )
         9           O   tau(   9) = (   0.4988895   0.7610401   1.0164559  )
        10           O   tau(  10) = (   0.2389599   0.5011105   1.0164559  )
        11           O   tau(  11) = (   0.0070918   0.7374880   1.0164559  )
        12           O   tau(  12) = (   0.0088340   0.7405089   1.5135603  )
        13           O   tau(  13) = (   0.5066944   0.7415376   1.5135603  )
        14           O   tau(  14) = (   0.2584624   0.4933056   1.5135603  )
        15           O   tau(  15) = (   0.4985141   0.5014859   0.7773880  )
        16           O   tau(  16) = (   0.4985141   0.5014859   1.2555238  )
        17           Sr  tau(  17) = (   0.7482398   0.7454518   0.7706582  )
        18           Sr  tau(  18) = (   0.7482398   0.7454518   1.2622536  )
        19           Sr  tau(  19) = (   0.7441748   0.2558252   0.7725755  )
        20           Sr  tau(  20) = (   0.7441748   0.2558252   1.2603363  )
        21           O   tau(  21) = (   0.7322655   0.0078049   1.5135603  )
        22           O   tau(  22) = (   0.7558175   0.4996027   1.5135603  )
        23           O   tau(  23) = (   0.5003973   0.2441825   1.5135603  )
        24           O   tau(  24) = (   0.7527966   0.4978604   1.0164559  )
        25           O   tau(  25) = (   0.5021396   0.2472034   1.0164559  )
        26           O   tau(  26) = (   0.7517679   0.0000000   1.0164559  )
        27           O   tau(  27) = (   0.0114961   0.4948124   1.7455321  )
        28           O   tau(  28) = (   0.0048226   0.0077944   1.7715967  )
        29           Sr  tau(  29) = (   0.2545482   0.2517602   1.7648669  )
        30           O   tau(  30) = (   0.5048017   0.0015068   1.7786929  )
        31           Co  tau(  31) = (   0.0056869   0.5006215   1.0164559  )
        32           Co  tau(  32) = (   0.0065315   0.4997770   1.5135603  )
        33           Co  tau(  33) = (   0.0061999   0.0064171   1.0164559  )
        34           Co  tau(  34) = (   0.0000000   0.0126169   1.5135603  )
        35           O   tau(  35) = (   0.0114961   0.4948124   1.2815885  )
        36           O   tau(  36) = (   0.0114961   0.4948124   0.7513233  )
        37           O   tau(  37) = (   0.0051979   0.2673486   1.0164559  )
        38           O   tau(  38) = (   0.0130029   0.2478461   1.5135603  )
        39           O   tau(  39) = (   0.0048226   0.0077944   0.7773880  )
        40           O   tau(  40) = (   0.0048226   0.0077944   1.2555238  )
        41           Sr  tau(  41) = (   0.2545482   0.2517602   0.7706582  )
        42           Sr  tau(  42) = (   0.2545482   0.2517602   1.2622536  )
        43           Co  tau(  43) = (   0.4989925   0.0073160   1.5135603  )
        44           Co  tau(  44) = (   0.4998370   0.0064714   1.0164559  )
        45           O   tau(  45) = (   0.5048017   0.0015068   0.7844841  )
        46           O   tau(  46) = (   0.5048017   0.0015068   1.2484277  )
        47           O   tau(  47) = (   0.2621260   0.0059111   1.5135603  )
        48           O   tau(  48) = (   0.2591051   0.0041689   1.0164559  )
        49           H   tau(  49) = (   0.8529874   0.0000000   2.1602013  )

   Crystallographic axes

     site n.     atom                  positions (cryst. coord.)
         1           Sr  tau(   1) = (  0.2508693  0.7491307  0.6943562  )
         2           O   tau(   2) = (  0.4985141  0.5014859  0.6999492  )
         3           Sr  tau(   3) = (  0.7482398  0.7454518  0.6972903  )
         4           Sr  tau(   4) = (  0.7441748  0.2558252  0.6980478  )
         5           Sr  tau(   5) = (  0.2508693  0.7491307  0.5016443  )
         6           Sr  tau(   6) = (  0.2508693  0.7491307  0.3015492  )
         7           Co  tau(   7) = (  0.4998914  0.5001086  0.4015968  )
         8           Co  tau(   8) = (  0.4936915  0.5063085  0.5980003  )
         9           O   tau(   9) = (  0.4988895  0.7610401  0.4015968  )
        10           O   tau(  10) = (  0.2389599  0.5011105  0.4015968  )
        11           O   tau(  11) = (  0.0070918  0.7374880  0.4015968  )
        12           O   tau(  12) = (  0.0088340  0.7405089  0.5980003  )
        13           O   tau(  13) = (  0.5066944  0.7415376  0.5980003  )
        14           O   tau(  14) = (  0.2584624  0.4933056  0.5980003  )
        15           O   tau(  15) = (  0.4985141  0.5014859  0.3071422  )
        16           O   tau(  16) = (  0.4985141  0.5014859  0.4960513  )
        17           Sr  tau(  17) = (  0.7482398  0.7454518  0.3044833  )
        18           Sr  tau(  18) = (  0.7482398  0.7454518  0.4987103  )
        19           Sr  tau(  19) = (  0.7441748  0.2558252  0.3052408  )
        20           Sr  tau(  20) = (  0.7441748  0.2558252  0.4979527  )
        21           O   tau(  21) = (  0.7322655  0.0078049  0.5980003  )
        22           O   tau(  22) = (  0.7558175  0.4996027  0.5980003  )
        23           O   tau(  23) = (  0.5003973  0.2441825  0.5980003  )
        24           O   tau(  24) = (  0.7527966  0.4978604  0.4015968  )
        25           O   tau(  25) = (  0.5021396  0.2472034  0.4015968  )
        26           O   tau(  26) = (  0.7517679  0.0000000  0.4015968  )
        27           O   tau(  27) = (  0.0114961  0.4948124  0.6896512  )
        28           O   tau(  28) = (  0.0048226  0.0077944  0.6999492  )
        29           Sr  tau(  29) = (  0.2545482  0.2517602  0.6972903  )
        30           O   tau(  30) = (  0.5048017  0.0015068  0.7027529  )
        31           Co  tau(  31) = (  0.0056869  0.5006215  0.4015968  )
        32           Co  tau(  32) = (  0.0065315  0.4997770  0.5980003  )
        33           Co  tau(  33) = (  0.0061999  0.0064171  0.4015968  )
        34           Co  tau(  34) = (  0.0000000  0.0126169  0.5980003  )
        35           O   tau(  35) = (  0.0114961  0.4948124  0.5063494  )
        36           O   tau(  36) = (  0.0114961  0.4948124  0.2968442  )
        37           O   tau(  37) = (  0.0051979  0.2673486  0.4015968  )
        38           O   tau(  38) = (  0.0130029  0.2478461  0.5980003  )
        39           O   tau(  39) = (  0.0048226  0.0077944  0.3071422  )
        40           O   tau(  40) = (  0.0048226  0.0077944  0.4960513  )
        41           Sr  tau(  41) = (  0.2545482  0.2517602  0.3044833  )
        42           Sr  tau(  42) = (  0.2545482  0.2517602  0.4987103  )
        43           Co  tau(  43) = (  0.4989925  0.0073160  0.5980003  )
        44           Co  tau(  44) = (  0.4998370  0.0064714  0.4015968  )
        45           O   tau(  45) = (  0.5048017  0.0015068  0.3099459  )
        46           O   tau(  46) = (  0.5048017  0.0015068  0.4932477  )
        47           O   tau(  47) = (  0.2621260  0.0059111  0.5980003  )
        48           O   tau(  48) = (  0.2591051  0.0041689  0.4015968  )
        49           H   tau(  49) = (  0.8529874  0.0000000  0.8534850  )

     number of k points=    10  Gaussian smearing, width (Ry)=  0.0700
                       cart. coord. in units 2pi/alat
        k(    1) = (   0.0000000   0.0000000   0.0000000), wk =   0.1250000
        k(    2) = (   0.0000000   0.2500000   0.0000000), wk =   0.2500000
        k(    3) = (   0.0000000  -0.5000000   0.0000000), wk =   0.1250000
        k(    4) = (   0.2500000   0.2500000   0.0000000), wk =   0.2500000
        k(    5) = (   0.2500000  -0.5000000   0.0000000), wk =   0.2500000
        k(    6) = (  -0.5000000  -0.5000000   0.0000000), wk =   0.1250000
        k(    7) = (   0.2500000   0.0000000   0.0000000), wk =   0.2500000
        k(    8) = (  -0.5000000   0.0000000   0.0000000), wk =   0.1250000
        k(    9) = (  -0.2500000   0.2500000   0.0000000), wk =   0.2500000
        k(   10) = (  -0.5000000   0.2500000   0.0000000), wk =   0.2500000

                       cryst. coord.
        k(    1) = (   0.0000000   0.0000000   0.0000000), wk =   0.1250000
        k(    2) = (   0.0000000   0.2500000   0.0000000), wk =   0.2500000
        k(    3) = (   0.0000000  -0.5000000   0.0000000), wk =   0.1250000
        k(    4) = (   0.2500000   0.2500000   0.0000000), wk =   0.2500000
        k(    5) = (   0.2500000  -0.5000000   0.0000000), wk =   0.2500000
        k(    6) = (  -0.5000000  -0.5000000   0.0000000), wk =   0.1250000
        k(    7) = (   0.2500000   0.0000000   0.0000000), wk =   0.2500000
        k(    8) = (  -0.5000000   0.0000000   0.0000000), wk =   0.1250000
        k(    9) = (  -0.2500000   0.2500000   0.0000000), wk =   0.2500000
        k(   10) = (  -0.5000000   0.2500000   0.0000000), wk =   0.2500000

     Dense  grid:  1474595 G-vectors     FFT dimensions: ( 108, 108, 270)

     Smooth grid:   521381 G-vectors     FFT dimensions: (  75,  75, 192)

     Dynamical RAM for                 wfc:      10.61 MB

     Dynamical RAM for     wfc (w. buffer):      63.63 MB

     Dynamical RAM for           str. fact:       3.75 MB

     Dynamical RAM for           local pot:       0.00 MB

     Dynamical RAM for          nlocal pot:      24.28 MB

     Dynamical RAM for                qrad:       7.03 MB

     Dynamical RAM for          rho,v,vnew:       6.02 MB

     Dynamical RAM for               rhoin:       2.01 MB

     Dynamical RAM for            rho*nmix:      15.00 MB

     Dynamical RAM for           G-vectors:       3.68 MB

     Dynamical RAM for          h,s,v(r/c):       1.32 MB

     Dynamical RAM for          <psi|beta>:       2.29 MB

     Dynamical RAM for                 psi:      21.21 MB

     Dynamical RAM for                hpsi:      21.21 MB

     Dynamical RAM for                spsi:      21.21 MB

     Dynamical RAM for      wfcinit/wfcrot:      34.09 MB

     Dynamical RAM for           addusdens:     100.79 MB

     Estimated static dynamical RAM per process >     120.42 MB

     Estimated max dynamical RAM per process >     236.21 MB

     Estimated total dynamical RAM >      10.72 GB

     Check: negative core charge=   -0.000004

     Initial potential from superposition of free atoms

     starting charge     416.5961, renormalised to     425.0000

     negative rho (up, down):  7.827E-01 0.000E+00
     Starting wfcs are  373 randomized atomic wfcs
     Checking if some PAW data can be deallocated... 
       PAW data deallocated on   20 nodes for type:  2

     total cpu time spent up to now is        9.1 secs

     Self-consistent Calculation

     iteration #  1     ecut=    60.00 Ry     beta= 0.15
     Davidson diagonalization with overlap

---- Real-time Memory Report at c_bands before calling an iterative solver
             0 MiB given to the printing process from OS
             0 MiB allocation reported by mallinfo(arena+hblkhd)
        170485 MiB available memory on the node where the printing process lives
------------------
     ethr =  1.00E-02,  avg # of iterations =  2.0

     negative rho (up, down):  7.719E-01 0.000E+00

     total cpu time spent up to now is       23.3 secs

     total energy              =   -4404.78355705 Ry
     estimated scf accuracy    <      42.17572650 Ry

     iteration #  2     ecut=    60.00 Ry     beta= 0.15
     Davidson diagonalization with overlap

---- Real-time Memory Report at c_bands before calling an iterative solver
             0 MiB given to the printing process from OS
             0 MiB allocation reported by mallinfo(arena+hblkhd)
        170696 MiB available memory on the node where the printing process lives
------------------
     ethr =  9.92E-03,  avg # of iterations =  1.0

     negative rho (up, down):  7.532E-01 0.000E+00

     total cpu time spent up to now is       35.8 secs

     total energy              =   -4400.00943507 Ry
     estimated scf accuracy    <      26.71822981 Ry

     iteration #  3     ecut=    60.00 Ry     beta= 0.15
     Davidson diagonalization with overlap

---- Real-time Memory Report at c_bands before calling an iterative solver
             0 MiB given to the printing process from OS
             0 MiB allocation reported by mallinfo(arena+hblkhd)
        169949 MiB available memory on the node where the printing process lives
------------------
     ethr =  6.29E-03,  avg # of iterations =  2.0

     negative rho (up, down):  7.544E-01 0.000E+00

     total cpu time spent up to now is       49.5 secs

     total energy              =   -4402.39863515 Ry
     estimated scf accuracy    <      49.70075036 Ry

     iteration #  4     ecut=    60.00 Ry     beta= 0.15
     Davidson diagonalization with overlap

---- Real-time Memory Report at c_bands before calling an iterative solver
             0 MiB given to the printing process from OS
             0 MiB allocation reported by mallinfo(arena+hblkhd)
        169829 MiB available memory on the node where the printing process lives
------------------
     ethr =  6.29E-03,  avg # of iterations =  1.0

     negative rho (up, down):  7.411E-01 0.000E+00

     total cpu time spent up to now is       61.5 secs

     total energy              =   -4401.67114682 Ry
     estimated scf accuracy    <      29.72428332 Ry

     iteration #  5     ecut=    60.00 Ry     beta= 0.15
     Davidson diagonalization with overlap

---- Real-time Memory Report at c_bands before calling an iterative solver
             0 MiB given to the printing process from OS
             0 MiB allocation reported by mallinfo(arena+hblkhd)
        169805 MiB available memory on the node where the printing process lives
------------------
     ethr =  6.29E-03,  avg # of iterations =  1.0

     negative rho (up, down):  7.469E-01 0.000E+00

     total cpu time spent up to now is       73.5 secs

     total energy              =   -4399.92503553 Ry
     estimated scf accuracy    <      44.28190529 Ry

     iteration #  6     ecut=    60.00 Ry     beta= 0.15
     Davidson diagonalization with overlap

---- Real-time Memory Report at c_bands before calling an iterative solver
             0 MiB given to the printing process from OS
             0 MiB allocation reported by mallinfo(arena+hblkhd)
        169794 MiB available memory on the node where the printing process lives
------------------
     ethr =  6.29E-03,  avg # of iterations =  1.0

     negative rho (up, down):  7.422E-01 0.000E+00

     total cpu time spent up to now is       85.5 secs

     total energy              =   -4400.67671221 Ry
     estimated scf accuracy    <      11.71905104 Ry

     iteration #  7     ecut=    60.00 Ry     beta= 0.15
     Davidson diagonalization with overlap

---- Real-time Memory Report at c_bands before calling an iterative solver
             0 MiB given to the printing process from OS
             0 MiB allocation reported by mallinfo(arena+hblkhd)
        169773 MiB available memory on the node where the printing process lives
------------------
     ethr =  2.76E-03,  avg # of iterations =  1.1

     negative rho (up, down):  7.443E-01 0.000E+00

     total cpu time spent up to now is       98.1 secs

     total energy              =   -4400.80104798 Ry
     estimated scf accuracy    <       4.12859839 Ry

     iteration #  8     ecut=    60.00 Ry     beta= 0.15
     Davidson diagonalization with overlap

---- Real-time Memory Report at c_bands before calling an iterative solver
             0 MiB given to the printing process from OS
             0 MiB allocation reported by mallinfo(arena+hblkhd)
        169746 MiB available memory on the node where the printing process lives
------------------
     ethr =  9.71E-04,  avg # of iterations =  1.5

     negative rho (up, down):  7.530E-01 0.000E+00

     total cpu time spent up to now is      111.1 secs

     total energy              =   -4400.33731038 Ry
     estimated scf accuracy    <       3.66658341 Ry

     iteration #  9     ecut=    60.00 Ry     beta= 0.15
     Davidson diagonalization with overlap

---- Real-time Memory Report at c_bands before calling an iterative solver
             0 MiB given to the printing process from OS
             0 MiB allocation reported by mallinfo(arena+hblkhd)
        169732 MiB available memory on the node where the printing process lives
------------------
     ethr =  8.63E-04,  avg # of iterations =  3.0

     negative rho (up, down):  7.767E-01 0.000E+00

     total cpu time spent up to now is      125.9 secs

     total energy              =   -4399.83962898 Ry
     estimated scf accuracy    <      40.52967863 Ry

     iteration # 10     ecut=    60.00 Ry     beta= 0.15
     Davidson diagonalization with overlap

---- Real-time Memory Report at c_bands before calling an iterative solver
             0 MiB given to the printing process from OS
             0 MiB allocation reported by mallinfo(arena+hblkhd)
        169677 MiB available memory on the node where the printing process lives
------------------
     ethr =  8.63E-04,  avg # of iterations =  9.4

     negative rho (up, down):  7.784E-01 0.000E+00

     total cpu time spent up to now is      144.4 secs

     total energy              =   -4399.80871920 Ry
     estimated scf accuracy    <      11.79427697 Ry

     iteration # 11     ecut=    60.00 Ry     beta= 0.15
     Davidson diagonalization with overlap

---- Real-time Memory Report at c_bands before calling an iterative solver
             0 MiB given to the printing process from OS
             0 MiB allocation reported by mallinfo(arena+hblkhd)
        169273 MiB available memory on the node where the printing process lives
------------------
     ethr =  8.63E-04,  avg # of iterations =  1.1

     negative rho (up, down):  7.813E-01 0.000E+00

     total cpu time spent up to now is      157.2 secs

     total energy              =   -4400.12672572 Ry
     estimated scf accuracy    <       1.16066544 Ry

     iteration # 12     ecut=    60.00 Ry     beta= 0.15
     Davidson diagonalization with overlap

---- Real-time Memory Report at c_bands before calling an iterative solver
             0 MiB given to the printing process from OS
             0 MiB allocation reported by mallinfo(arena+hblkhd)
        169312 MiB available memory on the node where the printing process lives
------------------
     ethr =  2.73E-04,  avg # of iterations =  2.2

     negative rho (up, down):  7.881E-01 0.000E+00

     total cpu time spent up to now is      170.7 secs

     total energy              =   -4400.09856987 Ry
     estimated scf accuracy    <       0.79874963 Ry

     iteration # 13     ecut=    60.00 Ry     beta= 0.15
     Davidson diagonalization with overlap

---- Real-time Memory Report at c_bands before calling an iterative solver
             0 MiB given to the printing process from OS
             0 MiB allocation reported by mallinfo(arena+hblkhd)
        169324 MiB available memory on the node where the printing process lives
------------------
     ethr =  1.88E-04,  avg # of iterations =  2.8

     negative rho (up, down):  8.028E-01 0.000E+00

     total cpu time spent up to now is      184.6 secs

     total energy              =   -4400.08713502 Ry
     estimated scf accuracy    <       1.07749557 Ry

     iteration # 14     ecut=    60.00 Ry     beta= 0.15
     Davidson diagonalization with overlap

---- Real-time Memory Report at c_bands before calling an iterative solver
             0 MiB given to the printing process from OS
             0 MiB allocation reported by mallinfo(arena+hblkhd)
        169319 MiB available memory on the node where the printing process lives
------------------
     ethr =  1.88E-04,  avg # of iterations =  9.0

     negative rho (up, down):  8.018E-01 0.000E+00

     total cpu time spent up to now is      202.0 secs

     total energy              =   -4400.01239561 Ry
     estimated scf accuracy    <       2.16081893 Ry

     iteration # 15     ecut=    60.00 Ry     beta= 0.15
     Davidson diagonalization with overlap

---- Real-time Memory Report at c_bands before calling an iterative solver
             0 MiB given to the printing process from OS
             0 MiB allocation reported by mallinfo(arena+hblkhd)
        169262 MiB available memory on the node where the printing process lives
------------------
     ethr =  1.88E-04,  avg # of iterations =  3.0

     negative rho (up, down):  8.060E-01 0.000E+00

     total cpu time spent up to now is      216.1 secs

     total energy              =   -4400.05028127 Ry
     estimated scf accuracy    <       0.40793367 Ry

     iteration # 16     ecut=    60.00 Ry     beta= 0.15
     Davidson diagonalization with overlap

---- Real-time Memory Report at c_bands before calling an iterative solver
             0 MiB given to the printing process from OS
             0 MiB allocation reported by mallinfo(arena+hblkhd)
        169271 MiB available memory on the node where the printing process lives
------------------
     c_bands:  1 eigenvalues not converged
     ethr =  9.60E-05,  avg # of iterations =  8.7

     negative rho (up, down):  8.094E-01 0.000E+00

     total cpu time spent up to now is      232.6 secs

     total energy              =   -4400.02522670 Ry
     estimated scf accuracy    <       0.32384499 Ry

     iteration # 17     ecut=    60.00 Ry     beta= 0.15
     Davidson diagonalization with overlap

---- Real-time Memory Report at c_bands before calling an iterative solver
             0 MiB given to the printing process from OS
             0 MiB allocation reported by mallinfo(arena+hblkhd)
        169221 MiB available memory on the node where the printing process lives
------------------
     ethr =  7.62E-05,  avg # of iterations =  5.8

     negative rho (up, down):  8.172E-01 0.000E+00

     total cpu time spent up to now is      248.0 secs

     total energy              =   -4399.94911155 Ry
     estimated scf accuracy    <       0.31265488 Ry

     iteration # 18     ecut=    60.00 Ry     beta= 0.15
     Davidson diagonalization with overlap

---- Real-time Memory Report at c_bands before calling an iterative solver
             0 MiB given to the printing process from OS
             0 MiB allocation reported by mallinfo(arena+hblkhd)
        169244 MiB available memory on the node where the printing process lives
------------------
     ethr =  7.36E-05,  avg # of iterations =  9.8

     negative rho (up, down):  8.297E-01 0.000E+00

     total cpu time spent up to now is      265.9 secs

     total energy              =   -4399.94144241 Ry
     estimated scf accuracy    <       0.19912700 Ry

     iteration # 19     ecut=    60.00 Ry     beta= 0.15
     Davidson diagonalization with overlap

---- Real-time Memory Report at c_bands before calling an iterative solver
             0 MiB given to the printing process from OS
             0 MiB allocation reported by mallinfo(arena+hblkhd)
        169189 MiB available memory on the node where the printing process lives
------------------
     c_bands:  1 eigenvalues not converged
     c_bands:  2 eigenvalues not converged
     ethr =  4.69E-05,  avg # of iterations =  6.3

     negative rho (up, down):  8.257E-01 0.000E+00

     total cpu time spent up to now is      281.8 secs

     total energy              =   -4399.93949117 Ry
     estimated scf accuracy    <       0.09769950 Ry

     iteration # 20     ecut=    60.00 Ry     beta= 0.15
     Davidson diagonalization with overlap

---- Real-time Memory Report at c_bands before calling an iterative solver
             0 MiB given to the printing process from OS
             0 MiB allocation reported by mallinfo(arena+hblkhd)
        169118 MiB available memory on the node where the printing process lives
------------------
     ethr =  2.30E-05,  avg # of iterations =  6.7

     negative rho (up, down):  8.209E-01 0.000E+00

     total cpu time spent up to now is      297.5 secs

     total energy              =   -4399.93160392 Ry
     estimated scf accuracy    <       0.13418132 Ry

     iteration # 21     ecut=    60.00 Ry     beta= 0.15
     Davidson diagonalization with overlap

---- Real-time Memory Report at c_bands before calling an iterative solver
             0 MiB given to the printing process from OS
             0 MiB allocation reported by mallinfo(arena+hblkhd)
        169100 MiB available memory on the node where the printing process lives
------------------
     ethr =  2.30E-05,  avg # of iterations =  2.7

     negative rho (up, down):  8.119E-01 0.000E+00

     total cpu time spent up to now is      311.3 secs

     total energy              =   -4399.91583486 Ry
     estimated scf accuracy    <       0.06799937 Ry

     iteration # 22     ecut=    60.00 Ry     beta= 0.15
     Davidson diagonalization with overlap

---- Real-time Memory Report at c_bands before calling an iterative solver
             0 MiB given to the printing process from OS
             0 MiB allocation reported by mallinfo(arena+hblkhd)
        169108 MiB available memory on the node where the printing process lives
------------------
     ethr =  1.60E-05,  avg # of iterations =  9.4

     negative rho (up, down):  8.104E-01 0.000E+00

     total cpu time spent up to now is      329.1 secs

     total energy              =   -4399.91761271 Ry
     estimated scf accuracy    <       0.02951870 Ry

     iteration # 23     ecut=    60.00 Ry     beta= 0.15
     Davidson diagonalization with overlap

---- Real-time Memory Report at c_bands before calling an iterative solver
             0 MiB given to the printing process from OS
             0 MiB allocation reported by mallinfo(arena+hblkhd)
        168993 MiB available memory on the node where the printing process lives
------------------
     ethr =  6.95E-06,  avg # of iterations =  2.3

     negative rho (up, down):  8.015E-01 0.000E+00

     total cpu time spent up to now is      342.6 secs

     total energy              =   -4399.91584822 Ry
     estimated scf accuracy    <       0.02091789 Ry

     iteration # 24     ecut=    60.00 Ry     beta= 0.15
     Davidson diagonalization with overlap

---- Real-time Memory Report at c_bands before calling an iterative solver
             0 MiB given to the printing process from OS
             0 MiB allocation reported by mallinfo(arena+hblkhd)
        169032 MiB available memory on the node where the printing process lives
------------------
     c_bands:  1 eigenvalues not converged
     ethr =  4.92E-06,  avg # of iterations = 10.1

     negative rho (up, down):  7.942E-01 0.000E+00

     total cpu time spent up to now is      359.6 secs

     total energy              =   -4399.91511283 Ry
     estimated scf accuracy    <       0.01357485 Ry

     iteration # 25     ecut=    60.00 Ry     beta= 0.15
     Davidson diagonalization with overlap

---- Real-time Memory Report at c_bands before calling an iterative solver
             0 MiB given to the printing process from OS
             0 MiB allocation reported by mallinfo(arena+hblkhd)
        169023 MiB available memory on the node where the printing process lives
------------------
     c_bands:  2 eigenvalues not converged
     c_bands:  1 eigenvalues not converged
     ethr =  3.19E-06,  avg # of iterations =  8.7

     negative rho (up, down):  7.915E-01 0.000E+00

     total cpu time spent up to now is      376.6 secs

     total energy              =   -4399.91492768 Ry
     estimated scf accuracy    <       0.00967283 Ry

     iteration # 26     ecut=    60.00 Ry     beta= 0.15
     Davidson diagonalization with overlap

---- Real-time Memory Report at c_bands before calling an iterative solver
             0 MiB given to the printing process from OS
             0 MiB allocation reported by mallinfo(arena+hblkhd)
        169020 MiB available memory on the node where the printing process lives
------------------
     ethr =  2.28E-06,  avg # of iterations =  3.1

     negative rho (up, down):  7.905E-01 0.000E+00

     total cpu time spent up to now is      390.6 secs

     total energy              =   -4399.91446028 Ry
     estimated scf accuracy    <       0.00701442 Ry

     iteration # 27     ecut=    60.00 Ry     beta= 0.15
     Davidson diagonalization with overlap

---- Real-time Memory Report at c_bands before calling an iterative solver
             0 MiB given to the printing process from OS
             0 MiB allocation reported by mallinfo(arena+hblkhd)
        169111 MiB available memory on the node where the printing process lives
------------------
     ethr =  1.65E-06,  avg # of iterations =  6.3

     negative rho (up, down):  7.981E-01 0.000E+00

     total cpu time spent up to now is      406.4 secs

     total energy              =   -4399.91378995 Ry
     estimated scf accuracy    <       0.00453962 Ry

     iteration # 28     ecut=    60.00 Ry     beta= 0.15
     Davidson diagonalization with overlap

---- Real-time Memory Report at c_bands before calling an iterative solver
             0 MiB given to the printing process from OS
             0 MiB allocation reported by mallinfo(arena+hblkhd)
        169090 MiB available memory on the node where the printing process lives
------------------
     c_bands:  1 eigenvalues not converged
     ethr =  1.07E-06,  avg # of iterations = 15.2

     negative rho (up, down):  7.990E-01 0.000E+00

     total cpu time spent up to now is      427.8 secs

     total energy              =   -4399.91408044 Ry
     estimated scf accuracy    <       0.00109338 Ry

     iteration # 29     ecut=    60.00 Ry     beta= 0.15
     Davidson diagonalization with overlap

---- Real-time Memory Report at c_bands before calling an iterative solver
             0 MiB given to the printing process from OS
             0 MiB allocation reported by mallinfo(arena+hblkhd)
        168872 MiB available memory on the node where the printing process lives
------------------
     ethr =  2.57E-07,  avg # of iterations =  2.7

     negative rho (up, down):  7.964E-01 0.000E+00

     total cpu time spent up to now is      441.6 secs

     total energy              =   -4399.91385537 Ry
     estimated scf accuracy    <       0.00061512 Ry

     iteration # 30     ecut=    60.00 Ry     beta= 0.15
     Davidson diagonalization with overlap

---- Real-time Memory Report at c_bands before calling an iterative solver
             0 MiB given to the printing process from OS
             0 MiB allocation reported by mallinfo(arena+hblkhd)
        168881 MiB available memory on the node where the printing process lives
------------------
     ethr =  1.45E-07,  avg # of iterations =  5.5

     negative rho (up, down):  7.946E-01 0.000E+00

     total cpu time spent up to now is      456.8 secs

     total energy              =   -4399.91386813 Ry
     estimated scf accuracy    <       0.00020798 Ry

     iteration # 31     ecut=    60.00 Ry     beta= 0.15
     Davidson diagonalization with overlap

---- Real-time Memory Report at c_bands before calling an iterative solver
             0 MiB given to the printing process from OS
             0 MiB allocation reported by mallinfo(arena+hblkhd)
        168876 MiB available memory on the node where the printing process lives
------------------
     ethr =  4.89E-08,  avg # of iterations =  2.7

     negative rho (up, down):  7.940E-01 0.000E+00

     total cpu time spent up to now is      470.9 secs

     total energy              =   -4399.91388687 Ry
     estimated scf accuracy    <       0.00010455 Ry

     iteration # 32     ecut=    60.00 Ry     beta= 0.15
     Davidson diagonalization with overlap

---- Real-time Memory Report at c_bands before calling an iterative solver
             0 MiB given to the printing process from OS
             0 MiB allocation reported by mallinfo(arena+hblkhd)
        168888 MiB available memory on the node where the printing process lives
------------------
     ethr =  2.46E-08,  avg # of iterations =  2.0

     negative rho (up, down):  7.928E-01 0.000E+00

     total cpu time spent up to now is      484.4 secs

     total energy              =   -4399.91389814 Ry
     estimated scf accuracy    <       0.00005289 Ry

     iteration # 33     ecut=    60.00 Ry     beta= 0.15
     Davidson diagonalization with overlap

---- Real-time Memory Report at c_bands before calling an iterative solver
             0 MiB given to the printing process from OS
             0 MiB allocation reported by mallinfo(arena+hblkhd)
        168899 MiB available memory on the node where the printing process lives
------------------
     ethr =  1.24E-08,  avg # of iterations =  3.0

     negative rho (up, down):  7.924E-01 0.000E+00

     total cpu time spent up to now is      498.5 secs

     total energy              =   -4399.91390388 Ry
     estimated scf accuracy    <       0.00001907 Ry

     iteration # 34     ecut=    60.00 Ry     beta= 0.15
     Davidson diagonalization with overlap

---- Real-time Memory Report at c_bands before calling an iterative solver
             0 MiB given to the printing process from OS
             0 MiB allocation reported by mallinfo(arena+hblkhd)
        168899 MiB available memory on the node where the printing process lives
------------------
     ethr =  4.49E-09,  avg # of iterations =  3.2

     negative rho (up, down):  7.924E-01 0.000E+00

     total cpu time spent up to now is      512.4 secs

     total energy              =   -4399.91390556 Ry
     estimated scf accuracy    <       0.00001027 Ry

     iteration # 35     ecut=    60.00 Ry     beta= 0.15
     Davidson diagonalization with overlap

---- Real-time Memory Report at c_bands before calling an iterative solver
             0 MiB given to the printing process from OS
             0 MiB allocation reported by mallinfo(arena+hblkhd)
        168878 MiB available memory on the node where the printing process lives
------------------
     ethr =  2.42E-09,  avg # of iterations =  1.4

     negative rho (up, down):  7.924E-01 0.000E+00

     total cpu time spent up to now is      525.3 secs

     total energy              =   -4399.91390724 Ry
     estimated scf accuracy    <       0.00000832 Ry

     iteration # 36     ecut=    60.00 Ry     beta= 0.15
     Davidson diagonalization with overlap

---- Real-time Memory Report at c_bands before calling an iterative solver
             0 MiB given to the printing process from OS
             0 MiB allocation reported by mallinfo(arena+hblkhd)
        168892 MiB available memory on the node where the printing process lives
------------------
     ethr =  1.96E-09,  avg # of iterations =  2.2

     negative rho (up, down):  7.923E-01 0.000E+00

     total cpu time spent up to now is      538.9 secs

     total energy              =   -4399.91390816 Ry
     estimated scf accuracy    <       0.00000416 Ry

     iteration # 37     ecut=    60.00 Ry     beta= 0.15
     Davidson diagonalization with overlap

---- Real-time Memory Report at c_bands before calling an iterative solver
             0 MiB given to the printing process from OS
             0 MiB allocation reported by mallinfo(arena+hblkhd)
        168891 MiB available memory on the node where the printing process lives
------------------
     ethr =  9.78E-10,  avg # of iterations =  3.1

     negative rho (up, down):  7.923E-01 0.000E+00

     total cpu time spent up to now is      552.6 secs

     total energy              =   -4399.91390834 Ry
     estimated scf accuracy    <       0.00000318 Ry

     iteration # 38     ecut=    60.00 Ry     beta= 0.15
     Davidson diagonalization with overlap

---- Real-time Memory Report at c_bands before calling an iterative solver
             0 MiB given to the printing process from OS
             0 MiB allocation reported by mallinfo(arena+hblkhd)
        168893 MiB available memory on the node where the printing process lives
------------------
     ethr =  7.49E-10,  avg # of iterations =  2.2

     negative rho (up, down):  7.924E-01 0.000E+00

     total cpu time spent up to now is      566.1 secs

     total energy              =   -4399.91390787 Ry
     estimated scf accuracy    <       0.00000201 Ry

     iteration # 39     ecut=    60.00 Ry     beta= 0.15
     Davidson diagonalization with overlap

---- Real-time Memory Report at c_bands before calling an iterative solver
             0 MiB given to the printing process from OS
             0 MiB allocation reported by mallinfo(arena+hblkhd)
        168900 MiB available memory on the node where the printing process lives
------------------
     ethr =  4.73E-10,  avg # of iterations =  2.7

     negative rho (up, down):  7.924E-01 0.000E+00

     total cpu time spent up to now is      579.9 secs

     total energy              =   -4399.91390822 Ry
     estimated scf accuracy    <       0.00000127 Ry

     iteration # 40     ecut=    60.00 Ry     beta= 0.15
     Davidson diagonalization with overlap

---- Real-time Memory Report at c_bands before calling an iterative solver
             0 MiB given to the printing process from OS
             0 MiB allocation reported by mallinfo(arena+hblkhd)
        168901 MiB available memory on the node where the printing process lives
------------------
     ethr =  2.98E-10,  avg # of iterations =  2.1

     negative rho (up, down):  7.924E-01 0.000E+00

     total cpu time spent up to now is      593.4 secs

     total energy              =   -4399.91390851 Ry
     estimated scf accuracy    <       0.00000072 Ry

     iteration # 41     ecut=    60.00 Ry     beta= 0.15
     Davidson diagonalization with overlap

---- Real-time Memory Report at c_bands before calling an iterative solver
             0 MiB given to the printing process from OS
             0 MiB allocation reported by mallinfo(arena+hblkhd)
        168901 MiB available memory on the node where the printing process lives
------------------
     ethr =  1.69E-10,  avg # of iterations =  2.2

     negative rho (up, down):  7.924E-01 0.000E+00

     total cpu time spent up to now is      607.0 secs

     total energy              =   -4399.91390871 Ry
     estimated scf accuracy    <       0.00000044 Ry

     iteration # 42     ecut=    60.00 Ry     beta= 0.15
     Davidson diagonalization with overlap

---- Real-time Memory Report at c_bands before calling an iterative solver
             0 MiB given to the printing process from OS
             0 MiB allocation reported by mallinfo(arena+hblkhd)
        168903 MiB available memory on the node where the printing process lives
------------------
     ethr =  1.04E-10,  avg # of iterations =  2.9

     negative rho (up, down):  7.924E-01 0.000E+00

     total cpu time spent up to now is      621.0 secs

     total energy              =   -4399.91390884 Ry
     estimated scf accuracy    <       0.00000022 Ry

     iteration # 43     ecut=    60.00 Ry     beta= 0.15
     Davidson diagonalization with overlap

---- Real-time Memory Report at c_bands before calling an iterative solver
             0 MiB given to the printing process from OS
             0 MiB allocation reported by mallinfo(arena+hblkhd)
        168909 MiB available memory on the node where the printing process lives
------------------
     ethr =  5.20E-11,  avg # of iterations =  3.2

     negative rho (up, down):  7.924E-01 0.000E+00

     total cpu time spent up to now is      635.3 secs

     total energy              =   -4399.91390887 Ry
     estimated scf accuracy    <       0.00000017 Ry

     iteration # 44     ecut=    60.00 Ry     beta= 0.15
     Davidson diagonalization with overlap

---- Real-time Memory Report at c_bands before calling an iterative solver
             0 MiB given to the printing process from OS
             0 MiB allocation reported by mallinfo(arena+hblkhd)
        168904 MiB available memory on the node where the printing process lives
------------------
     ethr =  4.02E-11,  avg # of iterations =  2.9

     negative rho (up, down):  7.924E-01 0.000E+00

     total cpu time spent up to now is      649.1 secs

     total energy              =   -4399.91390887 Ry
     estimated scf accuracy    <       0.00000013 Ry

     iteration # 45     ecut=    60.00 Ry     beta= 0.15
     Davidson diagonalization with overlap

---- Real-time Memory Report at c_bands before calling an iterative solver
             0 MiB given to the printing process from OS
             0 MiB allocation reported by mallinfo(arena+hblkhd)
        168915 MiB available memory on the node where the printing process lives
------------------
     ethr =  3.14E-11,  avg # of iterations =  2.1

     negative rho (up, down):  7.924E-01 0.000E+00

     total cpu time spent up to now is      662.8 secs

     total energy              =   -4399.91390886 Ry
     estimated scf accuracy    <       0.00000011 Ry

     iteration # 46     ecut=    60.00 Ry     beta= 0.15
     Davidson diagonalization with overlap

---- Real-time Memory Report at c_bands before calling an iterative solver
             0 MiB given to the printing process from OS
             0 MiB allocation reported by mallinfo(arena+hblkhd)
        168922 MiB available memory on the node where the printing process lives
------------------
     ethr =  2.55E-11,  avg # of iterations =  2.8

     negative rho (up, down):  7.924E-01 0.000E+00

     total cpu time spent up to now is      676.8 secs

     total energy              =   -4399.91390885 Ry
     estimated scf accuracy    <       0.00000006 Ry

     iteration # 47     ecut=    60.00 Ry     beta= 0.15
     Davidson diagonalization with overlap

---- Real-time Memory Report at c_bands before calling an iterative solver
             0 MiB given to the printing process from OS
             0 MiB allocation reported by mallinfo(arena+hblkhd)
        168936 MiB available memory on the node where the printing process lives
------------------
     ethr =  1.39E-11,  avg # of iterations =  2.3

     negative rho (up, down):  7.924E-01 0.000E+00

     total cpu time spent up to now is      690.9 secs

     total energy              =   -4399.91390887 Ry
     estimated scf accuracy    <       0.00000003 Ry

     iteration # 48     ecut=    60.00 Ry     beta= 0.15
     Davidson diagonalization with overlap

---- Real-time Memory Report at c_bands before calling an iterative solver
             0 MiB given to the printing process from OS
             0 MiB allocation reported by mallinfo(arena+hblkhd)
        168936 MiB available memory on the node where the printing process lives
------------------
     ethr =  6.88E-12,  avg # of iterations =  2.2

     negative rho (up, down):  7.924E-01 0.000E+00

     total cpu time spent up to now is      704.8 secs

     total energy              =   -4399.91390887 Ry
     estimated scf accuracy    <       0.00000002 Ry

     iteration # 49     ecut=    60.00 Ry     beta= 0.15
     Davidson diagonalization with overlap

---- Real-time Memory Report at c_bands before calling an iterative solver
             0 MiB given to the printing process from OS
             0 MiB allocation reported by mallinfo(arena+hblkhd)
        168936 MiB available memory on the node where the printing process lives
------------------
     ethr =  4.07E-12,  avg # of iterations =  1.9

     negative rho (up, down):  7.924E-01 0.000E+00

     total cpu time spent up to now is      718.6 secs

     total energy              =   -4399.91390888 Ry
     estimated scf accuracy    <       0.00000001 Ry

     iteration # 50     ecut=    60.00 Ry     beta= 0.15
     Davidson diagonalization with overlap

---- Real-time Memory Report at c_bands before calling an iterative solver
             0 MiB given to the printing process from OS
             0 MiB allocation reported by mallinfo(arena+hblkhd)
        168936 MiB available memory on the node where the printing process lives
------------------
     ethr =  3.10E-12,  avg # of iterations =  3.2

     negative rho (up, down):  7.924E-01 0.000E+00

     total cpu time spent up to now is      733.5 secs

     End of self-consistent calculation

          k = 0.0000 0.0000 0.0000 ( 65197 PWs)   bands (ev):

   -92.7127 -92.6586 -92.5665 -92.5186 -92.4592 -92.4189 -92.4020 -92.2772
   -56.0662 -56.0453 -55.9239 -55.9134 -55.9064 -55.9003 -55.8637 -55.8358
   -55.8207 -55.8183 -55.8089 -55.7673 -55.7490 -55.7107 -55.6928 -55.6591
   -55.6543 -55.6075 -55.6043 -55.6033 -55.5958 -55.5502 -55.5323 -55.4457
   -31.2889 -31.2698 -31.1276 -31.0414 -31.0325 -30.9561 -30.9490 -30.8433
   -29.8607 -29.8180 -29.7915 -29.6840 -15.0936 -15.0556 -14.9704 -14.8402
   -14.6519 -14.5293 -14.2322 -14.2123 -14.1834 -14.1370 -14.0947 -14.0866
   -14.0729 -14.0556 -14.0374 -13.9902 -13.9429 -13.7927 -13.6192 -13.5811
   -13.5503 -13.5211 -13.5036 -13.4512 -13.4162 -13.3334 -13.2621 -13.1442
   -13.1217 -13.1108 -13.0866 -13.0695 -13.0681 -13.0259 -13.0133 -13.0025
   -12.9663 -12.9349 -12.9159 -12.8839 -12.8653 -12.8633 -12.8246 -12.8132
   -12.7943 -12.7705 -12.7266 -12.7152 -12.3538 -12.2082 -12.0688 -11.9983
   -11.8747 -11.8002 -11.7889 -11.7669 -11.7491 -11.6854 -11.6680 -11.6335
   -11.6038 -11.4932 -11.4128 -11.4092  -2.9549  -2.7220  -2.4923  -2.3465
    -2.2826  -2.1400  -1.8335  -1.8194  -1.7987  -1.7161  -1.6965  -1.6282
    -1.6122  -1.5707  -1.5246  -1.3452  -1.1216  -1.0925  -0.9430  -0.9290
    -0.8851  -0.8657  -0.8208  -0.8049  -0.7466  -0.7200  -0.6501  -0.6370
    -0.5593  -0.4287  -0.4150  -0.3872  -0.3059  -0.2979  -0.2843  -0.2131
    -0.1420  -0.1066  -0.0458  -0.0213   0.0364   0.1209   0.1669   0.1906
     0.1987   0.4553   0.4699   0.6427   0.7090   0.7732   0.8182   0.9093
     0.9233   0.9408   1.0078   1.0349   1.0694   1.1278   1.2608   1.3166
     1.3382   1.3581   1.3688   1.4359   1.5094   1.6097   1.6222   1.6838
     1.7003   1.7416   1.7620   1.7673   1.8234   1.8754   1.8883   1.9214
     1.9598   2.0108   2.1430   2.2233   2.2699   2.2924   2.4381   2.4533
     2.4955   2.5009   2.6007   2.6434   2.6673   2.6873   2.7034   2.7678
     2.8176   2.8934   2.9257   2.9391   2.9460   3.0127   3.0164   3.0416
     3.0494   3.0579   3.0747   3.0771   3.0916   3.0952   3.1127   3.1180
     3.1248   3.1444   3.1655   3.1712   3.1827   3.2125   3.3236   3.4340
     4.1015   4.4123   4.7560   4.8637   5.0244   5.8330   5.9182   5.9770
     6.0265   6.3029   6.3495   6.4785   6.4889   6.7330   7.0034   7.0917
     7.1306   7.2272   7.3054   7.5821   7.6378   7.6544   7.6834   7.9335
     8.0101   8.1073   8.1259   8.1814   8.5348   8.6661   8.7021   8.8565

     occupation numbers 
     1.0000   1.0000   1.0000   1.0000   1.0000   1.0000   1.0000   1.0000
     1.0000   1.0000   1.0000   1.0000   1.0000   1.0000   1.0000   1.0000
     1.0000   1.0000   1.0000   1.0000   1.0000   1.0000   1.0000   1.0000
     1.0000   1.0000   1.0000   1.0000   1.0000   1.0000   1.0000   1.0000
     1.0000   1.0000   1.0000   1.0000   1.0000   1.0000   1.0000   1.0000
     1.0000   1.0000   1.0000   1.0000   1.0000   1.0000   1.0000   1.0000
     1.0000   1.0000   1.0000   1.0000   1.0000   1.0000   1.0000   1.0000
     1.0000   1.0000   1.0000   1.0000   1.0000   1.0000   1.0000   1.0000
     1.0000   1.0000   1.0000   1.0000   1.0000   1.0000   1.0000   1.0000
     1.0000   1.0000   1.0000   1.0000   1.0000   1.0000   1.0000   1.0000
     1.0000   1.0000   1.0000   1.0000   1.0000   1.0000   1.0000   1.0000
     1.0000   1.0000   1.0000   1.0000   1.0000   1.0000   1.0000   1.0000
     1.0000   1.0000   1.0000   1.0000   1.0000   1.0000   1.0000   1.0000
     1.0000   1.0000   1.0000   1.0000   1.0000   1.0000   1.0000   1.0000
     1.0000   1.0000   1.0000   1.0000   1.0000   1.0000   1.0000   1.0000
     1.0000   1.0000   1.0000   1.0000   1.0000   1.0000   1.0000   1.0000
     1.0000   1.0000   1.0000   1.0000   1.0000   1.0000   1.0000   1.0000
     1.0000   1.0000   1.0000   1.0000   1.0000   1.0000   1.0000   1.0000
     1.0000   1.0000   1.0000   1.0000   1.0000   1.0000   1.0000   1.0000
     1.0000   1.0000   1.0000   1.0000   0.9999   0.9999   0.9999   0.9998
     0.9998   0.9998   0.9997   0.9996   0.9996   0.9994   0.9989   0.9985
     0.9983   0.9982   0.9981   0.9974   0.9963   0.9943   0.9940   0.9923
     0.9917   0.9903   0.9894   0.9892   0.9866   0.9837   0.9829   0.9807
     0.9779   0.9736   0.9591   0.9475   0.9396   0.9355   0.9036   0.8996
     0.8882   0.8866   0.8556   0.8407   0.8319   0.8243   0.8181   0.7917
     0.7699   0.7343   0.7184   0.7116   0.7081   0.6732   0.6712   0.6576
     0.6534   0.6487   0.6394   0.6380   0.6299   0.6279   0.6180   0.6151
     0.6112   0.6000   0.5878   0.5845   0.5779   0.5605   0.4949   0.4299
     0.1214   0.0516   0.0162   0.0107   0.0056   0.0001   0.0001   0.0000
     0.0000   0.0000   0.0000   0.0000   0.0000   0.0000   0.0000   0.0000
     0.0000   0.0000   0.0000   0.0000   0.0000   0.0000   0.0000   0.0000
     0.0000   0.0000   0.0000   0.0000   0.0000   0.0000   0.0000   0.0000

          k = 0.0000 0.2500 0.0000 ( 65257 PWs)   bands (ev):

   -92.7127 -92.6586 -92.5665 -92.5186 -92.4592 -92.4189 -92.4020 -92.2772
   -56.0662 -56.0453 -55.9239 -55.9134 -55.9064 -55.9003 -55.8637 -55.8358
   -55.8207 -55.8183 -55.8089 -55.7673 -55.7490 -55.7107 -55.6928 -55.6591
   -55.6543 -55.6075 -55.6043 -55.6033 -55.5958 -55.5502 -55.5323 -55.4457
   -31.2887 -31.2697 -31.1278 -31.0415 -31.0322 -30.9558 -30.9493 -30.8436
   -29.8601 -29.8177 -29.7922 -29.6843 -15.0567 -15.0296 -14.9454 -14.8109
   -14.6924 -14.5188 -14.3781 -14.1978 -14.1656 -14.1421 -14.1130 -14.0583
   -14.0508 -14.0382 -14.0195 -13.9688 -13.8625 -13.8239 -13.6599 -13.6443
   -13.5911 -13.5561 -13.5136 -13.4682 -13.4290 -13.3547 -13.3191 -13.2555
   -13.1976 -13.1589 -13.1199 -13.1028 -13.0546 -12.9991 -12.9748 -12.9460
   -12.9256 -12.9121 -12.8798 -12.8705 -12.8382 -12.8191 -12.8067 -12.7768
   -12.7617 -12.7312 -12.6373 -12.5504 -12.4151 -12.2594 -12.1253 -12.0655
   -11.8402 -11.7971 -11.7692 -11.7409 -11.7244 -11.6773 -11.6658 -11.6431
   -11.6091 -11.5075 -11.4545 -11.4439  -2.8197  -2.5977  -2.4603  -2.2784
    -2.2348  -2.0706  -1.8523  -1.7666  -1.7536  -1.6972  -1.5939  -1.5783
    -1.5433  -1.5177  -1.4740  -1.2764  -1.1480  -1.1362  -1.0597  -1.0495
    -0.9447  -0.9139  -0.8575  -0.8326  -0.7907  -0.7277  -0.7016  -0.6692
    -0.6379  -0.6210  -0.5882  -0.5139  -0.4627  -0.4001  -0.2879  -0.2692
    -0.2256  -0.1083  -0.0750  -0.0085   0.0386   0.1042   0.1182   0.1467
     0.2031   0.5017   0.5904   0.6197   0.7103   0.7556   0.7754   0.8972
     0.9147   1.0092   1.0347   1.0623   1.1776   1.2674   1.2925   1.3150
     1.3340   1.3613   1.4209   1.4484   1.4753   1.5240   1.5574   1.5864
     1.6657   1.6983   1.7380   1.7906   1.8437   1.8831   1.9119   1.9402
     1.9599   2.0461   2.1764   2.2499   2.2740   2.3464   2.3928   2.4306
     2.4408   2.5013   2.5422   2.6171   2.6593   2.6795   2.7941   2.8535
     2.8836   2.9074   2.9303   2.9483   2.9562   2.9621   2.9734   3.0017
     3.0030   3.0229   3.0279   3.0392   3.0552   3.0713   3.0760   3.0972
     3.1065   3.1116   3.1461   3.1631   3.2270   3.5873   3.6431   3.8717
     4.2905   4.4114   4.6921   5.0132   5.0568   5.6250   5.7653   5.9304
     5.9652   6.0785   6.1153   6.1757   6.5960   6.8545   6.9052   7.1078
     7.3251   7.3844   7.4754   7.4905   7.6369   7.7182   7.7863   8.0173
     8.0508   8.0946   8.1643   8.3054   8.4011   8.6038   8.7885   8.8562

     occupation numbers 
     1.0000   1.0000   1.0000   1.0000   1.0000   1.0000   1.0000   1.0000
     1.0000   1.0000   1.0000   1.0000   1.0000   1.0000   1.0000   1.0000
     1.0000   1.0000   1.0000   1.0000   1.0000   1.0000   1.0000   1.0000
     1.0000   1.0000   1.0000   1.0000   1.0000   1.0000   1.0000   1.0000
     1.0000   1.0000   1.0000   1.0000   1.0000   1.0000   1.0000   1.0000
     1.0000   1.0000   1.0000   1.0000   1.0000   1.0000   1.0000   1.0000
     1.0000   1.0000   1.0000   1.0000   1.0000   1.0000   1.0000   1.0000
     1.0000   1.0000   1.0000   1.0000   1.0000   1.0000   1.0000   1.0000
     1.0000   1.0000   1.0000   1.0000   1.0000   1.0000   1.0000   1.0000
     1.0000   1.0000   1.0000   1.0000   1.0000   1.0000   1.0000   1.0000
     1.0000   1.0000   1.0000   1.0000   1.0000   1.0000   1.0000   1.0000
     1.0000   1.0000   1.0000   1.0000   1.0000   1.0000   1.0000   1.0000
     1.0000   1.0000   1.0000   1.0000   1.0000   1.0000   1.0000   1.0000
     1.0000   1.0000   1.0000   1.0000   1.0000   1.0000   1.0000   1.0000
     1.0000   1.0000   1.0000   1.0000   1.0000   1.0000   1.0000   1.0000
     1.0000   1.0000   1.0000   1.0000   1.0000   1.0000   1.0000   1.0000
     1.0000   1.0000   1.0000   1.0000   1.0000   1.0000   1.0000   1.0000
     1.0000   1.0000   1.0000   1.0000   1.0000   1.0000   1.0000   1.0000
     1.0000   1.0000   1.0000   1.0000   1.0000   1.0000   1.0000   1.0000
     1.0000   1.0000   1.0000   1.0000   0.9999   0.9999   0.9999   0.9998
     0.9998   0.9997   0.9996   0.9996   0.9992   0.9988   0.9987   0.9985
     0.9984   0.9981   0.9975   0.9972   0.9968   0.9961   0.9955   0.9949
     0.9928   0.9918   0.9904   0.9882   0.9855   0.9833   0.9814   0.9794
     0.9779   0.9702   0.9545   0.9431   0.9389   0.9248   0.9145   0.9054
     0.9029   0.8865   0.8744   0.8499   0.8349   0.8273   0.7804   0.7534
     0.7391   0.7275   0.7160   0.7069   0.7029   0.6999   0.6940   0.6791
     0.6784   0.6678   0.6650   0.6589   0.6501   0.6413   0.6386   0.6268
     0.6215   0.6186   0.5990   0.5892   0.5519   0.3430   0.3130   0.2042
     0.0737   0.0518   0.0204   0.0058   0.0048   0.0003   0.0001   0.0001
     0.0000   0.0000   0.0000   0.0000   0.0000   0.0000   0.0000   0.0000
     0.0000   0.0000   0.0000   0.0000   0.0000   0.0000   0.0000   0.0000
     0.0000   0.0000   0.0000   0.0000   0.0000   0.0000   0.0000   0.0000

          k = 0.0000-0.5000 0.0000 ( 65180 PWs)   bands (ev):

   -92.7127 -92.6586 -92.5665 -92.5186 -92.4592 -92.4189 -92.4020 -92.2772
   -56.0662 -56.0453 -55.9239 -55.9134 -55.9064 -55.9003 -55.8637 -55.8358
   -55.8207 -55.8183 -55.8089 -55.7673 -55.7490 -55.7107 -55.6928 -55.6591
   -55.6543 -55.6075 -55.6043 -55.6033 -55.5958 -55.5502 -55.5323 -55.4457
   -31.2885 -31.2695 -31.1280 -31.0416 -31.0318 -30.9555 -30.9497 -30.8439
   -29.8595 -29.8174 -29.7928 -29.6846 -15.0241 -14.9752 -14.9230 -14.7960
   -14.7093 -14.5722 -14.4218 -14.2983 -14.1692 -14.0976 -14.0577 -14.0499
   -14.0015 -13.9835 -13.9356 -13.9171 -13.8910 -13.8553 -13.8244 -13.7829
   -13.5953 -13.5381 -13.5214 -13.4681 -13.4280 -13.3704 -13.3289 -13.2944
   -13.2830 -13.2290 -13.1208 -13.1037 -13.0416 -12.9826 -12.9789 -12.9646
   -12.9401 -12.8933 -12.8718 -12.8346 -12.8122 -12.7705 -12.7546 -12.7298
   -12.7166 -12.6632 -12.5261 -12.4883 -12.3345 -12.3260 -12.2351 -12.1901
   -11.7940 -11.7918 -11.7642 -11.7267 -11.6924 -11.6811 -11.6390 -11.6350
   -11.5910 -11.5290 -11.5153 -11.5011  -2.6053  -2.5453  -2.3948  -2.3223
    -2.0419  -1.9574  -1.8306  -1.6924  -1.6568  -1.6363  -1.5565  -1.5258
    -1.4445  -1.4089  -1.3326  -1.2916  -1.2528  -1.2257  -1.1697  -1.1307
    -1.0857  -1.0484  -1.0151  -0.9816  -0.8710  -0.8261  -0.7922  -0.7913
    -0.7054  -0.6718  -0.6502  -0.6008  -0.5164  -0.4455  -0.3639  -0.3379
    -0.2303  -0.1843  -0.0416  -0.0084   0.0191   0.0803   0.1956   0.2437
     0.3798   0.4466   0.4536   0.5820   0.6250   0.7367   0.8596   0.9693
     0.9998   1.0368   1.0409   1.0839   1.0982   1.1353   1.1512   1.1622
     1.2711   1.3327   1.3610   1.3866   1.6460   1.6789   1.6962   1.7976
     1.8194   1.8502   1.8658   1.8970   1.9066   1.9215   1.9513   1.9884
     2.0183   2.0451   2.0547   2.0849   2.1385   2.2185   2.2468   2.4335
     2.5904   2.5999   2.6087   2.6521   2.6563   2.6684   2.7186   2.7319
     2.7776   2.7920   2.8223   2.8925   2.9006   2.9650   2.9836   2.9973
     2.9996   3.0188   3.0260   3.0294   3.0310   3.0380   3.0591   3.0661
     3.0817   3.1312   3.1404   3.1524   3.2065   4.1192   4.1487   4.1628
     4.2425   4.7402   4.8844   5.0199   5.1385   5.4074   5.4551   5.5833
     5.6890   5.9873   6.0326   6.0396   6.7323   6.8522   6.9478   7.2164
     7.3178   7.3419   7.4085   7.4661   7.7436   7.8369   7.8565   7.8996
     8.0980   8.1713   8.4152   8.4962   8.6601   8.7046   8.8047   8.8467

     occupation numbers 
     1.0000   1.0000   1.0000   1.0000   1.0000   1.0000   1.0000   1.0000
     1.0000   1.0000   1.0000   1.0000   1.0000   1.0000   1.0000   1.0000
     1.0000   1.0000   1.0000   1.0000   1.0000   1.0000   1.0000   1.0000
     1.0000   1.0000   1.0000   1.0000   1.0000   1.0000   1.0000   1.0000
     1.0000   1.0000   1.0000   1.0000   1.0000   1.0000   1.0000   1.0000
     1.0000   1.0000   1.0000   1.0000   1.0000   1.0000   1.0000   1.0000
     1.0000   1.0000   1.0000   1.0000   1.0000   1.0000   1.0000   1.0000
     1.0000   1.0000   1.0000   1.0000   1.0000   1.0000   1.0000   1.0000
     1.0000   1.0000   1.0000   1.0000   1.0000   1.0000   1.0000   1.0000
     1.0000   1.0000   1.0000   1.0000   1.0000   1.0000   1.0000   1.0000
     1.0000   1.0000   1.0000   1.0000   1.0000   1.0000   1.0000   1.0000
     1.0000   1.0000   1.0000   1.0000   1.0000   1.0000   1.0000   1.0000
     1.0000   1.0000   1.0000   1.0000   1.0000   1.0000   1.0000   1.0000
     1.0000   1.0000   1.0000   1.0000   1.0000   1.0000   1.0000   1.0000
     1.0000   1.0000   1.0000   1.0000   1.0000   1.0000   1.0000   1.0000
     1.0000   1.0000   1.0000   1.0000   1.0000   1.0000   1.0000   1.0000
     1.0000   1.0000   1.0000   1.0000   1.0000   1.0000   1.0000   1.0000
     1.0000   1.0000   1.0000   1.0000   1.0000   1.0000   1.0000   1.0000
     1.0000   1.0000   1.0000   1.0000   1.0000   1.0000   1.0000   1.0000
     1.0000   1.0000   1.0000   1.0000   1.0000   0.9999   0.9999   0.9998
     0.9997   0.9996   0.9996   0.9995   0.9995   0.9994   0.9993   0.9993
     0.9988   0.9984   0.9981   0.9979   0.9934   0.9924   0.9919   0.9879
     0.9868   0.9852   0.9843   0.9824   0.9817   0.9807   0.9786   0.9756
     0.9729   0.9703   0.9694   0.9661   0.9597   0.9483   0.9436   0.9047
     0.8590   0.8558   0.8529   0.8375   0.8360   0.8315   0.8121   0.8067
     0.7876   0.7813   0.7678   0.7348   0.7308   0.6983   0.6886   0.6814
     0.6802   0.6700   0.6661   0.6642   0.6633   0.6596   0.6480   0.6441
     0.6355   0.6075   0.6023   0.5953   0.5640   0.1162   0.1079   0.1040
     0.0842   0.0172   0.0099   0.0057   0.0034   0.0009   0.0007   0.0004
     0.0002   0.0000   0.0000   0.0000   0.0000   0.0000   0.0000   0.0000
     0.0000   0.0000   0.0000   0.0000   0.0000   0.0000   0.0000   0.0000
     0.0000   0.0000   0.0000   0.0000   0.0000   0.0000   0.0000   0.0000

          k = 0.2500 0.2500 0.0000 ( 65198 PWs)   bands (ev):

   -92.7127 -92.6586 -92.5665 -92.5186 -92.4592 -92.4189 -92.4020 -92.2772
   -56.0662 -56.0453 -55.9239 -55.9134 -55.9064 -55.9003 -55.8637 -55.8358
   -55.8207 -55.8183 -55.8089 -55.7673 -55.7490 -55.7107 -55.6928 -55.6591
   -55.6543 -55.6075 -55.6043 -55.6033 -55.5958 -55.5502 -55.5323 -55.4457
   -31.2869 -31.2714 -31.1275 -31.0419 -31.0318 -30.9562 -30.9490 -30.8439
   -29.8591 -29.8187 -29.7918 -29.6847 -15.0286 -14.9946 -14.9175 -14.8005
   -14.6839 -14.5593 -14.4831 -14.2787 -14.1209 -14.1082 -14.0728 -14.0437
   -14.0227 -13.9991 -13.9660 -13.9296 -13.8533 -13.8377 -13.6753 -13.6624
   -13.6336 -13.6125 -13.5684 -13.5232 -13.4679 -13.4379 -13.3189 -13.2801
   -13.2405 -13.1536 -13.1127 -13.0614 -13.0304 -13.0058 -12.9875 -12.9585
   -12.9314 -12.9210 -12.8942 -12.8414 -12.8109 -12.7864 -12.7581 -12.7516
   -12.7439 -12.7247 -12.5594 -12.4636 -12.4381 -12.2885 -12.1567 -12.1155
   -11.8123 -11.7808 -11.7698 -11.7623 -11.7005 -11.6651 -11.6588 -11.6236
   -11.6150 -11.5242 -11.4828 -11.4654  -2.6815  -2.4720  -2.3542  -2.2608
    -2.1392  -2.0739  -1.8772  -1.7319  -1.7117  -1.6838  -1.5889  -1.5533
    -1.4606  -1.4339  -1.3834  -1.2515  -1.2043  -1.1316  -1.0864  -1.0423
    -1.0179  -0.9931  -0.9508  -0.9357  -0.8453  -0.7954  -0.7318  -0.6819
    -0.6521  -0.6006  -0.5884  -0.5252  -0.4756  -0.4206  -0.3840  -0.3001
    -0.2473  -0.2183  -0.1781  -0.1229  -0.0553  -0.0130   0.0135   0.0854
     0.1280   0.3940   0.5401   0.5780   0.6316   0.6756   0.7365   0.7875
     0.8481   0.8847   1.1578   1.2260   1.2994   1.3253   1.3722   1.4054
     1.4399   1.4767   1.4947   1.5225   1.5640   1.5742   1.5899   1.6335
     1.6752   1.7136   1.7635   1.8069   1.8133   1.8490   1.8832   1.9413
     1.9645   2.0904   2.1588   2.1951   2.2228   2.2876   2.3541   2.3821
     2.4188   2.4423   2.4548   2.5619   2.6031   2.6921   2.8099   2.8685
     2.8817   2.8874   2.9034   2.9192   2.9323   2.9435   2.9505   2.9622
     2.9745   2.9879   3.0075   3.0131   3.0250   3.0452   3.0575   3.0665
     3.0995   3.3997   3.4940   3.5336   3.6016   3.6469   3.8511   3.9428
     4.2911   4.5026   4.7026   4.9661   5.1665   5.6337   5.6827   5.7343
     5.8232   5.8831   6.0370   6.1531   6.2211   6.7136   6.8947   7.0622
     7.1849   7.5459   7.5957   7.6985   7.7273   7.8611   7.9273   8.1021
     8.1532   8.1806   8.3100   8.3237   8.4366   8.4777   8.6664   8.8694

     occupation numbers 
     1.0000   1.0000   1.0000   1.0000   1.0000   1.0000   1.0000   1.0000
     1.0000   1.0000   1.0000   1.0000   1.0000   1.0000   1.0000   1.0000
     1.0000   1.0000   1.0000   1.0000   1.0000   1.0000   1.0000   1.0000
     1.0000   1.0000   1.0000   1.0000   1.0000   1.0000   1.0000   1.0000
     1.0000   1.0000   1.0000   1.0000   1.0000   1.0000   1.0000   1.0000
     1.0000   1.0000   1.0000   1.0000   1.0000   1.0000   1.0000   1.0000
     1.0000   1.0000   1.0000   1.0000   1.0000   1.0000   1.0000   1.0000
     1.0000   1.0000   1.0000   1.0000   1.0000   1.0000   1.0000   1.0000
     1.0000   1.0000   1.0000   1.0000   1.0000   1.0000   1.0000   1.0000
     1.0000   1.0000   1.0000   1.0000   1.0000   1.0000   1.0000   1.0000
     1.0000   1.0000   1.0000   1.0000   1.0000   1.0000   1.0000   1.0000
     1.0000   1.0000   1.0000   1.0000   1.0000   1.0000   1.0000   1.0000
     1.0000   1.0000   1.0000   1.0000   1.0000   1.0000   1.0000   1.0000
     1.0000   1.0000   1.0000   1.0000   1.0000   1.0000   1.0000   1.0000
     1.0000   1.0000   1.0000   1.0000   1.0000   1.0000   1.0000   1.0000
     1.0000   1.0000   1.0000   1.0000   1.0000   1.0000   1.0000   1.0000
     1.0000   1.0000   1.0000   1.0000   1.0000   1.0000   1.0000   1.0000
     1.0000   1.0000   1.0000   1.0000   1.0000   1.0000   1.0000   1.0000
     1.0000   1.0000   1.0000   1.0000   1.0000   1.0000   1.0000   1.0000
     1.0000   1.0000   1.0000   1.0000   1.0000   1.0000   0.9999   0.9999
     0.9999   0.9998   0.9993   0.9990   0.9986   0.9984   0.9980   0.9977
     0.9973   0.9968   0.9966   0.9961   0.9953   0.9951   0.9948   0.9937
     0.9926   0.9913   0.9894   0.9874   0.9871   0.9853   0.9832   0.9793
     0.9775   0.9655   0.9570   0.9518   0.9476   0.9364   0.9232   0.9170
     0.9083   0.9025   0.8993   0.8683   0.8547   0.8225   0.7734   0.7463
     0.7400   0.7372   0.7294   0.7216   0.7151   0.7094   0.7058   0.6998
     0.6934   0.6864   0.6760   0.6730   0.6666   0.6556   0.6489   0.6439
     0.6255   0.4499   0.3952   0.3727   0.3352   0.3110   0.2130   0.1756
     0.0736   0.0389   0.0197   0.0071   0.0030   0.0003   0.0002   0.0002
     0.0001   0.0001   0.0000   0.0000   0.0000   0.0000   0.0000   0.0000
     0.0000   0.0000   0.0000   0.0000   0.0000   0.0000   0.0000   0.0000
     0.0000   0.0000   0.0000   0.0000   0.0000   0.0000   0.0000   0.0000

          k = 0.2500-0.5000 0.0000 ( 65138 PWs)   bands (ev):

   -92.7127 -92.6586 -92.5665 -92.5186 -92.4592 -92.4189 -92.4020 -92.2772
   -56.0662 -56.0453 -55.9239 -55.9134 -55.9064 -55.9003 -55.8637 -55.8358
   -55.8207 -55.8183 -55.8089 -55.7673 -55.7490 -55.7107 -55.6928 -55.6591
   -55.6543 -55.6075 -55.6043 -55.6033 -55.5958 -55.5502 -55.5323 -55.4457
   -31.2867 -31.2713 -31.1277 -31.0420 -31.0314 -30.9559 -30.9494 -30.8442
   -29.8585 -29.8184 -29.7924 -29.6850 -14.9940 -14.9483 -14.8802 -14.7654
   -14.7322 -14.6124 -14.5234 -14.3952 -14.0848 -14.0336 -14.0071 -13.9860
   -13.9692 -13.9557 -13.9208 -13.9052 -13.8713 -13.8314 -13.8102 -13.7742
   -13.6782 -13.6292 -13.5848 -13.5499 -13.4871 -13.4746 -13.3689 -13.3370
   -13.2183 -13.1534 -13.1314 -13.0455 -13.0023 -12.9935 -12.9854 -12.9557
   -12.9362 -12.9235 -12.8945 -12.8255 -12.8141 -12.7950 -12.7617 -12.7467
   -12.6669 -12.6353 -12.5328 -12.4625 -12.3320 -12.2969 -12.2272 -12.1932
   -11.7879 -11.7760 -11.7650 -11.7375 -11.7063 -11.6776 -11.6366 -11.6093
   -11.5871 -11.5422 -11.5163 -11.5053  -2.4638  -2.3972  -2.2687  -2.1911
    -2.0624  -1.9774  -1.8550  -1.7039  -1.6513  -1.6287  -1.5650  -1.5517
    -1.4551  -1.3881  -1.3030  -1.2543  -1.2448  -1.1807  -1.1395  -1.1038
    -1.0566  -1.0197  -0.9850  -0.9446  -0.9333  -0.8880  -0.8593  -0.8178
    -0.7871  -0.7194  -0.6188  -0.5777  -0.5009  -0.4365  -0.3891  -0.3447
    -0.3228  -0.2741  -0.1104  -0.0998   0.0039   0.0423   0.0529   0.0964
     0.1233   0.1648   0.1898   0.2621   0.5291   0.6199   0.7027   0.7556
     1.0154   1.0427   1.1301   1.1562   1.3231   1.3558   1.3991   1.4216
     1.4377   1.4579   1.5190   1.5651   1.6013   1.6827   1.7659   1.8086
     1.8305   1.8388   1.8767   1.8907   1.8948   1.9387   1.9537   1.9699
     2.0091   2.0228   2.0463   2.0786   2.1375   2.1736   2.2528   2.3928
     2.5428   2.5567   2.5770   2.6044   2.6297   2.6553   2.6792   2.6895
     2.7138   2.7926   2.8314   2.8679   2.8826   2.8985   2.9042   2.9212
     2.9353   2.9561   2.9625   2.9921   3.0044   3.0194   3.0295   3.0382
     3.0517   3.5765   3.5928   3.7308   3.7801   4.1237   4.1667   4.1905
     4.3012   4.7578   4.9075   5.0551   5.1139   5.2933   5.4231   5.5961
     5.6146   5.7556   5.7772   6.1124   6.3937   6.4851   6.6707   6.9661
     7.4513   7.5229   7.6957   7.7726   7.8058   7.8701   8.0325   8.1494
     8.3008   8.3867   8.4326   8.5260   8.5389   8.6250   8.7088   8.7611

     occupation numbers 
     1.0000   1.0000   1.0000   1.0000   1.0000   1.0000   1.0000   1.0000
     1.0000   1.0000   1.0000   1.0000   1.0000   1.0000   1.0000   1.0000
     1.0000   1.0000   1.0000   1.0000   1.0000   1.0000   1.0000   1.0000
     1.0000   1.0000   1.0000   1.0000   1.0000   1.0000   1.0000   1.0000
     1.0000   1.0000   1.0000   1.0000   1.0000   1.0000   1.0000   1.0000
     1.0000   1.0000   1.0000   1.0000   1.0000   1.0000   1.0000   1.0000
     1.0000   1.0000   1.0000   1.0000   1.0000   1.0000   1.0000   1.0000
     1.0000   1.0000   1.0000   1.0000   1.0000   1.0000   1.0000   1.0000
     1.0000   1.0000   1.0000   1.0000   1.0000   1.0000   1.0000   1.0000
     1.0000   1.0000   1.0000   1.0000   1.0000   1.0000   1.0000   1.0000
     1.0000   1.0000   1.0000   1.0000   1.0000   1.0000   1.0000   1.0000
     1.0000   1.0000   1.0000   1.0000   1.0000   1.0000   1.0000   1.0000
     1.0000   1.0000   1.0000   1.0000   1.0000   1.0000   1.0000   1.0000
     1.0000   1.0000   1.0000   1.0000   1.0000   1.0000   1.0000   1.0000
     1.0000   1.0000   1.0000   1.0000   1.0000   1.0000   1.0000   1.0000
     1.0000   1.0000   1.0000   1.0000   1.0000   1.0000   1.0000   1.0000
     1.0000   1.0000   1.0000   1.0000   1.0000   1.0000   1.0000   1.0000
     1.0000   1.0000   1.0000   1.0000   1.0000   1.0000   1.0000   1.0000
     1.0000   1.0000   1.0000   1.0000   1.0000   1.0000   1.0000   1.0000
     1.0000   1.0000   1.0000   1.0000   1.0000   1.0000   0.9999   0.9999
     0.9997   0.9996   0.9994   0.9993   0.9985   0.9982   0.9978   0.9975
     0.9973   0.9971   0.9962   0.9953   0.9945   0.9923   0.9893   0.9874
     0.9862   0.9858   0.9836   0.9828   0.9825   0.9795   0.9784   0.9771
     0.9737   0.9725   0.9702   0.9668   0.9598   0.9549   0.9426   0.9146
     0.8742   0.8699   0.8634   0.8543   0.8456   0.8363   0.8274   0.8235
     0.8140   0.7810   0.7636   0.7466   0.7396   0.7318   0.7290   0.7206
     0.7135   0.7029   0.6996   0.6842   0.6777   0.6696   0.6642   0.6595
     0.6521   0.3489   0.3400   0.2685   0.2449   0.1149   0.1030   0.0968
     0.0715   0.0161   0.0090   0.0049   0.0038   0.0017   0.0009   0.0004
     0.0003   0.0001   0.0001   0.0000   0.0000   0.0000   0.0000   0.0000
     0.0000   0.0000   0.0000   0.0000   0.0000   0.0000   0.0000   0.0000
     0.0000   0.0000   0.0000   0.0000   0.0000   0.0000   0.0000   0.0000

          k =-0.5000-0.5000 0.0000 ( 65132 PWs)   bands (ev):

   -92.7127 -92.6586 -92.5665 -92.5186 -92.4592 -92.4189 -92.4020 -92.2772
   -56.0662 -56.0453 -55.9239 -55.9134 -55.9064 -55.9003 -55.8637 -55.8358
   -55.8207 -55.8183 -55.8089 -55.7673 -55.7490 -55.7107 -55.6928 -55.6591
   -55.6543 -55.6075 -55.6043 -55.6033 -55.5958 -55.5502 -55.5323 -55.4457
   -31.2845 -31.2735 -31.1273 -31.0424 -31.0310 -30.9563 -30.9491 -30.8445
   -29.8575 -29.8194 -29.7920 -29.6855 -14.9489 -14.9209 -14.8038 -14.7921
   -14.6959 -14.6605 -14.6255 -14.4946 -13.9978 -13.9859 -13.9514 -13.9315
   -13.9153 -13.9036 -13.8732 -13.8631 -13.8457 -13.8397 -13.8220 -13.7452
   -13.7390 -13.7073 -13.6815 -13.6743 -13.5717 -13.5489 -13.4120 -13.3802
   -13.1699 -13.1279 -13.0608 -13.0368 -13.0021 -12.9962 -12.9867 -12.9675
   -12.9499 -12.9048 -12.8910 -12.8337 -12.8184 -12.8066 -12.7881 -12.7599
   -12.6165 -12.6086 -12.5492 -12.4396 -12.3285 -12.2628 -12.2253 -12.1960
   -11.7845 -11.7719 -11.7540 -11.7374 -11.7024 -11.6853 -11.6496 -11.5898
   -11.5691 -11.5645 -11.5141 -11.5112  -2.2403  -2.1641  -2.1534  -2.0801
    -2.0427  -1.9644  -1.8966  -1.7707  -1.6543  -1.6246  -1.5857  -1.5278
    -1.4556  -1.4414  -1.3705  -1.3271  -1.2107  -1.1833  -1.1341  -1.1042
    -1.0403  -0.9956  -0.9762  -0.9646  -0.9116  -0.8649  -0.8509  -0.7377
    -0.6812  -0.6347  -0.5839  -0.5574  -0.5469  -0.5104  -0.4683  -0.4350
    -0.4215  -0.3366  -0.2712  -0.2225  -0.2002  -0.1241  -0.0723  -0.0540
     0.0007   0.0244   0.0387   0.0552   0.4999   0.5355   0.6524   0.6661
     1.0494   1.0617   1.0938   1.1328   1.4075   1.4274   1.4342   1.4713
     1.6030   1.6983   1.7254   1.7607   1.7765   1.8056   1.8130   1.8449
     1.8525   1.8668   1.8787   1.9355   1.9361   1.9660   1.9810   1.9984
     2.0137   2.0499   2.0777   2.0874   2.1215   2.1511   2.2187   2.2837
     2.5527   2.5870   2.6055   2.6254   2.6334   2.6646   2.6692   2.6882
     2.6991   2.7162   2.7319   2.7464   2.7908   2.8176   2.8201   2.8452
     2.8527   2.8715   2.8885   2.8940   2.9261   3.0013   3.0049   3.0388
     3.0440   4.0088   4.0260   4.0508   4.0620   4.3097   4.3854   4.4067
     4.6475   4.7691   4.8521   4.9814   5.0653   5.0874   5.1932   5.2920
     5.3719   5.8483   5.8863   5.9555   6.0260   6.4033   6.4899   6.6075
     7.7022   7.8320   7.8829   7.9043   7.9237   7.9687   8.0080   8.0794
     8.2577   8.3207   8.5368   8.5811   8.6039   8.6102   8.6510   8.7313

     occupation numbers 
     1.0000   1.0000   1.0000   1.0000   1.0000   1.0000   1.0000   1.0000
     1.0000   1.0000   1.0000   1.0000   1.0000   1.0000   1.0000   1.0000
     1.0000   1.0000   1.0000   1.0000   1.0000   1.0000   1.0000   1.0000
     1.0000   1.0000   1.0000   1.0000   1.0000   1.0000   1.0000   1.0000
     1.0000   1.0000   1.0000   1.0000   1.0000   1.0000   1.0000   1.0000
     1.0000   1.0000   1.0000   1.0000   1.0000   1.0000   1.0000   1.0000
     1.0000   1.0000   1.0000   1.0000   1.0000   1.0000   1.0000   1.0000
     1.0000   1.0000   1.0000   1.0000   1.0000   1.0000   1.0000   1.0000
     1.0000   1.0000   1.0000   1.0000   1.0000   1.0000   1.0000   1.0000
     1.0000   1.0000   1.0000   1.0000   1.0000   1.0000   1.0000   1.0000
     1.0000   1.0000   1.0000   1.0000   1.0000   1.0000   1.0000   1.0000
     1.0000   1.0000   1.0000   1.0000   1.0000   1.0000   1.0000   1.0000
     1.0000   1.0000   1.0000   1.0000   1.0000   1.0000   1.0000   1.0000
     1.0000   1.0000   1.0000   1.0000   1.0000   1.0000   1.0000   1.0000
     1.0000   1.0000   1.0000   1.0000   1.0000   1.0000   1.0000   1.0000
     1.0000   1.0000   1.0000   1.0000   1.0000   1.0000   1.0000   1.0000
     1.0000   1.0000   1.0000   1.0000   1.0000   1.0000   1.0000   1.0000
     1.0000   1.0000   1.0000   1.0000   1.0000   1.0000   1.0000   1.0000
     1.0000   1.0000   1.0000   1.0000   1.0000   1.0000   1.0000   1.0000
     1.0000   1.0000   1.0000   1.0000   1.0000   1.0000   1.0000   1.0000
     0.9996   0.9996   0.9995   0.9994   0.9977   0.9975   0.9974   0.9969
     0.9945   0.9918   0.9909   0.9895   0.9888   0.9875   0.9871   0.9855
     0.9851   0.9842   0.9835   0.9797   0.9797   0.9774   0.9762   0.9747
     0.9733   0.9698   0.9669   0.9658   0.9618   0.9580   0.9482   0.9371
     0.8711   0.8602   0.8539   0.8471   0.8442   0.8329   0.8312   0.8240
[...]
     0.7437   0.7299   0.7181   0.7151   0.7042   0.6989   0.6914   0.6806
     0.6779   0.6624   0.6580   0.6536   0.6470   0.6358   0.6213   0.6196
     0.6151   0.6103   0.6055   0.5995   0.5277   0.3502   0.3158   0.2052
     0.0788   0.0463   0.0221   0.0056   0.0050   0.0003   0.0001   0.0001
     0.0000   0.0000   0.0000   0.0000   0.0000   0.0000   0.0000   0.0000
     0.0000   0.0000   0.0000   0.0000   0.0000   0.0000   0.0000   0.0000
     0.0000   0.0000   0.0000   0.0000   0.0000   0.0000   0.0000   0.0000

          k =-0.5000 0.0000 0.0000 ( 65180 PWs)   bands (ev):

   -92.7127 -92.6586 -92.5665 -92.5186 -92.4592 -92.4189 -92.4020 -92.2772
   -56.0662 -56.0453 -55.9239 -55.9134 -55.9064 -55.9003 -55.8637 -55.8358
   -55.8207 -55.8183 -55.8089 -55.7673 -55.7490 -55.7107 -55.6928 -55.6591
   -55.6543 -55.6075 -55.6043 -55.6033 -55.5958 -55.5502 -55.5323 -55.4457
   -31.2849 -31.2738 -31.1269 -31.0421 -31.0317 -30.9569 -30.9484 -30.8439
   -29.8587 -29.8201 -29.7907 -29.6848 -15.0281 -14.9797 -14.9165 -14.8058
   -14.7029 -14.5576 -14.4192 -14.2676 -14.1446 -14.1353 -14.1200 -14.0661
   -14.0052 -13.9741 -13.9272 -13.9175 -13.9002 -13.8500 -13.8292 -13.7331
   -13.5668 -13.5486 -13.5071 -13.4989 -13.4467 -13.3764 -13.3351 -13.2791
   -13.2556 -13.2435 -13.0654 -13.0538 -13.0324 -13.0280 -13.0176 -13.0034
   -12.9561 -12.9355 -12.8528 -12.8283 -12.8174 -12.7797 -12.7574 -12.7315
   -12.6515 -12.6422 -12.5524 -12.4843 -12.3386 -12.3246 -12.2312 -12.1976
   -11.7910 -11.7699 -11.7628 -11.7489 -11.7308 -11.6895 -11.6260 -11.6080
   -11.5749 -11.5319 -11.5226 -11.5066  -2.5951  -2.5560  -2.3922  -2.3528
    -2.0407  -1.9655  -1.8170  -1.6987  -1.6601  -1.6136  -1.5663  -1.5405
    -1.4180  -1.3732  -1.3588  -1.2760  -1.2397  -1.2268  -1.1932  -1.1363
    -1.0679  -1.0378  -1.0101  -0.9146  -0.8673  -0.8193  -0.7860  -0.7645
    -0.7348  -0.6861  -0.6613  -0.6244  -0.5285  -0.4529  -0.3906  -0.3268
    -0.1680  -0.1230  -0.0688  -0.0411   0.0190   0.0412   0.1770   0.2101
     0.2556   0.4276   0.5265   0.5735   0.6560   0.7196   0.8465   0.8565
     0.9895   1.0170   1.0705   1.0977   1.1378   1.1476   1.1936   1.2177
     1.2824   1.3330   1.3800   1.3880   1.6835   1.6889   1.7085   1.7255
     1.8399   1.8524   1.8651   1.8772   1.9078   1.9192   1.9561   1.9854
     2.0072   2.0652   2.0760   2.1299   2.1489   2.2069   2.3209   2.4137
     2.4892   2.5030   2.5793   2.6145   2.6431   2.7024   2.7170   2.7258
     2.7550   2.7882   2.8340   2.8829   2.9205   2.9436   2.9900   2.9921
     2.9961   3.0102   3.0211   3.0319   3.0455   3.0504   3.0732   3.0793
     3.0980   3.1172   3.1220   3.2515   3.2599   4.0839   4.1081   4.1699
     4.3149   4.7789   4.8476   5.0302   5.0462   5.4833   5.5058   5.5824
     5.6386   6.0066   6.0217   6.0968   6.6256   6.7934   7.0021   7.2754
     7.3065   7.3332   7.4166   7.4839   7.5850   7.7667   7.8782   7.9114
     8.0721   8.2730   8.4829   8.5145   8.6196   8.7494   8.7744   8.8264

     occupation numbers 
     1.0000   1.0000   1.0000   1.0000   1.0000   1.0000   1.0000   1.0000
     1.0000   1.0000   1.0000   1.0000   1.0000   1.0000   1.0000   1.0000
     1.0000   1.0000   1.0000   1.0000   1.0000   1.0000   1.0000   1.0000
     1.0000   1.0000   1.0000   1.0000   1.0000   1.0000   1.0000   1.0000
     1.0000   1.0000   1.0000   1.0000   1.0000   1.0000   1.0000   1.0000
     1.0000   1.0000   1.0000   1.0000   1.0000   1.0000   1.0000   1.0000
     1.0000   1.0000   1.0000   1.0000   1.0000   1.0000   1.0000   1.0000
     1.0000   1.0000   1.0000   1.0000   1.0000   1.0000   1.0000   1.0000
     1.0000   1.0000   1.0000   1.0000   1.0000   1.0000   1.0000   1.0000
     1.0000   1.0000   1.0000   1.0000   1.0000   1.0000   1.0000   1.0000
     1.0000   1.0000   1.0000   1.0000   1.0000   1.0000   1.0000   1.0000
     1.0000   1.0000   1.0000   1.0000   1.0000   1.0000   1.0000   1.0000
     1.0000   1.0000   1.0000   1.0000   1.0000   1.0000   1.0000   1.0000
     1.0000   1.0000   1.0000   1.0000   1.0000   1.0000   1.0000   1.0000
     1.0000   1.0000   1.0000   1.0000   1.0000   1.0000   1.0000   1.0000
     1.0000   1.0000   1.0000   1.0000   1.0000   1.0000   1.0000   1.0000
     1.0000   1.0000   1.0000   1.0000   1.0000   1.0000   1.0000   1.0000
     1.0000   1.0000   1.0000   1.0000   1.0000   1.0000   1.0000   1.0000
     1.0000   1.0000   1.0000   1.0000   1.0000   1.0000   1.0000   1.0000
     1.0000   1.0000   1.0000   1.0000   1.0000   0.9999   0.9999   0.9999
     0.9997   0.9997   0.9996   0.9995   0.9994   0.9994   0.9992   0.9991
     0.9987   0.9984   0.9980   0.9979   0.9923   0.9921   0.9915   0.9909
     0.9858   0.9851   0.9843   0.9836   0.9817   0.9809   0.9782   0.9758
     0.9739   0.9683   0.9671   0.9608   0.9583   0.9501   0.9300   0.9096
     0.8899   0.8860   0.8627   0.8508   0.8408   0.8185   0.8127   0.8092
     0.7971   0.7829   0.7624   0.7394   0.7210   0.7094   0.6853   0.6842
     0.6821   0.6746   0.6687   0.6629   0.6555   0.6528   0.6402   0.6368
     0.6263   0.6155   0.6128   0.5375   0.5326   0.1268   0.1195   0.1021
     0.0688   0.0149   0.0114   0.0054   0.0051   0.0006   0.0006   0.0004
     0.0003   0.0000   0.0000   0.0000   0.0000   0.0000   0.0000   0.0000
     0.0000   0.0000   0.0000   0.0000   0.0000   0.0000   0.0000   0.0000
     0.0000   0.0000   0.0000   0.0000   0.0000   0.0000   0.0000   0.0000

          k =-0.2500 0.2500 0.0000 ( 65198 PWs)   bands (ev):

   -92.7127 -92.6586 -92.5665 -92.5186 -92.4592 -92.4189 -92.4020 -92.2772
   -56.0662 -56.0453 -55.9239 -55.9134 -55.9064 -55.9003 -55.8637 -55.8358
   -55.8207 -55.8183 -55.8089 -55.7673 -55.7490 -55.7107 -55.6928 -55.6591
   -55.6543 -55.6075 -55.6043 -55.6033 -55.5958 -55.5502 -55.5323 -55.4457
   -31.2869 -31.2714 -31.1275 -31.0419 -31.0318 -30.9562 -30.9490 -30.8439
   -29.8591 -29.8187 -29.7918 -29.6847 -15.0301 -14.9934 -14.9160 -14.7986
   -14.6899 -14.5643 -14.4748 -14.2699 -14.1279 -14.0987 -14.0850 -14.0402
   -14.0145 -13.9970 -13.9846 -13.9330 -13.8489 -13.8378 -13.6843 -13.6584
   -13.6322 -13.6092 -13.5717 -13.5096 -13.4599 -13.4465 -13.3227 -13.2820
   -13.2345 -13.1577 -13.1141 -13.0519 -13.0220 -13.0014 -12.9971 -12.9594
   -12.9388 -12.9168 -12.9030 -12.8407 -12.8072 -12.7942 -12.7809 -12.7658
   -12.7307 -12.7029 -12.5457 -12.4534 -12.4505 -12.2942 -12.1585 -12.1129
   -11.8116 -11.7898 -11.7630 -11.7505 -11.7099 -11.6748 -11.6522 -11.6301
   -11.6078 -11.5239 -11.4782 -11.4686  -2.6799  -2.4709  -2.3499  -2.2626
    -2.1434  -2.0766  -1.8748  -1.7287  -1.7095  -1.6818  -1.5895  -1.5520
    -1.4606  -1.4269  -1.4010  -1.2575  -1.2019  -1.1345  -1.1063  -1.0461
    -1.0231  -0.9831  -0.9542  -0.9146  -0.8516  -0.8042  -0.7429  -0.6733
    -0.6482  -0.5963  -0.5672  -0.5222  -0.4657  -0.4235  -0.3786  -0.2815
    -0.2469  -0.2376  -0.1912  -0.1253  -0.0571  -0.0105   0.0199   0.0886
     0.1260   0.3755   0.5427   0.5860   0.6230   0.6803   0.7359   0.7910
     0.8546   0.8828   1.1652   1.2767   1.3159   1.3487   1.3554   1.3974
     1.4151   1.4592   1.4901   1.5055   1.5314   1.5733   1.5873   1.6344
     1.6497   1.6958   1.7753   1.7975   1.8136   1.8539   1.8805   1.9219
     1.9729   2.0804   2.1862   2.2199   2.2674   2.2871   2.3513   2.3945
     2.4202   2.4424   2.4653   2.5658   2.6009   2.6902   2.8127   2.8714
     2.8814   2.8938   2.9047   2.9133   2.9270   2.9339   2.9521   2.9620
     2.9750   2.9860   2.9972   3.0076   3.0165   3.0471   3.0580   3.0665
     3.1004   3.3930   3.4757   3.5370   3.6171   3.6410   3.8386   3.9514
     4.2904   4.5007   4.7033   4.9755   5.1667   5.6344   5.6799   5.7370
     5.8197   5.8841   6.0323   6.1719   6.2038   6.7417   6.8944   7.0629
     7.1483   7.5600   7.6030   7.6621   7.7321   7.8745   7.9136   8.1140
     8.1577   8.2060   8.3017   8.3364   8.4364   8.4649   8.6691   8.8596

     occupation numbers 
     1.0000   1.0000   1.0000   1.0000   1.0000   1.0000   1.0000   1.0000
     1.0000   1.0000   1.0000   1.0000   1.0000   1.0000   1.0000   1.0000
     1.0000   1.0000   1.0000   1.0000   1.0000   1.0000   1.0000   1.0000
     1.0000   1.0000   1.0000   1.0000   1.0000   1.0000   1.0000   1.0000
     1.0000   1.0000   1.0000   1.0000   1.0000   1.0000   1.0000   1.0000
     1.0000   1.0000   1.0000   1.0000   1.0000   1.0000   1.0000   1.0000
     1.0000   1.0000   1.0000   1.0000   1.0000   1.0000   1.0000   1.0000
     1.0000   1.0000   1.0000   1.0000   1.0000   1.0000   1.0000   1.0000
     1.0000   1.0000   1.0000   1.0000   1.0000   1.0000   1.0000   1.0000
     1.0000   1.0000   1.0000   1.0000   1.0000   1.0000   1.0000   1.0000
     1.0000   1.0000   1.0000   1.0000   1.0000   1.0000   1.0000   1.0000
     1.0000   1.0000   1.0000   1.0000   1.0000   1.0000   1.0000   1.0000
     1.0000   1.0000   1.0000   1.0000   1.0000   1.0000   1.0000   1.0000
     1.0000   1.0000   1.0000   1.0000   1.0000   1.0000   1.0000   1.0000
     1.0000   1.0000   1.0000   1.0000   1.0000   1.0000   1.0000   1.0000
     1.0000   1.0000   1.0000   1.0000   1.0000   1.0000   1.0000   1.0000
     1.0000   1.0000   1.0000   1.0000   1.0000   1.0000   1.0000   1.0000
     1.0000   1.0000   1.0000   1.0000   1.0000   1.0000   1.0000   1.0000
     1.0000   1.0000   1.0000   1.0000   1.0000   1.0000   1.0000   1.0000
     1.0000   1.0000   1.0000   1.0000   1.0000   1.0000   0.9999   0.9999
     0.9999   0.9998   0.9993   0.9988   0.9985   0.9982   0.9982   0.9978
     0.9976   0.9971   0.9966   0.9964   0.9960   0.9951   0.9948   0.9937
     0.9933   0.9919   0.9889   0.9879   0.9871   0.9850   0.9834   0.9807
     0.9769   0.9666   0.9531   0.9480   0.9401   0.9365   0.9238   0.9142
     0.9080   0.9025   0.8965   0.8670   0.8555   0.8232   0.7721   0.7449
     0.7401   0.7341   0.7288   0.7245   0.7177   0.7143   0.7050   0.6999
     0.6932   0.6874   0.6815   0.6759   0.6712   0.6546   0.6486   0.6439
     0.6250   0.4539   0.4057   0.3708   0.3268   0.3142   0.2184   0.1723
     0.0737   0.0391   0.0196   0.0068   0.0030   0.0003   0.0002   0.0002
     0.0001   0.0001   0.0000   0.0000   0.0000   0.0000   0.0000   0.0000
     0.0000   0.0000   0.0000   0.0000   0.0000   0.0000   0.0000   0.0000
     0.0000   0.0000   0.0000   0.0000   0.0000   0.0000   0.0000   0.0000

          k =-0.5000 0.2500 0.0000 ( 65138 PWs)   bands (ev):

   -92.7127 -92.6586 -92.5665 -92.5186 -92.4592 -92.4189 -92.4020 -92.2772
   -56.0662 -56.0453 -55.9239 -55.9134 -55.9064 -55.9003 -55.8637 -55.8358
   -55.8207 -55.8183 -55.8089 -55.7673 -55.7490 -55.7107 -55.6928 -55.6591
   -55.6543 -55.6075 -55.6043 -55.6033 -55.5958 -55.5502 -55.5323 -55.4457
   -31.2847 -31.2737 -31.1271 -31.0423 -31.0314 -30.9566 -30.9488 -30.8442
   -29.8581 -29.8197 -29.7914 -29.6851 -14.9959 -14.9529 -14.8737 -14.7724
   -14.7307 -14.6046 -14.5212 -14.3868 -14.0786 -14.0485 -14.0370 -13.9942
   -13.9722 -13.9459 -13.9123 -13.9025 -13.8796 -13.8374 -13.8264 -13.7230
   -13.6495 -13.6066 -13.5993 -13.5872 -13.4996 -13.4804 -13.3733 -13.3134
   -13.2120 -13.1750 -13.0781 -13.0392 -13.0273 -13.0003 -12.9815 -12.9624
   -12.9527 -12.9507 -12.8866 -12.8339 -12.8037 -12.7918 -12.7666 -12.7490
   -12.6335 -12.6259 -12.5506 -12.4608 -12.3338 -12.2961 -12.2247 -12.1979
   -11.7840 -11.7715 -11.7573 -11.7451 -11.7244 -11.6942 -11.6128 -11.6047
   -11.5808 -11.5463 -11.5181 -11.5090  -2.4529  -2.4105  -2.2620  -2.2196
    -2.0598  -1.9840  -1.8412  -1.7047  -1.6489  -1.6208  -1.5825  -1.5430
    -1.4630  -1.3476  -1.2907  -1.2670  -1.2420  -1.1671  -1.1362  -1.0995
    -1.0806  -1.0204  -0.9920  -0.9523  -0.9168  -0.8882  -0.8306  -0.8036
    -0.7617  -0.7275  -0.6236  -0.5975  -0.5112  -0.4457  -0.4168  -0.3603
    -0.2730  -0.2412  -0.1406  -0.1056  -0.0439   0.0038   0.0253   0.1050
     0.1355   0.1680   0.2191   0.2570   0.5665   0.6175   0.6991   0.7116
     0.9986   1.0576   1.1320   1.1556   1.3361   1.3725   1.4096   1.4225
     1.4404   1.4585   1.5267   1.5710   1.6097   1.6377   1.7548   1.7912
     1.8294   1.8411   1.8759   1.9002   1.9156   1.9321   1.9512   1.9749
     2.0223   2.0386   2.0725   2.0953   2.1238   2.1867   2.3082   2.4067
     2.4339   2.5025   2.5411   2.5970   2.6393   2.6460   2.6814   2.7149
     2.7390   2.7863   2.8341   2.8761   2.8823   2.8974   2.9066   2.9318
     2.9420   2.9560   2.9707   2.9910   3.0037   3.0133   3.0207   3.0339
     3.0453   3.5792   3.6107   3.7640   3.7840   4.0828   4.1346   4.1809
     4.3963   4.7734   4.8661   5.0284   5.0725   5.3905   5.4203   5.5760
     5.6253   5.7357   5.7683   6.1994   6.3859   6.4596   6.5409   7.0836
     7.4473   7.5272   7.6457   7.7108   7.7897   7.8813   8.0163   8.1468
     8.3457   8.3884   8.4551   8.5032   8.5590   8.6309   8.6971   8.7384

     occupation numbers 
     1.0000   1.0000   1.0000   1.0000   1.0000   1.0000   1.0000   1.0000
     1.0000   1.0000   1.0000   1.0000   1.0000   1.0000   1.0000   1.0000
     1.0000   1.0000   1.0000   1.0000   1.0000   1.0000   1.0000   1.0000
     1.0000   1.0000   1.0000   1.0000   1.0000   1.0000   1.0000   1.0000
     1.0000   1.0000   1.0000   1.0000   1.0000   1.0000   1.0000   1.0000
     1.0000   1.0000   1.0000   1.0000   1.0000   1.0000   1.0000   1.0000
     1.0000   1.0000   1.0000   1.0000   1.0000   1.0000   1.0000   1.0000
     1.0000   1.0000   1.0000   1.0000   1.0000   1.0000   1.0000   1.0000
     1.0000   1.0000   1.0000   1.0000   1.0000   1.0000   1.0000   1.0000
     1.0000   1.0000   1.0000   1.0000   1.0000   1.0000   1.0000   1.0000
     1.0000   1.0000   1.0000   1.0000   1.0000   1.0000   1.0000   1.0000
     1.0000   1.0000   1.0000   1.0000   1.0000   1.0000   1.0000   1.0000
     1.0000   1.0000   1.0000   1.0000   1.0000   1.0000   1.0000   1.0000
     1.0000   1.0000   1.0000   1.0000   1.0000   1.0000   1.0000   1.0000
     1.0000   1.0000   1.0000   1.0000   1.0000   1.0000   1.0000   1.0000
     1.0000   1.0000   1.0000   1.0000   1.0000   1.0000   1.0000   1.0000
     1.0000   1.0000   1.0000   1.0000   1.0000   1.0000   1.0000   1.0000
     1.0000   1.0000   1.0000   1.0000   1.0000   1.0000   1.0000   1.0000
     1.0000   1.0000   1.0000   1.0000   1.0000   1.0000   1.0000   1.0000
     1.0000   1.0000   1.0000   1.0000   1.0000   1.0000   0.9999   0.9999
     0.9997   0.9996   0.9994   0.9993   0.9984   0.9980   0.9977   0.9975
     0.9973   0.9971   0.9960   0.9952   0.9943   0.9936   0.9897   0.9882
     0.9863   0.9857   0.9837   0.9822   0.9811   0.9800   0.9786   0.9767
     0.9725   0.9710   0.9675   0.9649   0.9615   0.9531   0.9325   0.9113
     0.9046   0.8862   0.8748   0.8568   0.8421   0.8397   0.8266   0.8136
     0.8038   0.7838   0.7624   0.7427   0.7397   0.7324   0.7279   0.7153
     0.7101   0.7030   0.6954   0.6848   0.6780   0.6729   0.6689   0.6618
     0.6556   0.3474   0.3303   0.2525   0.2431   0.1271   0.1118   0.0993
     0.0542   0.0152   0.0106   0.0055   0.0045   0.0010   0.0009   0.0004
     0.0003   0.0002   0.0001   0.0000   0.0000   0.0000   0.0000   0.0000
     0.0000   0.0000   0.0000   0.0000   0.0000   0.0000   0.0000   0.0000
     0.0000   0.0000   0.0000   0.0000   0.0000   0.0000   0.0000   0.0000

     the Fermi energy is     3.3150 ev

!    total energy              =   -4399.91390888 Ry
     estimated scf accuracy    <          5.5E-09 Ry
     smearing contrib. (-TS)   =      -1.14573961 Ry
     internal energy E=F+TS    =   -4398.76816927 Ry

     The total energy is F=E-TS. E is the sum of the following terms:
     one-electron contribution =  -21252.89009951 Ry
     hartree contribution      =   10754.36782941 Ry
     xc contribution           =    -686.72803993 Ry
     ewald contribution        =    7053.12733597 Ry
     one-center paw contrib.   =    -266.64519521 Ry
      -> PAW hartree energy AE =      25.18081399 Ry
      -> PAW hartree energy PS =     -25.06453818 Ry
      -> PAW xc energy AE      =     -16.52000987 Ry
      -> PAW xc energy PS      =       6.87960463 Ry
      -> total E_H with PAW    =   10754.48410523 Ry
      -> total E_XC with PAW   =    -696.36844517 Ry

     convergence has been achieved in  50 iterations

     Writing all to output data dir /bsuhome/zayahcortright/scratch/pwscf.save/
 
     init_run     :      7.75s CPU      8.25s WALL (       1 calls)
     electrons    :    711.97s CPU    724.62s WALL (       1 calls)

     Called by init_run:
     wfcinit      :      5.89s CPU      6.00s WALL (       1 calls)
     wfcinit:atom :      0.05s CPU      0.06s WALL (       5 calls)
     wfcinit:wfcr :      5.57s CPU      5.64s WALL (       5 calls)
     potinit      :      0.20s CPU      0.22s WALL (       1 calls)
     hinit0       :      0.52s CPU      0.82s WALL (       1 calls)

     Called by electrons:
     c_bands      :    560.90s CPU    565.83s WALL (      50 calls)
     sum_band     :    113.38s CPU    117.88s WALL (      50 calls)
     v_of_rho     :      5.46s CPU      5.76s WALL (      51 calls)
     v_h          :      0.49s CPU      0.50s WALL (      51 calls)
     v_xc         :      4.97s CPU      5.26s WALL (      51 calls)
     newd         :     17.40s CPU     19.93s WALL (      51 calls)
     PAW_pot      :      1.62s CPU      1.65s WALL (      51 calls)
     mix_rho      :     12.83s CPU     13.10s WALL (      50 calls)

     Called by c_bands:
     init_us_2    :      7.04s CPU      7.10s WALL (     505 calls)
     init_us_2:cp :      7.03s CPU      7.10s WALL (     505 calls)
     cegterg      :    526.30s CPU    531.01s WALL (     250 calls)

     Called by sum_band:
     sum_band:wei :      0.34s CPU      0.35s WALL (      50 calls)
     sum_band:loo :     92.75s CPU     93.45s WALL (      50 calls)
     sum_band:buf :      1.44s CPU      1.46s WALL (     250 calls)
     sum_band:ini :      3.40s CPU      3.42s WALL (     250 calls)
     sum_band:cal :     18.57s CPU     18.62s WALL (     250 calls)
     sum_band:bec :      0.54s CPU      0.55s WALL (     250 calls)
     addusdens    :     18.70s CPU     22.46s WALL (      50 calls)
                                        0.00s GPU  (      50 calls)
     addusd:skk   :      0.36s CPU      0.70s WALL (     200 calls)
                                        0.00s GPU  (     200 calls)

     Called by *egterg:
     cdiaghg      :     53.41s CPU     53.63s WALL (    1256 calls)
     cegterg:over :     37.53s CPU     37.66s WALL (    1006 calls)
     cegterg:upda :     27.56s CPU     27.87s WALL (    1006 calls)
     cegterg:last :     58.60s CPU     58.78s WALL (     459 calls)
     cdiaghg:chol :      3.05s CPU      3.06s WALL (    1256 calls)
     cdiaghg:inve :      3.35s CPU      3.36s WALL (    1256 calls)
     cdiaghg:para :      6.99s CPU      7.03s WALL (    2512 calls)
     h_psi        :    294.48s CPU    297.21s WALL (    1261 calls)
     s_psi        :     39.37s CPU     39.48s WALL (    1261 calls)
     g_psi        :      1.12s CPU      1.13s WALL (    1006 calls)

     Called by h_psi:
     h_psi:calbec :     42.58s CPU     42.75s WALL (    1261 calls)
     vloc_psi     :    209.72s CPU    211.71s WALL (    1261 calls)
     add_vuspsi   :     38.83s CPU     38.97s WALL (    1261 calls)

     General routines
     calbec       :     61.13s CPU     61.36s WALL (    1511 calls)
     fft          :      3.58s CPU      3.62s WALL (     661 calls)
     ffts         :      4.70s CPU      4.74s WALL (    5360 calls)
     fftw         :    177.41s CPU    178.83s WALL (  333962 calls)
     interpolate  :      0.41s CPU      0.42s WALL (      51 calls)
 
     Parallel routines

     PAW routines
     PAW_pot      :      1.62s CPU      1.65s WALL (      51 calls)
 
     PWSCF        :  12m 1.81s CPU  12m17.55s WALL

 
   This run was terminated on:  21:51:44  21Jun2024            

=------------------------------------------------------------------------------=
   JOB DONE.
=------------------------------------------------------------------------------=
