
     Program PWSCF v.7.2 starts on 22Jun2024 at  0:52:29 

     This program is part of the open-source Quantum ESPRESSO suite
     for quantum simulation of materials; please cite
         "P. Giannozzi et al., J. Phys.:Condens. Matter 21 395502 (2009);
         "P. Giannozzi et al., J. Phys.:Condens. Matter 29 465901 (2017);
         "P. Giannozzi et al., J. Chem. Phys. 152 154105 (2020);
          URL http://www.quantum-espresso.org", 
     in publications or presentations arising from this work. More details at
     http://www.quantum-espresso.org/quote

     Parallel version (MPI & OpenMP), running on      48 processor cores
     Number of MPI processes:                48
     Threads/MPI process:                     1

     MPI processes distributed on     1 nodes
     60561 MiB available memory on the printing compute node when the environment starts
 
     Reading input from espresso.pwi
Warning: card &CELL ignored
Warning: card / ignored
Warning: card &FCP ignored
Warning: card / ignored
Warning: card &RISM ignored
Warning: card / ignored

     Current dimensions of program PWSCF are:
     Max number of different atomic species (ntypx) = 10
     Max number of k-points (npk) =  40000
     Max angular momentum in pseudopotentials (lmaxx) =  4
     file O.pbe-n-kjpaw_psl.0.1.UPF: wavefunction(s)  2P renormalized
     signal trapping enabled: kill the code with -SIGUSR1 to stop cleanly the simulation 
 
     K-points division:     npool     =       2
     R & G space division:  proc/nbgrp/npool/nimage =      24
     Subspace diagonalization in iterative solution of the eigenvalue problem:
     one sub-group per band group will be used
     scalapack distributed-memory algorithm (size of sub-group:  3*  3 procs)

 
     Parallelization info
     --------------------
     sticks:   dense  smooth     PW     G-vecs:    dense   smooth      PW
     Min         350     175     47                61430    21716    3036
     Max         351     177     48                61449    21727    3041
     Sum        8421    4205   1137              1474595   521381   72913
 
     Using Slab Decomposition
 


     bravais-lattice index     =            0
     lattice parameter (alat)  =      14.8599  a.u.
     unit-cell volume          =    8305.1283 (a.u.)^3
     number of atoms/cell      =           49
     number of atomic types    =            3
     number of electrons       =       430.00
     number of Kohn-Sham states=          258
     kinetic-energy cutoff     =      60.0000  Ry
     charge density cutoff     =     480.0000  Ry
     scf convergence threshold =      1.0E-08
     mixing beta               =       0.1500
     number of iterations used =            8  local-TF  mixing
     Exchange-correlation= SLA  PW   PBE  PBE
                           (   1   4   3   4   0   0   0)

     celldm(1)=  14.859904  celldm(2)=   0.000000  celldm(3)=   0.000000
     celldm(4)=   0.000000  celldm(5)=   0.000000  celldm(6)=   0.000000

     crystal axes: (cart. coord. in units of alat)
               a(1) = (   1.000000   0.000000   0.000000 )  
               a(2) = (   0.000000   1.000000   0.000000 )  
               a(3) = (   0.000000   0.000000   2.531036 )  

     reciprocal axes: (cart. coord. in units 2 pi/alat)
               b(1) = (  1.000000  0.000000  0.000000 )  
               b(2) = (  0.000000  1.000000  0.000000 )  
               b(3) = (  0.000000  0.000000  0.395095 )  


     PseudoPot. # 1 for Sr read from file:
     /bsuhome/zayahcortright/q-e/pseudo/Sr_pbe_v1.uspp.F.UPF
     MD5 check sum: 6b418c05fbe9db5448babca5e47b7a5b
     Pseudo is Ultrasoft + core correction, Zval = 10.0
     Generated by new atomic code, or converted to UPF format
     Using radial grid of  883 points,  6 beta functions with: 
                l(1) =   0
                l(2) =   0
                l(3) =   1
                l(4) =   1
                l(5) =   2
                l(6) =   2
     Q(r) pseudized with  6 coefficients,  rinner =    1.400   1.400   1.400
                                                       1.400   1.400

     PseudoPot. # 2 for O  read from file:
     /bsuhome/zayahcortright/q-e/pseudo/O.pbe-n-kjpaw_psl.0.1.UPF
     MD5 check sum: 0234752ac141de4415c5fc33072bef88
     Pseudo is Projector augmented-wave + core cor, Zval =  6.0
     Generated using "atomic" code by A. Dal Corso  v.5.0.99 svn rev. 10869
     Shape of augmentation charge: BESSEL
     Using radial grid of 1095 points,  4 beta functions with: 
                l(1) =   0
                l(2) =   0
                l(3) =   1
                l(4) =   1
     Q(r) pseudized with 0 coefficients 


     PseudoPot. # 3 for Co read from file:
     /bsuhome/zayahcortright/q-e/pseudo/Co_pbe_v1.2.uspp.F.UPF
     MD5 check sum: 5f91765df6ddd3222702df6e7b74a16d
     Pseudo is Ultrasoft + core correction, Zval = 17.0
     Generated by new atomic code, or converted to UPF format
     Using radial grid of  863 points,  6 beta functions with: 
                l(1) =   0
                l(2) =   0
                l(3) =   1
                l(4) =   1
                l(5) =   2
                l(6) =   2
     Q(r) pseudized with  8 coefficients,  rinner =    1.200   1.200   1.200
                                                       1.200   1.200

     atomic species   valence    mass     pseudopotential
        Sr            10.00    87.62000     Sr( 1.00)
        O              6.00    15.99900     O ( 1.00)
        Co            17.00    58.93319     Co( 1.00)

     No symmetry found


                                    s                        frac. trans.

      isym =  1     identity                                     

 cryst.   s( 1) = (     1          0          0      )
                  (     0          1          0      )
                  (     0          0          1      )

 cart.    s( 1) = (  1.0000000  0.0000000  0.0000000 )
                  (  0.0000000  1.0000000  0.0000000 )
                  (  0.0000000  0.0000000  1.0000000 )


   Cartesian axes

     site n.     atom                  positions (alat units)
         1           Sr  tau(   1) = (   0.2508693   0.7491307   1.7574407  )
         2           O   tau(   2) = (   0.4985141   0.5014859   1.7715967  )
         3           Sr  tau(   3) = (   0.7482398   0.7454518   1.7648669  )
         4           Sr  tau(   4) = (   0.7441748   0.2558252   1.7667843  )
         5           Sr  tau(   5) = (   0.2508693   0.7491307   1.2696799  )
         6           Sr  tau(   6) = (   0.2508693   0.7491307   0.7632319  )
         7           Co  tau(   7) = (   0.4998914   0.5001086   1.0164559  )
         8           Co  tau(   8) = (   0.4936915   0.5063085   1.5135603  )
         9           O   tau(   9) = (   0.4988895   0.7610401   1.0164559  )
        10           O   tau(  10) = (   0.2389599   0.5011105   1.0164559  )
        11           O   tau(  11) = (   0.0070918   0.7374880   1.0164559  )
        12           O   tau(  12) = (   0.0088340   0.7405089   1.5135603  )
        13           O   tau(  13) = (   0.5066944   0.7415376   1.5135603  )
        14           O   tau(  14) = (   0.2584624   0.4933056   1.5135603  )
        15           O   tau(  15) = (   0.4985141   0.5014859   0.7773880  )
        16           O   tau(  16) = (   0.4985141   0.5014859   1.2555238  )
        17           Sr  tau(  17) = (   0.7482398   0.7454518   0.7706582  )
        18           Sr  tau(  18) = (   0.7482398   0.7454518   1.2622536  )
        19           Sr  tau(  19) = (   0.7441748   0.2558252   0.7725755  )
        20           Sr  tau(  20) = (   0.7441748   0.2558252   1.2603363  )
        21           O   tau(  21) = (   0.7322655   0.0078049   1.5135603  )
        22           O   tau(  22) = (   0.7558175   0.4996027   1.5135603  )
        23           O   tau(  23) = (   0.5003973   0.2441825   1.5135603  )
        24           O   tau(  24) = (   0.7527966   0.4978604   1.0164559  )
        25           O   tau(  25) = (   0.5021396   0.2472034   1.0164559  )
        26           O   tau(  26) = (   0.7517679   0.0000000   1.0164559  )
        27           O   tau(  27) = (   0.0114961   0.4948124   1.7455321  )
        28           O   tau(  28) = (   0.0048226   0.0077944   1.7715967  )
        29           Sr  tau(  29) = (   0.2545482   0.2517602   1.7648669  )
        30           O   tau(  30) = (   0.5048017   0.0015068   1.7786929  )
        31           Co  tau(  31) = (   0.0056869   0.5006215   1.0164559  )
        32           Co  tau(  32) = (   0.0065315   0.4997770   1.5135603  )
        33           Co  tau(  33) = (   0.0061999   0.0064171   1.0164559  )
        34           Co  tau(  34) = (   0.0000000   0.0126169   1.5135603  )
        35           O   tau(  35) = (   0.0114961   0.4948124   1.2815885  )
        36           O   tau(  36) = (   0.0114961   0.4948124   0.7513233  )
        37           O   tau(  37) = (   0.0051979   0.2673486   1.0164559  )
        38           O   tau(  38) = (   0.0130029   0.2478461   1.5135603  )
        39           O   tau(  39) = (   0.0048226   0.0077944   0.7773880  )
        40           O   tau(  40) = (   0.0048226   0.0077944   1.2555238  )
        41           Sr  tau(  41) = (   0.2545482   0.2517602   0.7706582  )
        42           Sr  tau(  42) = (   0.2545482   0.2517602   1.2622536  )
        43           Co  tau(  43) = (   0.4989925   0.0073160   1.5135603  )
        44           Co  tau(  44) = (   0.4998370   0.0064714   1.0164559  )
        45           O   tau(  45) = (   0.5048017   0.0015068   0.7844841  )
        46           O   tau(  46) = (   0.5048017   0.0015068   1.2484277  )
        47           O   tau(  47) = (   0.2621260   0.0059111   1.5135603  )
        48           O   tau(  48) = (   0.2591051   0.0041689   1.0164559  )
        49           O   tau(  49) = (   0.8529874   0.2843291   2.1602013  )

   Crystallographic axes

     site n.     atom                  positions (cryst. coord.)
         1           Sr  tau(   1) = (  0.2508693  0.7491307  0.6943562  )
         2           O   tau(   2) = (  0.4985141  0.5014859  0.6999492  )
         3           Sr  tau(   3) = (  0.7482398  0.7454518  0.6972903  )
         4           Sr  tau(   4) = (  0.7441748  0.2558252  0.6980478  )
         5           Sr  tau(   5) = (  0.2508693  0.7491307  0.5016443  )
         6           Sr  tau(   6) = (  0.2508693  0.7491307  0.3015492  )
         7           Co  tau(   7) = (  0.4998914  0.5001086  0.4015968  )
         8           Co  tau(   8) = (  0.4936915  0.5063085  0.5980003  )
         9           O   tau(   9) = (  0.4988895  0.7610401  0.4015968  )
        10           O   tau(  10) = (  0.2389599  0.5011105  0.4015968  )
        11           O   tau(  11) = (  0.0070918  0.7374880  0.4015968  )
        12           O   tau(  12) = (  0.0088340  0.7405089  0.5980003  )
        13           O   tau(  13) = (  0.5066944  0.7415376  0.5980003  )
        14           O   tau(  14) = (  0.2584624  0.4933056  0.5980003  )
        15           O   tau(  15) = (  0.4985141  0.5014859  0.3071422  )
        16           O   tau(  16) = (  0.4985141  0.5014859  0.4960513  )
        17           Sr  tau(  17) = (  0.7482398  0.7454518  0.3044833  )
        18           Sr  tau(  18) = (  0.7482398  0.7454518  0.4987103  )
        19           Sr  tau(  19) = (  0.7441748  0.2558252  0.3052408  )
        20           Sr  tau(  20) = (  0.7441748  0.2558252  0.4979527  )
        21           O   tau(  21) = (  0.7322655  0.0078049  0.5980003  )
        22           O   tau(  22) = (  0.7558175  0.4996027  0.5980003  )
        23           O   tau(  23) = (  0.5003973  0.2441825  0.5980003  )
        24           O   tau(  24) = (  0.7527966  0.4978604  0.4015968  )
        25           O   tau(  25) = (  0.5021396  0.2472034  0.4015968  )
        26           O   tau(  26) = (  0.7517679  0.0000000  0.4015968  )
        27           O   tau(  27) = (  0.0114961  0.4948124  0.6896512  )
        28           O   tau(  28) = (  0.0048226  0.0077944  0.6999492  )
        29           Sr  tau(  29) = (  0.2545482  0.2517602  0.6972903  )
        30           O   tau(  30) = (  0.5048017  0.0015068  0.7027529  )
        31           Co  tau(  31) = (  0.0056869  0.5006215  0.4015968  )
        32           Co  tau(  32) = (  0.0065315  0.4997770  0.5980003  )
        33           Co  tau(  33) = (  0.0061999  0.0064171  0.4015968  )
        34           Co  tau(  34) = (  0.0000000  0.0126169  0.5980003  )
        35           O   tau(  35) = (  0.0114961  0.4948124  0.5063494  )
        36           O   tau(  36) = (  0.0114961  0.4948124  0.2968442  )
        37           O   tau(  37) = (  0.0051979  0.2673486  0.4015968  )
        38           O   tau(  38) = (  0.0130029  0.2478461  0.5980003  )
        39           O   tau(  39) = (  0.0048226  0.0077944  0.3071422  )
        40           O   tau(  40) = (  0.0048226  0.0077944  0.4960513  )
        41           Sr  tau(  41) = (  0.2545482  0.2517602  0.3044833  )
        42           Sr  tau(  42) = (  0.2545482  0.2517602  0.4987103  )
        43           Co  tau(  43) = (  0.4989925  0.0073160  0.5980003  )
        44           Co  tau(  44) = (  0.4998370  0.0064714  0.4015968  )
        45           O   tau(  45) = (  0.5048017  0.0015068  0.3099459  )
        46           O   tau(  46) = (  0.5048017  0.0015068  0.4932477  )
        47           O   tau(  47) = (  0.2621260  0.0059111  0.5980003  )
        48           O   tau(  48) = (  0.2591051  0.0041689  0.4015968  )
        49           O   tau(  49) = (  0.8529874  0.2843291  0.8534850  )

     number of k points=    10  Gaussian smearing, width (Ry)=  0.0700
                       cart. coord. in units 2pi/alat
        k(    1) = (   0.0000000   0.0000000   0.0000000), wk =   0.1250000
        k(    2) = (   0.0000000   0.2500000   0.0000000), wk =   0.2500000
        k(    3) = (   0.0000000  -0.5000000   0.0000000), wk =   0.1250000
        k(    4) = (   0.2500000   0.2500000   0.0000000), wk =   0.2500000
        k(    5) = (   0.2500000  -0.5000000   0.0000000), wk =   0.2500000
        k(    6) = (  -0.5000000  -0.5000000   0.0000000), wk =   0.1250000
        k(    7) = (   0.2500000   0.0000000   0.0000000), wk =   0.2500000
        k(    8) = (  -0.5000000   0.0000000   0.0000000), wk =   0.1250000
        k(    9) = (  -0.2500000   0.2500000   0.0000000), wk =   0.2500000
        k(   10) = (  -0.5000000   0.2500000   0.0000000), wk =   0.2500000

                       cryst. coord.
        k(    1) = (   0.0000000   0.0000000   0.0000000), wk =   0.1250000
        k(    2) = (   0.0000000   0.2500000   0.0000000), wk =   0.2500000
        k(    3) = (   0.0000000  -0.5000000   0.0000000), wk =   0.1250000
        k(    4) = (   0.2500000   0.2500000   0.0000000), wk =   0.2500000
        k(    5) = (   0.2500000  -0.5000000   0.0000000), wk =   0.2500000
        k(    6) = (  -0.5000000  -0.5000000   0.0000000), wk =   0.1250000
        k(    7) = (   0.2500000   0.0000000   0.0000000), wk =   0.2500000
        k(    8) = (  -0.5000000   0.0000000   0.0000000), wk =   0.1250000
        k(    9) = (  -0.2500000   0.2500000   0.0000000), wk =   0.2500000
        k(   10) = (  -0.5000000   0.2500000   0.0000000), wk =   0.2500000

     Dense  grid:  1474595 G-vectors     FFT dimensions: ( 108, 108, 270)

     Smooth grid:   521381 G-vectors     FFT dimensions: (  75,  75, 192)

     Dynamical RAM for                 wfc:      10.69 MB

     Dynamical RAM for     wfc (w. buffer):      64.13 MB

     Dynamical RAM for           str. fact:       2.81 MB

     Dynamical RAM for           local pot:       0.00 MB

     Dynamical RAM for          nlocal pot:      24.53 MB

     Dynamical RAM for                qrad:       5.27 MB

     Dynamical RAM for          rho,v,vnew:       6.02 MB

     Dynamical RAM for               rhoin:       2.01 MB

     Dynamical RAM for            rho*nmix:      15.00 MB

     Dynamical RAM for           G-vectors:       3.68 MB

     Dynamical RAM for          h,s,v(r/c):       1.35 MB

     Dynamical RAM for          <psi|beta>:       2.33 MB

     Dynamical RAM for                 psi:      21.38 MB

     Dynamical RAM for                hpsi:      21.38 MB

     Dynamical RAM for                spsi:      21.38 MB

     Dynamical RAM for      wfcinit/wfcrot:      34.39 MB

     Dynamical RAM for           addusdens:     101.26 MB

     Estimated static dynamical RAM per process >     117.53 MB

     Estimated max dynamical RAM per process >     233.79 MB

     Estimated total dynamical RAM >      10.61 GB

     Check: negative core charge=   -0.000004

     Initial potential from superposition of free atoms

     starting charge     421.5961, renormalised to     430.0000

     negative rho (up, down):  7.826E-01 0.000E+00
     Starting wfcs are  376 randomized atomic wfcs
     Checking if some PAW data can be deallocated... 
       PAW data deallocated on   19 nodes for type:  2

     total cpu time spent up to now is        8.8 secs

     Self-consistent Calculation

     iteration #  1     ecut=    60.00 Ry     beta= 0.15
     Davidson diagonalization with overlap

---- Real-time Memory Report at c_bands before calling an iterative solver
             0 MiB given to the printing process from OS
             0 MiB allocation reported by mallinfo(arena+hblkhd)
         51475 MiB available memory on the node where the printing process lives
------------------
     ethr =  1.00E-02,  avg # of iterations =  2.0

     negative rho (up, down):  7.716E-01 0.000E+00

     total cpu time spent up to now is       24.1 secs

     total energy              =   -4445.20596884 Ry
     estimated scf accuracy    <      53.79932963 Ry

     iteration #  2     ecut=    60.00 Ry     beta= 0.15
     Davidson diagonalization with overlap

---- Real-time Memory Report at c_bands before calling an iterative solver
             0 MiB given to the printing process from OS
             0 MiB allocation reported by mallinfo(arena+hblkhd)
         51865 MiB available memory on the node where the printing process lives
------------------
     ethr =  1.00E-02,  avg # of iterations =  1.0

     negative rho (up, down):  7.596E-01 0.000E+00

     total cpu time spent up to now is       36.7 secs

     total energy              =   -4442.05496157 Ry
     estimated scf accuracy    <      28.03941279 Ry

     iteration #  3     ecut=    60.00 Ry     beta= 0.15
     Davidson diagonalization with overlap

---- Real-time Memory Report at c_bands before calling an iterative solver
             0 MiB given to the printing process from OS
             0 MiB allocation reported by mallinfo(arena+hblkhd)
         51085 MiB available memory on the node where the printing process lives
------------------
     ethr =  6.52E-03,  avg # of iterations =  1.0

     negative rho (up, down):  7.528E-01 0.000E+00

     total cpu time spent up to now is       49.4 secs

     total energy              =   -4442.54571694 Ry
     estimated scf accuracy    <      30.42136277 Ry

     iteration #  4     ecut=    60.00 Ry     beta= 0.15
     Davidson diagonalization with overlap

---- Real-time Memory Report at c_bands before calling an iterative solver
             0 MiB given to the printing process from OS
             0 MiB allocation reported by mallinfo(arena+hblkhd)
         51037 MiB available memory on the node where the printing process lives
------------------
     ethr =  6.52E-03,  avg # of iterations =  1.0

     negative rho (up, down):  7.520E-01 0.000E+00

     total cpu time spent up to now is       62.2 secs

     total energy              =   -4443.01265906 Ry
     estimated scf accuracy    <      29.06415317 Ry

     iteration #  5     ecut=    60.00 Ry     beta= 0.15
     Davidson diagonalization with overlap

---- Real-time Memory Report at c_bands before calling an iterative solver
             0 MiB given to the printing process from OS
             0 MiB allocation reported by mallinfo(arena+hblkhd)
         51015 MiB available memory on the node where the printing process lives
------------------
     ethr =  6.52E-03,  avg # of iterations =  1.0

     negative rho (up, down):  7.364E-01 0.000E+00

     total cpu time spent up to now is       74.7 secs

     total energy              =   -4442.37213159 Ry
     estimated scf accuracy    <      38.60855575 Ry

     iteration #  6     ecut=    60.00 Ry     beta= 0.15
     Davidson diagonalization with overlap

---- Real-time Memory Report at c_bands before calling an iterative solver
             0 MiB given to the printing process from OS
             0 MiB allocation reported by mallinfo(arena+hblkhd)
         50995 MiB available memory on the node where the printing process lives
------------------
     ethr =  6.52E-03,  avg # of iterations =  1.0

     negative rho (up, down):  7.445E-01 0.000E+00

     total cpu time spent up to now is       87.4 secs

     total energy              =   -4442.16068267 Ry
     estimated scf accuracy    <      40.18866729 Ry

     iteration #  7     ecut=    60.00 Ry     beta= 0.15
     Davidson diagonalization with overlap

---- Real-time Memory Report at c_bands before calling an iterative solver
             0 MiB given to the printing process from OS
             0 MiB allocation reported by mallinfo(arena+hblkhd)
         50975 MiB available memory on the node where the printing process lives
------------------
     ethr =  6.52E-03,  avg # of iterations =  1.0

     negative rho (up, down):  7.469E-01 0.000E+00

     total cpu time spent up to now is      100.0 secs

     total energy              =   -4439.57313331 Ry
     estimated scf accuracy    <      36.30743907 Ry

     iteration #  8     ecut=    60.00 Ry     beta= 0.15
     Davidson diagonalization with overlap

---- Real-time Memory Report at c_bands before calling an iterative solver
             0 MiB given to the printing process from OS
             0 MiB allocation reported by mallinfo(arena+hblkhd)
         50963 MiB available memory on the node where the printing process lives
------------------
     ethr =  6.52E-03,  avg # of iterations =  1.0

     negative rho (up, down):  7.427E-01 0.000E+00

     total cpu time spent up to now is      112.5 secs

     total energy              =   -4440.53270884 Ry
     estimated scf accuracy    <       6.22351102 Ry

     iteration #  9     ecut=    60.00 Ry     beta= 0.15
     Davidson diagonalization with overlap

---- Real-time Memory Report at c_bands before calling an iterative solver
             0 MiB given to the printing process from OS
             0 MiB allocation reported by mallinfo(arena+hblkhd)
         50944 MiB available memory on the node where the printing process lives
------------------
     ethr =  1.45E-03,  avg # of iterations =  1.8

     negative rho (up, down):  7.608E-01 0.000E+00

     total cpu time spent up to now is      126.0 secs

     total energy              =   -4440.59614422 Ry
     estimated scf accuracy    <       7.63676596 Ry

     iteration # 10     ecut=    60.00 Ry     beta= 0.15
     Davidson diagonalization with overlap

---- Real-time Memory Report at c_bands before calling an iterative solver
             0 MiB given to the printing process from OS
             0 MiB allocation reported by mallinfo(arena+hblkhd)
         50917 MiB available memory on the node where the printing process lives
------------------
     ethr =  1.45E-03,  avg # of iterations =  2.0

     negative rho (up, down):  7.656E-01 0.000E+00

     total cpu time spent up to now is      139.8 secs

     total energy              =   -4440.29739866 Ry
     estimated scf accuracy    <      24.49974007 Ry

     iteration # 11     ecut=    60.00 Ry     beta= 0.15
     Davidson diagonalization with overlap

---- Real-time Memory Report at c_bands before calling an iterative solver
             0 MiB given to the printing process from OS
             0 MiB allocation reported by mallinfo(arena+hblkhd)
         50903 MiB available memory on the node where the printing process lives
------------------
     ethr =  1.45E-03,  avg # of iterations =  5.2

     negative rho (up, down):  7.734E-01 0.000E+00

     total cpu time spent up to now is      155.1 secs

     total energy              =   -4440.50797466 Ry
     estimated scf accuracy    <       6.63926013 Ry

     iteration # 12     ecut=    60.00 Ry     beta= 0.15
     Davidson diagonalization with overlap

---- Real-time Memory Report at c_bands before calling an iterative solver
             0 MiB given to the printing process from OS
             0 MiB allocation reported by mallinfo(arena+hblkhd)
         50857 MiB available memory on the node where the printing process lives
------------------
     ethr =  1.45E-03,  avg # of iterations =  4.5

     negative rho (up, down):  7.791E-01 0.000E+00

     total cpu time spent up to now is      170.1 secs

     total energy              =   -4440.56018643 Ry
     estimated scf accuracy    <       1.18366762 Ry

     iteration # 13     ecut=    60.00 Ry     beta= 0.15
     Davidson diagonalization with overlap

---- Real-time Memory Report at c_bands before calling an iterative solver
             0 MiB given to the printing process from OS
             0 MiB allocation reported by mallinfo(arena+hblkhd)
         50833 MiB available memory on the node where the printing process lives
------------------
     ethr =  2.75E-04,  avg # of iterations = 14.2

     negative rho (up, down):  8.077E-01 0.000E+00

     total cpu time spent up to now is      191.3 secs

     total energy              =   -4440.52423266 Ry
     estimated scf accuracy    <       1.73020233 Ry

     iteration # 14     ecut=    60.00 Ry     beta= 0.15
     Davidson diagonalization with overlap

---- Real-time Memory Report at c_bands before calling an iterative solver
             0 MiB given to the printing process from OS
             0 MiB allocation reported by mallinfo(arena+hblkhd)
         50256 MiB available memory on the node where the printing process lives
------------------
     ethr =  2.75E-04,  avg # of iterations =  1.0

     negative rho (up, down):  8.144E-01 0.000E+00

     total cpu time spent up to now is      203.7 secs

     total energy              =   -4440.33659846 Ry
     estimated scf accuracy    <       6.29264347 Ry

     iteration # 15     ecut=    60.00 Ry     beta= 0.15
     Davidson diagonalization with overlap

---- Real-time Memory Report at c_bands before calling an iterative solver
             0 MiB given to the printing process from OS
             0 MiB allocation reported by mallinfo(arena+hblkhd)
         50290 MiB available memory on the node where the printing process lives
------------------
     ethr =  2.75E-04,  avg # of iterations =  1.7

     negative rho (up, down):  8.166E-01 0.000E+00

     total cpu time spent up to now is      217.5 secs

     total energy              =   -4440.43386859 Ry
     estimated scf accuracy    <       0.39875387 Ry

     iteration # 16     ecut=    60.00 Ry     beta= 0.15
     Davidson diagonalization with overlap

---- Real-time Memory Report at c_bands before calling an iterative solver
             0 MiB given to the printing process from OS
             0 MiB allocation reported by mallinfo(arena+hblkhd)
         50314 MiB available memory on the node where the printing process lives
------------------
     ethr =  9.27E-05,  avg # of iterations =  9.3

     negative rho (up, down):  8.239E-01 0.000E+00

     total cpu time spent up to now is      234.2 secs

     total energy              =   -4440.39391683 Ry
     estimated scf accuracy    <       0.29831723 Ry

     iteration # 17     ecut=    60.00 Ry     beta= 0.15
     Davidson diagonalization with overlap

---- Real-time Memory Report at c_bands before calling an iterative solver
             0 MiB given to the printing process from OS
             0 MiB allocation reported by mallinfo(arena+hblkhd)
         50319 MiB available memory on the node where the printing process lives
------------------
     ethr =  6.94E-05,  avg # of iterations = 10.6

     negative rho (up, down):  8.254E-01 0.000E+00

     total cpu time spent up to now is      251.7 secs

     total energy              =   -4440.37588021 Ry
     estimated scf accuracy    <       0.21006132 Ry

     iteration # 18     ecut=    60.00 Ry     beta= 0.15
     Davidson diagonalization with overlap

---- Real-time Memory Report at c_bands before calling an iterative solver
             0 MiB given to the printing process from OS
             0 MiB allocation reported by mallinfo(arena+hblkhd)
         50296 MiB available memory on the node where the printing process lives
------------------
     ethr =  4.89E-05,  avg # of iterations =  4.6

     negative rho (up, down):  8.164E-01 0.000E+00

     total cpu time spent up to now is      267.1 secs

     total energy              =   -4440.36360747 Ry
     estimated scf accuracy    <       0.17860677 Ry

     iteration # 19     ecut=    60.00 Ry     beta= 0.15
     Davidson diagonalization with overlap

---- Real-time Memory Report at c_bands before calling an iterative solver
             0 MiB given to the printing process from OS
             0 MiB allocation reported by mallinfo(arena+hblkhd)
         50344 MiB available memory on the node where the printing process lives
------------------
     ethr =  4.15E-05,  avg # of iterations =  1.8

     negative rho (up, down):  8.129E-01 0.000E+00

     total cpu time spent up to now is      280.9 secs

     total energy              =   -4440.34775310 Ry
     estimated scf accuracy    <       0.16486016 Ry

     iteration # 20     ecut=    60.00 Ry     beta= 0.15
     Davidson diagonalization with overlap

---- Real-time Memory Report at c_bands before calling an iterative solver
             0 MiB given to the printing process from OS
             0 MiB allocation reported by mallinfo(arena+hblkhd)
         50338 MiB available memory on the node where the printing process lives
------------------
     ethr =  3.83E-05,  avg # of iterations =  8.9

     negative rho (up, down):  8.231E-01 0.000E+00

     total cpu time spent up to now is      298.2 secs

     total energy              =   -4440.33300062 Ry
     estimated scf accuracy    <       0.13122164 Ry

     iteration # 21     ecut=    60.00 Ry     beta= 0.15
     Davidson diagonalization with overlap

---- Real-time Memory Report at c_bands before calling an iterative solver
             0 MiB given to the printing process from OS
             0 MiB allocation reported by mallinfo(arena+hblkhd)
         50388 MiB available memory on the node where the printing process lives
------------------
     ethr =  3.05E-05,  avg # of iterations =  7.9

     negative rho (up, down):  8.254E-01 0.000E+00

     total cpu time spent up to now is      315.6 secs

     total energy              =   -4440.32642061 Ry
     estimated scf accuracy    <       0.08393250 Ry

     iteration # 22     ecut=    60.00 Ry     beta= 0.15
     Davidson diagonalization with overlap

---- Real-time Memory Report at c_bands before calling an iterative solver
             0 MiB given to the printing process from OS
             0 MiB allocation reported by mallinfo(arena+hblkhd)
         50332 MiB available memory on the node where the printing process lives
------------------
     ethr =  1.95E-05,  avg # of iterations =  7.9

     negative rho (up, down):  8.148E-01 0.000E+00

     total cpu time spent up to now is      333.0 secs

     total energy              =   -4440.32159209 Ry
     estimated scf accuracy    <       0.05230558 Ry

     iteration # 23     ecut=    60.00 Ry     beta= 0.15
     Davidson diagonalization with overlap

---- Real-time Memory Report at c_bands before calling an iterative solver
             0 MiB given to the printing process from OS
             0 MiB allocation reported by mallinfo(arena+hblkhd)
         50313 MiB available memory on the node where the printing process lives
------------------
     ethr =  1.22E-05,  avg # of iterations =  8.2

     negative rho (up, down):  7.969E-01 0.000E+00

     total cpu time spent up to now is      350.0 secs

     total energy              =   -4440.31942751 Ry
     estimated scf accuracy    <       0.03445652 Ry

     iteration # 24     ecut=    60.00 Ry     beta= 0.15
     Davidson diagonalization with overlap

---- Real-time Memory Report at c_bands before calling an iterative solver
             0 MiB given to the printing process from OS
             0 MiB allocation reported by mallinfo(arena+hblkhd)
         50354 MiB available memory on the node where the printing process lives
------------------
     ethr =  8.01E-06,  avg # of iterations =  2.0

     negative rho (up, down):  7.995E-01 0.000E+00

     total cpu time spent up to now is      364.0 secs

     total energy              =   -4440.31751749 Ry
     estimated scf accuracy    <       0.02586830 Ry

     iteration # 25     ecut=    60.00 Ry     beta= 0.15
     Davidson diagonalization with overlap

---- Real-time Memory Report at c_bands before calling an iterative solver
             0 MiB given to the printing process from OS
             0 MiB allocation reported by mallinfo(arena+hblkhd)
         50351 MiB available memory on the node where the printing process lives
------------------
     ethr =  6.02E-06,  avg # of iterations = 10.1

     negative rho (up, down):  7.930E-01 0.000E+00

     total cpu time spent up to now is      382.5 secs

     total energy              =   -4440.31510190 Ry
     estimated scf accuracy    <       0.01517805 Ry

     iteration # 26     ecut=    60.00 Ry     beta= 0.15
     Davidson diagonalization with overlap

---- Real-time Memory Report at c_bands before calling an iterative solver
             0 MiB given to the printing process from OS
             0 MiB allocation reported by mallinfo(arena+hblkhd)
         50334 MiB available memory on the node where the printing process lives
------------------
     ethr =  3.53E-06,  avg # of iterations =  2.8

     negative rho (up, down):  7.974E-01 0.000E+00

     total cpu time spent up to now is      396.9 secs

     total energy              =   -4440.31407443 Ry
     estimated scf accuracy    <       0.00888145 Ry

     iteration # 27     ecut=    60.00 Ry     beta= 0.15
     Davidson diagonalization with overlap

---- Real-time Memory Report at c_bands before calling an iterative solver
             0 MiB given to the printing process from OS
             0 MiB allocation reported by mallinfo(arena+hblkhd)
         50344 MiB available memory on the node where the printing process lives
------------------
     ethr =  2.07E-06,  avg # of iterations = 11.3

     negative rho (up, down):  7.995E-01 0.000E+00

     total cpu time spent up to now is      416.1 secs

     total energy              =   -4440.31398635 Ry
     estimated scf accuracy    <       0.00335350 Ry

     iteration # 28     ecut=    60.00 Ry     beta= 0.15
     Davidson diagonalization with overlap

---- Real-time Memory Report at c_bands before calling an iterative solver
             0 MiB given to the printing process from OS
             0 MiB allocation reported by mallinfo(arena+hblkhd)
         50318 MiB available memory on the node where the printing process lives
------------------
     ethr =  7.80E-07,  avg # of iterations =  3.6

     negative rho (up, down):  8.060E-01 0.000E+00

     total cpu time spent up to now is      431.0 secs

     total energy              =   -4440.31435565 Ry
     estimated scf accuracy    <       0.00142526 Ry

     iteration # 29     ecut=    60.00 Ry     beta= 0.15
     Davidson diagonalization with overlap

---- Real-time Memory Report at c_bands before calling an iterative solver
             0 MiB given to the printing process from OS
             0 MiB allocation reported by mallinfo(arena+hblkhd)
         50331 MiB available memory on the node where the printing process lives
------------------
     ethr =  3.31E-07,  avg # of iterations =  7.8

     negative rho (up, down):  8.030E-01 0.000E+00

     total cpu time spent up to now is      448.1 secs

     total energy              =   -4440.31431373 Ry
     estimated scf accuracy    <       0.00063784 Ry

     iteration # 30     ecut=    60.00 Ry     beta= 0.15
     Davidson diagonalization with overlap

---- Real-time Memory Report at c_bands before calling an iterative solver
             0 MiB given to the printing process from OS
             0 MiB allocation reported by mallinfo(arena+hblkhd)
         50296 MiB available memory on the node where the printing process lives
------------------
     c_bands:  1 eigenvalues not converged
     ethr =  1.48E-07,  avg # of iterations =  4.7

     negative rho (up, down):  7.998E-01 0.000E+00

     total cpu time spent up to now is      463.6 secs

     total energy              =   -4440.31424555 Ry
     estimated scf accuracy    <       0.00039908 Ry

     iteration # 31     ecut=    60.00 Ry     beta= 0.15
     Davidson diagonalization with overlap

---- Real-time Memory Report at c_bands before calling an iterative solver
             0 MiB given to the printing process from OS
             0 MiB allocation reported by mallinfo(arena+hblkhd)
         50371 MiB available memory on the node where the printing process lives
------------------
     c_bands:  1 eigenvalues not converged
     ethr =  9.28E-08,  avg # of iterations =  9.1

     negative rho (up, down):  7.938E-01 0.000E+00

     total cpu time spent up to now is      480.2 secs

     total energy              =   -4440.31415547 Ry
     estimated scf accuracy    <       0.00024273 Ry

     iteration # 32     ecut=    60.00 Ry     beta= 0.15
     Davidson diagonalization with overlap

---- Real-time Memory Report at c_bands before calling an iterative solver
             0 MiB given to the printing process from OS
             0 MiB allocation reported by mallinfo(arena+hblkhd)
         50387 MiB available memory on the node where the printing process lives
------------------
     c_bands:  1 eigenvalues not converged
     ethr =  5.64E-08,  avg # of iterations = 10.0

     negative rho (up, down):  7.932E-01 0.000E+00

     total cpu time spent up to now is      499.5 secs

     total energy              =   -4440.31418307 Ry
     estimated scf accuracy    <       0.00010074 Ry

     iteration # 33     ecut=    60.00 Ry     beta= 0.15
     Davidson diagonalization with overlap

---- Real-time Memory Report at c_bands before calling an iterative solver
             0 MiB given to the printing process from OS
             0 MiB allocation reported by mallinfo(arena+hblkhd)
         50338 MiB available memory on the node where the printing process lives
------------------
     ethr =  2.34E-08,  avg # of iterations =  2.0

     negative rho (up, down):  7.930E-01 0.000E+00

     total cpu time spent up to now is      513.4 secs

     total energy              =   -4440.31418302 Ry
     estimated scf accuracy    <       0.00007143 Ry

     iteration # 34     ecut=    60.00 Ry     beta= 0.15
     Davidson diagonalization with overlap

---- Real-time Memory Report at c_bands before calling an iterative solver
             0 MiB given to the printing process from OS
             0 MiB allocation reported by mallinfo(arena+hblkhd)
         50295 MiB available memory on the node where the printing process lives
------------------
     ethr =  1.66E-08,  avg # of iterations =  2.3

     negative rho (up, down):  7.925E-01 0.000E+00

     total cpu time spent up to now is      527.4 secs

     total energy              =   -4440.31418041 Ry
     estimated scf accuracy    <       0.00005235 Ry

     iteration # 35     ecut=    60.00 Ry     beta= 0.15
     Davidson diagonalization with overlap

---- Real-time Memory Report at c_bands before calling an iterative solver
             0 MiB given to the printing process from OS
             0 MiB allocation reported by mallinfo(arena+hblkhd)
         50354 MiB available memory on the node where the printing process lives
------------------
     ethr =  1.22E-08,  avg # of iterations =  2.0

     negative rho (up, down):  7.925E-01 0.000E+00

     total cpu time spent up to now is      541.9 secs

     total energy              =   -4440.31418699 Ry
     estimated scf accuracy    <       0.00002162 Ry

     iteration # 36     ecut=    60.00 Ry     beta= 0.15
     Davidson diagonalization with overlap

---- Real-time Memory Report at c_bands before calling an iterative solver
             0 MiB given to the printing process from OS
             0 MiB allocation reported by mallinfo(arena+hblkhd)
         50337 MiB available memory on the node where the printing process lives
------------------
     ethr =  5.03E-09,  avg # of iterations =  2.0

     negative rho (up, down):  7.922E-01 0.000E+00

     total cpu time spent up to now is      556.1 secs

     total energy              =   -4440.31419052 Ry
     estimated scf accuracy    <       0.00001370 Ry

     iteration # 37     ecut=    60.00 Ry     beta= 0.15
     Davidson diagonalization with overlap

---- Real-time Memory Report at c_bands before calling an iterative solver
             0 MiB given to the printing process from OS
             0 MiB allocation reported by mallinfo(arena+hblkhd)
         50350 MiB available memory on the node where the printing process lives
------------------
     ethr =  3.19E-09,  avg # of iterations =  2.0

     negative rho (up, down):  7.922E-01 0.000E+00

     total cpu time spent up to now is      570.3 secs

     total energy              =   -4440.31419242 Ry
     estimated scf accuracy    <       0.00000568 Ry

     iteration # 38     ecut=    60.00 Ry     beta= 0.15
     Davidson diagonalization with overlap

---- Real-time Memory Report at c_bands before calling an iterative solver
             0 MiB given to the printing process from OS
             0 MiB allocation reported by mallinfo(arena+hblkhd)
         50354 MiB available memory on the node where the printing process lives
------------------
     ethr =  1.32E-09,  avg # of iterations =  2.1

     negative rho (up, down):  7.923E-01 0.000E+00

     total cpu time spent up to now is      584.6 secs

     total energy              =   -4440.31419300 Ry
     estimated scf accuracy    <       0.00000423 Ry

     iteration # 39     ecut=    60.00 Ry     beta= 0.15
     Davidson diagonalization with overlap

---- Real-time Memory Report at c_bands before calling an iterative solver
             0 MiB given to the printing process from OS
             0 MiB allocation reported by mallinfo(arena+hblkhd)
         50362 MiB available memory on the node where the printing process lives
------------------
     ethr =  9.84E-10,  avg # of iterations =  2.0

     negative rho (up, down):  7.924E-01 0.000E+00

     total cpu time spent up to now is      598.8 secs

     total energy              =   -4440.31419298 Ry
     estimated scf accuracy    <       0.00000310 Ry

     iteration # 40     ecut=    60.00 Ry     beta= 0.15
     Davidson diagonalization with overlap

---- Real-time Memory Report at c_bands before calling an iterative solver
             0 MiB given to the printing process from OS
             0 MiB allocation reported by mallinfo(arena+hblkhd)
         50360 MiB available memory on the node where the printing process lives
------------------
     ethr =  7.21E-10,  avg # of iterations =  2.0

     negative rho (up, down):  7.926E-01 0.000E+00

     total cpu time spent up to now is      612.9 secs

     total energy              =   -4440.31419219 Ry
     estimated scf accuracy    <       0.00000221 Ry

     iteration # 41     ecut=    60.00 Ry     beta= 0.15
     Davidson diagonalization with overlap

---- Real-time Memory Report at c_bands before calling an iterative solver
             0 MiB given to the printing process from OS
             0 MiB allocation reported by mallinfo(arena+hblkhd)
         50368 MiB available memory on the node where the printing process lives
------------------
     ethr =  5.13E-10,  avg # of iterations =  2.0

     negative rho (up, down):  7.926E-01 0.000E+00

     total cpu time spent up to now is      627.5 secs

     total energy              =   -4440.31419246 Ry
     estimated scf accuracy    <       0.00000078 Ry

     iteration # 42     ecut=    60.00 Ry     beta= 0.15
     Davidson diagonalization with overlap

---- Real-time Memory Report at c_bands before calling an iterative solver
             0 MiB given to the printing process from OS
             0 MiB allocation reported by mallinfo(arena+hblkhd)
         50366 MiB available memory on the node where the printing process lives
------------------
     ethr =  1.81E-10,  avg # of iterations =  1.9

     negative rho (up, down):  7.926E-01 0.000E+00

     total cpu time spent up to now is      642.0 secs

     total energy              =   -4440.31419268 Ry
     estimated scf accuracy    <       0.00000049 Ry

     iteration # 43     ecut=    60.00 Ry     beta= 0.15
     Davidson diagonalization with overlap

---- Real-time Memory Report at c_bands before calling an iterative solver
             0 MiB given to the printing process from OS
             0 MiB allocation reported by mallinfo(arena+hblkhd)
         50368 MiB available memory on the node where the printing process lives
------------------
     ethr =  1.13E-10,  avg # of iterations =  2.6

     negative rho (up, down):  7.926E-01 0.000E+00

     total cpu time spent up to now is      656.8 secs

     total energy              =   -4440.31419278 Ry
     estimated scf accuracy    <       0.00000031 Ry

     iteration # 44     ecut=    60.00 Ry     beta= 0.15
     Davidson diagonalization with overlap

---- Real-time Memory Report at c_bands before calling an iterative solver
             0 MiB given to the printing process from OS
             0 MiB allocation reported by mallinfo(arena+hblkhd)
         50370 MiB available memory on the node where the printing process lives
------------------
     ethr =  7.19E-11,  avg # of iterations =  2.5

     negative rho (up, down):  7.927E-01 0.000E+00

     total cpu time spent up to now is      671.7 secs

     total energy              =   -4440.31419273 Ry
     estimated scf accuracy    <       0.00000011 Ry

     iteration # 45     ecut=    60.00 Ry     beta= 0.15
     Davidson diagonalization with overlap

---- Real-time Memory Report at c_bands before calling an iterative solver
             0 MiB given to the printing process from OS
             0 MiB allocation reported by mallinfo(arena+hblkhd)
         50368 MiB available memory on the node where the printing process lives
------------------
     ethr =  2.66E-11,  avg # of iterations =  2.9

     negative rho (up, down):  7.926E-01 0.000E+00

     total cpu time spent up to now is      688.0 secs

     total energy              =   -4440.31419275 Ry
     estimated scf accuracy    <       0.00000004 Ry

     iteration # 46     ecut=    60.00 Ry     beta= 0.15
     Davidson diagonalization with overlap

---- Real-time Memory Report at c_bands before calling an iterative solver
             0 MiB given to the printing process from OS
             0 MiB allocation reported by mallinfo(arena+hblkhd)
         50372 MiB available memory on the node where the printing process lives
------------------
     ethr =  1.00E-11,  avg # of iterations =  2.0

     negative rho (up, down):  7.926E-01 0.000E+00

     total cpu time spent up to now is      702.8 secs

     total energy              =   -4440.31419276 Ry
     estimated scf accuracy    <       0.00000002 Ry

     iteration # 47     ecut=    60.00 Ry     beta= 0.15
     Davidson diagonalization with overlap

---- Real-time Memory Report at c_bands before calling an iterative solver
             0 MiB given to the printing process from OS
             0 MiB allocation reported by mallinfo(arena+hblkhd)
         50367 MiB available memory on the node where the printing process lives
------------------
     ethr =  3.72E-12,  avg # of iterations =  2.0

     negative rho (up, down):  7.926E-01 0.000E+00

     total cpu time spent up to now is      717.0 secs

     End of self-consistent calculation

          k = 0.0000 0.0000 0.0000 ( 65197 PWs)   bands (ev):

   -92.9002 -92.8512 -92.7547 -92.7091 -92.6502 -92.6070 -92.5894 -92.4702
   -56.2538 -56.2379 -56.1114 -56.1006 -56.0957 -56.0875 -56.0538 -56.0234
   -56.0083 -56.0069 -56.0017 -55.9566 -55.9399 -55.9009 -55.8816 -55.8505
   -55.8444 -55.7959 -55.7946 -55.7917 -55.7833 -55.7452 -55.7194 -55.6354
   -31.4631 -31.4437 -31.3005 -31.2532 -31.2145 -31.1101 -30.9148 -30.7374
   -30.0438 -30.0023 -29.9744 -29.8663 -15.2762 -15.2278 -15.1487 -15.0198
   -14.8169 -14.6981 -14.4107 -14.3915 -14.3636 -14.3138 -14.2663 -14.2492
   -14.2428 -14.2255 -14.2096 -14.1494 -14.1255 -13.9700 -13.7824 -13.7580
   -13.7278 -13.6888 -13.6764 -13.6160 -13.5827 -13.5055 -13.4377 -13.3002
   -13.2931 -13.2866 -13.2611 -13.2426 -13.2309 -13.1870 -13.1746 -13.1599
   -13.1341 -13.1081 -13.0870 -13.0482 -13.0320 -13.0109 -12.9054 -12.8887
   -12.8656 -12.7114 -12.6908 -12.6416 -12.5292 -12.3831 -12.1540 -12.0828
   -12.0571 -11.9838 -11.9824 -11.9720 -11.9490 -11.9313 -11.8679 -11.8501
   -11.8165 -11.7859 -11.6736 -11.5955 -11.5920  -3.1365  -2.9054  -2.6759
    -2.5274  -2.4661  -2.3247  -2.0163  -2.0014  -1.9837  -1.8956  -1.8769
    -1.8086  -1.7925  -1.7522  -1.7085  -1.5259  -1.2992  -1.2690  -1.1271
    -1.1118  -1.0642  -1.0413  -0.9971  -0.9809  -0.9304  -0.9020  -0.8245
    -0.8143  -0.7428  -0.6070  -0.5944  -0.5662  -0.4860  -0.4583  -0.4224
    -0.3871  -0.3222  -0.2645  -0.2212  -0.1940  -0.1227  -0.0556  -0.0145
     0.0142   0.0237   0.2823   0.3002   0.4735   0.5336   0.6005   0.6551
     0.7383   0.7478   0.7667   0.8320   0.8579   0.8925   0.9483   1.0777
     1.1384   1.1603   1.1893   1.2014   1.2592   1.3236   1.4406   1.4596
     1.5192   1.5241   1.5710   1.5893   1.5997   1.6552   1.7205   1.7264
     1.7675   1.7974   1.8361   1.9679   2.0568   2.0933   2.1201   2.2633
     2.2772   2.3145   2.3208   2.4325   2.4626   2.4824   2.5055   2.5252
     2.5316   2.6046   2.6290   2.6345   2.7134   2.7482   2.7551   2.7607
     2.8287   2.8363   2.8572   2.8639   2.8737   2.8869   2.8941   2.9080
     2.9148   2.9272   2.9332   2.9404   2.9599   2.9815   2.9863   2.9983
     3.0243   3.1384   3.2362   3.9213   4.2378   4.5938   4.8181   4.8540
     5.7558   5.7999   5.8160   5.8861   6.1187   6.1638   6.4240   6.4325
     6.9302   6.9804   7.0778   7.1457   7.4119   7.5173   7.5363   7.5615
     7.7497   7.8510   7.9032   7.9809   8.0199   8.1600   8.3336   8.5863
     8.7633   8.9163

     occupation numbers 
     1.0000   1.0000   1.0000   1.0000   1.0000   1.0000   1.0000   1.0000
     1.0000   1.0000   1.0000   1.0000   1.0000   1.0000   1.0000   1.0000
     1.0000   1.0000   1.0000   1.0000   1.0000   1.0000   1.0000   1.0000
     1.0000   1.0000   1.0000   1.0000   1.0000   1.0000   1.0000   1.0000
     1.0000   1.0000   1.0000   1.0000   1.0000   1.0000   1.0000   1.0000
     1.0000   1.0000   1.0000   1.0000   1.0000   1.0000   1.0000   1.0000
     1.0000   1.0000   1.0000   1.0000   1.0000   1.0000   1.0000   1.0000
     1.0000   1.0000   1.0000   1.0000   1.0000   1.0000   1.0000   1.0000
     1.0000   1.0000   1.0000   1.0000   1.0000   1.0000   1.0000   1.0000
     1.0000   1.0000   1.0000   1.0000   1.0000   1.0000   1.0000   1.0000
     1.0000   1.0000   1.0000   1.0000   1.0000   1.0000   1.0000   1.0000
     1.0000   1.0000   1.0000   1.0000   1.0000   1.0000   1.0000   1.0000
     1.0000   1.0000   1.0000   1.0000   1.0000   1.0000   1.0000   1.0000
     1.0000   1.0000   1.0000   1.0000   1.0000   1.0000   1.0000   1.0000
     1.0000   1.0000   1.0000   1.0000   1.0000   1.0000   1.0000   1.0000
     1.0000   1.0000   1.0000   1.0000   1.0000   1.0000   1.0000   1.0000
     1.0000   1.0000   1.0000   1.0000   1.0000   1.0000   1.0000   1.0000
     1.0000   1.0000   1.0000   1.0000   1.0000   1.0000   1.0000   1.0000
     1.0000   1.0000   1.0000   1.0000   1.0000   1.0000   1.0000   1.0000
     1.0000   1.0000   1.0000   1.0000   1.0000   0.9999   0.9999   0.9999
     0.9998   0.9998   0.9998   0.9997   0.9996   0.9996   0.9994   0.9988
     0.9984   0.9983   0.9980   0.9979   0.9972   0.9963   0.9939   0.9934
     0.9916   0.9914   0.9896   0.9889   0.9884   0.9857   0.9817   0.9813
     0.9784   0.9760   0.9725   0.9576   0.9442   0.9379   0.9329   0.9006
     0.8969   0.8866   0.8848   0.8493   0.8387   0.8314   0.8226   0.8149
     0.8123   0.7817   0.7709   0.7684   0.7312   0.7139   0.7104   0.7076
     0.6720   0.6679   0.6565   0.6528   0.6475   0.6401   0.6361   0.6284
     0.6245   0.6175   0.6141   0.6101   0.5989   0.5865   0.5836   0.5767
     0.5615   0.4942   0.4365   0.1196   0.0498   0.0148   0.0061   0.0052
     0.0000   0.0000   0.0000   0.0000   0.0000   0.0000   0.0000   0.0000
     0.0000   0.0000   0.0000   0.0000   0.0000   0.0000   0.0000   0.0000
     0.0000   0.0000   0.0000   0.0000   0.0000   0.0000   0.0000   0.0000
     0.0000   0.0000

          k = 0.0000 0.2500 0.0000 ( 65257 PWs)   bands (ev):

   -92.9002 -92.8512 -92.7547 -92.7091 -92.6502 -92.6070 -92.5894 -92.4702
   -56.2538 -56.2379 -56.1114 -56.1006 -56.0957 -56.0875 -56.0538 -56.0234
   -56.0083 -56.0069 -56.0017 -55.9566 -55.9399 -55.9009 -55.8816 -55.8505
   -55.8444 -55.7959 -55.7946 -55.7917 -55.7833 -55.7452 -55.7194 -55.6354
   -31.4629 -31.4435 -31.3007 -31.2531 -31.2146 -31.1099 -30.9150 -30.7374
   -30.0432 -30.0020 -29.9750 -29.8666 -15.2398 -15.2014 -15.1235 -14.9903
   -14.8621 -14.6866 -14.5567 -14.3774 -14.3393 -14.3204 -14.2878 -14.2347
   -14.2212 -14.2072 -14.1872 -14.1182 -14.0433 -14.0019 -13.8381 -13.8063
   -13.7699 -13.7314 -13.6751 -13.6417 -13.5774 -13.5312 -13.4914 -13.3972
   -13.3360 -13.3295 -13.2946 -13.2798 -13.2201 -13.1684 -13.1434 -13.1188
   -13.0892 -13.0589 -13.0489 -13.0356 -13.0175 -12.9841 -12.8667 -12.7744
   -12.7335 -12.6913 -12.6619 -12.6349 -12.5904 -12.4342 -12.2057 -12.1426
   -12.0226 -11.9845 -11.9798 -11.9499 -11.9236 -11.9075 -11.8598 -11.8483
   -11.8252 -11.7922 -11.6878 -11.6369 -11.6267  -3.0010  -2.7811  -2.6430
    -2.4609  -2.4172  -2.2545  -2.0323  -1.9512  -1.9381  -1.8762  -1.7762
    -1.7595  -1.7266  -1.6983  -1.6541  -1.4570  -1.3278  -1.3166  -1.2389
    -1.2301  -1.1271  -1.0973  -1.0350  -1.0092  -0.9729  -0.9075  -0.8796
    -0.8484  -0.8153  -0.7982  -0.7668  -0.6920  -0.6431  -0.5645  -0.4569
    -0.4303  -0.3895  -0.2816  -0.2397  -0.1771  -0.1317  -0.0662  -0.0550
    -0.0317   0.0281   0.3318   0.4185   0.4529   0.5395   0.5878   0.6145
     0.7174   0.7366   0.8366   0.8598   0.8832   0.9971   1.0966   1.1152
     1.1412   1.1631   1.1817   1.2406   1.2698   1.2987   1.3435   1.3836
     1.4169   1.5058   1.5418   1.5743   1.6248   1.6794   1.7286   1.7517
     1.7712   1.7844   1.8881   2.0042   2.0789   2.1016   2.1655   2.2135
     2.2572   2.2648   2.3248   2.3588   2.4474   2.4807   2.5030   2.5248
     2.6240   2.6282   2.6705   2.6921   2.7256   2.7489   2.7630   2.7718
     2.7776   2.7868   2.8175   2.8199   2.8369   2.8462   2.8526   2.8727
     2.8840   2.8916   2.9115   2.9219   2.9273   2.9630   2.9787   3.0387
     3.4127   3.4556   3.6868   4.1129   4.2356   4.5330   4.8708   4.9802
     5.4994   5.6309   5.7951   5.8970   5.9428   6.0358   6.0568   6.5368
     7.0160   7.1056   7.2237   7.2463   7.3328   7.3942   7.5348   7.6550
     7.7170   7.8453   8.0555   8.2633   8.2871   8.3167   8.3585   8.4160
     8.6109   8.8056

     occupation numbers 
     1.0000   1.0000   1.0000   1.0000   1.0000   1.0000   1.0000   1.0000
     1.0000   1.0000   1.0000   1.0000   1.0000   1.0000   1.0000   1.0000
     1.0000   1.0000   1.0000   1.0000   1.0000   1.0000   1.0000   1.0000
     1.0000   1.0000   1.0000   1.0000   1.0000   1.0000   1.0000   1.0000
     1.0000   1.0000   1.0000   1.0000   1.0000   1.0000   1.0000   1.0000
     1.0000   1.0000   1.0000   1.0000   1.0000   1.0000   1.0000   1.0000
     1.0000   1.0000   1.0000   1.0000   1.0000   1.0000   1.0000   1.0000
     1.0000   1.0000   1.0000   1.0000   1.0000   1.0000   1.0000   1.0000
     1.0000   1.0000   1.0000   1.0000   1.0000   1.0000   1.0000   1.0000
     1.0000   1.0000   1.0000   1.0000   1.0000   1.0000   1.0000   1.0000
     1.0000   1.0000   1.0000   1.0000   1.0000   1.0000   1.0000   1.0000
     1.0000   1.0000   1.0000   1.0000   1.0000   1.0000   1.0000   1.0000
     1.0000   1.0000   1.0000   1.0000   1.0000   1.0000   1.0000   1.0000
     1.0000   1.0000   1.0000   1.0000   1.0000   1.0000   1.0000   1.0000
     1.0000   1.0000   1.0000   1.0000   1.0000   1.0000   1.0000   1.0000
     1.0000   1.0000   1.0000   1.0000   1.0000   1.0000   1.0000   1.0000
     1.0000   1.0000   1.0000   1.0000   1.0000   1.0000   1.0000   1.0000
     1.0000   1.0000   1.0000   1.0000   1.0000   1.0000   1.0000   1.0000
     1.0000   1.0000   1.0000   1.0000   1.0000   1.0000   1.0000   1.0000
     1.0000   1.0000   1.0000   1.0000   1.0000   0.9999   0.9999   0.9999
     0.9998   0.9998   0.9997   0.9996   0.9996   0.9992   0.9987   0.9986
     0.9984   0.9982   0.9981   0.9975   0.9971   0.9967   0.9960   0.9952
     0.9945   0.9920   0.9908   0.9895   0.9872   0.9843   0.9812   0.9796
     0.9781   0.9770   0.9673   0.9525   0.9405   0.9364   0.9237   0.9129
     0.9022   0.9002   0.8837   0.8735   0.8441   0.8320   0.8235   0.8150
     0.7731   0.7712   0.7518   0.7415   0.7252   0.7135   0.7064   0.7019
     0.6988   0.6941   0.6779   0.6766   0.6675   0.6625   0.6590   0.6480
     0.6418   0.6375   0.6264   0.6206   0.6175   0.5971   0.5880   0.5531
     0.3366   0.3136   0.2036   0.0719   0.0501   0.0185   0.0048   0.0030
     0.0002   0.0001   0.0000   0.0000   0.0000   0.0000   0.0000   0.0000
     0.0000   0.0000   0.0000   0.0000   0.0000   0.0000   0.0000   0.0000
     0.0000   0.0000   0.0000   0.0000   0.0000   0.0000   0.0000   0.0000
     0.0000   0.0000

          k = 0.0000-0.5000 0.0000 ( 65180 PWs)   bands (ev):

   -92.9002 -92.8512 -92.7547 -92.7091 -92.6502 -92.6070 -92.5894 -92.4702
   -56.2538 -56.2379 -56.1114 -56.1006 -56.0957 -56.0875 -56.0538 -56.0234
   -56.0083 -56.0069 -56.0017 -55.9566 -55.9399 -55.9009 -55.8816 -55.8505
   -55.8444 -55.7959 -55.7946 -55.7917 -55.7833 -55.7452 -55.7194 -55.6354
   -31.4627 -31.4434 -31.3009 -31.2531 -31.2148 -31.1098 -30.9151 -30.7375
   -30.0426 -30.0017 -29.9756 -29.8669 -15.2028 -15.1550 -15.0973 -14.9703
   -14.8856 -14.7541 -14.5826 -14.4748 -14.3512 -14.2670 -14.2340 -14.2234
   -14.1761 -14.1631 -14.1077 -14.0844 -14.0651 -14.0336 -13.9871 -13.9273
   -13.7767 -13.7174 -13.6762 -13.6492 -13.5583 -13.5490 -13.4691 -13.4677
   -13.4328 -13.4016 -13.2956 -13.2811 -13.2160 -13.1536 -13.1404 -13.1136
   -13.0761 -13.0681 -13.0399 -13.0144 -12.8930 -12.8638 -12.8388 -12.7274
   -12.7019 -12.6978 -12.6496 -12.6163 -12.5091 -12.4830 -12.2913 -12.2362
   -11.9860 -11.9772 -11.9725 -11.9442 -11.9094 -11.8746 -11.8632 -11.8228
   -11.8185 -11.7746 -11.7088 -11.6971 -11.6836  -2.7861  -2.7276  -2.5780
    -2.5066  -2.2217  -2.1394  -2.0117  -1.8774  -1.8334  -1.8191  -1.7411
    -1.7101  -1.6252  -1.5912  -1.5113  -1.4740  -1.4377  -1.4099  -1.3473
    -1.3113  -1.2655  -1.2290  -1.1956  -1.1644  -1.0526  -1.0097  -0.9709
    -0.9648  -0.8819  -0.8526  -0.8307  -0.7796  -0.6919  -0.6196  -0.5274
    -0.4899  -0.3941  -0.3597  -0.2247  -0.1666  -0.1519  -0.0941   0.0310
     0.0850   0.1961   0.2689   0.2785   0.4015   0.4677   0.5743   0.6824
     0.7895   0.8215   0.8637   0.8767   0.9102   0.9232   0.9570   0.9742
     0.9901   1.0956   1.1594   1.1947   1.2161   1.4911   1.5124   1.5354
     1.6324   1.6529   1.6830   1.6987   1.7181   1.7466   1.7559   1.7755
     1.8119   1.8455   1.8756   1.8784   1.9075   1.9591   2.0519   2.0866
     2.2569   2.4049   2.4147   2.4394   2.4638   2.4760   2.4858   2.5286
     2.5426   2.5497   2.6028   2.6117   2.6269   2.6347   2.7024   2.7265
     2.7884   2.7915   2.8166   2.8198   2.8336   2.8386   2.8467   2.8487
     2.8505   2.8668   2.8803   2.8858   2.9490   2.9507   2.9680   3.0231
     3.9415   3.9605   3.9968   4.0788   4.5498   4.7190   4.8901   4.9949
     5.2690   5.3503   5.4804   5.5790   5.8448   5.8597   6.2836   6.7590
     6.7774   6.8852   7.1254   7.3034   7.5556   7.6465   7.6980   7.7455
     7.7754   7.8548   8.0877   8.2241   8.3234   8.3362   8.5059   8.6282
     8.6754   8.7254

     occupation numbers 
     1.0000   1.0000   1.0000   1.0000   1.0000   1.0000   1.0000   1.0000
     1.0000   1.0000   1.0000   1.0000   1.0000   1.0000   1.0000   1.0000
     1.0000   1.0000   1.0000   1.0000   1.0000   1.0000   1.0000   1.0000
     1.0000   1.0000   1.0000   1.0000   1.0000   1.0000   1.0000   1.0000
     1.0000   1.0000   1.0000   1.0000   1.0000   1.0000   1.0000   1.0000
     1.0000   1.0000   1.0000   1.0000   1.0000   1.0000   1.0000   1.0000
     1.0000   1.0000   1.0000   1.0000   1.0000   1.0000   1.0000   1.0000
     1.0000   1.0000   1.0000   1.0000   1.0000   1.0000   1.0000   1.0000
     1.0000   1.0000   1.0000   1.0000   1.0000   1.0000   1.0000   1.0000
     1.0000   1.0000   1.0000   1.0000   1.0000   1.0000   1.0000   1.0000
     1.0000   1.0000   1.0000   1.0000   1.0000   1.0000   1.0000   1.0000
     1.0000   1.0000   1.0000   1.0000   1.0000   1.0000   1.0000   1.0000
     1.0000   1.0000   1.0000   1.0000   1.0000   1.0000   1.0000   1.0000
     1.0000   1.0000   1.0000   1.0000   1.0000   1.0000   1.0000   1.0000
     1.0000   1.0000   1.0000   1.0000   1.0000   1.0000   1.0000   1.0000
     1.0000   1.0000   1.0000   1.0000   1.0000   1.0000   1.0000   1.0000
     1.0000   1.0000   1.0000   1.0000   1.0000   1.0000   1.0000   1.0000
     1.0000   1.0000   1.0000   1.0000   1.0000   1.0000   1.0000   1.0000
     1.0000   1.0000   1.0000   1.0000   1.0000   1.0000   1.0000   1.0000
     1.0000   1.0000   1.0000   1.0000   1.0000   1.0000   0.9999   0.9999
     0.9997   0.9997   0.9996   0.9996   0.9995   0.9995   0.9994   0.9993
     0.9993   0.9987   0.9983   0.9980   0.9977   0.9925   0.9918   0.9910
     0.9868   0.9858   0.9841   0.9831   0.9819   0.9799   0.9792   0.9777
     0.9747   0.9716   0.9686   0.9683   0.9651   0.9588   0.9451   0.9391
     0.9022   0.8587   0.8554   0.8469   0.8382   0.8337   0.8301   0.8135
     0.8079   0.8050   0.7825   0.7786   0.7718   0.7683   0.7366   0.7247
     0.6933   0.6916   0.6784   0.6767   0.6693   0.6666   0.6622   0.6612
     0.6601   0.6512   0.6438   0.6408   0.6051   0.6042   0.5942   0.5622
     0.1137   0.1084   0.0987   0.0791   0.0174   0.0091   0.0045   0.0028
     0.0007   0.0005   0.0002   0.0001   0.0000   0.0000   0.0000   0.0000
     0.0000   0.0000   0.0000   0.0000   0.0000   0.0000   0.0000   0.0000
     0.0000   0.0000   0.0000   0.0000   0.0000   0.0000   0.0000   0.0000
     0.0000   0.0000

          k = 0.2500 0.2500 0.0000 ( 65198 PWs)   bands (ev):

   -92.9002 -92.8512 -92.7547 -92.7091 -92.6502 -92.6070 -92.5894 -92.4702
   -56.2538 -56.2379 -56.1114 -56.1006 -56.0957 -56.0875 -56.0538 -56.0234
   -56.0083 -56.0069 -56.0017 -55.9566 -55.9399 -55.9009 -55.8816 -55.8505
   -55.8444 -55.7959 -55.7946 -55.7917 -55.7833 -55.7452 -55.7194 -55.6354
   -31.4612 -31.4452 -31.3003 -31.2529 -31.2150 -31.1102 -30.9148 -30.7376
   -30.0422 -30.0030 -29.9746 -29.8670 -15.2108 -15.1676 -15.0952 -14.9800
   -14.8537 -14.7297 -14.6626 -14.4498 -14.3006 -14.2866 -14.2478 -14.2225
   -14.1948 -14.1671 -14.1331 -14.0818 -14.0310 -14.0144 -13.8526 -13.8385
   -13.8074 -13.7904 -13.7199 -13.7005 -13.6153 -13.5969 -13.4592 -13.4293
   -13.4081 -13.3281 -13.2871 -13.2381 -13.2052 -13.1924 -13.1547 -13.1323
   -13.1014 -13.0545 -13.0117 -12.9699 -12.9312 -12.9005 -12.8731 -12.8286
   -12.7890 -12.6536 -12.6387 -12.5842 -12.5308 -12.4632 -12.2487 -12.1785
   -11.9956 -11.9833 -11.9639 -11.9511 -11.9444 -11.8833 -11.8478 -11.8417
   -11.8059 -11.7967 -11.7049 -11.6654 -11.6479  -2.8626  -2.6553  -2.5368
    -2.4411  -2.3221  -2.2580  -2.0567  -1.9154  -1.8971  -1.8637  -1.7710
    -1.7372  -1.6420  -1.6143  -1.5633  -1.4341  -1.3848  -1.3099  -1.2670
    -1.2216  -1.1993  -1.1762  -1.1311  -1.1180  -1.0265  -0.9760  -0.9052
    -0.8593  -0.8293  -0.7821  -0.7645  -0.7024  -0.6537  -0.5877  -0.5608
    -0.4685  -0.4213  -0.3892  -0.3545  -0.2989  -0.2138  -0.1874  -0.1547
    -0.0775  -0.0420   0.2194   0.3709   0.4003   0.4642   0.5046   0.5778
     0.6155   0.6855   0.7162   0.9880   1.0492   1.1218   1.1461   1.2017
     1.2255   1.2625   1.3003   1.3162   1.3433   1.3937   1.4009   1.4170
     1.4635   1.5005   1.5390   1.6029   1.6453   1.6518   1.6914   1.7175
     1.7783   1.8017   1.9262   1.9869   2.0200   2.0391   2.1163   2.1783
     2.2033   2.2376   2.2667   2.2759   2.3902   2.4260   2.5113   2.5214
     2.6215   2.6288   2.6813   2.6985   2.7031   2.7209   2.7356   2.7498
     2.7607   2.7663   2.7792   2.7922   2.8066   2.8222   2.8306   2.8402
     2.8648   2.8741   2.8833   2.9148   3.2137   3.3076   3.3573   3.4299
     3.4485   3.6711   3.7576   4.1175   4.3271   4.5407   4.7922   5.1192
     5.4860   5.5482   5.5962   5.6436   5.7061   6.0806   6.1425   6.1778
     6.8261   7.0988   7.2494   7.3929   7.4402   7.4710   7.5796   7.7475
     7.8753   8.1149   8.1964   8.2282   8.3132   8.3681   8.4415   8.4871
     8.5543   8.6874

     occupation numbers 
     1.0000   1.0000   1.0000   1.0000   1.0000   1.0000   1.0000   1.0000
     1.0000   1.0000   1.0000   1.0000   1.0000   1.0000   1.0000   1.0000
     1.0000   1.0000   1.0000   1.0000   1.0000   1.0000   1.0000   1.0000
     1.0000   1.0000   1.0000   1.0000   1.0000   1.0000   1.0000   1.0000
     1.0000   1.0000   1.0000   1.0000   1.0000   1.0000   1.0000   1.0000
     1.0000   1.0000   1.0000   1.0000   1.0000   1.0000   1.0000   1.0000
     1.0000   1.0000   1.0000   1.0000   1.0000   1.0000   1.0000   1.0000
     1.0000   1.0000   1.0000   1.0000   1.0000   1.0000   1.0000   1.0000
     1.0000   1.0000   1.0000   1.0000   1.0000   1.0000   1.0000   1.0000
     1.0000   1.0000   1.0000   1.0000   1.0000   1.0000   1.0000   1.0000
     1.0000   1.0000   1.0000   1.0000   1.0000   1.0000   1.0000   1.0000
     1.0000   1.0000   1.0000   1.0000   1.0000   1.0000   1.0000   1.0000
     1.0000   1.0000   1.0000   1.0000   1.0000   1.0000   1.0000   1.0000
     1.0000   1.0000   1.0000   1.0000   1.0000   1.0000   1.0000   1.0000
     1.0000   1.0000   1.0000   1.0000   1.0000   1.0000   1.0000   1.0000
     1.0000   1.0000   1.0000   1.0000   1.0000   1.0000   1.0000   1.0000
     1.0000   1.0000   1.0000   1.0000   1.0000   1.0000   1.0000   1.0000
     1.0000   1.0000   1.0000   1.0000   1.0000   1.0000   1.0000   1.0000
     1.0000   1.0000   1.0000   1.0000   1.0000   1.0000   1.0000   1.0000
     1.0000   1.0000   1.0000   1.0000   1.0000   1.0000   1.0000   0.9999
     0.9999   0.9999   0.9998   0.9993   0.9990   0.9986   0.9984   0.9979
     0.9976   0.9972   0.9967   0.9964   0.9960   0.9950   0.9948   0.9945
     0.9933   0.9922   0.9909   0.9883   0.9862   0.9858   0.9836   0.9819
     0.9775   0.9756   0.9629   0.9550   0.9501   0.9471   0.9336   0.9209
     0.9153   0.9071   0.8997   0.8973   0.8636   0.8516   0.8203   0.8164
     0.7742   0.7710   0.7467   0.7385   0.7363   0.7275   0.7202   0.7131
     0.7075   0.7047   0.6980   0.6913   0.6837   0.6754   0.6709   0.6657
     0.6523   0.6472   0.6422   0.6245   0.4497   0.3952   0.3671   0.3273
     0.3174   0.2102   0.1751   0.0710   0.0376   0.0180   0.0068   0.0016
     0.0002   0.0002   0.0001   0.0001   0.0001   0.0000   0.0000   0.0000
     0.0000   0.0000   0.0000   0.0000   0.0000   0.0000   0.0000   0.0000
     0.0000   0.0000   0.0000   0.0000   0.0000   0.0000   0.0000   0.0000
     0.0000   0.0000

          k = 0.2500-0.5000 0.0000 ( 65138 PWs)   bands (ev):

   -92.9002 -92.8512 -92.7547 -92.7091 -92.6502 -92.6070 -92.5894 -92.4702
   -56.2538 -56.2379 -56.1114 -56.1006 -56.0957 -56.0875 -56.0538 -56.0234
   -56.0083 -56.0069 -56.0017 -55.9566 -55.9399 -55.9009 -55.8816 -55.8505
   -55.8444 -55.7959 -55.7946 -55.7917 -55.7833 -55.7452 -55.7194 -55.6354
   -31.4610 -31.4451 -31.3005 -31.2529 -31.2151 -31.1100 -30.9150 -30.7377
   -30.0415 -30.0027 -29.9752 -29.8673 -15.1721 -15.1283 -15.0548 -14.9430
   -14.9062 -14.7940 -14.6884 -14.5696 -14.2654 -14.2069 -14.1862 -14.1591
   -14.1464 -14.1341 -14.0907 -14.0719 -14.0479 -14.0103 -13.9817 -13.9174
   -13.8574 -13.8089 -13.7344 -13.7278 -13.6566 -13.6068 -13.5071 -13.4743
   -13.3933 -13.3273 -13.3078 -13.2228 -13.1831 -13.1744 -13.1581 -13.1293
   -13.0981 -13.0517 -13.0269 -12.9933 -12.8709 -12.8419 -12.8110 -12.7871
   -12.7759 -12.7082 -12.6542 -12.5439 -12.5065 -12.4181 -12.2854 -12.2499
   -11.9852 -11.9697 -11.9579 -11.9467 -11.9194 -11.8892 -11.8594 -11.8199
   -11.7924 -11.7706 -11.7225 -11.6979 -11.6879  -2.6437  -2.5790  -2.4517
    -2.3751  -2.2421  -2.1590  -2.0361  -1.8879  -1.8303  -1.8106  -1.7491
    -1.7359  -1.6356  -1.5713  -1.4874  -1.4339  -1.4254  -1.3644  -1.3187
    -1.2867  -1.2378  -1.2008  -1.1657  -1.1277  -1.1107  -1.0696  -1.0401
    -0.9959  -0.9656  -0.8994  -0.7940  -0.7556  -0.6765  -0.6102  -0.5547
    -0.5171  -0.5014  -0.4361  -0.2820  -0.2733  -0.1561  -0.1361  -0.1247
    -0.0813  -0.0444  -0.0088   0.0194   0.0813   0.3739   0.4647   0.5419
     0.5877   0.8555   0.8716   0.9587   0.9881   1.1473   1.1845   1.2224
     1.2455   1.2565   1.2789   1.3450   1.3963   1.4285   1.5077   1.6085
     1.6432   1.6588   1.6710   1.7072   1.7169   1.7287   1.7721   1.7819
     1.8024   1.8412   1.8505   1.8689   1.9049   1.9601   2.0054   2.0865
     2.2184   2.3584   2.3764   2.3948   2.4233   2.4444   2.4695   2.4915
     2.5085   2.5188   2.5477   2.6123   2.6250   2.6381   2.6822   2.7003
     2.7118   2.7184   2.7370   2.7507   2.7708   2.7769   2.8179   2.8279
     2.8380   2.8451   2.8565   2.8645   3.3907   3.4078   3.5453   3.5997
     3.9451   4.0002   4.0037   4.1308   4.5682   4.7394   4.9084   4.9551
     5.1181   5.2924   5.4934   5.5243   5.6131   5.6625   6.3260   6.3895
     6.4425   6.8639   7.2233   7.5704   7.6540   7.7060   7.7679   7.8303
     7.9083   8.0436   8.2235   8.2531   8.3851   8.4073   8.5393   8.5783
     8.6236   8.7613

     occupation numbers 
     1.0000   1.0000   1.0000   1.0000   1.0000   1.0000   1.0000   1.0000
     1.0000   1.0000   1.0000   1.0000   1.0000   1.0000   1.0000   1.0000
     1.0000   1.0000   1.0000   1.0000   1.0000   1.0000   1.0000   1.0000
     1.0000   1.0000   1.0000   1.0000   1.0000   1.0000   1.0000   1.0000
     1.0000   1.0000   1.0000   1.0000   1.0000   1.0000   1.0000   1.0000
     1.0000   1.0000   1.0000   1.0000   1.0000   1.0000   1.0000   1.0000
     1.0000   1.0000   1.0000   1.0000   1.0000   1.0000   1.0000   1.0000
     1.0000   1.0000   1.0000   1.0000   1.0000   1.0000   1.0000   1.0000
     1.0000   1.0000   1.0000   1.0000   1.0000   1.0000   1.0000   1.0000
     1.0000   1.0000   1.0000   1.0000   1.0000   1.0000   1.0000   1.0000
     1.0000   1.0000   1.0000   1.0000   1.0000   1.0000   1.0000   1.0000
     1.0000   1.0000   1.0000   1.0000   1.0000   1.0000   1.0000   1.0000
     1.0000   1.0000   1.0000   1.0000   1.0000   1.0000   1.0000   1.0000
     1.0000   1.0000   1.0000   1.0000   1.0000   1.0000   1.0000   1.0000
     1.0000   1.0000   1.0000   1.0000   1.0000   1.0000   1.0000   1.0000
     1.0000   1.0000   1.0000   1.0000   1.0000   1.0000   1.0000   1.0000
     1.0000   1.0000   1.0000   1.0000   1.0000   1.0000   1.0000   1.0000
     1.0000   1.0000   1.0000   1.0000   1.0000   1.0000   1.0000   1.0000
     1.0000   1.0000   1.0000   1.0000   1.0000   1.0000   1.0000   1.0000
     1.0000   1.0000   1.0000   1.0000   1.0000   1.0000   1.0000   0.9999
     0.9999   0.9996   0.9996   0.9994   0.9993   0.9984   0.9981   0.9977
     0.9974   0.9973   0.9970   0.9960   0.9949   0.9942   0.9920   0.9880
     0.9863   0.9855   0.9848   0.9826   0.9820   0.9812   0.9780   0.9772
     0.9755   0.9720   0.9711   0.9693   0.9654   0.9586   0.9523   0.9391
     0.9117   0.8736   0.8680   0.8620   0.8525   0.8452   0.8361   0.8279
     0.8214   0.8174   0.8058   0.7783   0.7727   0.7668   0.7463   0.7376
     0.7320   0.7288   0.7195   0.7126   0.7024   0.6992   0.6777   0.6724
     0.6669   0.6631   0.6569   0.6525   0.3485   0.3392   0.2680   0.2421
     0.1127   0.0978   0.0969   0.0684   0.0163   0.0084   0.0041   0.0033
     0.0016   0.0007   0.0002   0.0002   0.0001   0.0001   0.0000   0.0000
     0.0000   0.0000   0.0000   0.0000   0.0000   0.0000   0.0000   0.0000
     0.0000   0.0000   0.0000   0.0000   0.0000   0.0000   0.0000   0.0000
     0.0000   0.0000

          k =-0.5000-0.5000 0.0000 ( 65132 PWs)   bands (ev):

   -92.9002 -92.8512 -92.7547 -92.7091 -92.6502 -92.6070 -92.5894 -92.4702
   -56.2538 -56.2379 -56.1114 -56.1006 -56.0957 -56.0875 -56.0538 -56.0234
   -56.0083 -56.0069 -56.0017 -55.9566 -55.9399 -55.9009 -55.8816 -55.8505
   -55.8444 -55.7959 -55.7946 -55.7917 -55.7833 -55.7452 -55.7194 -55.6354
   -31.4588 -31.4473 -31.3001 -31.2527 -31.2155 -31.1102 -30.9148 -30.7379
   -30.0405 -30.0038 -29.9748 -29.8678 -15.1254 -15.1010 -14.9846 -14.9684
   -14.8657 -14.8415 -14.7948 -14.6673 -14.1764 -14.1637 -14.1332 -14.1104
   -14.0934 -14.0678 -14.0546 -14.0409 -14.0180 -14.0140 -13.9994 -13.9228
   -13.9164 -13.8681 -13.8509 -13.8174 -13.7434 -13.6685 -13.5404 -13.5102
   -13.3445 -13.3052 -13.2346 -13.2114 -13.1754 -13.1703 -13.1608 -13.1532
   -13.1421 -13.0505 -12.9853 -12.9732 -12.8760 -12.8507 -12.8206 -12.7920
   -12.7833 -12.7252 -12.6602 -12.5042 -12.4954 -12.3603 -12.2800 -12.2716
   -11.9844 -11.9666 -11.9543 -11.9363 -11.9196 -11.8845 -11.8692 -11.8306
   -11.7724 -11.7525 -11.7459 -11.6960 -11.6933  -2.4175  -2.3445  -2.3350
    -2.2620  -2.2248  -2.1463  -2.0783  -1.9511  -1.8381  -1.8084  -1.7660
    -1.7118  -1.6396  -1.6223  -1.5551  -1.5111  -1.3924  -1.3621  -1.3131
    -1.2893  -1.2246  -1.1757  -1.1580  -1.1456  -1.0879  -1.0493  -1.0282
    -0.9181  -0.8626  -0.8153  -0.7656  -0.7333  -0.7183  -0.6864  -0.6442
    -0.6040  -0.5984  -0.5138  -0.4474  -0.4058  -0.3741  -0.3048  -0.2377
    -0.2297  -0.1700  -0.1368  -0.1266  -0.1138   0.3497   0.3890   0.4909
     0.5067   0.8802   0.8968   0.9324   0.9655   1.2356   1.2549   1.2598
     1.3014   1.4252   1.5156   1.5454   1.5814   1.6163   1.6327   1.6390
     1.6703   1.6873   1.7085   1.7103   1.7564   1.7580   1.7891   1.8144
     1.8284   1.8447   1.8814   1.9046   1.9204   1.9494   1.9855   2.0396
     2.1073   2.3697   2.4020   2.4196   2.4392   2.4509   2.4661   2.4835
     2.5052   2.5084   2.5306   2.5413   2.5585   2.5656   2.6140   2.6232
     2.6337   2.6343   2.6612   2.6706   2.6901   2.7065   2.7097   2.7231
     2.8250   2.8307   2.8521   2.8637   3.8284   3.8543   3.8724   3.9009
     4.1224   4.1979   4.2206   4.4618   4.5840   4.6661   4.8000   4.9085
     4.9149   5.0123   5.1507   5.2611   5.7959   5.8316   5.8852   6.0084
     6.6331   6.8131   7.0169   7.6871   7.8233   7.8371   7.9164   8.0657
     8.1463   8.1732   8.2129   8.3416   8.4187   8.4361   8.4516   8.4784
     8.5242   8.6074

     occupation numbers 
     1.0000   1.0000   1.0000   1.0000   1.0000   1.0000   1.0000   1.0000
     1.0000   1.0000   1.0000   1.0000   1.0000   1.0000   1.0000   1.0000
     1.0000   1.0000   1.0000   1.0000   1.0000   1.0000   1.0000   1.0000
     1.0000   1.0000   1.0000   1.0000   1.0000   1.0000   1.0000   1.0000
     1.0000   1.0000   1.0000   1.0000   1.0000   1.0000   1.0000   1.0000
     1.0000   1.0000   1.0000   1.0000   1.0000   1.0000   1.0000   1.0000
     1.0000   1.0000   1.0000   1.0000   1.0000   1.0000   1.0000   1.0000
     1.0000   1.0000   1.0000   1.0000   1.0000   1.0000   1.0000   1.0000
     1.0000   1.0000   1.0000   1.0000   1.0000   1.0000   1.0000   1.0000
     1.0000   1.0000   1.0000   1.0000   1.0000   1.0000   1.0000   1.0000
     1.0000   1.0000   1.0000   1.0000   1.0000   1.0000   1.0000   1.0000
     1.0000   1.0000   1.0000   1.0000   1.0000   1.0000   1.0000   1.0000
     1.0000   1.0000   1.0000   1.0000   1.0000   1.0000   1.0000   1.0000
     1.0000   1.0000   1.0000   1.0000   1.0000   1.0000   1.0000   1.0000
     1.0000   1.0000   1.0000   1.0000   1.0000   1.0000   1.0000   1.0000
     1.0000   1.0000   1.0000   1.0000   1.0000   1.0000   1.0000   1.0000
     1.0000   1.0000   1.0000   1.0000   1.0000   1.0000   1.0000   1.0000
     1.0000   1.0000   1.0000   1.0000   1.0000   1.0000   1.0000   1.0000
     1.0000   1.0000   1.0000   1.0000   1.0000   1.0000   1.0000   1.0000
     1.0000   1.0000   1.0000   1.0000   1.0000   1.0000   1.0000   1.0000
     1.0000   0.9996   0.9995   0.9994   0.9993   0.9975   0.9973   0.9972
     0.9967   0.9943   0.9917   0.9906   0.9892   0.9876   0.9868   0.9865
     0.9848   0.9838   0.9825   0.9824   0.9792   0.9791   0.9767   0.9745
     0.9732   0.9717   0.9680   0.9654   0.9636   0.9600   0.9552   0.9471
     0.9353   0.8701   0.8597   0.8538   0.8470   0.8429   0.8374   0.8309
     0.8227   0.8214   0.8127   0.8084   0.8014   0.7984   0.7776   0.7735
     0.7688   0.7685   0.7562   0.7517   0.7425   0.7346   0.7330   0.7264
     0.6739   0.6709   0.6593   0.6529   0.1494   0.1406   0.1347   0.1257
     0.0700   0.0562   0.0524   0.0239   0.0153   0.0112   0.0065   0.0041
     0.0040   0.0026   0.0013   0.0008   0.0000   0.0000   0.0000   0.0000
     0.0000   0.0000   0.0000   0.0000   0.0000   0.0000   0.0000   0.0000
     0.0000   0.0000   0.0000   0.0000   0.0000   0.0000   0.0000   0.0000
     0.0000   0.0000

          k = 0.2500 0.0000 0.0000 ( 65257 PWs)   bands (ev):

   -92.9002 -92.8512 -92.7547 -92.7091 -92.6502 -92.6070 -92.5894 -92.4702
   -56.2538 -56.2379 -56.1114 -56.1006 -56.0957 -56.0875 -56.0538 -56.0234
   -56.0083 -56.0069 -56.0017 -55.9566 -55.9399 -55.9009 -55.8816 -55.8505
   -55.8444 -55.7959 -55.7946 -55.7917 -55.7833 -55.7452 -55.7194 -55.6354
   -31.4614 -31.4454 -31.3001 -31.2530 -31.2149 -31.1103 -30.9146 -30.7375
   -30.0428 -30.0033 -29.9740 -29.8667 -15.2435 -15.1973 -15.1291 -14.9833
   -14.8683 -14.6785 -14.5463 -14.3667 -14.3502 -14.3185 -14.2846 -14.2632
   -14.2274 -14.2107 -14.1855 -14.1265 -14.0314 -13.9981 -13.8509 -13.7768
   -13.7658 -13.6982 -13.6842 -13.6689 -13.5917 -13.5335 -13.4961 -13.3956
   -13.3445 -13.3310 -13.2462 -13.2337 -13.2214 -13.2069 -13.1856 -13.1535
   -13.1176 -13.0572 -13.0062 -12.9712 -12.9567 -12.9418 -12.8928 -12.8814
   -12.8573 -12.6587 -12.6321 -12.5926 -12.5635 -12.4352 -12.2093 -12.1504
   -12.0222 -11.9831 -11.9696 -11.9529 -11.9401 -11.9131 -11.8620 -11.8391
   -11.8304 -11.7785 -11.6900 -11.6355 -11.6296  -3.0006  -2.7802  -2.6497
    -2.4767  -2.4130  -2.2448  -2.0332  -1.9601  -1.9168  -1.8777  -1.7784
    -1.7641  -1.7290  -1.7097  -1.6397  -1.4604  -1.3495  -1.3125  -1.2143
    -1.1986  -1.1256  -1.0986  -1.0453  -1.0053  -0.9528  -0.9188  -0.8731
    -0.8474  -0.8263  -0.7728  -0.7577  -0.6676  -0.6592  -0.5856  -0.4873
    -0.4259  -0.3201  -0.3097  -0.2331  -0.1994  -0.1482  -0.1176  -0.0831
    -0.0163   0.0263   0.3106   0.4396   0.4766   0.5601   0.5913   0.6293
     0.6409   0.7131   0.8267   0.8734   0.9009   0.9357   1.0922   1.1182
     1.1558   1.1615   1.1980   1.2473   1.2910   1.3200   1.3804   1.4264
     1.4408   1.5013   1.5517   1.5880   1.6100   1.6982   1.7033   1.7381
     1.7697   1.7915   1.9056   1.9666   2.0412   2.1090   2.1272   2.2013
[...]
     0.6339   0.6205   0.6185   0.6141   0.6100   0.6045   0.5987   0.5253
     0.3489   0.3181   0.2030   0.0761   0.0444   0.0204   0.0049   0.0029
     0.0002   0.0001   0.0000   0.0000   0.0000   0.0000   0.0000   0.0000
     0.0000   0.0000   0.0000   0.0000   0.0000   0.0000   0.0000   0.0000
     0.0000   0.0000   0.0000   0.0000   0.0000   0.0000   0.0000   0.0000
     0.0000   0.0000

          k =-0.5000 0.0000 0.0000 ( 65180 PWs)   bands (ev):

   -92.9002 -92.8512 -92.7547 -92.7091 -92.6502 -92.6070 -92.5894 -92.4702
   -56.2538 -56.2379 -56.1114 -56.1006 -56.0957 -56.0875 -56.0538 -56.0234
   -56.0083 -56.0069 -56.0017 -55.9566 -55.9399 -55.9009 -55.8816 -55.8505
   -55.8444 -55.7959 -55.7946 -55.7917 -55.7833 -55.7452 -55.7194 -55.6354
   -31.4592 -31.4476 -31.2997 -31.2528 -31.2153 -31.1105 -30.9145 -30.7377
   -30.0417 -30.0044 -29.9736 -29.8671 -15.2092 -15.1556 -15.0943 -14.9751
   -14.8827 -14.7366 -14.5921 -14.4292 -14.3262 -14.3064 -14.3023 -14.2395
   -14.1824 -14.1523 -14.1009 -14.0815 -14.0693 -14.0259 -13.9868 -13.8882
   -13.7485 -13.7058 -13.6869 -13.6789 -13.5863 -13.5555 -13.4824 -13.4517
   -13.4284 -13.3977 -13.2397 -13.2302 -13.2124 -13.1988 -13.1711 -13.1331
   -13.1127 -13.0922 -12.9533 -12.9138 -12.8867 -12.8752 -12.8484 -12.8270
   -12.8175 -12.7275 -12.6539 -12.5133 -12.5068 -12.3571 -12.3223 -12.2940
   -11.9844 -11.9735 -11.9521 -11.9447 -11.9325 -11.9136 -11.8725 -11.8087
   -11.7898 -11.7557 -11.7137 -11.7050 -11.6891  -2.7765  -2.7382  -2.5757
    -2.5360  -2.2207  -2.1448  -2.0004  -1.8815  -1.8419  -1.7952  -1.7496
    -1.7254  -1.5998  -1.5574  -1.5394  -1.4586  -1.4229  -1.4053  -1.3762
    -1.3148  -1.2488  -1.2218  -1.1857  -1.0913  -1.0492  -0.9998  -0.9666
    -0.9461  -0.9117  -0.8660  -0.8412  -0.8011  -0.6968  -0.6297  -0.5546
    -0.4953  -0.3304  -0.2930  -0.2504  -0.1967  -0.1425  -0.1359   0.0118
     0.0380   0.0868   0.2447   0.3448   0.3955   0.4955   0.5581   0.6729
     0.6854   0.8170   0.8397   0.8935   0.9327   0.9611   0.9710   1.0199
     1.0391   1.1096   1.1608   1.2063   1.2191   1.5159   1.5290   1.5502
     1.5721   1.6680   1.6831   1.7024   1.7070   1.7422   1.7476   1.7865
     1.8049   1.8353   1.8821   1.9046   1.9550   1.9801   2.0304   2.1475
     2.2435   2.3084   2.3238   2.4014   2.4287   2.4575   2.5165   2.5293
     2.5372   2.5445   2.5732   2.6221   2.6320   2.6475   2.6877   2.7433
     2.7599   2.8039   2.8095   2.8146   2.8211   2.8382   2.8494   2.8603
     2.8670   2.8882   2.8926   2.9134   2.9321   2.9373   3.0668   3.0734
     3.8852   3.9428   4.0072   4.1390   4.6010   4.6835   4.8761   4.9108
     5.3598   5.3923   5.4708   5.5104   5.8445   5.8599   6.3592   6.6116
     6.7222   6.9389   7.1890   7.2441   7.6076   7.6432   7.6623   7.7645
     7.8200   7.9964   8.0954   8.1880   8.3138   8.3522   8.4667   8.5462
     8.6232   8.7784

     occupation numbers 
     1.0000   1.0000   1.0000   1.0000   1.0000   1.0000   1.0000   1.0000
     1.0000   1.0000   1.0000   1.0000   1.0000   1.0000   1.0000   1.0000
     1.0000   1.0000   1.0000   1.0000   1.0000   1.0000   1.0000   1.0000
     1.0000   1.0000   1.0000   1.0000   1.0000   1.0000   1.0000   1.0000
     1.0000   1.0000   1.0000   1.0000   1.0000   1.0000   1.0000   1.0000
     1.0000   1.0000   1.0000   1.0000   1.0000   1.0000   1.0000   1.0000
     1.0000   1.0000   1.0000   1.0000   1.0000   1.0000   1.0000   1.0000
     1.0000   1.0000   1.0000   1.0000   1.0000   1.0000   1.0000   1.0000
     1.0000   1.0000   1.0000   1.0000   1.0000   1.0000   1.0000   1.0000
     1.0000   1.0000   1.0000   1.0000   1.0000   1.0000   1.0000   1.0000
     1.0000   1.0000   1.0000   1.0000   1.0000   1.0000   1.0000   1.0000
     1.0000   1.0000   1.0000   1.0000   1.0000   1.0000   1.0000   1.0000
     1.0000   1.0000   1.0000   1.0000   1.0000   1.0000   1.0000   1.0000
     1.0000   1.0000   1.0000   1.0000   1.0000   1.0000   1.0000   1.0000
     1.0000   1.0000   1.0000   1.0000   1.0000   1.0000   1.0000   1.0000
     1.0000   1.0000   1.0000   1.0000   1.0000   1.0000   1.0000   1.0000
     1.0000   1.0000   1.0000   1.0000   1.0000   1.0000   1.0000   1.0000
     1.0000   1.0000   1.0000   1.0000   1.0000   1.0000   1.0000   1.0000
     1.0000   1.0000   1.0000   1.0000   1.0000   1.0000   1.0000   1.0000
     1.0000   1.0000   1.0000   1.0000   1.0000   1.0000   0.9999   0.9999
     0.9999   0.9997   0.9997   0.9995   0.9994   0.9994   0.9993   0.9991
     0.9990   0.9986   0.9983   0.9978   0.9977   0.9917   0.9912   0.9905
     0.9896   0.9849   0.9841   0.9829   0.9826   0.9802   0.9798   0.9769
     0.9753   0.9726   0.9679   0.9654   0.9593   0.9559   0.9485   0.9274
     0.9056   0.8884   0.8840   0.8599   0.8507   0.8405   0.8183   0.8132
     0.8101   0.8071   0.7952   0.7740   0.7695   0.7625   0.7437   0.7163
     0.7080   0.6851   0.6822   0.6795   0.6760   0.6668   0.6607   0.6548
     0.6512   0.6395   0.6370   0.6253   0.6147   0.6118   0.5365   0.5327
     0.1306   0.1133   0.0960   0.0667   0.0144   0.0105   0.0047   0.0041
     0.0005   0.0004   0.0003   0.0002   0.0000   0.0000   0.0000   0.0000
     0.0000   0.0000   0.0000   0.0000   0.0000   0.0000   0.0000   0.0000
     0.0000   0.0000   0.0000   0.0000   0.0000   0.0000   0.0000   0.0000
     0.0000   0.0000

          k =-0.2500 0.2500 0.0000 ( 65198 PWs)   bands (ev):

   -92.9002 -92.8512 -92.7547 -92.7091 -92.6502 -92.6070 -92.5894 -92.4702
   -56.2538 -56.2379 -56.1114 -56.1006 -56.0957 -56.0875 -56.0538 -56.0234
   -56.0083 -56.0069 -56.0017 -55.9566 -55.9399 -55.9009 -55.8816 -55.8505
   -55.8444 -55.7959 -55.7946 -55.7917 -55.7833 -55.7452 -55.7194 -55.6354
   -31.4612 -31.4452 -31.3003 -31.2529 -31.2150 -31.1102 -30.9148 -30.7376
   -30.0422 -30.0030 -29.9746 -29.8670 -15.2120 -15.1662 -15.0943 -14.9783
   -14.8591 -14.7353 -14.6540 -14.4409 -14.3064 -14.2788 -14.2619 -14.2162
   -14.1929 -14.1659 -14.1411 -14.0919 -14.0254 -14.0149 -13.8621 -13.8355
   -13.8041 -13.7849 -13.7194 -13.6891 -13.6232 -13.6015 -13.4661 -13.4157
   -13.3981 -13.3323 -13.2889 -13.2267 -13.2014 -13.1797 -13.1653 -13.1294
   -13.1124 -13.0586 -13.0144 -12.9775 -12.9571 -12.8809 -12.8666 -12.8205
   -12.8065 -12.6583 -12.6287 -12.6206 -12.4788 -12.4688 -12.2289 -12.2046
   -11.9944 -11.9842 -11.9715 -11.9454 -11.9328 -11.8926 -11.8576 -11.8352
   -11.8120 -11.7900 -11.7046 -11.6609 -11.6510  -2.8609  -2.6541  -2.5327
    -2.4428  -2.3264  -2.2608  -2.0543  -1.9124  -1.8947  -1.8618  -1.7716
    -1.7361  -1.6416  -1.6069  -1.5813  -1.4396  -1.3827  -1.3136  -1.2862
    -1.2243  -1.2053  -1.1650  -1.1369  -1.0964  -1.0331  -0.9833  -0.9177
    -0.8502  -0.8249  -0.7764  -0.7474  -0.6996  -0.6426  -0.5904  -0.5561
    -0.4490  -0.4236  -0.4066  -0.3651  -0.3009  -0.2209  -0.1842  -0.1451
    -0.0732  -0.0439   0.1994   0.3734   0.4078   0.4516   0.5138   0.5743
     0.6242   0.6853   0.7179   0.9966   1.0979   1.1400   1.1719   1.1824
     1.2211   1.2359   1.2812   1.3136   1.3257   1.3505   1.4014   1.4179
     1.4569   1.4810   1.5254   1.6218   1.6319   1.6517   1.6911   1.7170
     1.7587   1.8115   1.9148   2.0179   2.0410   2.0902   2.1122   2.1751
     2.2144   2.2403   2.2668   2.2883   2.3907   2.4255   2.5047   2.5260
     2.6213   2.6290   2.6886   2.6956   2.7106   2.7184   2.7312   2.7448
     2.7516   2.7707   2.7793   2.7915   2.8014   2.8129   2.8228   2.8343
     2.8661   2.8754   2.8831   2.9161   3.2072   3.2891   3.3598   3.4386
     3.4524   3.6565   3.7663   4.1168   4.3242   4.5422   4.8019   5.1193
     5.4876   5.5451   5.5999   5.6392   5.7069   6.0953   6.1288   6.1762
     6.8271   7.0870   7.2618   7.3912   7.4520   7.4742   7.5558   7.7578
     7.8884   8.0995   8.1885   8.2008   8.3144   8.4185   8.4629   8.4780
     8.5421   8.6897

     occupation numbers 
     1.0000   1.0000   1.0000   1.0000   1.0000   1.0000   1.0000   1.0000
     1.0000   1.0000   1.0000   1.0000   1.0000   1.0000   1.0000   1.0000
     1.0000   1.0000   1.0000   1.0000   1.0000   1.0000   1.0000   1.0000
     1.0000   1.0000   1.0000   1.0000   1.0000   1.0000   1.0000   1.0000
     1.0000   1.0000   1.0000   1.0000   1.0000   1.0000   1.0000   1.0000
     1.0000   1.0000   1.0000   1.0000   1.0000   1.0000   1.0000   1.0000
     1.0000   1.0000   1.0000   1.0000   1.0000   1.0000   1.0000   1.0000
     1.0000   1.0000   1.0000   1.0000   1.0000   1.0000   1.0000   1.0000
     1.0000   1.0000   1.0000   1.0000   1.0000   1.0000   1.0000   1.0000
     1.0000   1.0000   1.0000   1.0000   1.0000   1.0000   1.0000   1.0000
     1.0000   1.0000   1.0000   1.0000   1.0000   1.0000   1.0000   1.0000
     1.0000   1.0000   1.0000   1.0000   1.0000   1.0000   1.0000   1.0000
     1.0000   1.0000   1.0000   1.0000   1.0000   1.0000   1.0000   1.0000
     1.0000   1.0000   1.0000   1.0000   1.0000   1.0000   1.0000   1.0000
     1.0000   1.0000   1.0000   1.0000   1.0000   1.0000   1.0000   1.0000
     1.0000   1.0000   1.0000   1.0000   1.0000   1.0000   1.0000   1.0000
     1.0000   1.0000   1.0000   1.0000   1.0000   1.0000   1.0000   1.0000
     1.0000   1.0000   1.0000   1.0000   1.0000   1.0000   1.0000   1.0000
     1.0000   1.0000   1.0000   1.0000   1.0000   1.0000   1.0000   1.0000
     1.0000   1.0000   1.0000   1.0000   1.0000   1.0000   0.9999   0.9999
     0.9999   0.9999   0.9998   0.9992   0.9987   0.9984   0.9982   0.9981
     0.9977   0.9975   0.9970   0.9965   0.9963   0.9959   0.9948   0.9945
     0.9935   0.9928   0.9914   0.9874   0.9869   0.9858   0.9836   0.9820
     0.9790   0.9747   0.9642   0.9505   0.9468   0.9384   0.9344   0.9216
     0.9127   0.9064   0.8997   0.8939   0.8634   0.8517   0.8229   0.8145
     0.7744   0.7709   0.7432   0.7399   0.7326   0.7288   0.7224   0.7156
     0.7122   0.7024   0.6980   0.6916   0.6864   0.6804   0.6751   0.6689
     0.6517   0.6465   0.6422   0.6238   0.4535   0.4058   0.3657   0.3226
     0.3153   0.2165   0.1718   0.0711   0.0379   0.0179   0.0065   0.0016
     0.0002   0.0002   0.0001   0.0001   0.0001   0.0000   0.0000   0.0000
     0.0000   0.0000   0.0000   0.0000   0.0000   0.0000   0.0000   0.0000
     0.0000   0.0000   0.0000   0.0000   0.0000   0.0000   0.0000   0.0000
     0.0000   0.0000

          k =-0.5000 0.2500 0.0000 ( 65138 PWs)   bands (ev):

   -92.9002 -92.8512 -92.7547 -92.7091 -92.6502 -92.6070 -92.5894 -92.4702
   -56.2538 -56.2379 -56.1114 -56.1006 -56.0957 -56.0875 -56.0538 -56.0234
   -56.0083 -56.0069 -56.0017 -55.9566 -55.9399 -55.9009 -55.8816 -55.8505
   -55.8444 -55.7959 -55.7946 -55.7917 -55.7833 -55.7452 -55.7194 -55.6354
   -31.4590 -31.4474 -31.2999 -31.2527 -31.2154 -31.1104 -30.9146 -30.7378
   -30.0411 -30.0041 -29.9742 -29.8674 -15.1761 -15.1293 -15.0514 -14.9459
   -14.9057 -14.7847 -14.6945 -14.5547 -14.2576 -14.2275 -14.2149 -14.1712
   -14.1455 -14.1230 -14.0874 -14.0659 -14.0502 -14.0134 -13.9898 -13.8842
   -13.8286 -13.7799 -13.7714 -13.7469 -13.6573 -13.6283 -13.5104 -13.4551
   -13.3862 -13.3505 -13.2528 -13.2139 -13.2022 -13.1839 -13.1585 -13.1308
   -13.1237 -13.0741 -12.9787 -12.9464 -12.8670 -12.8613 -12.8400 -12.8086
   -12.8006 -12.7259 -12.6552 -12.5090 -12.5019 -12.3621 -12.2992 -12.2821
   -11.9847 -11.9657 -11.9538 -11.9401 -11.9271 -11.9072 -11.8773 -11.7943
   -11.7872 -11.7631 -11.7277 -11.7006 -11.6912  -2.6335  -2.5921  -2.4452
    -2.4024  -2.2400  -2.1633  -2.0244  -1.8869  -1.8302  -1.8032  -1.7656
    -1.7279  -1.6462  -1.5301  -1.4728  -1.4495  -1.4232  -1.3453  -1.3183
    -1.2789  -1.2629  -1.2027  -1.1693  -1.1342  -1.0994  -1.0704  -1.0113
    -0.9824  -0.9401  -0.9052  -0.8009  -0.7748  -0.6781  -0.6215  -0.5913
    -0.5290  -0.4513  -0.4147  -0.3171  -0.2724  -0.2139  -0.1624  -0.1306
    -0.0700  -0.0398  -0.0055   0.0374   0.0781   0.4050   0.4649   0.5360
     0.5502   0.8298   0.8936   0.9636   0.9892   1.1619   1.1961   1.2339
     1.2420   1.2608   1.2793   1.3478   1.3973   1.4390   1.4707   1.5951
     1.6336   1.6579   1.6719   1.7110   1.7325   1.7498   1.7633   1.7795
     1.8026   1.8489   1.8590   1.8983   1.9245   1.9571   2.0084   2.1345
     2.2280   2.2557   2.3222   2.3560   2.4192   2.4519   2.4612   2.5015
     2.5207   2.5340   2.5573   2.6180   2.6275   2.6463   2.6867   2.6973
     2.7057   2.7252   2.7463   2.7571   2.7723   2.7891   2.8094   2.8235
     2.8303   2.8390   2.8490   2.8627   3.3950   3.4355   3.5793   3.5987
     3.8912   3.9599   4.0145   4.2185   4.5936   4.6960   4.8670   4.9250
     5.2241   5.2506   5.4767   5.5673   5.5984   5.6360   6.3220   6.4435
     6.4621   6.6979   7.3589   7.5894   7.6594   7.7162   7.7525   7.8005
     7.8921   8.0258   8.2222   8.2981   8.4079   8.4603   8.4894   8.5489
     8.6584   8.6988

     occupation numbers 
     1.0000   1.0000   1.0000   1.0000   1.0000   1.0000   1.0000   1.0000
     1.0000   1.0000   1.0000   1.0000   1.0000   1.0000   1.0000   1.0000
     1.0000   1.0000   1.0000   1.0000   1.0000   1.0000   1.0000   1.0000
     1.0000   1.0000   1.0000   1.0000   1.0000   1.0000   1.0000   1.0000
     1.0000   1.0000   1.0000   1.0000   1.0000   1.0000   1.0000   1.0000
     1.0000   1.0000   1.0000   1.0000   1.0000   1.0000   1.0000   1.0000
     1.0000   1.0000   1.0000   1.0000   1.0000   1.0000   1.0000   1.0000
     1.0000   1.0000   1.0000   1.0000   1.0000   1.0000   1.0000   1.0000
     1.0000   1.0000   1.0000   1.0000   1.0000   1.0000   1.0000   1.0000
     1.0000   1.0000   1.0000   1.0000   1.0000   1.0000   1.0000   1.0000
     1.0000   1.0000   1.0000   1.0000   1.0000   1.0000   1.0000   1.0000
     1.0000   1.0000   1.0000   1.0000   1.0000   1.0000   1.0000   1.0000
     1.0000   1.0000   1.0000   1.0000   1.0000   1.0000   1.0000   1.0000
     1.0000   1.0000   1.0000   1.0000   1.0000   1.0000   1.0000   1.0000
     1.0000   1.0000   1.0000   1.0000   1.0000   1.0000   1.0000   1.0000
     1.0000   1.0000   1.0000   1.0000   1.0000   1.0000   1.0000   1.0000
     1.0000   1.0000   1.0000   1.0000   1.0000   1.0000   1.0000   1.0000
     1.0000   1.0000   1.0000   1.0000   1.0000   1.0000   1.0000   1.0000
     1.0000   1.0000   1.0000   1.0000   1.0000   1.0000   1.0000   1.0000
     1.0000   1.0000   1.0000   1.0000   1.0000   1.0000   1.0000   0.9999
     0.9999   0.9997   0.9995   0.9993   0.9993   0.9983   0.9979   0.9975
     0.9975   0.9972   0.9970   0.9959   0.9949   0.9939   0.9931   0.9886
     0.9868   0.9855   0.9847   0.9824   0.9809   0.9797   0.9787   0.9774
     0.9755   0.9713   0.9703   0.9661   0.9631   0.9590   0.9519   0.9300
     0.9094   0.9025   0.8844   0.8743   0.8539   0.8425   0.8391   0.8241
     0.8166   0.8114   0.8019   0.7758   0.7716   0.7630   0.7441   0.7390
     0.7350   0.7254   0.7149   0.7094   0.7016   0.6929   0.6822   0.6747
     0.6711   0.6664   0.6610   0.6535   0.3462   0.3243   0.2517   0.2426
     0.1287   0.1085   0.0942   0.0528   0.0148   0.0100   0.0049   0.0038
     0.0009   0.0008   0.0002   0.0001   0.0001   0.0001   0.0000   0.0000
     0.0000   0.0000   0.0000   0.0000   0.0000   0.0000   0.0000   0.0000
     0.0000   0.0000   0.0000   0.0000   0.0000   0.0000   0.0000   0.0000
     0.0000   0.0000

     the Fermi energy is     3.1286 ev

!    total energy              =   -4440.31419275 Ry
     estimated scf accuracy    <          9.5E-09 Ry
     smearing contrib. (-TS)   =      -1.20829073 Ry
     internal energy E=F+TS    =   -4439.10590202 Ry

     The total energy is F=E-TS. E is the sum of the following terms:
     one-electron contribution =  -20889.49559368 Ry
     hartree contribution      =   10573.54874861 Ry
     xc contribution           =    -693.25450174 Ry
     ewald contribution        =    6846.28606530 Ry
     one-center paw contrib.   =    -276.19062051 Ry
      -> PAW hartree energy AE =      25.14658974 Ry
      -> PAW hartree energy PS =     -25.03063664 Ry
      -> PAW xc energy AE      =     -16.51521580 Ry
      -> PAW xc energy PS      =       6.87455458 Ry
      -> total E_H with PAW    =   10573.66470171 Ry
      -> total E_XC with PAW   =    -702.89516296 Ry

     convergence has been achieved in  47 iterations

     Writing all to output data dir /bsuhome/zayahcortright/scratch/pwscf.save/
 
     init_run     :      7.56s CPU      8.37s WALL (       1 calls)
     electrons    :    676.47s CPU    708.45s WALL (       1 calls)

     Called by init_run:
     wfcinit      :      6.16s CPU      6.39s WALL (       1 calls)
     wfcinit:atom :      0.04s CPU      0.07s WALL (       5 calls)
     wfcinit:wfcr :      5.85s CPU      5.98s WALL (       5 calls)
     potinit      :      0.18s CPU      0.20s WALL (       1 calls)
     hinit0       :      0.36s CPU      0.66s WALL (       1 calls)

     Called by electrons:
     c_bands      :    538.32s CPU    544.68s WALL (      47 calls)
     sum_band     :    103.68s CPU    117.72s WALL (      47 calls)
     v_of_rho     :      5.08s CPU      5.45s WALL (      48 calls)
     v_h          :      0.46s CPU      0.46s WALL (      48 calls)
     v_xc         :      4.63s CPU      4.99s WALL (      48 calls)
     newd         :     15.62s CPU     26.43s WALL (      48 calls)
     PAW_pot      :      1.60s CPU      1.64s WALL (      48 calls)
     mix_rho      :     11.88s CPU     12.21s WALL (      47 calls)

     Called by c_bands:
     init_us_2    :      6.37s CPU      6.46s WALL (     475 calls)
     init_us_2:cp :      6.36s CPU      6.46s WALL (     475 calls)
     cegterg      :    506.84s CPU    512.90s WALL (     235 calls)

     Called by sum_band:
     sum_band:wei :      0.35s CPU      0.35s WALL (      47 calls)
     sum_band:loo :     85.60s CPU     86.32s WALL (      47 calls)
     sum_band:buf :      1.24s CPU      1.33s WALL (     235 calls)
     sum_band:ini :      2.86s CPU      2.88s WALL (     235 calls)
     sum_band:cal :     18.27s CPU     18.32s WALL (     235 calls)
     sum_band:bec :      0.52s CPU      0.55s WALL (     235 calls)
     addusdens    :     15.01s CPU     28.26s WALL (      47 calls)
                                        0.00s GPU  (      47 calls)
     addusd:skk   :      0.30s CPU      0.92s WALL (     141 calls)
                                        0.00s GPU  (     141 calls)

     Called by *egterg:
     cdiaghg      :     54.69s CPU     54.92s WALL (    1244 calls)
     cegterg:over :     37.26s CPU     37.44s WALL (    1009 calls)
     cegterg:upda :     26.82s CPU     27.30s WALL (    1009 calls)
     cegterg:last :     55.69s CPU     55.92s WALL (     424 calls)
     cdiaghg:chol :      3.04s CPU      3.07s WALL (    1244 calls)
     cdiaghg:inve :      2.78s CPU      2.79s WALL (    1244 calls)
     cdiaghg:para :      6.97s CPU      7.02s WALL (    2488 calls)
     h_psi        :    279.91s CPU    282.85s WALL (    1249 calls)
     s_psi        :     37.90s CPU     38.02s WALL (    1249 calls)
     g_psi        :      0.96s CPU      0.96s WALL (    1009 calls)

     Called by h_psi:
     h_psi:calbec :     42.26s CPU     42.46s WALL (    1249 calls)
     vloc_psi     :    197.36s CPU    199.24s WALL (    1249 calls)
     add_vuspsi   :     37.58s CPU     37.79s WALL (    1249 calls)

     General routines
     calbec       :     60.51s CPU     60.77s WALL (    1484 calls)
     fft          :      3.78s CPU      3.83s WALL (     622 calls)
     ffts         :      4.39s CPU      4.43s WALL (    5005 calls)
     fftw         :    168.00s CPU    169.40s WALL (  317484 calls)
     interpolate  :      0.39s CPU      0.40s WALL (      48 calls)
 
     Parallel routines

     PAW routines
     PAW_pot      :      1.60s CPU      1.64s WALL (      48 calls)
 
     PWSCF        :  11m25.44s CPU  12m 1.82s WALL

 
   This run was terminated on:   1: 4:31  22Jun2024            

=------------------------------------------------------------------------------=
   JOB DONE.
=------------------------------------------------------------------------------=
