
     Program PWSCF v.7.2 starts on 21Jun2024 at 19: 8:51 

     This program is part of the open-source Quantum ESPRESSO suite
     for quantum simulation of materials; please cite
         "P. Giannozzi et al., J. Phys.:Condens. Matter 21 395502 (2009);
         "P. Giannozzi et al., J. Phys.:Condens. Matter 29 465901 (2017);
         "P. Giannozzi et al., J. Chem. Phys. 152 154105 (2020);
          URL http://www.quantum-espresso.org", 
     in publications or presentations arising from this work. More details at
     http://www.quantum-espresso.org/quote

     Parallel version (MPI & OpenMP), running on      48 processor cores
     Number of MPI processes:                48
     Threads/MPI process:                     1

     MPI processes distributed on     1 nodes
     60585 MiB available memory on the printing compute node when the environment starts
 
     Reading input from espresso.pwi
Warning: card &CELL ignored
Warning: card / ignored
Warning: card &FCP ignored
Warning: card / ignored
Warning: card &RISM ignored
Warning: card / ignored

     Current dimensions of program PWSCF are:
     Max number of different atomic species (ntypx) = 10
     Max number of k-points (npk) =  40000
     Max angular momentum in pseudopotentials (lmaxx) =  4
     file O.pbe-n-kjpaw_psl.0.1.UPF: wavefunction(s)  2P renormalized
     signal trapping enabled: kill the code with -SIGUSR1 to stop cleanly the simulation 
 
     K-points division:     npool     =       2
     R & G space division:  proc/nbgrp/npool/nimage =      24
     Subspace diagonalization in iterative solution of the eigenvalue problem:
     one sub-group per band group will be used
     scalapack distributed-memory algorithm (size of sub-group:  3*  3 procs)

 
     Parallelization info
     --------------------
     sticks:   dense  smooth     PW     G-vecs:    dense   smooth      PW
     Min         350     175     47                61430    21716    3036
     Max         351     177     48                61449    21727    3041
     Sum        8421    4205   1137              1474595   521381   72913
 
     Using Slab Decomposition
 


     bravais-lattice index     =            0
     lattice parameter (alat)  =      14.8599  a.u.
     unit-cell volume          =    8305.1283 (a.u.)^3
     number of atoms/cell      =           49
     number of atomic types    =            3
     number of electrons       =       430.00
     number of Kohn-Sham states=          258
     kinetic-energy cutoff     =      60.0000  Ry
     charge density cutoff     =     480.0000  Ry
     scf convergence threshold =      1.0E-08
     mixing beta               =       0.1500
     number of iterations used =            8  local-TF  mixing
     Exchange-correlation= SLA  PW   PBE  PBE
                           (   1   4   3   4   0   0   0)

     celldm(1)=  14.859904  celldm(2)=   0.000000  celldm(3)=   0.000000
     celldm(4)=   0.000000  celldm(5)=   0.000000  celldm(6)=   0.000000

     crystal axes: (cart. coord. in units of alat)
               a(1) = (   1.000000   0.000000   0.000000 )  
               a(2) = (   0.000000   1.000000   0.000000 )  
               a(3) = (   0.000000   0.000000   2.531036 )  

     reciprocal axes: (cart. coord. in units 2 pi/alat)
               b(1) = (  1.000000  0.000000  0.000000 )  
               b(2) = (  0.000000  1.000000  0.000000 )  
               b(3) = (  0.000000  0.000000  0.395095 )  


     PseudoPot. # 1 for Sr read from file:
     /bsuhome/zayahcortright/q-e/pseudo/Sr_pbe_v1.uspp.F.UPF
     MD5 check sum: 6b418c05fbe9db5448babca5e47b7a5b
     Pseudo is Ultrasoft + core correction, Zval = 10.0
     Generated by new atomic code, or converted to UPF format
     Using radial grid of  883 points,  6 beta functions with: 
                l(1) =   0
                l(2) =   0
                l(3) =   1
                l(4) =   1
                l(5) =   2
                l(6) =   2
     Q(r) pseudized with  6 coefficients,  rinner =    1.400   1.400   1.400
                                                       1.400   1.400

     PseudoPot. # 2 for O  read from file:
     /bsuhome/zayahcortright/q-e/pseudo/O.pbe-n-kjpaw_psl.0.1.UPF
     MD5 check sum: 0234752ac141de4415c5fc33072bef88
     Pseudo is Projector augmented-wave + core cor, Zval =  6.0
     Generated using "atomic" code by A. Dal Corso  v.5.0.99 svn rev. 10869
     Shape of augmentation charge: BESSEL
     Using radial grid of 1095 points,  4 beta functions with: 
                l(1) =   0
                l(2) =   0
                l(3) =   1
                l(4) =   1
     Q(r) pseudized with 0 coefficients 


     PseudoPot. # 3 for Co read from file:
     /bsuhome/zayahcortright/q-e/pseudo/Co_pbe_v1.2.uspp.F.UPF
     MD5 check sum: 5f91765df6ddd3222702df6e7b74a16d
     Pseudo is Ultrasoft + core correction, Zval = 17.0
     Generated by new atomic code, or converted to UPF format
     Using radial grid of  863 points,  6 beta functions with: 
                l(1) =   0
                l(2) =   0
                l(3) =   1
                l(4) =   1
                l(5) =   2
                l(6) =   2
     Q(r) pseudized with  8 coefficients,  rinner =    1.200   1.200   1.200
                                                       1.200   1.200

     atomic species   valence    mass     pseudopotential
        Sr            10.00    87.62000     Sr( 1.00)
        O              6.00    15.99900     O ( 1.00)
        Co            17.00    58.93319     Co( 1.00)

     No symmetry found


                                    s                        frac. trans.

      isym =  1     identity                                     

 cryst.   s( 1) = (     1          0          0      )
                  (     0          1          0      )
                  (     0          0          1      )

 cart.    s( 1) = (  1.0000000  0.0000000  0.0000000 )
                  (  0.0000000  1.0000000  0.0000000 )
                  (  0.0000000  0.0000000  1.0000000 )


   Cartesian axes

     site n.     atom                  positions (alat units)
         1           Sr  tau(   1) = (   0.2508693   0.7491307   1.7574407  )
         2           O   tau(   2) = (   0.4985141   0.5014859   1.7715967  )
         3           Sr  tau(   3) = (   0.7482398   0.7454518   1.7648669  )
         4           Sr  tau(   4) = (   0.7441748   0.2558252   1.7667843  )
         5           Sr  tau(   5) = (   0.2508693   0.7491307   1.2696799  )
         6           Sr  tau(   6) = (   0.2508693   0.7491307   0.7632319  )
         7           Co  tau(   7) = (   0.4998914   0.5001086   1.0164559  )
         8           Co  tau(   8) = (   0.4936915   0.5063085   1.5135603  )
         9           O   tau(   9) = (   0.4988895   0.7610401   1.0164559  )
        10           O   tau(  10) = (   0.2389599   0.5011105   1.0164559  )
        11           O   tau(  11) = (   0.0070918   0.7374880   1.0164559  )
        12           O   tau(  12) = (   0.0088340   0.7405089   1.5135603  )
        13           O   tau(  13) = (   0.5066944   0.7415376   1.5135603  )
        14           O   tau(  14) = (   0.2584624   0.4933056   1.5135603  )
        15           O   tau(  15) = (   0.4985141   0.5014859   0.7773880  )
        16           O   tau(  16) = (   0.4985141   0.5014859   1.2555238  )
        17           Sr  tau(  17) = (   0.7482398   0.7454518   0.7706582  )
        18           Sr  tau(  18) = (   0.7482398   0.7454518   1.2622536  )
        19           Sr  tau(  19) = (   0.7441748   0.2558252   0.7725755  )
        20           Sr  tau(  20) = (   0.7441748   0.2558252   1.2603363  )
        21           O   tau(  21) = (   0.7322655   0.0078049   1.5135603  )
        22           O   tau(  22) = (   0.7558175   0.4996027   1.5135603  )
        23           O   tau(  23) = (   0.5003973   0.2441825   1.5135603  )
        24           O   tau(  24) = (   0.7527966   0.4978604   1.0164559  )
        25           O   tau(  25) = (   0.5021396   0.2472034   1.0164559  )
        26           O   tau(  26) = (   0.7517679   0.0000000   1.0164559  )
        27           O   tau(  27) = (   0.0114961   0.4948124   1.7455321  )
        28           O   tau(  28) = (   0.0048226   0.0077944   1.7715967  )
        29           Sr  tau(  29) = (   0.2545482   0.2517602   1.7648669  )
        30           O   tau(  30) = (   0.5048017   0.0015068   1.7786929  )
        31           Co  tau(  31) = (   0.0056869   0.5006215   1.0164559  )
        32           Co  tau(  32) = (   0.0065315   0.4997770   1.5135603  )
        33           Co  tau(  33) = (   0.0061999   0.0064171   1.0164559  )
        34           Co  tau(  34) = (   0.0000000   0.0126169   1.5135603  )
        35           O   tau(  35) = (   0.0114961   0.4948124   1.2815885  )
        36           O   tau(  36) = (   0.0114961   0.4948124   0.7513233  )
        37           O   tau(  37) = (   0.0051979   0.2673486   1.0164559  )
        38           O   tau(  38) = (   0.0130029   0.2478461   1.5135603  )
        39           O   tau(  39) = (   0.0048226   0.0077944   0.7773880  )
        40           O   tau(  40) = (   0.0048226   0.0077944   1.2555238  )
        41           Sr  tau(  41) = (   0.2545482   0.2517602   0.7706582  )
        42           Sr  tau(  42) = (   0.2545482   0.2517602   1.2622536  )
        43           Co  tau(  43) = (   0.4989925   0.0073160   1.5135603  )
        44           Co  tau(  44) = (   0.4998370   0.0064714   1.0164559  )
        45           O   tau(  45) = (   0.5048017   0.0015068   0.7844841  )
        46           O   tau(  46) = (   0.5048017   0.0015068   1.2484277  )
        47           O   tau(  47) = (   0.2621260   0.0059111   1.5135603  )
        48           O   tau(  48) = (   0.2591051   0.0041689   1.0164559  )
        49           O   tau(  49) = (   0.2843291   0.9951520   2.1602013  )

   Crystallographic axes

     site n.     atom                  positions (cryst. coord.)
         1           Sr  tau(   1) = (  0.2508693  0.7491307  0.6943562  )
         2           O   tau(   2) = (  0.4985141  0.5014859  0.6999492  )
         3           Sr  tau(   3) = (  0.7482398  0.7454518  0.6972903  )
         4           Sr  tau(   4) = (  0.7441748  0.2558252  0.6980478  )
         5           Sr  tau(   5) = (  0.2508693  0.7491307  0.5016443  )
         6           Sr  tau(   6) = (  0.2508693  0.7491307  0.3015492  )
         7           Co  tau(   7) = (  0.4998914  0.5001086  0.4015968  )
         8           Co  tau(   8) = (  0.4936915  0.5063085  0.5980003  )
         9           O   tau(   9) = (  0.4988895  0.7610401  0.4015968  )
        10           O   tau(  10) = (  0.2389599  0.5011105  0.4015968  )
        11           O   tau(  11) = (  0.0070918  0.7374880  0.4015968  )
        12           O   tau(  12) = (  0.0088340  0.7405089  0.5980003  )
        13           O   tau(  13) = (  0.5066944  0.7415376  0.5980003  )
        14           O   tau(  14) = (  0.2584624  0.4933056  0.5980003  )
        15           O   tau(  15) = (  0.4985141  0.5014859  0.3071422  )
        16           O   tau(  16) = (  0.4985141  0.5014859  0.4960513  )
        17           Sr  tau(  17) = (  0.7482398  0.7454518  0.3044833  )
        18           Sr  tau(  18) = (  0.7482398  0.7454518  0.4987103  )
        19           Sr  tau(  19) = (  0.7441748  0.2558252  0.3052408  )
        20           Sr  tau(  20) = (  0.7441748  0.2558252  0.4979527  )
        21           O   tau(  21) = (  0.7322655  0.0078049  0.5980003  )
        22           O   tau(  22) = (  0.7558175  0.4996027  0.5980003  )
        23           O   tau(  23) = (  0.5003973  0.2441825  0.5980003  )
        24           O   tau(  24) = (  0.7527966  0.4978604  0.4015968  )
        25           O   tau(  25) = (  0.5021396  0.2472034  0.4015968  )
        26           O   tau(  26) = (  0.7517679  0.0000000  0.4015968  )
        27           O   tau(  27) = (  0.0114961  0.4948124  0.6896512  )
        28           O   tau(  28) = (  0.0048226  0.0077944  0.6999492  )
        29           Sr  tau(  29) = (  0.2545482  0.2517602  0.6972903  )
        30           O   tau(  30) = (  0.5048017  0.0015068  0.7027529  )
        31           Co  tau(  31) = (  0.0056869  0.5006215  0.4015968  )
        32           Co  tau(  32) = (  0.0065315  0.4997770  0.5980003  )
        33           Co  tau(  33) = (  0.0061999  0.0064171  0.4015968  )
        34           Co  tau(  34) = (  0.0000000  0.0126169  0.5980003  )
        35           O   tau(  35) = (  0.0114961  0.4948124  0.5063494  )
        36           O   tau(  36) = (  0.0114961  0.4948124  0.2968442  )
        37           O   tau(  37) = (  0.0051979  0.2673486  0.4015968  )
        38           O   tau(  38) = (  0.0130029  0.2478461  0.5980003  )
        39           O   tau(  39) = (  0.0048226  0.0077944  0.3071422  )
        40           O   tau(  40) = (  0.0048226  0.0077944  0.4960513  )
        41           Sr  tau(  41) = (  0.2545482  0.2517602  0.3044833  )
        42           Sr  tau(  42) = (  0.2545482  0.2517602  0.4987103  )
        43           Co  tau(  43) = (  0.4989925  0.0073160  0.5980003  )
        44           Co  tau(  44) = (  0.4998370  0.0064714  0.4015968  )
        45           O   tau(  45) = (  0.5048017  0.0015068  0.3099459  )
        46           O   tau(  46) = (  0.5048017  0.0015068  0.4932477  )
        47           O   tau(  47) = (  0.2621260  0.0059111  0.5980003  )
        48           O   tau(  48) = (  0.2591051  0.0041689  0.4015968  )
        49           O   tau(  49) = (  0.2843291  0.9951520  0.8534850  )

     number of k points=    10  Gaussian smearing, width (Ry)=  0.0700
                       cart. coord. in units 2pi/alat
        k(    1) = (   0.0000000   0.0000000   0.0000000), wk =   0.1250000
        k(    2) = (   0.0000000   0.2500000   0.0000000), wk =   0.2500000
        k(    3) = (   0.0000000  -0.5000000   0.0000000), wk =   0.1250000
        k(    4) = (   0.2500000   0.2500000   0.0000000), wk =   0.2500000
        k(    5) = (   0.2500000  -0.5000000   0.0000000), wk =   0.2500000
        k(    6) = (  -0.5000000  -0.5000000   0.0000000), wk =   0.1250000
        k(    7) = (   0.2500000   0.0000000   0.0000000), wk =   0.2500000
        k(    8) = (  -0.5000000   0.0000000   0.0000000), wk =   0.1250000
        k(    9) = (  -0.2500000   0.2500000   0.0000000), wk =   0.2500000
        k(   10) = (  -0.5000000   0.2500000   0.0000000), wk =   0.2500000

                       cryst. coord.
        k(    1) = (   0.0000000   0.0000000   0.0000000), wk =   0.1250000
        k(    2) = (   0.0000000   0.2500000   0.0000000), wk =   0.2500000
        k(    3) = (   0.0000000  -0.5000000   0.0000000), wk =   0.1250000
        k(    4) = (   0.2500000   0.2500000   0.0000000), wk =   0.2500000
        k(    5) = (   0.2500000  -0.5000000   0.0000000), wk =   0.2500000
        k(    6) = (  -0.5000000  -0.5000000   0.0000000), wk =   0.1250000
        k(    7) = (   0.2500000   0.0000000   0.0000000), wk =   0.2500000
        k(    8) = (  -0.5000000   0.0000000   0.0000000), wk =   0.1250000
        k(    9) = (  -0.2500000   0.2500000   0.0000000), wk =   0.2500000
        k(   10) = (  -0.5000000   0.2500000   0.0000000), wk =   0.2500000

     Dense  grid:  1474595 G-vectors     FFT dimensions: ( 108, 108, 270)

     Smooth grid:   521381 G-vectors     FFT dimensions: (  75,  75, 192)

     Dynamical RAM for                 wfc:      10.69 MB

     Dynamical RAM for     wfc (w. buffer):      64.13 MB

     Dynamical RAM for           str. fact:       2.81 MB

     Dynamical RAM for           local pot:       0.00 MB

     Dynamical RAM for          nlocal pot:      24.53 MB

     Dynamical RAM for                qrad:       5.27 MB

     Dynamical RAM for          rho,v,vnew:       6.02 MB

     Dynamical RAM for               rhoin:       2.01 MB

     Dynamical RAM for            rho*nmix:      15.00 MB

     Dynamical RAM for           G-vectors:       3.68 MB

     Dynamical RAM for          h,s,v(r/c):       1.35 MB

     Dynamical RAM for          <psi|beta>:       2.33 MB

     Dynamical RAM for                 psi:      21.38 MB

     Dynamical RAM for                hpsi:      21.38 MB

     Dynamical RAM for                spsi:      21.38 MB

     Dynamical RAM for      wfcinit/wfcrot:      34.39 MB

     Dynamical RAM for           addusdens:     101.26 MB

     Estimated static dynamical RAM per process >     117.53 MB

     Estimated max dynamical RAM per process >     233.79 MB

     Estimated total dynamical RAM >      10.61 GB

     Check: negative core charge=   -0.000004

     Initial potential from superposition of free atoms

     starting charge     421.5961, renormalised to     430.0000

     negative rho (up, down):  7.826E-01 0.000E+00
     Starting wfcs are  376 randomized atomic wfcs
     Checking if some PAW data can be deallocated... 
       PAW data deallocated on   19 nodes for type:  2

     total cpu time spent up to now is        9.1 secs

     Self-consistent Calculation

     iteration #  1     ecut=    60.00 Ry     beta= 0.15
     Davidson diagonalization with overlap

---- Real-time Memory Report at c_bands before calling an iterative solver
             0 MiB given to the printing process from OS
             0 MiB allocation reported by mallinfo(arena+hblkhd)
         51481 MiB available memory on the node where the printing process lives
------------------
     ethr =  1.00E-02,  avg # of iterations =  2.0

     negative rho (up, down):  7.715E-01 0.000E+00

     total cpu time spent up to now is       24.1 secs

     total energy              =   -4445.18375298 Ry
     estimated scf accuracy    <      53.91095459 Ry

     iteration #  2     ecut=    60.00 Ry     beta= 0.15
     Davidson diagonalization with overlap

---- Real-time Memory Report at c_bands before calling an iterative solver
             0 MiB given to the printing process from OS
             0 MiB allocation reported by mallinfo(arena+hblkhd)
         51847 MiB available memory on the node where the printing process lives
------------------
     ethr =  1.00E-02,  avg # of iterations =  1.0

     negative rho (up, down):  7.591E-01 0.000E+00

     total cpu time spent up to now is       36.7 secs

     total energy              =   -4441.96603913 Ry
     estimated scf accuracy    <      28.07199110 Ry

     iteration #  3     ecut=    60.00 Ry     beta= 0.15
     Davidson diagonalization with overlap

---- Real-time Memory Report at c_bands before calling an iterative solver
             0 MiB given to the printing process from OS
             0 MiB allocation reported by mallinfo(arena+hblkhd)
         51071 MiB available memory on the node where the printing process lives
------------------
     ethr =  6.53E-03,  avg # of iterations =  1.0

     negative rho (up, down):  7.530E-01 0.000E+00

     total cpu time spent up to now is       49.5 secs

     total energy              =   -4442.58795396 Ry
     estimated scf accuracy    <      29.78283413 Ry

     iteration #  4     ecut=    60.00 Ry     beta= 0.15
     Davidson diagonalization with overlap

---- Real-time Memory Report at c_bands before calling an iterative solver
             0 MiB given to the printing process from OS
             0 MiB allocation reported by mallinfo(arena+hblkhd)
         51023 MiB available memory on the node where the printing process lives
------------------
     ethr =  6.53E-03,  avg # of iterations =  1.0

     negative rho (up, down):  7.536E-01 0.000E+00

     total cpu time spent up to now is       62.2 secs

     total energy              =   -4442.65991755 Ry
     estimated scf accuracy    <      27.74663383 Ry

     iteration #  5     ecut=    60.00 Ry     beta= 0.15
     Davidson diagonalization with overlap

---- Real-time Memory Report at c_bands before calling an iterative solver
             0 MiB given to the printing process from OS
             0 MiB allocation reported by mallinfo(arena+hblkhd)
         51005 MiB available memory on the node where the printing process lives
------------------
     ethr =  6.45E-03,  avg # of iterations =  1.0

     negative rho (up, down):  7.397E-01 0.000E+00

     total cpu time spent up to now is       74.8 secs

     total energy              =   -4441.93358404 Ry
     estimated scf accuracy    <      22.41519999 Ry

     iteration #  6     ecut=    60.00 Ry     beta= 0.15
     Davidson diagonalization with overlap

---- Real-time Memory Report at c_bands before calling an iterative solver
             0 MiB given to the printing process from OS
             0 MiB allocation reported by mallinfo(arena+hblkhd)
         50974 MiB available memory on the node where the printing process lives
------------------
     ethr =  5.21E-03,  avg # of iterations =  1.0

     negative rho (up, down):  7.474E-01 0.000E+00

     total cpu time spent up to now is       87.4 secs

     total energy              =   -4441.86877172 Ry
     estimated scf accuracy    <      50.69868252 Ry

     iteration #  7     ecut=    60.00 Ry     beta= 0.15
     Davidson diagonalization with overlap

---- Real-time Memory Report at c_bands before calling an iterative solver
             0 MiB given to the printing process from OS
             0 MiB allocation reported by mallinfo(arena+hblkhd)
         50958 MiB available memory on the node where the printing process lives
------------------
     ethr =  5.21E-03,  avg # of iterations =  1.0

     negative rho (up, down):  7.478E-01 0.000E+00

     total cpu time spent up to now is       99.9 secs

     total energy              =   -4440.80661156 Ry
     estimated scf accuracy    <      25.15333078 Ry

     iteration #  8     ecut=    60.00 Ry     beta= 0.15
     Davidson diagonalization with overlap

---- Real-time Memory Report at c_bands before calling an iterative solver
             0 MiB given to the printing process from OS
             0 MiB allocation reported by mallinfo(arena+hblkhd)
         50949 MiB available memory on the node where the printing process lives
------------------
     ethr =  5.21E-03,  avg # of iterations =  1.0

     negative rho (up, down):  7.450E-01 0.000E+00

     total cpu time spent up to now is      112.2 secs

     total energy              =   -4440.91199193 Ry
     estimated scf accuracy    <       5.17539617 Ry

     iteration #  9     ecut=    60.00 Ry     beta= 0.15
     Davidson diagonalization with overlap

---- Real-time Memory Report at c_bands before calling an iterative solver
             0 MiB given to the printing process from OS
             0 MiB allocation reported by mallinfo(arena+hblkhd)
         50927 MiB available memory on the node where the printing process lives
------------------
     ethr =  1.20E-03,  avg # of iterations =  2.0

     negative rho (up, down):  7.612E-01 0.000E+00

     total cpu time spent up to now is      125.8 secs

     total energy              =   -4440.85804724 Ry
     estimated scf accuracy    <      18.35815707 Ry

     iteration # 10     ecut=    60.00 Ry     beta= 0.15
     Davidson diagonalization with overlap

---- Real-time Memory Report at c_bands before calling an iterative solver
             0 MiB given to the printing process from OS
             0 MiB allocation reported by mallinfo(arena+hblkhd)
         50905 MiB available memory on the node where the printing process lives
------------------
     ethr =  1.20E-03,  avg # of iterations =  2.5

     negative rho (up, down):  7.683E-01 0.000E+00

     total cpu time spent up to now is      140.0 secs

     total energy              =   -4439.96403616 Ry
     estimated scf accuracy    <      43.95118248 Ry

     iteration # 11     ecut=    60.00 Ry     beta= 0.15
     Davidson diagonalization with overlap

---- Real-time Memory Report at c_bands before calling an iterative solver
             0 MiB given to the printing process from OS
             0 MiB allocation reported by mallinfo(arena+hblkhd)
         50893 MiB available memory on the node where the printing process lives
------------------
     ethr =  1.20E-03,  avg # of iterations =  9.2

     negative rho (up, down):  7.749E-01 0.000E+00

     total cpu time spent up to now is      157.1 secs

     total energy              =   -4440.37316536 Ry
     estimated scf accuracy    <       4.92455265 Ry

     iteration # 12     ecut=    60.00 Ry     beta= 0.15
     Davidson diagonalization with overlap

---- Real-time Memory Report at c_bands before calling an iterative solver
             0 MiB given to the printing process from OS
             0 MiB allocation reported by mallinfo(arena+hblkhd)
         50680 MiB available memory on the node where the printing process lives
------------------
     ethr =  1.15E-03,  avg # of iterations =  1.3

     negative rho (up, down):  7.803E-01 0.000E+00

     total cpu time spent up to now is      170.0 secs

     total energy              =   -4440.48425103 Ry
     estimated scf accuracy    <       2.35039030 Ry

     iteration # 13     ecut=    60.00 Ry     beta= 0.15
     Davidson diagonalization with overlap

---- Real-time Memory Report at c_bands before calling an iterative solver
             0 MiB given to the printing process from OS
             0 MiB allocation reported by mallinfo(arena+hblkhd)
         50685 MiB available memory on the node where the printing process lives
------------------
     c_bands:  1 eigenvalues not converged
     ethr =  5.47E-04,  avg # of iterations = 11.4

     negative rho (up, down):  7.992E-01 0.000E+00

     total cpu time spent up to now is      188.3 secs

     total energy              =   -4440.46146151 Ry
     estimated scf accuracy    <       0.64129329 Ry

     iteration # 14     ecut=    60.00 Ry     beta= 0.15
     Davidson diagonalization with overlap

---- Real-time Memory Report at c_bands before calling an iterative solver
             0 MiB given to the printing process from OS
             0 MiB allocation reported by mallinfo(arena+hblkhd)
         50616 MiB available memory on the node where the printing process lives
------------------
     ethr =  1.49E-04,  avg # of iterations =  7.6

     negative rho (up, down):  8.064E-01 0.000E+00

     total cpu time spent up to now is      206.4 secs

     total energy              =   -4440.23788289 Ry
     estimated scf accuracy    <       9.39184926 Ry

     iteration # 15     ecut=    60.00 Ry     beta= 0.15
     Davidson diagonalization with overlap

---- Real-time Memory Report at c_bands before calling an iterative solver
             0 MiB given to the printing process from OS
             0 MiB allocation reported by mallinfo(arena+hblkhd)
         50528 MiB available memory on the node where the printing process lives
------------------
     ethr =  1.49E-04,  avg # of iterations =  7.1

     negative rho (up, down):  8.161E-01 0.000E+00

     total cpu time spent up to now is      223.2 secs

     total energy              =   -4440.40437660 Ry
     estimated scf accuracy    <       0.66633946 Ry

     iteration # 16     ecut=    60.00 Ry     beta= 0.15
     Davidson diagonalization with overlap

---- Real-time Memory Report at c_bands before calling an iterative solver
             0 MiB given to the printing process from OS
             0 MiB allocation reported by mallinfo(arena+hblkhd)
         50513 MiB available memory on the node where the printing process lives
------------------
     ethr =  1.49E-04,  avg # of iterations =  2.1

     negative rho (up, down):  8.210E-01 0.000E+00

     total cpu time spent up to now is      237.0 secs

     total energy              =   -4440.38017525 Ry
     estimated scf accuracy    <       0.35097245 Ry

     iteration # 17     ecut=    60.00 Ry     beta= 0.15
     Davidson diagonalization with overlap

---- Real-time Memory Report at c_bands before calling an iterative solver
             0 MiB given to the printing process from OS
             0 MiB allocation reported by mallinfo(arena+hblkhd)
         50527 MiB available memory on the node where the printing process lives
------------------
     c_bands:  2 eigenvalues not converged
     ethr =  8.16E-05,  avg # of iterations = 11.7

     negative rho (up, down):  8.205E-01 0.000E+00

     total cpu time spent up to now is      254.9 secs

     total energy              =   -4440.36193938 Ry
     estimated scf accuracy    <       0.24701282 Ry

     iteration # 18     ecut=    60.00 Ry     beta= 0.15
     Davidson diagonalization with overlap

---- Real-time Memory Report at c_bands before calling an iterative solver
             0 MiB given to the printing process from OS
             0 MiB allocation reported by mallinfo(arena+hblkhd)
         50554 MiB available memory on the node where the printing process lives
------------------
     c_bands:  3 eigenvalues not converged
     ethr =  5.74E-05,  avg # of iterations =  6.2

     negative rho (up, down):  8.153E-01 0.000E+00

     total cpu time spent up to now is      270.6 secs

     total energy              =   -4440.34039704 Ry
     estimated scf accuracy    <       0.20095073 Ry

     iteration # 19     ecut=    60.00 Ry     beta= 0.15
     Davidson diagonalization with overlap

---- Real-time Memory Report at c_bands before calling an iterative solver
             0 MiB given to the printing process from OS
             0 MiB allocation reported by mallinfo(arena+hblkhd)
         50598 MiB available memory on the node where the printing process lives
------------------
     c_bands:  1 eigenvalues not converged
     ethr =  4.67E-05,  avg # of iterations = 10.7

     negative rho (up, down):  8.162E-01 0.000E+00

     total cpu time spent up to now is      288.2 secs

     total energy              =   -4440.34330390 Ry
     estimated scf accuracy    <       0.33009813 Ry

     iteration # 20     ecut=    60.00 Ry     beta= 0.15
     Davidson diagonalization with overlap

---- Real-time Memory Report at c_bands before calling an iterative solver
             0 MiB given to the printing process from OS
             0 MiB allocation reported by mallinfo(arena+hblkhd)
         50542 MiB available memory on the node where the printing process lives
------------------
     ethr =  4.67E-05,  avg # of iterations =  1.0

     negative rho (up, down):  7.988E-01 0.000E+00

     total cpu time spent up to now is      300.7 secs

     total energy              =   -4440.31049969 Ry
     estimated scf accuracy    <       0.23611740 Ry

     iteration # 21     ecut=    60.00 Ry     beta= 0.15
     Davidson diagonalization with overlap

---- Real-time Memory Report at c_bands before calling an iterative solver
             0 MiB given to the printing process from OS
             0 MiB allocation reported by mallinfo(arena+hblkhd)
         50554 MiB available memory on the node where the printing process lives
------------------
     ethr =  4.67E-05,  avg # of iterations =  5.0

     negative rho (up, down):  8.061E-01 0.000E+00

     total cpu time spent up to now is      316.1 secs

     total energy              =   -4440.30693582 Ry
     estimated scf accuracy    <       0.20864016 Ry

     iteration # 22     ecut=    60.00 Ry     beta= 0.15
     Davidson diagonalization with overlap

---- Real-time Memory Report at c_bands before calling an iterative solver
             0 MiB given to the printing process from OS
             0 MiB allocation reported by mallinfo(arena+hblkhd)
         50545 MiB available memory on the node where the printing process lives
------------------
     ethr =  4.67E-05,  avg # of iterations =  7.1

     negative rho (up, down):  8.070E-01 0.000E+00

     total cpu time spent up to now is      333.0 secs

     total energy              =   -4440.30497561 Ry
     estimated scf accuracy    <       0.05342575 Ry

     iteration # 23     ecut=    60.00 Ry     beta= 0.15
     Davidson diagonalization with overlap

---- Real-time Memory Report at c_bands before calling an iterative solver
             0 MiB given to the printing process from OS
             0 MiB allocation reported by mallinfo(arena+hblkhd)
         50513 MiB available memory on the node where the printing process lives
------------------
     c_bands:  1 eigenvalues not converged
     ethr =  1.24E-05,  avg # of iterations = 10.6

     negative rho (up, down):  8.193E-01 0.000E+00

     total cpu time spent up to now is      351.8 secs

     total energy              =   -4440.30308454 Ry
     estimated scf accuracy    <       0.03474407 Ry

     iteration # 24     ecut=    60.00 Ry     beta= 0.15
     Davidson diagonalization with overlap

---- Real-time Memory Report at c_bands before calling an iterative solver
             0 MiB given to the printing process from OS
             0 MiB allocation reported by mallinfo(arena+hblkhd)
         50450 MiB available memory on the node where the printing process lives
------------------
     ethr =  8.08E-06,  avg # of iterations =  6.0

     negative rho (up, down):  8.318E-01 0.000E+00

     total cpu time spent up to now is      367.8 secs

     total energy              =   -4440.30049354 Ry
     estimated scf accuracy    <       0.02396101 Ry

     iteration # 25     ecut=    60.00 Ry     beta= 0.15
     Davidson diagonalization with overlap

---- Real-time Memory Report at c_bands before calling an iterative solver
             0 MiB given to the printing process from OS
             0 MiB allocation reported by mallinfo(arena+hblkhd)
         50422 MiB available memory on the node where the printing process lives
------------------
     c_bands:  1 eigenvalues not converged
     ethr =  5.57E-06,  avg # of iterations = 12.6

     negative rho (up, down):  8.213E-01 0.000E+00

     total cpu time spent up to now is      387.3 secs

     total energy              =   -4440.29873718 Ry
     estimated scf accuracy    <       0.01439152 Ry

     iteration # 26     ecut=    60.00 Ry     beta= 0.15
     Davidson diagonalization with overlap

---- Real-time Memory Report at c_bands before calling an iterative solver
             0 MiB given to the printing process from OS
             0 MiB allocation reported by mallinfo(arena+hblkhd)
         50434 MiB available memory on the node where the printing process lives
------------------
     ethr =  3.35E-06,  avg # of iterations =  3.8

     negative rho (up, down):  8.174E-01 0.000E+00

     total cpu time spent up to now is      402.3 secs

     total energy              =   -4440.29841601 Ry
     estimated scf accuracy    <       0.00909732 Ry

     iteration # 27     ecut=    60.00 Ry     beta= 0.15
     Davidson diagonalization with overlap

---- Real-time Memory Report at c_bands before calling an iterative solver
             0 MiB given to the printing process from OS
             0 MiB allocation reported by mallinfo(arena+hblkhd)
         50422 MiB available memory on the node where the printing process lives
------------------
     ethr =  2.12E-06,  avg # of iterations = 11.4

     negative rho (up, down):  8.015E-01 0.000E+00

     total cpu time spent up to now is      420.5 secs

     total energy              =   -4440.29706068 Ry
     estimated scf accuracy    <       0.00577175 Ry

     iteration # 28     ecut=    60.00 Ry     beta= 0.15
     Davidson diagonalization with overlap

---- Real-time Memory Report at c_bands before calling an iterative solver
             0 MiB given to the printing process from OS
             0 MiB allocation reported by mallinfo(arena+hblkhd)
         50416 MiB available memory on the node where the printing process lives
------------------
     ethr =  1.34E-06,  avg # of iterations = 10.7

     negative rho (up, down):  7.985E-01 0.000E+00

     total cpu time spent up to now is      439.5 secs

     total energy              =   -4440.29672400 Ry
     estimated scf accuracy    <       0.00245163 Ry

     iteration # 29     ecut=    60.00 Ry     beta= 0.15
     Davidson diagonalization with overlap

---- Real-time Memory Report at c_bands before calling an iterative solver
             0 MiB given to the printing process from OS
             0 MiB allocation reported by mallinfo(arena+hblkhd)
         50402 MiB available memory on the node where the printing process lives
------------------
     c_bands:  1 eigenvalues not converged
     c_bands:  1 eigenvalues not converged
     ethr =  5.70E-07,  avg # of iterations = 12.4

     negative rho (up, down):  7.983E-01 0.000E+00

     total cpu time spent up to now is      459.0 secs

     total energy              =   -4440.29673249 Ry
     estimated scf accuracy    <       0.00087898 Ry

     iteration # 30     ecut=    60.00 Ry     beta= 0.15
     Davidson diagonalization with overlap

---- Real-time Memory Report at c_bands before calling an iterative solver
             0 MiB given to the printing process from OS
             0 MiB allocation reported by mallinfo(arena+hblkhd)
         50361 MiB available memory on the node where the printing process lives
------------------
     c_bands:  1 eigenvalues not converged
     ethr =  2.04E-07,  avg # of iterations =  8.8

     negative rho (up, down):  7.968E-01 0.000E+00

     total cpu time spent up to now is      475.9 secs

     total energy              =   -4440.29667601 Ry
     estimated scf accuracy    <       0.00045585 Ry

     iteration # 31     ecut=    60.00 Ry     beta= 0.15
     Davidson diagonalization with overlap

---- Real-time Memory Report at c_bands before calling an iterative solver
             0 MiB given to the printing process from OS
             0 MiB allocation reported by mallinfo(arena+hblkhd)
         50428 MiB available memory on the node where the printing process lives
------------------
     ethr =  1.06E-07,  avg # of iterations =  2.0

     negative rho (up, down):  7.954E-01 0.000E+00

     total cpu time spent up to now is      490.0 secs

     total energy              =   -4440.29664383 Ry
     estimated scf accuracy    <       0.00026517 Ry

     iteration # 32     ecut=    60.00 Ry     beta= 0.15
     Davidson diagonalization with overlap

---- Real-time Memory Report at c_bands before calling an iterative solver
             0 MiB given to the printing process from OS
             0 MiB allocation reported by mallinfo(arena+hblkhd)
         50444 MiB available memory on the node where the printing process lives
------------------
     ethr =  6.17E-08,  avg # of iterations =  2.0

     negative rho (up, down):  7.942E-01 0.000E+00

     total cpu time spent up to now is      504.0 secs

     total energy              =   -4440.29663738 Ry
     estimated scf accuracy    <       0.00014366 Ry

     iteration # 33     ecut=    60.00 Ry     beta= 0.15
     Davidson diagonalization with overlap

---- Real-time Memory Report at c_bands before calling an iterative solver
             0 MiB given to the printing process from OS
             0 MiB allocation reported by mallinfo(arena+hblkhd)
         50469 MiB available memory on the node where the printing process lives
------------------
     ethr =  3.34E-08,  avg # of iterations =  4.6

     negative rho (up, down):  7.932E-01 0.000E+00

     total cpu time spent up to now is      519.1 secs

     total energy              =   -4440.29664190 Ry
     estimated scf accuracy    <       0.00005207 Ry

     iteration # 34     ecut=    60.00 Ry     beta= 0.15
     Davidson diagonalization with overlap

---- Real-time Memory Report at c_bands before calling an iterative solver
             0 MiB given to the printing process from OS
             0 MiB allocation reported by mallinfo(arena+hblkhd)
         50473 MiB available memory on the node where the printing process lives
------------------
     ethr =  1.21E-08,  avg # of iterations =  2.0

     negative rho (up, down):  7.928E-01 0.000E+00

     total cpu time spent up to now is      533.2 secs

     total energy              =   -4440.29664533 Ry
     estimated scf accuracy    <       0.00002830 Ry

     iteration # 35     ecut=    60.00 Ry     beta= 0.15
     Davidson diagonalization with overlap

---- Real-time Memory Report at c_bands before calling an iterative solver
             0 MiB given to the printing process from OS
             0 MiB allocation reported by mallinfo(arena+hblkhd)
         50475 MiB available memory on the node where the printing process lives
------------------
     ethr =  6.58E-09,  avg # of iterations =  1.9

     negative rho (up, down):  7.924E-01 0.000E+00

     total cpu time spent up to now is      547.1 secs

     total energy              =   -4440.29664732 Ry
     estimated scf accuracy    <       0.00002045 Ry

     iteration # 36     ecut=    60.00 Ry     beta= 0.15
     Davidson diagonalization with overlap

---- Real-time Memory Report at c_bands before calling an iterative solver
             0 MiB given to the printing process from OS
             0 MiB allocation reported by mallinfo(arena+hblkhd)
         50478 MiB available memory on the node where the printing process lives
------------------
     ethr =  4.76E-09,  avg # of iterations =  2.0

     negative rho (up, down):  7.924E-01 0.000E+00

     total cpu time spent up to now is      561.4 secs

     total energy              =   -4440.29664695 Ry
     estimated scf accuracy    <       0.00001443 Ry

     iteration # 37     ecut=    60.00 Ry     beta= 0.15
     Davidson diagonalization with overlap

---- Real-time Memory Report at c_bands before calling an iterative solver
             0 MiB given to the printing process from OS
             0 MiB allocation reported by mallinfo(arena+hblkhd)
         50480 MiB available memory on the node where the printing process lives
------------------
     ethr =  3.36E-09,  avg # of iterations =  2.0

     negative rho (up, down):  7.925E-01 0.000E+00

     total cpu time spent up to now is      575.3 secs

     total energy              =   -4440.29664694 Ry
     estimated scf accuracy    <       0.00001019 Ry

     iteration # 38     ecut=    60.00 Ry     beta= 0.15
     Davidson diagonalization with overlap

---- Real-time Memory Report at c_bands before calling an iterative solver
             0 MiB given to the printing process from OS
             0 MiB allocation reported by mallinfo(arena+hblkhd)
         50488 MiB available memory on the node where the printing process lives
------------------
     ethr =  2.37E-09,  avg # of iterations =  2.0

     negative rho (up, down):  7.925E-01 0.000E+00

     total cpu time spent up to now is      589.3 secs

     total energy              =   -4440.29664997 Ry
     estimated scf accuracy    <       0.00000769 Ry

     iteration # 39     ecut=    60.00 Ry     beta= 0.15
     Davidson diagonalization with overlap

---- Real-time Memory Report at c_bands before calling an iterative solver
             0 MiB given to the printing process from OS
             0 MiB allocation reported by mallinfo(arena+hblkhd)
         50489 MiB available memory on the node where the printing process lives
------------------
     ethr =  1.79E-09,  avg # of iterations =  2.0

     negative rho (up, down):  7.926E-01 0.000E+00

     total cpu time spent up to now is      603.5 secs

     total energy              =   -4440.29665356 Ry
     estimated scf accuracy    <       0.00000653 Ry

     iteration # 40     ecut=    60.00 Ry     beta= 0.15
     Davidson diagonalization with overlap

---- Real-time Memory Report at c_bands before calling an iterative solver
             0 MiB given to the printing process from OS
             0 MiB allocation reported by mallinfo(arena+hblkhd)
         50503 MiB available memory on the node where the printing process lives
------------------
     ethr =  1.52E-09,  avg # of iterations =  2.7

     negative rho (up, down):  7.926E-01 0.000E+00

     total cpu time spent up to now is      617.9 secs

     total energy              =   -4440.29665471 Ry
     estimated scf accuracy    <       0.00000218 Ry

     iteration # 41     ecut=    60.00 Ry     beta= 0.15
     Davidson diagonalization with overlap

---- Real-time Memory Report at c_bands before calling an iterative solver
             0 MiB given to the printing process from OS
             0 MiB allocation reported by mallinfo(arena+hblkhd)
         50499 MiB available memory on the node where the printing process lives
------------------
     ethr =  5.08E-10,  avg # of iterations =  2.3

     negative rho (up, down):  7.927E-01 0.000E+00

     total cpu time spent up to now is      631.9 secs

     total energy              =   -4440.29665520 Ry
     estimated scf accuracy    <       0.00000144 Ry

     iteration # 42     ecut=    60.00 Ry     beta= 0.15
     Davidson diagonalization with overlap

---- Real-time Memory Report at c_bands before calling an iterative solver
             0 MiB given to the printing process from OS
             0 MiB allocation reported by mallinfo(arena+hblkhd)
         50502 MiB available memory on the node where the printing process lives
------------------
     ethr =  3.36E-10,  avg # of iterations =  2.0

     negative rho (up, down):  7.927E-01 0.000E+00

     total cpu time spent up to now is      645.9 secs

     total energy              =   -4440.29665532 Ry
     estimated scf accuracy    <       0.00000100 Ry

     iteration # 43     ecut=    60.00 Ry     beta= 0.15
     Davidson diagonalization with overlap

---- Real-time Memory Report at c_bands before calling an iterative solver
             0 MiB given to the printing process from OS
             0 MiB allocation reported by mallinfo(arena+hblkhd)
         50501 MiB available memory on the node where the printing process lives
------------------
     ethr =  2.32E-10,  avg # of iterations =  3.0

     negative rho (up, down):  7.927E-01 0.000E+00

     total cpu time spent up to now is      660.5 secs

     total energy              =   -4440.29665519 Ry
     estimated scf accuracy    <       0.00000023 Ry

     iteration # 44     ecut=    60.00 Ry     beta= 0.15
     Davidson diagonalization with overlap

---- Real-time Memory Report at c_bands before calling an iterative solver
             0 MiB given to the printing process from OS
             0 MiB allocation reported by mallinfo(arena+hblkhd)
         50496 MiB available memory on the node where the printing process lives
------------------
     ethr =  5.35E-11,  avg # of iterations =  3.4

     negative rho (up, down):  7.927E-01 0.000E+00

     total cpu time spent up to now is      676.0 secs

     total energy              =   -4440.29665523 Ry
     estimated scf accuracy    <       0.00000013 Ry

     iteration # 45     ecut=    60.00 Ry     beta= 0.15
     Davidson diagonalization with overlap

---- Real-time Memory Report at c_bands before calling an iterative solver
             0 MiB given to the printing process from OS
             0 MiB allocation reported by mallinfo(arena+hblkhd)
         50494 MiB available memory on the node where the printing process lives
------------------
     ethr =  3.08E-11,  avg # of iterations =  1.8

     negative rho (up, down):  7.927E-01 0.000E+00

     total cpu time spent up to now is      689.8 secs

     total energy              =   -4440.29665527 Ry
     estimated scf accuracy    <       0.00000008 Ry

     iteration # 46     ecut=    60.00 Ry     beta= 0.15
     Davidson diagonalization with overlap

---- Real-time Memory Report at c_bands before calling an iterative solver
             0 MiB given to the printing process from OS
             0 MiB allocation reported by mallinfo(arena+hblkhd)
         50510 MiB available memory on the node where the printing process lives
------------------
     ethr =  1.90E-11,  avg # of iterations =  2.0

     negative rho (up, down):  7.926E-01 0.000E+00

     total cpu time spent up to now is      703.9 secs

     total energy              =   -4440.29665535 Ry
     estimated scf accuracy    <       0.00000006 Ry

     iteration # 47     ecut=    60.00 Ry     beta= 0.15
     Davidson diagonalization with overlap

---- Real-time Memory Report at c_bands before calling an iterative solver
             0 MiB given to the printing process from OS
             0 MiB allocation reported by mallinfo(arena+hblkhd)
         50503 MiB available memory on the node where the printing process lives
------------------
     ethr =  1.39E-11,  avg # of iterations =  2.0

     negative rho (up, down):  7.926E-01 0.000E+00

     total cpu time spent up to now is      718.1 secs

     total energy              =   -4440.29665541 Ry
     estimated scf accuracy    <       0.00000003 Ry

     iteration # 48     ecut=    60.00 Ry     beta= 0.15
     Davidson diagonalization with overlap

---- Real-time Memory Report at c_bands before calling an iterative solver
             0 MiB given to the printing process from OS
             0 MiB allocation reported by mallinfo(arena+hblkhd)
         50500 MiB available memory on the node where the printing process lives
------------------
     ethr =  6.66E-12,  avg # of iterations =  2.7

     negative rho (up, down):  7.926E-01 0.000E+00

     total cpu time spent up to now is      732.9 secs

     total energy              =   -4440.29665543 Ry
     estimated scf accuracy    <       0.00000001 Ry

     iteration # 49     ecut=    60.00 Ry     beta= 0.15
     Davidson diagonalization with overlap

---- Real-time Memory Report at c_bands before calling an iterative solver
             0 MiB given to the printing process from OS
             0 MiB allocation reported by mallinfo(arena+hblkhd)
         50500 MiB available memory on the node where the printing process lives
------------------
     ethr =  3.11E-12,  avg # of iterations =  2.0

     negative rho (up, down):  7.926E-01 0.000E+00

     total cpu time spent up to now is      746.8 secs

     End of self-consistent calculation

          k = 0.0000 0.0000 0.0000 ( 65197 PWs)   bands (ev):

   -92.8605 -92.8074 -92.7140 -92.6663 -92.6094 -92.5667 -92.5495 -92.4289
   -56.2140 -56.1940 -56.0711 -56.0608 -56.0529 -56.0477 -56.0118 -55.9831
   -55.9684 -55.9664 -55.9575 -55.9166 -55.8980 -55.8603 -55.8406 -55.8094
   -55.8006 -55.7547 -55.7534 -55.7517 -55.7432 -55.7037 -55.6796 -55.5957
   -31.4251 -31.4046 -31.2641 -31.2633 -31.1774 -31.1760 -30.8791 -30.7642
   -30.0058 -29.9614 -29.9371 -29.8274 -15.2368 -15.1892 -15.1122 -14.9814
   -14.7859 -14.6605 -14.3738 -14.3537 -14.3241 -14.2795 -14.2302 -14.2202
   -14.2109 -14.1927 -14.1678 -14.1414 -14.0866 -13.9342 -13.7551 -13.7224
   -13.6917 -13.6624 -13.6431 -13.5846 -13.5533 -13.4675 -13.3999 -13.2813
   -13.2617 -13.2568 -13.2359 -13.2226 -13.2051 -13.1590 -13.1512 -13.1273
   -13.1055 -13.0775 -13.0706 -13.0591 -13.0463 -13.0309 -12.9132 -12.8779
   -12.8220 -12.7107 -12.6971 -12.6698 -12.4909 -12.3452 -12.1374 -12.0704
   -12.0182 -11.9682 -11.9446 -11.9339 -11.9098 -11.8926 -11.8292 -11.8120
   -11.7770 -11.7489 -11.6357 -11.5568 -11.5531  -3.0983  -2.8663  -2.6368
    -2.4895  -2.4270  -2.2851  -1.9776  -1.9636  -1.9445  -1.8597  -1.8392
    -1.7712  -1.7543  -1.7141  -1.6697  -1.4876  -1.2635  -1.2337  -1.0878
    -1.0732  -1.0257  -1.0085  -0.9614  -0.9446  -0.8908  -0.8642  -0.7894
    -0.7751  -0.7041  -0.5691  -0.5549  -0.5292  -0.4487  -0.4285  -0.4203
    -0.3507  -0.2843  -0.2284  -0.1854  -0.1541  -0.0867  -0.0154   0.0244
     0.0521   0.0613   0.3185   0.3335   0.5081   0.5715   0.6406   0.6919
     0.7713   0.7864   0.8045   0.8682   0.8947   0.9293   0.9865   1.1162
     1.1791   1.1986   1.2208   1.2315   1.2950   1.3634   1.4737   1.4857
     1.5537   1.5658   1.6073   1.6245   1.6314   1.6897   1.7459   1.7662
     1.8029   1.8427   1.8724   2.0048   2.0902   2.1295   2.1577   2.3044
     2.3192   2.3544   2.3581   2.4648   2.5010   2.5276   2.5463   2.5605
     2.6160   2.6266   2.6552   2.6826   2.7571   2.7818   2.7944   2.8003
     2.8689   2.8745   2.8957   2.9035   2.9134   2.9283   2.9323   2.9461
     2.9516   2.9646   2.9731   2.9810   2.9994   3.0201   3.0253   3.0375
     3.0783   3.1786   3.2727   3.9605   4.2843   4.6342   4.8397   4.8905
     5.7376   5.7930   5.8489   5.8748   6.1565   6.2036   6.4469   6.4573
     6.9546   6.9747   7.0852   7.1792   7.4233   7.4873   7.5624   7.5706
     7.5896   7.8078   7.8941   7.9318   8.0469   8.1317   8.2146   8.6888
     8.8159   8.9487

     occupation numbers 
     1.0000   1.0000   1.0000   1.0000   1.0000   1.0000   1.0000   1.0000
     1.0000   1.0000   1.0000   1.0000   1.0000   1.0000   1.0000   1.0000
     1.0000   1.0000   1.0000   1.0000   1.0000   1.0000   1.0000   1.0000
     1.0000   1.0000   1.0000   1.0000   1.0000   1.0000   1.0000   1.0000
     1.0000   1.0000   1.0000   1.0000   1.0000   1.0000   1.0000   1.0000
     1.0000   1.0000   1.0000   1.0000   1.0000   1.0000   1.0000   1.0000
     1.0000   1.0000   1.0000   1.0000   1.0000   1.0000   1.0000   1.0000
     1.0000   1.0000   1.0000   1.0000   1.0000   1.0000   1.0000   1.0000
     1.0000   1.0000   1.0000   1.0000   1.0000   1.0000   1.0000   1.0000
     1.0000   1.0000   1.0000   1.0000   1.0000   1.0000   1.0000   1.0000
     1.0000   1.0000   1.0000   1.0000   1.0000   1.0000   1.0000   1.0000
     1.0000   1.0000   1.0000   1.0000   1.0000   1.0000   1.0000   1.0000
     1.0000   1.0000   1.0000   1.0000   1.0000   1.0000   1.0000   1.0000
     1.0000   1.0000   1.0000   1.0000   1.0000   1.0000   1.0000   1.0000
     1.0000   1.0000   1.0000   1.0000   1.0000   1.0000   1.0000   1.0000
     1.0000   1.0000   1.0000   1.0000   1.0000   1.0000   1.0000   1.0000
     1.0000   1.0000   1.0000   1.0000   1.0000   1.0000   1.0000   1.0000
     1.0000   1.0000   1.0000   1.0000   1.0000   1.0000   1.0000   1.0000
     1.0000   1.0000   1.0000   1.0000   1.0000   1.0000   1.0000   1.0000
     1.0000   1.0000   1.0000   1.0000   1.0000   0.9999   0.9999   0.9999
     0.9998   0.9998   0.9998   0.9997   0.9996   0.9996   0.9994   0.9988
     0.9984   0.9983   0.9981   0.9980   0.9973   0.9963   0.9941   0.9938
     0.9917   0.9913   0.9898   0.9891   0.9888   0.9859   0.9827   0.9813
     0.9787   0.9755   0.9729   0.9580   0.9453   0.9385   0.9333   0.9003
     0.8963   0.8866   0.8856   0.8519   0.8392   0.8293   0.8222   0.8167
     0.7940   0.7894   0.7770   0.7647   0.7293   0.7170   0.7107   0.7077
     0.6717   0.6687   0.6572   0.6530   0.6475   0.6393   0.6371   0.6293
     0.6262   0.6189   0.6141   0.6096   0.5991   0.5872   0.5842   0.5770
     0.5532   0.4940   0.4385   0.1197   0.0488   0.0148   0.0065   0.0053
     0.0001   0.0000   0.0000   0.0000   0.0000   0.0000   0.0000   0.0000
     0.0000   0.0000   0.0000   0.0000   0.0000   0.0000   0.0000   0.0000
     0.0000   0.0000   0.0000   0.0000   0.0000   0.0000   0.0000   0.0000
     0.0000   0.0000

          k = 0.0000 0.2500 0.0000 ( 65257 PWs)   bands (ev):

   -92.8605 -92.8074 -92.7140 -92.6663 -92.6094 -92.5667 -92.5495 -92.4289
   -56.2140 -56.1940 -56.0711 -56.0608 -56.0529 -56.0477 -56.0118 -55.9831
   -55.9684 -55.9664 -55.9575 -55.9166 -55.8980 -55.8603 -55.8406 -55.8094
   -55.8006 -55.7547 -55.7534 -55.7517 -55.7432 -55.7037 -55.6796 -55.5957
   -31.4249 -31.4044 -31.2643 -31.2629 -31.1777 -31.1762 -30.8788 -30.7645
   -30.0052 -29.9611 -29.9377 -29.8277 -15.2004 -15.1627 -15.0868 -14.9523
   -14.8271 -14.6530 -14.5193 -14.3397 -14.3026 -14.2827 -14.2554 -14.1957
   -14.1900 -14.1733 -14.1543 -14.1086 -14.0049 -13.9645 -13.8002 -13.7808
   -13.7325 -13.6965 -13.6531 -13.6058 -13.5616 -13.4934 -13.4537 -13.3884
   -13.3251 -13.2948 -13.2581 -13.2497 -13.2173 -13.1441 -13.1210 -13.0901
   -13.0770 -13.0497 -13.0151 -12.9918 -12.9630 -12.9466 -12.8918 -12.8640
   -12.8063 -12.7121 -12.6185 -12.5643 -12.5522 -12.3964 -12.1931 -12.1345
   -11.9838 -11.9681 -11.9414 -11.9132 -11.8853 -11.8686 -11.8209 -11.8098
   -11.7874 -11.7529 -11.6502 -11.5984 -11.5877  -2.9629  -2.7419  -2.6041
    -2.4222  -2.3788  -2.2153  -1.9953  -1.9119  -1.8989  -1.8410  -1.7381
    -1.7212  -1.6876  -1.6604  -1.6165  -1.4189  -1.2904  -1.2788  -1.2021
    -1.1921  -1.0881  -1.0585  -1.0002  -0.9747  -0.9351  -0.8702  -0.8428
    -0.8116  -0.7772  -0.7605  -0.7293  -0.6537  -0.6048  -0.5381  -0.4234
    -0.4058  -0.3609  -0.2445  -0.2067  -0.1394  -0.0978  -0.0264  -0.0152
     0.0058   0.0682   0.3675   0.4535   0.4841   0.5761   0.6244   0.6507
     0.7567   0.7774   0.8704   0.8970   0.9203   1.0352   1.1318   1.1528
     1.1760   1.1956   1.2199   1.2788   1.3065   1.3337   1.3812   1.4202
     1.4491   1.5334   1.5675   1.6119   1.6563   1.7142   1.7641   1.7908
     1.8109   1.8288   1.9216   2.0384   2.1139   2.1376   2.2035   2.2545
     2.2944   2.3058   2.3621   2.3975   2.4820   2.5217   2.5373   2.6139
     2.6321   2.6866   2.7098   2.7355   2.7642   2.7846   2.8021   2.8095
     2.8174   2.8313   2.8569   2.8583   2.8786   2.8815   2.8913   2.9102
     2.9242   2.9287   2.9505   2.9618   2.9661   3.0011   3.0178   3.0793
     3.4602   3.4950   3.7250   4.1507   4.2858   4.5655   4.9099   5.0033
     5.5300   5.6459   5.8286   5.9176   5.9557   5.9941   6.0820   6.5619
     7.0020   7.0427   7.1961   7.2569   7.3636   7.4219   7.5398   7.5632
     7.7469   7.9331   8.0855   8.1151   8.1934   8.2982   8.3123   8.3810
     8.7257   8.8376

     occupation numbers 
     1.0000   1.0000   1.0000   1.0000   1.0000   1.0000   1.0000   1.0000
     1.0000   1.0000   1.0000   1.0000   1.0000   1.0000   1.0000   1.0000
     1.0000   1.0000   1.0000   1.0000   1.0000   1.0000   1.0000   1.0000
     1.0000   1.0000   1.0000   1.0000   1.0000   1.0000   1.0000   1.0000
     1.0000   1.0000   1.0000   1.0000   1.0000   1.0000   1.0000   1.0000
     1.0000   1.0000   1.0000   1.0000   1.0000   1.0000   1.0000   1.0000
     1.0000   1.0000   1.0000   1.0000   1.0000   1.0000   1.0000   1.0000
     1.0000   1.0000   1.0000   1.0000   1.0000   1.0000   1.0000   1.0000
     1.0000   1.0000   1.0000   1.0000   1.0000   1.0000   1.0000   1.0000
     1.0000   1.0000   1.0000   1.0000   1.0000   1.0000   1.0000   1.0000
     1.0000   1.0000   1.0000   1.0000   1.0000   1.0000   1.0000   1.0000
     1.0000   1.0000   1.0000   1.0000   1.0000   1.0000   1.0000   1.0000
     1.0000   1.0000   1.0000   1.0000   1.0000   1.0000   1.0000   1.0000
     1.0000   1.0000   1.0000   1.0000   1.0000   1.0000   1.0000   1.0000
     1.0000   1.0000   1.0000   1.0000   1.0000   1.0000   1.0000   1.0000
     1.0000   1.0000   1.0000   1.0000   1.0000   1.0000   1.0000   1.0000
     1.0000   1.0000   1.0000   1.0000   1.0000   1.0000   1.0000   1.0000
     1.0000   1.0000   1.0000   1.0000   1.0000   1.0000   1.0000   1.0000
     1.0000   1.0000   1.0000   1.0000   1.0000   1.0000   1.0000   1.0000
     1.0000   1.0000   1.0000   1.0000   1.0000   0.9999   0.9999   0.9999
     0.9998   0.9998   0.9997   0.9996   0.9996   0.9992   0.9988   0.9986
     0.9985   0.9983   0.9981   0.9975   0.9972   0.9968   0.9960   0.9953
     0.9947   0.9924   0.9913   0.9896   0.9876   0.9846   0.9815   0.9796
     0.9781   0.9767   0.9679   0.9533   0.9413   0.9371   0.9240   0.9126
     0.9028   0.8999   0.8844   0.8738   0.8460   0.8316   0.8256   0.7948
     0.7871   0.7628   0.7521   0.7399   0.7258   0.7156   0.7068   0.7030
     0.6989   0.6917   0.6782   0.6774   0.6666   0.6650   0.6596   0.6493
     0.6416   0.6391   0.6269   0.6205   0.6180   0.5981   0.5885   0.5527
     0.3324   0.3139   0.2043   0.0723   0.0485   0.0190   0.0049   0.0032
     0.0002   0.0001   0.0000   0.0000   0.0000   0.0000   0.0000   0.0000
     0.0000   0.0000   0.0000   0.0000   0.0000   0.0000   0.0000   0.0000
     0.0000   0.0000   0.0000   0.0000   0.0000   0.0000   0.0000   0.0000
     0.0000   0.0000

          k = 0.0000-0.5000 0.0000 ( 65180 PWs)   bands (ev):

   -92.8605 -92.8074 -92.7140 -92.6663 -92.6094 -92.5667 -92.5495 -92.4289
   -56.2140 -56.1940 -56.0711 -56.0608 -56.0529 -56.0477 -56.0118 -55.9831
   -55.9684 -55.9664 -55.9575 -55.9166 -55.8980 -55.8603 -55.8406 -55.8094
   -55.8006 -55.7547 -55.7534 -55.7517 -55.7432 -55.7037 -55.6796 -55.5957
   -31.4247 -31.4043 -31.2645 -31.2626 -31.1781 -31.1763 -30.8785 -30.7648
   -30.0046 -29.9608 -29.9384 -29.8280 -15.1639 -15.1152 -15.0606 -14.9326
   -14.8511 -14.7131 -14.5577 -14.4325 -14.3121 -14.2410 -14.1970 -14.1923
   -14.1394 -14.1242 -14.0760 -14.0536 -14.0299 -13.9940 -13.9547 -13.9145
   -13.7381 -13.6795 -13.6596 -13.6102 -13.5598 -13.5111 -13.4589 -13.4291
   -13.4094 -13.3641 -13.2594 -13.2501 -13.1961 -13.1604 -13.1143 -13.0955
   -13.0759 -13.0306 -12.9704 -12.9522 -12.8870 -12.8547 -12.8523 -12.8006
   -12.7870 -12.7152 -12.6630 -12.4950 -12.4715 -12.3856 -12.2989 -12.2529
   -11.9686 -11.9383 -11.9353 -11.9079 -11.8716 -11.8370 -11.8258 -11.7828
   -11.7790 -11.7339 -11.6723 -11.6588 -11.6447  -2.7485  -2.6885  -2.5387
    -2.4671  -2.1854  -2.1000  -1.9746  -1.8375  -1.8005  -1.7802  -1.7016
    -1.6703  -1.5881  -1.5527  -1.4749  -1.4352  -1.3974  -1.3701  -1.3095
    -1.2750  -1.2264  -1.1923  -1.1591  -1.1240  -1.0154  -0.9707  -0.9345
    -0.9330  -0.8466  -0.8145  -0.7923  -0.7398  -0.6576  -0.5822  -0.4990
    -0.4727  -0.3621  -0.3155  -0.1852  -0.1440  -0.1202  -0.0513   0.0795
     0.1171   0.2354   0.3056   0.3126   0.4397   0.4933   0.6187   0.7201
     0.8303   0.8598   0.8990   0.9047   0.9485   0.9603   0.9942   1.0145
     1.0207   1.1334   1.1967   1.2233   1.2481   1.5101   1.5453   1.5695
     1.6668   1.6961   1.7172   1.7330   1.7573   1.7772   1.8002   1.8214
     1.8476   1.8804   1.9127   1.9159   1.9452   1.9989   2.0831   2.1145
     2.3010   2.4452   2.4560   2.4743   2.5101   2.5152   2.5236   2.5746
     2.5874   2.6125   2.6289   2.6443   2.6646   2.6938   2.7462   2.7571
     2.8218   2.8360   2.8518   2.8550   2.8732   2.8817   2.8861   2.8888
     2.8914   2.9065   2.9208   2.9241   2.9861   2.9914   3.0075   3.0608
     3.9879   4.0169   4.0361   4.1086   4.5907   4.7533   4.9293   5.0140
     5.3082   5.3759   5.5117   5.5938   5.8727   5.9013   6.2264   6.5901
     6.8090   6.9038   7.1581   7.3197   7.5653   7.6258   7.6799   7.7180
     7.7952   7.9494   8.0472   8.1414   8.2007   8.3668   8.5370   8.6115
     8.7077   8.7555

     occupation numbers 
     1.0000   1.0000   1.0000   1.0000   1.0000   1.0000   1.0000   1.0000
     1.0000   1.0000   1.0000   1.0000   1.0000   1.0000   1.0000   1.0000
     1.0000   1.0000   1.0000   1.0000   1.0000   1.0000   1.0000   1.0000
     1.0000   1.0000   1.0000   1.0000   1.0000   1.0000   1.0000   1.0000
     1.0000   1.0000   1.0000   1.0000   1.0000   1.0000   1.0000   1.0000
     1.0000   1.0000   1.0000   1.0000   1.0000   1.0000   1.0000   1.0000
     1.0000   1.0000   1.0000   1.0000   1.0000   1.0000   1.0000   1.0000
     1.0000   1.0000   1.0000   1.0000   1.0000   1.0000   1.0000   1.0000
     1.0000   1.0000   1.0000   1.0000   1.0000   1.0000   1.0000   1.0000
     1.0000   1.0000   1.0000   1.0000   1.0000   1.0000   1.0000   1.0000
     1.0000   1.0000   1.0000   1.0000   1.0000   1.0000   1.0000   1.0000
     1.0000   1.0000   1.0000   1.0000   1.0000   1.0000   1.0000   1.0000
     1.0000   1.0000   1.0000   1.0000   1.0000   1.0000   1.0000   1.0000
     1.0000   1.0000   1.0000   1.0000   1.0000   1.0000   1.0000   1.0000
     1.0000   1.0000   1.0000   1.0000   1.0000   1.0000   1.0000   1.0000
     1.0000   1.0000   1.0000   1.0000   1.0000   1.0000   1.0000   1.0000
     1.0000   1.0000   1.0000   1.0000   1.0000   1.0000   1.0000   1.0000
     1.0000   1.0000   1.0000   1.0000   1.0000   1.0000   1.0000   1.0000
     1.0000   1.0000   1.0000   1.0000   1.0000   1.0000   1.0000   1.0000
     1.0000   1.0000   1.0000   1.0000   1.0000   1.0000   0.9999   0.9999
     0.9997   0.9997   0.9996   0.9996   0.9995   0.9995   0.9994   0.9993
     0.9993   0.9987   0.9983   0.9981   0.9978   0.9931   0.9920   0.9912
     0.9871   0.9856   0.9844   0.9835   0.9819   0.9806   0.9789   0.9773
     0.9751   0.9721   0.9689   0.9685   0.9653   0.9588   0.9465   0.9412
     0.9011   0.8586   0.8549   0.8486   0.8358   0.8340   0.8308   0.8110
     0.8059   0.7955   0.7885   0.7818   0.7728   0.7595   0.7346   0.7293
     0.6966   0.6892   0.6809   0.6792   0.6694   0.6648   0.6624   0.6610
     0.6596   0.6513   0.6435   0.6416   0.6067   0.6037   0.5944   0.5634
     0.1118   0.1038   0.0988   0.0813   0.0173   0.0093   0.0045   0.0031
     0.0007   0.0005   0.0003   0.0002   0.0000   0.0000   0.0000   0.0000
     0.0000   0.0000   0.0000   0.0000   0.0000   0.0000   0.0000   0.0000
     0.0000   0.0000   0.0000   0.0000   0.0000   0.0000   0.0000   0.0000
     0.0000   0.0000

          k = 0.2500 0.2500 0.0000 ( 65198 PWs)   bands (ev):

   -92.8605 -92.8074 -92.7140 -92.6663 -92.6094 -92.5667 -92.5495 -92.4289
   -56.2140 -56.1940 -56.0711 -56.0608 -56.0529 -56.0477 -56.0118 -55.9831
   -55.9684 -55.9664 -55.9575 -55.9166 -55.8980 -55.8603 -55.8406 -55.8094
   -55.8006 -55.7547 -55.7534 -55.7517 -55.7432 -55.7037 -55.6796 -55.5957
   -31.4234 -31.4060 -31.2639 -31.2628 -31.1777 -31.1766 -30.8789 -30.7646
   -30.0042 -29.9621 -29.9373 -29.8281 -15.1714 -15.1276 -15.0589 -14.9419
   -14.8206 -14.6936 -14.6257 -14.4172 -14.2631 -14.2485 -14.2129 -14.1837
   -14.1604 -14.1295 -14.1006 -14.0741 -13.9956 -13.9785 -13.8171 -13.8021
   -13.7744 -13.7527 -13.7025 -13.6636 -13.5937 -13.5769 -13.4357 -13.4033
   -13.3760 -13.2902 -13.2504 -13.2142 -13.1922 -13.1660 -13.1384 -13.0985
   -13.0919 -13.0655 -13.0169 -12.9746 -12.8926 -12.8633 -12.8556 -12.8272
   -12.7856 -12.7128 -12.6006 -12.5862 -12.4901 -12.4255 -12.2195 -12.1796
   -11.9685 -11.9560 -11.9246 -11.9135 -11.9071 -11.8438 -11.8096 -11.8026
   -11.7670 -11.7600 -11.6668 -11.6266 -11.6090  -2.8245  -2.6161  -2.4980
    -2.4036  -2.2833  -2.2184  -2.0201  -1.8764  -1.8576  -1.8277  -1.7331
    -1.6982  -1.6040  -1.5755  -1.5257  -1.3952  -1.3461  -1.2739  -1.2291
    -1.1848  -1.1619  -1.1378  -1.0949  -1.0797  -0.9886  -0.9384  -0.8723
    -0.8227  -0.7917  -0.7442  -0.7267  -0.6647  -0.6171  -0.5596  -0.5244
    -0.4387  -0.3850  -0.3560  -0.3194  -0.2632  -0.1817  -0.1492  -0.1217
    -0.0377  -0.0046   0.2548   0.4022   0.4366   0.4987   0.5393   0.6131
     0.6675   0.7163   0.7507   1.0212   1.0853   1.1588   1.1835   1.2343
     1.2643   1.2994   1.3365   1.3537   1.3803   1.4278   1.4350   1.4491
     1.4951   1.5385   1.5730   1.6371   1.6800   1.6837   1.7268   1.7556
     1.8134   1.8451   1.9626   2.0233   2.0548   2.0782   2.1519   2.2180
     2.2411   2.2753   2.3028   2.3172   2.4259   2.4607   2.5489   2.6138
     2.6423   2.6847   2.7201   2.7364   2.7425   2.7592   2.7734   2.7860
     2.8009   2.8075   2.8182   2.8302   2.8430   2.8613   2.8670   2.8791
     2.9018   2.9130   2.9214   2.9533   3.2534   3.3493   3.3922   3.4654
     3.5095   3.7042   3.7975   4.1560   4.3771   4.5747   4.8289   5.1424
     5.5186   5.5764   5.6125   5.6824   5.7440   6.0592   6.1174   6.1721
     6.8490   7.0603   7.1467   7.3604   7.4714   7.4998   7.6101   7.7762
     7.8589   7.9749   8.1799   8.2214   8.3101   8.3440   8.4153   8.4557
     8.5462   8.8205

     occupation numbers 
     1.0000   1.0000   1.0000   1.0000   1.0000   1.0000   1.0000   1.0000
     1.0000   1.0000   1.0000   1.0000   1.0000   1.0000   1.0000   1.0000
     1.0000   1.0000   1.0000   1.0000   1.0000   1.0000   1.0000   1.0000
     1.0000   1.0000   1.0000   1.0000   1.0000   1.0000   1.0000   1.0000
     1.0000   1.0000   1.0000   1.0000   1.0000   1.0000   1.0000   1.0000
     1.0000   1.0000   1.0000   1.0000   1.0000   1.0000   1.0000   1.0000
     1.0000   1.0000   1.0000   1.0000   1.0000   1.0000   1.0000   1.0000
     1.0000   1.0000   1.0000   1.0000   1.0000   1.0000   1.0000   1.0000
     1.0000   1.0000   1.0000   1.0000   1.0000   1.0000   1.0000   1.0000
     1.0000   1.0000   1.0000   1.0000   1.0000   1.0000   1.0000   1.0000
     1.0000   1.0000   1.0000   1.0000   1.0000   1.0000   1.0000   1.0000
     1.0000   1.0000   1.0000   1.0000   1.0000   1.0000   1.0000   1.0000
     1.0000   1.0000   1.0000   1.0000   1.0000   1.0000   1.0000   1.0000
     1.0000   1.0000   1.0000   1.0000   1.0000   1.0000   1.0000   1.0000
     1.0000   1.0000   1.0000   1.0000   1.0000   1.0000   1.0000   1.0000
     1.0000   1.0000   1.0000   1.0000   1.0000   1.0000   1.0000   1.0000
     1.0000   1.0000   1.0000   1.0000   1.0000   1.0000   1.0000   1.0000
     1.0000   1.0000   1.0000   1.0000   1.0000   1.0000   1.0000   1.0000
     1.0000   1.0000   1.0000   1.0000   1.0000   1.0000   1.0000   1.0000
     1.0000   1.0000   1.0000   1.0000   1.0000   1.0000   1.0000   0.9999
     0.9999   0.9999   0.9998   0.9993   0.9990   0.9986   0.9984   0.9980
     0.9977   0.9972   0.9967   0.9965   0.9960   0.9951   0.9950   0.9947
     0.9935   0.9922   0.9911   0.9885   0.9865   0.9863   0.9838   0.9820
     0.9779   0.9753   0.9633   0.9555   0.9509   0.9473   0.9344   0.9209
     0.9157   0.9076   0.9007   0.8969   0.8649   0.8533   0.8212   0.7949
     0.7826   0.7637   0.7472   0.7394   0.7364   0.7283   0.7212   0.7149
     0.7074   0.7040   0.6985   0.6922   0.6855   0.6758   0.6727   0.6663
     0.6539   0.6477   0.6431   0.6253   0.4498   0.3941   0.3698   0.3296
     0.3063   0.2131   0.1751   0.0713   0.0363   0.0184   0.0068   0.0017
     0.0002   0.0002   0.0001   0.0001   0.0001   0.0000   0.0000   0.0000
     0.0000   0.0000   0.0000   0.0000   0.0000   0.0000   0.0000   0.0000
     0.0000   0.0000   0.0000   0.0000   0.0000   0.0000   0.0000   0.0000
     0.0000   0.0000

          k = 0.2500-0.5000 0.0000 ( 65138 PWs)   bands (ev):

   -92.8605 -92.8074 -92.7140 -92.6663 -92.6094 -92.5667 -92.5495 -92.4289
   -56.2140 -56.1940 -56.0711 -56.0608 -56.0529 -56.0477 -56.0118 -55.9831
   -55.9684 -55.9664 -55.9575 -55.9166 -55.8980 -55.8603 -55.8406 -55.8094
   -55.8006 -55.7547 -55.7534 -55.7517 -55.7432 -55.7037 -55.6796 -55.5957
   -31.4232 -31.4059 -31.2641 -31.2625 -31.1780 -31.1767 -30.8786 -30.7648
   -30.0036 -29.9618 -29.9380 -29.8284 -15.1329 -15.0883 -15.0172 -14.9033
   -14.8736 -14.7539 -14.6621 -14.5311 -14.2281 -14.1740 -14.1480 -14.1246
   -14.1101 -14.0964 -14.0604 -14.0426 -14.0105 -13.9715 -13.9462 -13.9059
   -13.8196 -13.7700 -13.7192 -13.6910 -13.6210 -13.6063 -13.4935 -13.4574
   -13.3542 -13.2896 -13.2711 -13.1940 -13.1687 -13.1488 -13.1315 -13.1097
   -13.0895 -13.0596 -12.9726 -12.9475 -12.8879 -12.8662 -12.8055 -12.7948
   -12.7732 -12.7188 -12.6695 -12.4765 -12.4682 -12.3617 -12.2885 -12.2566
   -11.9685 -11.9319 -11.9198 -11.9089 -11.8821 -11.8504 -11.8223 -11.7805
   -11.7530 -11.7308 -11.6852 -11.6601 -11.6487  -2.6066  -2.5399  -2.4123
    -2.3357  -2.2056  -2.1200  -1.9988  -1.8487  -1.7951  -1.7726  -1.7092
    -1.6968  -1.5990  -1.5321  -1.4477  -1.3967  -1.3873  -1.3254  -1.2808
    -1.2478  -1.2008  -1.1631  -1.1282  -1.0886  -1.0767  -1.0314  -1.0013
    -0.9603  -0.9287  -0.8618  -0.7604  -0.7165  -0.6407  -0.5750  -0.5262
    -0.4833  -0.4627  -0.4092  -0.2464  -0.2338  -0.1325  -0.0956  -0.0856
    -0.0422  -0.0121   0.0338   0.0559   0.1191   0.3958   0.4939   0.5844
     0.6374   0.8821   0.9104   0.9946   1.0203   1.1824   1.2173   1.2595
     1.2796   1.2958   1.3159   1.3789   1.4261   1.4609   1.5468   1.6371
     1.6793   1.6948   1.7079   1.7434   1.7567   1.7622   1.8096   1.8181
     1.8460   1.8769   1.8913   1.9043   1.9434   1.9993   2.0369   2.1175
     2.2573   2.3974   2.4148   2.4336   2.4618   2.4860   2.5119   2.5338
     2.5435   2.5683   2.6140   2.6398   2.6744   2.6939   2.7235   2.7379
     2.7437   2.7560   2.7760   2.7895   2.8091   2.8166   2.8494   2.8613
     2.8747   2.8859   2.8937   2.9044   3.4380   3.4447   3.5853   3.6363
     4.0014   4.0339   4.0532   4.1645   4.6092   4.7744   4.9482   4.9812
     5.1588   5.3195   5.5201   5.5401   5.6496   5.6857   6.3042   6.3595
     6.4576   6.6864   7.2725   7.6039   7.6739   7.7131   7.7465   7.8096
     7.8871   7.9494   8.1225   8.3134   8.3926   8.4289   8.5667   8.6058
     8.6564   8.7167

     occupation numbers 
     1.0000   1.0000   1.0000   1.0000   1.0000   1.0000   1.0000   1.0000
     1.0000   1.0000   1.0000   1.0000   1.0000   1.0000   1.0000   1.0000
     1.0000   1.0000   1.0000   1.0000   1.0000   1.0000   1.0000   1.0000
     1.0000   1.0000   1.0000   1.0000   1.0000   1.0000   1.0000   1.0000
     1.0000   1.0000   1.0000   1.0000   1.0000   1.0000   1.0000   1.0000
     1.0000   1.0000   1.0000   1.0000   1.0000   1.0000   1.0000   1.0000
     1.0000   1.0000   1.0000   1.0000   1.0000   1.0000   1.0000   1.0000
     1.0000   1.0000   1.0000   1.0000   1.0000   1.0000   1.0000   1.0000
     1.0000   1.0000   1.0000   1.0000   1.0000   1.0000   1.0000   1.0000
     1.0000   1.0000   1.0000   1.0000   1.0000   1.0000   1.0000   1.0000
     1.0000   1.0000   1.0000   1.0000   1.0000   1.0000   1.0000   1.0000
     1.0000   1.0000   1.0000   1.0000   1.0000   1.0000   1.0000   1.0000
     1.0000   1.0000   1.0000   1.0000   1.0000   1.0000   1.0000   1.0000
     1.0000   1.0000   1.0000   1.0000   1.0000   1.0000   1.0000   1.0000
     1.0000   1.0000   1.0000   1.0000   1.0000   1.0000   1.0000   1.0000
     1.0000   1.0000   1.0000   1.0000   1.0000   1.0000   1.0000   1.0000
     1.0000   1.0000   1.0000   1.0000   1.0000   1.0000   1.0000   1.0000
     1.0000   1.0000   1.0000   1.0000   1.0000   1.0000   1.0000   1.0000
     1.0000   1.0000   1.0000   1.0000   1.0000   1.0000   1.0000   1.0000
     1.0000   1.0000   1.0000   1.0000   1.0000   1.0000   1.0000   0.9999
     0.9999   0.9997   0.9996   0.9994   0.9993   0.9984   0.9981   0.9977
     0.9975   0.9973   0.9970   0.9961   0.9952   0.9944   0.9920   0.9885
     0.9865   0.9857   0.9849   0.9828   0.9820   0.9816   0.9782   0.9775
     0.9752   0.9724   0.9710   0.9697   0.9655   0.9587   0.9535   0.9407
     0.9120   0.8739   0.8684   0.8624   0.8530   0.8445   0.8352   0.8270
     0.8233   0.8136   0.7948   0.7837   0.7684   0.7595   0.7456   0.7387
     0.7358   0.7298   0.7200   0.7132   0.7032   0.6993   0.6821   0.6758
     0.6686   0.6626   0.6583   0.6525   0.3445   0.3408   0.2680   0.2436
     0.1081   0.0994   0.0945   0.0696   0.0162   0.0085   0.0041   0.0036
     0.0016   0.0007   0.0002   0.0002   0.0001   0.0001   0.0000   0.0000
     0.0000   0.0000   0.0000   0.0000   0.0000   0.0000   0.0000   0.0000
     0.0000   0.0000   0.0000   0.0000   0.0000   0.0000   0.0000   0.0000
     0.0000   0.0000

          k =-0.5000-0.5000 0.0000 ( 65132 PWs)   bands (ev):

   -92.8605 -92.8074 -92.7140 -92.6663 -92.6094 -92.5667 -92.5495 -92.4289
   -56.2140 -56.1940 -56.0711 -56.0608 -56.0529 -56.0477 -56.0118 -55.9831
   -55.9684 -55.9664 -55.9575 -55.9166 -55.8980 -55.8603 -55.8406 -55.8094
   -55.8006 -55.7547 -55.7534 -55.7517 -55.7432 -55.7037 -55.6796 -55.5957
   -31.4212 -31.4078 -31.2637 -31.2624 -31.1779 -31.1771 -30.8787 -30.7649
   -30.0026 -29.9628 -29.9376 -29.8289 -15.0851 -15.0613 -14.9437 -14.9296
   -14.8370 -14.8000 -14.7672 -14.6316 -14.1389 -14.1255 -14.0922 -14.0748
   -14.0549 -14.0409 -14.0143 -14.0019 -13.9897 -13.9797 -13.9656 -13.8874
   -13.8765 -13.8520 -13.8135 -13.8026 -13.7066 -13.6706 -13.5291 -13.4971
   -13.3037 -13.2697 -13.1990 -13.1739 -13.1644 -13.1440 -13.1320 -13.1223
   -13.1077 -13.0977 -12.9759 -12.9381 -12.8951 -12.8702 -12.8079 -12.7561
   -12.7480 -12.7212 -12.6856 -12.4667 -12.4561 -12.3361 -12.2766 -12.2637
   -11.9685 -11.9283 -11.9164 -11.8985 -11.8816 -11.8466 -11.8279 -11.7949
   -11.7330 -11.7138 -11.7074 -11.6579 -11.6544  -2.3822  -2.3070  -2.2951
    -2.2233  -2.1859  -2.1077  -2.0400  -1.9143  -1.7993  -1.7684  -1.7298
    -1.6721  -1.6007  -1.5857  -1.5154  -1.4726  -1.3553  -1.3245  -1.2774
    -1.2499  -1.1855  -1.1377  -1.1195  -1.1061  -1.0532  -1.0101  -0.9940
    -0.8807  -0.8219  -0.7754  -0.7269  -0.6980  -0.6878  -0.6524  -0.6067
    -0.5734  -0.5641  -0.4764  -0.4108  -0.3669  -0.3382  -0.2666  -0.2081
    -0.1841  -0.1345  -0.1096  -0.0965  -0.0772   0.3680   0.4160   0.5323
     0.5632   0.9159   0.9281   0.9601   0.9993   1.2689   1.2886   1.2953
     1.3343   1.4610   1.5569   1.5836   1.6204   1.6443   1.6698   1.6762
     1.7053   1.7194   1.7409   1.7479   1.7938   1.7944   1.8248   1.8619
     1.8667   1.8815   1.9191   1.9401   1.9572   1.9875   2.0171   2.0760
     2.1438   2.4066   2.4402   2.4603   2.4799   2.4839   2.5209   2.5233
     2.5423   2.5534   2.5690   2.5884   2.6042   2.6179   2.6378   2.6700
     2.6776   2.6830   2.7010   2.7219   2.7258   2.7423   2.7483   2.7550
     2.8579   2.8631   2.8919   2.9011   3.8679   3.8859   3.9226   3.9558
     4.1620   4.2379   4.2604   4.5014   4.6236   4.7062   4.8393   4.9428
     4.9533   5.0489   5.1953   5.2532   5.8179   5.8650   5.9090   6.0165
     6.4345   6.8230   6.9930   7.5322   7.8590   7.8689   7.9488   8.0745
     8.1087   8.1732   8.2104   8.2488   8.3036   8.4727   8.4998   8.5215
     8.5487   8.6016

     occupation numbers 
     1.0000   1.0000   1.0000   1.0000   1.0000   1.0000   1.0000   1.0000
     1.0000   1.0000   1.0000   1.0000   1.0000   1.0000   1.0000   1.0000
     1.0000   1.0000   1.0000   1.0000   1.0000   1.0000   1.0000   1.0000
     1.0000   1.0000   1.0000   1.0000   1.0000   1.0000   1.0000   1.0000
     1.0000   1.0000   1.0000   1.0000   1.0000   1.0000   1.0000   1.0000
     1.0000   1.0000   1.0000   1.0000   1.0000   1.0000   1.0000   1.0000
     1.0000   1.0000   1.0000   1.0000   1.0000   1.0000   1.0000   1.0000
     1.0000   1.0000   1.0000   1.0000   1.0000   1.0000   1.0000   1.0000
     1.0000   1.0000   1.0000   1.0000   1.0000   1.0000   1.0000   1.0000
     1.0000   1.0000   1.0000   1.0000   1.0000   1.0000   1.0000   1.0000
     1.0000   1.0000   1.0000   1.0000   1.0000   1.0000   1.0000   1.0000
     1.0000   1.0000   1.0000   1.0000   1.0000   1.0000   1.0000   1.0000
     1.0000   1.0000   1.0000   1.0000   1.0000   1.0000   1.0000   1.0000
     1.0000   1.0000   1.0000   1.0000   1.0000   1.0000   1.0000   1.0000
     1.0000   1.0000   1.0000   1.0000   1.0000   1.0000   1.0000   1.0000
     1.0000   1.0000   1.0000   1.0000   1.0000   1.0000   1.0000   1.0000
     1.0000   1.0000   1.0000   1.0000   1.0000   1.0000   1.0000   1.0000
     1.0000   1.0000   1.0000   1.0000   1.0000   1.0000   1.0000   1.0000
     1.0000   1.0000   1.0000   1.0000   1.0000   1.0000   1.0000   1.0000
     1.0000   1.0000   1.0000   1.0000   1.0000   1.0000   1.0000   1.0000
     0.9999   0.9996   0.9996   0.9995   0.9994   0.9976   0.9974   0.9973
     0.9968   0.9944   0.9916   0.9907   0.9892   0.9882   0.9870   0.9866
     0.9851   0.9843   0.9830   0.9825   0.9794   0.9793   0.9770   0.9738
     0.9734   0.9720   0.9682   0.9659   0.9639   0.9602   0.9563   0.9476
     0.9359   0.8710   0.8602   0.8535   0.8467   0.8453   0.8319   0.8309
     0.8237   0.8194   0.8133   0.8054   0.7989   0.7932   0.7846   0.7704
     0.7669   0.7645   0.7562   0.7463   0.7445   0.7366   0.7336   0.7303
     0.6776   0.6749   0.6593   0.6543   0.1495   0.1434   0.1314   0.1212
     0.0701   0.0561   0.0525   0.0239   0.0154   0.0112   0.0065   0.0042
     0.0040   0.0026   0.0013   0.0010   0.0000   0.0000   0.0000   0.0000
     0.0000   0.0000   0.0000   0.0000   0.0000   0.0000   0.0000   0.0000
     0.0000   0.0000   0.0000   0.0000   0.0000   0.0000   0.0000   0.0000
     0.0000   0.0000

          k = 0.2500 0.0000 0.0000 ( 65257 PWs)   bands (ev):

   -92.8605 -92.8074 -92.7140 -92.6663 -92.6094 -92.5667 -92.5495 -92.4289
   -56.2140 -56.1940 -56.0711 -56.0608 -56.0529 -56.0477 -56.0118 -55.9831
   -55.9684 -55.9664 -55.9575 -55.9166 -55.8980 -55.8603 -55.8406 -55.8094
[...]
     0.6337   0.6207   0.6183   0.6142   0.6104   0.6047   0.5994   0.5220
     0.3468   0.3188   0.2043   0.0768   0.0429   0.0205   0.0050   0.0031
     0.0002   0.0001   0.0000   0.0000   0.0000   0.0000   0.0000   0.0000
     0.0000   0.0000   0.0000   0.0000   0.0000   0.0000   0.0000   0.0000
     0.0000   0.0000   0.0000   0.0000   0.0000   0.0000   0.0000   0.0000
     0.0000   0.0000

          k =-0.5000 0.0000 0.0000 ( 65180 PWs)   bands (ev):

   -92.8605 -92.8074 -92.7140 -92.6663 -92.6094 -92.5667 -92.5495 -92.4289
   -56.2140 -56.1940 -56.0711 -56.0608 -56.0529 -56.0477 -56.0118 -55.9831
   -55.9684 -55.9664 -55.9575 -55.9166 -55.8980 -55.8603 -55.8406 -55.8094
   -55.8006 -55.7547 -55.7534 -55.7517 -55.7432 -55.7037 -55.6796 -55.5957
   -31.4216 -31.4081 -31.2633 -31.2631 -31.1772 -31.1768 -30.8793 -30.7644
   -30.0038 -29.9634 -29.9363 -29.8282 -15.1697 -15.1153 -15.0536 -14.9488
   -14.8423 -14.7002 -14.5454 -14.4150 -14.2868 -14.2756 -14.2633 -14.1953
   -14.1429 -14.1106 -14.0614 -14.0600 -14.0405 -13.9909 -13.9793 -13.8602
   -13.7089 -13.6819 -13.6485 -13.6424 -13.5753 -13.5169 -13.4331 -13.4139
   -13.3900 -13.3691 -13.2436 -13.2022 -13.1898 -13.1682 -13.1572 -13.1187
   -13.0945 -13.0760 -13.0613 -13.0472 -12.8259 -12.7893 -12.7799 -12.7156
   -12.7097 -12.6890 -12.6836 -12.5995 -12.4892 -12.4752 -12.2651 -12.2252
   -11.9681 -11.9360 -11.9138 -11.9074 -11.8918 -11.8739 -11.8324 -11.7708
   -11.7537 -11.7211 -11.6740 -11.6649 -11.6498  -2.7381  -2.7001  -2.5363
    -2.4976  -2.1828  -2.1087  -1.9592  -1.8434  -1.8041  -1.7584  -1.7100
    -1.6861  -1.5618  -1.5182  -1.5014  -1.4196  -1.3852  -1.3671  -1.3379
    -1.2788  -1.2108  -1.1822  -1.1525  -1.0572  -1.0106  -0.9606  -0.9282
    -0.9069  -0.8775  -0.8293  -0.8046  -0.7637  -0.6670  -0.5895  -0.5277
    -0.4656  -0.2902  -0.2582  -0.2113  -0.1769  -0.1048  -0.1003   0.0458
     0.0727   0.1253   0.2842   0.3835   0.4309   0.5242   0.6034   0.7142
     0.7207   0.8565   0.8763   0.9306   0.9601   0.9994   1.0090   1.0520
     1.0784   1.1465   1.1955   1.2424   1.2501   1.5563   1.5595   1.5821
     1.6022   1.7038   1.7191   1.7352   1.7470   1.7722   1.7819   1.8257
     1.8442   1.8757   1.9213   1.9416   1.9879   2.0177   2.0667   2.1848
     2.2854   2.3455   2.3608   2.4347   2.4687   2.4950   2.5663   2.5720
     2.5816   2.6110   2.6201   2.6297   2.6816   2.6962   2.7282   2.7726
     2.8049   2.8437   2.8480   2.8489   2.8602   2.8776   2.8867   2.9012
     2.9065   2.9299   2.9309   2.9520   2.9715   2.9768   3.1099   3.1158
     3.9307   3.9742   4.0364   4.2019   4.6398   4.7192   4.9020   4.9466
     5.3903   5.4265   5.5079   5.5243   5.8772   5.8842   6.1762   6.6916
     6.7494   6.9598   7.2148   7.2727   7.5748   7.6003   7.6477   7.7121
     7.7769   7.8154   8.0450   8.1353   8.2356   8.3883   8.5080   8.6549
     8.7258   8.8129

     occupation numbers 
     1.0000   1.0000   1.0000   1.0000   1.0000   1.0000   1.0000   1.0000
     1.0000   1.0000   1.0000   1.0000   1.0000   1.0000   1.0000   1.0000
     1.0000   1.0000   1.0000   1.0000   1.0000   1.0000   1.0000   1.0000
     1.0000   1.0000   1.0000   1.0000   1.0000   1.0000   1.0000   1.0000
     1.0000   1.0000   1.0000   1.0000   1.0000   1.0000   1.0000   1.0000
     1.0000   1.0000   1.0000   1.0000   1.0000   1.0000   1.0000   1.0000
     1.0000   1.0000   1.0000   1.0000   1.0000   1.0000   1.0000   1.0000
     1.0000   1.0000   1.0000   1.0000   1.0000   1.0000   1.0000   1.0000
     1.0000   1.0000   1.0000   1.0000   1.0000   1.0000   1.0000   1.0000
     1.0000   1.0000   1.0000   1.0000   1.0000   1.0000   1.0000   1.0000
     1.0000   1.0000   1.0000   1.0000   1.0000   1.0000   1.0000   1.0000
     1.0000   1.0000   1.0000   1.0000   1.0000   1.0000   1.0000   1.0000
     1.0000   1.0000   1.0000   1.0000   1.0000   1.0000   1.0000   1.0000
     1.0000   1.0000   1.0000   1.0000   1.0000   1.0000   1.0000   1.0000
     1.0000   1.0000   1.0000   1.0000   1.0000   1.0000   1.0000   1.0000
     1.0000   1.0000   1.0000   1.0000   1.0000   1.0000   1.0000   1.0000
     1.0000   1.0000   1.0000   1.0000   1.0000   1.0000   1.0000   1.0000
     1.0000   1.0000   1.0000   1.0000   1.0000   1.0000   1.0000   1.0000
     1.0000   1.0000   1.0000   1.0000   1.0000   1.0000   1.0000   1.0000
     1.0000   1.0000   1.0000   1.0000   1.0000   1.0000   0.9999   0.9999
     0.9999   0.9997   0.9997   0.9996   0.9995   0.9994   0.9993   0.9992
     0.9990   0.9987   0.9983   0.9979   0.9978   0.9917   0.9916   0.9908
     0.9900   0.9852   0.9843   0.9833   0.9826   0.9809   0.9802   0.9769
     0.9754   0.9725   0.9680   0.9657   0.9602   0.9562   0.9491   0.9279
     0.9051   0.8891   0.8848   0.8620   0.8506   0.8413   0.8144   0.8121
     0.8082   0.7961   0.7922   0.7881   0.7651   0.7584   0.7433   0.7217
     0.7053   0.6851   0.6829   0.6824   0.6764   0.6670   0.6621   0.6543
     0.6513   0.6384   0.6378   0.6260   0.6150   0.6120   0.5346   0.5312
     0.1288   0.1157   0.0987   0.0624   0.0144   0.0106   0.0050   0.0041
     0.0005   0.0004   0.0003   0.0002   0.0000   0.0000   0.0000   0.0000
     0.0000   0.0000   0.0000   0.0000   0.0000   0.0000   0.0000   0.0000
     0.0000   0.0000   0.0000   0.0000   0.0000   0.0000   0.0000   0.0000
     0.0000   0.0000

          k =-0.2500 0.2500 0.0000 ( 65198 PWs)   bands (ev):

   -92.8605 -92.8074 -92.7140 -92.6663 -92.6094 -92.5667 -92.5495 -92.4289
   -56.2140 -56.1940 -56.0711 -56.0608 -56.0529 -56.0477 -56.0118 -55.9831
   -55.9684 -55.9664 -55.9575 -55.9166 -55.8980 -55.8603 -55.8406 -55.8094
   -55.8006 -55.7547 -55.7534 -55.7517 -55.7432 -55.7037 -55.6796 -55.5957
   -31.4234 -31.4060 -31.2639 -31.2628 -31.1777 -31.1766 -30.8789 -30.7646
   -30.0042 -29.9621 -29.9373 -29.8281 -15.1727 -15.1265 -15.0575 -14.9403
   -14.8267 -14.6981 -14.6177 -14.4081 -14.2697 -14.2392 -14.2263 -14.1780
   -14.1554 -14.1340 -14.1128 -14.0754 -13.9914 -13.9796 -13.8241 -13.8003
   -13.7708 -13.7492 -13.7049 -13.6507 -13.5883 -13.5848 -13.4441 -13.4020
   -13.3704 -13.2939 -13.2527 -13.2023 -13.1863 -13.1590 -13.1381 -13.1084
   -13.0768 -13.0742 -13.0311 -12.9907 -12.9193 -12.8692 -12.8408 -12.8157
   -12.7680 -12.7123 -12.5904 -12.5685 -12.5137 -12.4312 -12.2240 -12.1736
   -11.9685 -11.9552 -11.9341 -11.9066 -11.8949 -11.8534 -11.8193 -11.7956
   -11.7750 -11.7519 -11.6665 -11.6219 -11.6124  -2.8229  -2.6150  -2.4939
    -2.4051  -2.2875  -2.2212  -2.0177  -1.8732  -1.8553  -1.8257  -1.7336
    -1.6970  -1.6035  -1.5694  -1.5430  -1.4009  -1.3449  -1.2768  -1.2479
    -1.1880  -1.1677  -1.1277  -1.0989  -1.0585  -0.9949  -0.9470  -0.8840
    -0.8143  -0.7873  -0.7373  -0.7079  -0.6624  -0.6070  -0.5627  -0.5193
    -0.4199  -0.3867  -0.3731  -0.3328  -0.2646  -0.1873  -0.1434  -0.1142
    -0.0355  -0.0064   0.2360   0.4046   0.4448   0.4855   0.5477   0.6181
     0.6659   0.7229   0.7491   1.0292   1.1354   1.1760   1.2085   1.2145
     1.2583   1.2740   1.3184   1.3489   1.3631   1.3883   1.4352   1.4521
     1.4936   1.5120   1.5573   1.6509   1.6724   1.6827   1.7323   1.7516
     1.7921   1.8549   1.9532   2.0512   2.0775   2.1272   2.1485   2.2163
     2.2526   2.2780   2.3050   2.3259   2.4250   2.4601   2.5501   2.6140
     2.6410   2.6845   2.7266   2.7357   2.7484   2.7577   2.7695   2.7834
     2.7899   2.8075   2.8184   2.8306   2.8405   2.8526   2.8624   2.8697
     2.9032   2.9129   2.9205   2.9556   3.2467   3.3296   3.3964   3.4844
     3.5027   3.6891   3.8061   4.1552   4.3754   4.5760   4.8388   5.1427
     5.5200   5.5722   5.6159   5.6792   5.7450   6.0633   6.1253   6.1581
     6.8497   7.0684   7.1382   7.3663   7.4808   7.5059   7.5852   7.7860
     7.8394   7.9924   8.2129   8.2232   8.2630   8.3451   8.4372   8.4464
     8.5370   8.8267

     occupation numbers 
     1.0000   1.0000   1.0000   1.0000   1.0000   1.0000   1.0000   1.0000
     1.0000   1.0000   1.0000   1.0000   1.0000   1.0000   1.0000   1.0000
     1.0000   1.0000   1.0000   1.0000   1.0000   1.0000   1.0000   1.0000
     1.0000   1.0000   1.0000   1.0000   1.0000   1.0000   1.0000   1.0000
     1.0000   1.0000   1.0000   1.0000   1.0000   1.0000   1.0000   1.0000
     1.0000   1.0000   1.0000   1.0000   1.0000   1.0000   1.0000   1.0000
     1.0000   1.0000   1.0000   1.0000   1.0000   1.0000   1.0000   1.0000
     1.0000   1.0000   1.0000   1.0000   1.0000   1.0000   1.0000   1.0000
     1.0000   1.0000   1.0000   1.0000   1.0000   1.0000   1.0000   1.0000
     1.0000   1.0000   1.0000   1.0000   1.0000   1.0000   1.0000   1.0000
     1.0000   1.0000   1.0000   1.0000   1.0000   1.0000   1.0000   1.0000
     1.0000   1.0000   1.0000   1.0000   1.0000   1.0000   1.0000   1.0000
     1.0000   1.0000   1.0000   1.0000   1.0000   1.0000   1.0000   1.0000
     1.0000   1.0000   1.0000   1.0000   1.0000   1.0000   1.0000   1.0000
     1.0000   1.0000   1.0000   1.0000   1.0000   1.0000   1.0000   1.0000
     1.0000   1.0000   1.0000   1.0000   1.0000   1.0000   1.0000   1.0000
     1.0000   1.0000   1.0000   1.0000   1.0000   1.0000   1.0000   1.0000
     1.0000   1.0000   1.0000   1.0000   1.0000   1.0000   1.0000   1.0000
     1.0000   1.0000   1.0000   1.0000   1.0000   1.0000   1.0000   1.0000
     1.0000   1.0000   1.0000   1.0000   1.0000   1.0000   1.0000   0.9999
     0.9999   0.9999   0.9998   0.9993   0.9987   0.9985   0.9982   0.9981
     0.9977   0.9975   0.9970   0.9966   0.9963   0.9959   0.9950   0.9946
     0.9936   0.9930   0.9916   0.9879   0.9868   0.9863   0.9835   0.9823
     0.9795   0.9744   0.9644   0.9514   0.9474   0.9389   0.9350   0.9213
     0.9131   0.9069   0.9001   0.8945   0.8652   0.8536   0.8207   0.7948
     0.7832   0.7638   0.7441   0.7398   0.7336   0.7290   0.7232   0.7162
     0.7130   0.7040   0.6984   0.6920   0.6868   0.6805   0.6752   0.6713
     0.6531   0.6478   0.6436   0.6240   0.4537   0.4054   0.3675   0.3195
     0.3098   0.2197   0.1719   0.0714   0.0365   0.0183   0.0066   0.0017
     0.0002   0.0002   0.0001   0.0001   0.0001   0.0000   0.0000   0.0000
     0.0000   0.0000   0.0000   0.0000   0.0000   0.0000   0.0000   0.0000
     0.0000   0.0000   0.0000   0.0000   0.0000   0.0000   0.0000   0.0000
     0.0000   0.0000

          k =-0.5000 0.2500 0.0000 ( 65138 PWs)   bands (ev):

   -92.8605 -92.8074 -92.7140 -92.6663 -92.6094 -92.5667 -92.5495 -92.4289
   -56.2140 -56.1940 -56.0711 -56.0608 -56.0529 -56.0477 -56.0118 -55.9831
   -55.9684 -55.9664 -55.9575 -55.9166 -55.8980 -55.8603 -55.8406 -55.8094
   -55.8006 -55.7547 -55.7534 -55.7517 -55.7432 -55.7037 -55.6796 -55.5957
   -31.4214 -31.4080 -31.2635 -31.2628 -31.1776 -31.1769 -30.8790 -30.7646
   -30.0032 -29.9631 -29.9369 -29.8285 -15.1364 -15.0894 -15.0103 -14.9143
   -14.8726 -14.7467 -14.6521 -14.5293 -14.2207 -14.1892 -14.1770 -14.1288
   -14.1091 -14.0843 -14.0482 -14.0462 -14.0183 -13.9829 -13.9715 -13.8561
   -13.7900 -13.7422 -13.7385 -13.7239 -13.6252 -13.6175 -13.4764 -13.4444
   -13.3465 -13.3134 -13.2191 -13.1993 -13.1734 -13.1635 -13.1409 -13.1100
   -13.0897 -13.0793 -13.0458 -12.9971 -12.8387 -12.7917 -12.7785 -12.7708
   -12.7636 -12.7120 -12.6870 -12.5139 -12.4706 -12.4092 -12.2660 -12.2410
   -11.9684 -11.9285 -11.9153 -11.9013 -11.8897 -11.8674 -11.8373 -11.7580
   -11.7489 -11.7264 -11.6885 -11.6609 -11.6525  -2.5956  -2.5541  -2.4058
    -2.3638  -2.2019  -2.1271  -1.9836  -1.8496  -1.7926  -1.7658  -1.7263
    -1.6884  -1.6071  -1.4920  -1.4343  -1.4117  -1.3862  -1.3066  -1.2814
    -1.2407  -1.2250  -1.1636  -1.1345  -1.0958  -1.0605  -1.0316  -0.9735
    -0.9463  -0.9050  -0.8698  -0.7656  -0.7369  -0.6494  -0.5856  -0.5535
    -0.5005  -0.4130  -0.3777  -0.2803  -0.2347  -0.1801  -0.1244  -0.1069
    -0.0341  -0.0042   0.0318   0.0763   0.1152   0.4308   0.4939   0.5759
     0.6029   0.8670   0.9223   0.9941   1.0220   1.1960   1.2330   1.2704
     1.2808   1.2992   1.3171   1.3879   1.4293   1.4748   1.4998   1.6323
     1.6627   1.6924   1.7066   1.7541   1.7672   1.7829   1.7991   1.8173
     1.8384   1.8900   1.8981   1.9354   1.9568   1.9948   2.0464   2.1712
     2.2690   2.2930   2.3601   2.3954   2.4503   2.4947   2.4990   2.5380
     2.5717   2.5938   2.6164   2.6304   2.6851   2.6963   2.7238   2.7377
     2.7427   2.7622   2.7854   2.7971   2.8133   2.8236   2.8460   2.8588
     2.8688   2.8759   2.8895   2.8993   3.4310   3.4852   3.6179   3.6414
     3.9356   3.9965   4.0476   4.2720   4.6327   4.7317   4.9001   4.9594
     5.2546   5.2878   5.5103   5.5785   5.6326   5.6580   6.2633   6.3491
     6.4679   6.8072   7.1595   7.6203   7.6905   7.7231   7.7464   7.7858
     7.8957   7.9452   8.0890   8.2834   8.3977   8.4390   8.5238   8.5821
     8.7155   8.7976

     occupation numbers 
     1.0000   1.0000   1.0000   1.0000   1.0000   1.0000   1.0000   1.0000
     1.0000   1.0000   1.0000   1.0000   1.0000   1.0000   1.0000   1.0000
     1.0000   1.0000   1.0000   1.0000   1.0000   1.0000   1.0000   1.0000
     1.0000   1.0000   1.0000   1.0000   1.0000   1.0000   1.0000   1.0000
     1.0000   1.0000   1.0000   1.0000   1.0000   1.0000   1.0000   1.0000
     1.0000   1.0000   1.0000   1.0000   1.0000   1.0000   1.0000   1.0000
     1.0000   1.0000   1.0000   1.0000   1.0000   1.0000   1.0000   1.0000
     1.0000   1.0000   1.0000   1.0000   1.0000   1.0000   1.0000   1.0000
     1.0000   1.0000   1.0000   1.0000   1.0000   1.0000   1.0000   1.0000
     1.0000   1.0000   1.0000   1.0000   1.0000   1.0000   1.0000   1.0000
     1.0000   1.0000   1.0000   1.0000   1.0000   1.0000   1.0000   1.0000
     1.0000   1.0000   1.0000   1.0000   1.0000   1.0000   1.0000   1.0000
     1.0000   1.0000   1.0000   1.0000   1.0000   1.0000   1.0000   1.0000
     1.0000   1.0000   1.0000   1.0000   1.0000   1.0000   1.0000   1.0000
     1.0000   1.0000   1.0000   1.0000   1.0000   1.0000   1.0000   1.0000
     1.0000   1.0000   1.0000   1.0000   1.0000   1.0000   1.0000   1.0000
     1.0000   1.0000   1.0000   1.0000   1.0000   1.0000   1.0000   1.0000
     1.0000   1.0000   1.0000   1.0000   1.0000   1.0000   1.0000   1.0000
     1.0000   1.0000   1.0000   1.0000   1.0000   1.0000   1.0000   1.0000
     1.0000   1.0000   1.0000   1.0000   1.0000   1.0000   1.0000   0.9999
     0.9999   0.9997   0.9996   0.9994   0.9993   0.9983   0.9980   0.9976
     0.9975   0.9972   0.9970   0.9959   0.9951   0.9940   0.9934   0.9887
     0.9873   0.9858   0.9850   0.9821   0.9813   0.9802   0.9790   0.9776
     0.9759   0.9712   0.9704   0.9664   0.9640   0.9593   0.9522   0.9307
     0.9091   0.9032   0.8850   0.8745   0.8568   0.8414   0.8399   0.8254
     0.8122   0.8032   0.7938   0.7878   0.7635   0.7583   0.7454   0.7388
     0.7363   0.7268   0.7152   0.7093   0.7010   0.6957   0.6839   0.6771
     0.6718   0.6680   0.6606   0.6553   0.3483   0.3190   0.2522   0.2412
     0.1273   0.1094   0.0959   0.0506   0.0148   0.0101   0.0051   0.0039
     0.0010   0.0008   0.0003   0.0002   0.0001   0.0001   0.0000   0.0000
     0.0000   0.0000   0.0000   0.0000   0.0000   0.0000   0.0000   0.0000
     0.0000   0.0000   0.0000   0.0000   0.0000   0.0000   0.0000   0.0000
     0.0000   0.0000

     the Fermi energy is     3.1684 ev

!    total energy              =   -4440.29665544 Ry
     estimated scf accuracy    <          6.7E-09 Ry
     smearing contrib. (-TS)   =      -1.20746894 Ry
     internal energy E=F+TS    =   -4439.08918649 Ry

     The total energy is F=E-TS. E is the sum of the following terms:
     one-electron contribution =  -20890.53400617 Ry
     hartree contribution      =   10574.58960058 Ry
     xc contribution           =    -693.24550054 Ry
     ewald contribution        =    6846.29231512 Ry
     one-center paw contrib.   =    -276.19159547 Ry
      -> PAW hartree energy AE =      25.16315300 Ry
      -> PAW hartree energy PS =     -25.04703834 Ry
      -> PAW xc energy AE      =     -16.51755132 Ry
      -> PAW xc energy PS      =       6.87700925 Ry
      -> total E_H with PAW    =   10574.70571523 Ry
      -> total E_XC with PAW   =    -702.88604262 Ry

     convergence has been achieved in  49 iterations

     Writing all to output data dir /bsuhome/zayahcortright/scratch/pwscf.save/
 
     init_run     :      7.81s CPU      8.45s WALL (       1 calls)
     electrons    :    704.45s CPU    738.18s WALL (       1 calls)

     Called by init_run:
     wfcinit      :      6.12s CPU      6.33s WALL (       1 calls)
     wfcinit:atom :      0.05s CPU      0.07s WALL (       5 calls)
     wfcinit:wfcr :      5.80s CPU      5.92s WALL (       5 calls)
     potinit      :      0.16s CPU      0.20s WALL (       1 calls)
     hinit0       :      0.58s CPU      0.70s WALL (       1 calls)

     Called by electrons:
     c_bands      :    561.40s CPU    568.20s WALL (      49 calls)
     sum_band     :    106.87s CPU    121.78s WALL (      49 calls)
     v_of_rho     :      5.30s CPU      5.72s WALL (      50 calls)
     v_h          :      0.48s CPU      0.49s WALL (      50 calls)
     v_xc         :      4.82s CPU      5.23s WALL (      50 calls)
     newd         :     16.25s CPU     27.50s WALL (      50 calls)
     PAW_pot      :      1.57s CPU      1.62s WALL (      50 calls)
     mix_rho      :     12.45s CPU     12.83s WALL (      49 calls)

     Called by c_bands:
     init_us_2    :      7.13s CPU      7.19s WALL (     495 calls)
     init_us_2:cp :      7.12s CPU      7.19s WALL (     495 calls)
     cegterg      :    526.98s CPU    533.49s WALL (     245 calls)

     Called by sum_band:
     sum_band:wei :      0.34s CPU      0.35s WALL (      49 calls)
     sum_band:loo :     89.60s CPU     90.31s WALL (      49 calls)
     sum_band:buf :      1.49s CPU      1.57s WALL (     245 calls)
     sum_band:ini :      3.42s CPU      3.43s WALL (     245 calls)
     sum_band:cal :     19.66s CPU     19.74s WALL (     245 calls)
     sum_band:bec :      0.53s CPU      0.53s WALL (     245 calls)
     addusdens    :     15.43s CPU     29.55s WALL (      49 calls)
                                        0.00s GPU  (      49 calls)
     addusd:skk   :      0.31s CPU      0.96s WALL (     147 calls)
                                        0.00s GPU  (     147 calls)

     Called by *egterg:
     cdiaghg      :     56.51s CPU     56.79s WALL (    1343 calls)
     cegterg:over :     38.33s CPU     38.48s WALL (    1098 calls)
     cegterg:upda :     28.23s CPU     28.78s WALL (    1098 calls)
     cegterg:last :     58.24s CPU     58.46s WALL (     443 calls)
     cdiaghg:chol :      3.10s CPU      3.13s WALL (    1343 calls)
     cdiaghg:inve :      2.83s CPU      2.84s WALL (    1343 calls)
     cdiaghg:para :      7.23s CPU      7.29s WALL (    2686 calls)
     h_psi        :    289.74s CPU    292.85s WALL (    1348 calls)
     s_psi        :     40.21s CPU     40.33s WALL (    1348 calls)
     g_psi        :      1.09s CPU      1.10s WALL (    1098 calls)

     Called by h_psi:
     h_psi:calbec :     44.83s CPU     45.05s WALL (    1348 calls)
     vloc_psi     :    201.92s CPU    203.91s WALL (    1348 calls)
     add_vuspsi   :     40.02s CPU     40.22s WALL (    1348 calls)

     General routines
     calbec       :     64.48s CPU     64.79s WALL (    1593 calls)
     fft          :      3.82s CPU      3.88s WALL (     648 calls)
     ffts         :      4.60s CPU      4.64s WALL (    5213 calls)
     fftw         :    172.51s CPU    173.94s WALL (  329694 calls)
     interpolate  :      0.40s CPU      0.42s WALL (      50 calls)
 
     Parallel routines

     PAW routines
     PAW_pot      :      1.57s CPU      1.62s WALL (      50 calls)
 
     PWSCF        :  11m54.12s CPU  12m31.36s WALL

 
   This run was terminated on:  19:21:23  21Jun2024            

=------------------------------------------------------------------------------=
   JOB DONE.
=------------------------------------------------------------------------------=
