
     Program PWSCF v.7.2 starts on 19Jun2024 at  0:29:17 

     This program is part of the open-source Quantum ESPRESSO suite
     for quantum simulation of materials; please cite
         "P. Giannozzi et al., J. Phys.:Condens. Matter 21 395502 (2009);
         "P. Giannozzi et al., J. Phys.:Condens. Matter 29 465901 (2017);
         "P. Giannozzi et al., J. Chem. Phys. 152 154105 (2020);
          URL http://www.quantum-espresso.org", 
     in publications or presentations arising from this work. More details at
     http://www.quantum-espresso.org/quote

     Parallel version (MPI & OpenMP), running on      48 processor cores
     Number of MPI processes:                48
     Threads/MPI process:                     1

     MPI processes distributed on     1 nodes
     16419 MiB available memory on the printing compute node when the environment starts
 
     Reading input from espresso.pwi
Warning: card &CELL ignored
Warning: card / ignored
Warning: card &FCP ignored
Warning: card / ignored
Warning: card &RISM ignored
Warning: card / ignored

     Current dimensions of program PWSCF are:
     Max number of different atomic species (ntypx) = 10
     Max number of k-points (npk) =  40000
     Max angular momentum in pseudopotentials (lmaxx) =  4
     file O.pbe-n-kjpaw_psl.0.1.UPF: wavefunction(s)  2P renormalized
     signal trapping enabled: kill the code with -SIGUSR1 to stop cleanly the simulation 
 
     K-points division:     npool     =       2
     R & G space division:  proc/nbgrp/npool/nimage =      24
     Subspace diagonalization in iterative solution of the eigenvalue problem:
     one sub-group per band group will be used
     scalapack distributed-memory algorithm (size of sub-group:  3*  3 procs)

 
     Parallelization info
     --------------------
     sticks:   dense  smooth     PW     G-vecs:    dense   smooth      PW
     Min         350     175     47                61430    21716    3036
     Max         351     177     48                61449    21727    3041
     Sum        8421    4205   1137              1474595   521381   72913
 
     Using Slab Decomposition
 


     bravais-lattice index     =            0
     lattice parameter (alat)  =      14.8599  a.u.
     unit-cell volume          =    8305.1283 (a.u.)^3
     number of atoms/cell      =           51
     number of atomic types    =            4
     number of electrons       =       437.00
     number of Kohn-Sham states=          263
     kinetic-energy cutoff     =      60.0000  Ry
     charge density cutoff     =     480.0000  Ry
     scf convergence threshold =      1.0E-08
     mixing beta               =       0.1500
     number of iterations used =            8  local-TF  mixing
     Exchange-correlation= PBE
                           (   1   4   3   4   0   0   0)

     celldm(1)=  14.859904  celldm(2)=   0.000000  celldm(3)=   0.000000
     celldm(4)=   0.000000  celldm(5)=   0.000000  celldm(6)=   0.000000

     crystal axes: (cart. coord. in units of alat)
               a(1) = (   1.000000   0.000000   0.000000 )  
               a(2) = (   0.000000   1.000000   0.000000 )  
               a(3) = (   0.000000   0.000000   2.531036 )  

     reciprocal axes: (cart. coord. in units 2 pi/alat)
               b(1) = (  1.000000  0.000000  0.000000 )  
               b(2) = (  0.000000  1.000000  0.000000 )  
               b(3) = (  0.000000  0.000000  0.395095 )  


     PseudoPot. # 1 for Sr read from file:
     /bsuhome/zayahcortright/q-e/pseudo/Sr_pbe_v1.uspp.F.UPF
     MD5 check sum: 6b418c05fbe9db5448babca5e47b7a5b
     Pseudo is Ultrasoft + core correction, Zval = 10.0
     Generated by new atomic code, or converted to UPF format
     Using radial grid of  883 points,  6 beta functions with: 
                l(1) =   0
                l(2) =   0
                l(3) =   1
                l(4) =   1
                l(5) =   2
                l(6) =   2
     Q(r) pseudized with  6 coefficients,  rinner =    1.400   1.400   1.400
                                                       1.400   1.400

     PseudoPot. # 2 for O  read from file:
     /bsuhome/zayahcortright/q-e/pseudo/O.pbe-n-kjpaw_psl.0.1.UPF
     MD5 check sum: 0234752ac141de4415c5fc33072bef88
     Pseudo is Projector augmented-wave + core cor, Zval =  6.0
     Generated using "atomic" code by A. Dal Corso  v.5.0.99 svn rev. 10869
     Shape of augmentation charge: BESSEL
     Using radial grid of 1095 points,  4 beta functions with: 
                l(1) =   0
                l(2) =   0
                l(3) =   1
                l(4) =   1
     Q(r) pseudized with 0 coefficients 


     PseudoPot. # 3 for Co read from file:
     /bsuhome/zayahcortright/q-e/pseudo/Co_pbe_v1.2.uspp.F.UPF
     MD5 check sum: 5f91765df6ddd3222702df6e7b74a16d
     Pseudo is Ultrasoft + core correction, Zval = 17.0
     Generated by new atomic code, or converted to UPF format
     Using radial grid of  863 points,  6 beta functions with: 
                l(1) =   0
                l(2) =   0
                l(3) =   1
                l(4) =   1
                l(5) =   2
                l(6) =   2
     Q(r) pseudized with  8 coefficients,  rinner =    1.200   1.200   1.200
                                                       1.200   1.200

     PseudoPot. # 4 for H  read from file:
     /bsuhome/zayahcortright/q-e/pseudo/H.pbe-rrkjus_psl.1.0.0.UPF
     MD5 check sum: f52b6d4d1c606e5624b1dc7b2218f220
     Pseudo is Ultrasoft, Zval =  1.0
     Generated using "atomic" code by A. Dal Corso  v.5.1
     Using radial grid of  929 points,  2 beta functions with: 
                l(1) =   0
                l(2) =   0
     Q(r) pseudized with 0 coefficients 


     atomic species   valence    mass     pseudopotential
        Sr            10.00    87.62000     Sr( 1.00)
        O              6.00    15.99900     O ( 1.00)
        Co            17.00    58.93319     Co( 1.00)
        H              1.00     1.00800     H ( 1.00)

     No symmetry found


                                    s                        frac. trans.

      isym =  1     identity                                     

 cryst.   s( 1) = (     1          0          0      )
                  (     0          1          0      )
                  (     0          0          1      )

 cart.    s( 1) = (  1.0000000  0.0000000  0.0000000 )
                  (  0.0000000  1.0000000  0.0000000 )
                  (  0.0000000  0.0000000  1.0000000 )


   Cartesian axes

     site n.     atom                  positions (alat units)
         1           Sr  tau(   1) = (   0.2508693   0.7491307   1.7574407  )
         2           O   tau(   2) = (   0.4985141   0.5014859   1.7715967  )
         3           Sr  tau(   3) = (   0.7482398   0.7454518   1.7648669  )
         4           Sr  tau(   4) = (   0.7441748   0.2558252   1.7667843  )
         5           Sr  tau(   5) = (   0.2508693   0.7491307   1.2696799  )
         6           Sr  tau(   6) = (   0.2508693   0.7491307   0.7632319  )
         7           Co  tau(   7) = (   0.4998914   0.5001086   1.0164559  )
         8           Co  tau(   8) = (   0.4936915   0.5063085   1.5135603  )
         9           O   tau(   9) = (   0.4988895   0.7610401   1.0164559  )
        10           O   tau(  10) = (   0.2389599   0.5011105   1.0164559  )
        11           O   tau(  11) = (   0.0070918   0.7374880   1.0164559  )
        12           O   tau(  12) = (   0.0088340   0.7405089   1.5135603  )
        13           O   tau(  13) = (   0.5066944   0.7415376   1.5135603  )
        14           O   tau(  14) = (   0.2584624   0.4933056   1.5135603  )
        15           O   tau(  15) = (   0.4985141   0.5014859   0.7773880  )
        16           O   tau(  16) = (   0.4985141   0.5014859   1.2555238  )
        17           Sr  tau(  17) = (   0.7482398   0.7454518   0.7706582  )
        18           Sr  tau(  18) = (   0.7482398   0.7454518   1.2622536  )
        19           Sr  tau(  19) = (   0.7441748   0.2558252   0.7725755  )
        20           Sr  tau(  20) = (   0.7441748   0.2558252   1.2603363  )
        21           O   tau(  21) = (   0.7322655   0.0078049   1.5135603  )
        22           O   tau(  22) = (   0.7558175   0.4996027   1.5135603  )
        23           O   tau(  23) = (   0.5003973   0.2441825   1.5135603  )
        24           O   tau(  24) = (   0.7527966   0.4978604   1.0164559  )
        25           O   tau(  25) = (   0.5021396   0.2472034   1.0164559  )
        26           O   tau(  26) = (   0.7517679   0.0000000   1.0164559  )
        27           O   tau(  27) = (   0.0114961   0.4948124   1.7455321  )
        28           O   tau(  28) = (   0.0048226   0.0077944   1.7715967  )
        29           Sr  tau(  29) = (   0.2545482   0.2517602   1.7648669  )
        30           O   tau(  30) = (   0.5048017   0.0015068   1.7786929  )
        31           Co  tau(  31) = (   0.0056869   0.5006215   1.0164559  )
        32           Co  tau(  32) = (   0.0065315   0.4997770   1.5135603  )
        33           Co  tau(  33) = (   0.0061999   0.0064171   1.0164559  )
        34           Co  tau(  34) = (   0.0000000   0.0126169   1.5135603  )
        35           O   tau(  35) = (   0.0114961   0.4948124   1.2815885  )
        36           O   tau(  36) = (   0.0114961   0.4948124   0.7513233  )
        37           O   tau(  37) = (   0.0051979   0.2673486   1.0164559  )
        38           O   tau(  38) = (   0.0130029   0.2478461   1.5135603  )
        39           O   tau(  39) = (   0.0048226   0.0077944   0.7773880  )
        40           O   tau(  40) = (   0.0048226   0.0077944   1.2555238  )
        41           Sr  tau(  41) = (   0.2545482   0.2517602   0.7706582  )
        42           Sr  tau(  42) = (   0.2545482   0.2517602   1.2622536  )
        43           Co  tau(  43) = (   0.4989925   0.0073160   1.5135603  )
        44           Co  tau(  44) = (   0.4998370   0.0064714   1.0164559  )
        45           O   tau(  45) = (   0.5048017   0.0015068   0.7844841  )
        46           O   tau(  46) = (   0.5048017   0.0015068   1.2484277  )
        47           O   tau(  47) = (   0.2621260   0.0059111   1.5135603  )
        48           O   tau(  48) = (   0.2591051   0.0041689   1.0164559  )
        49           O   tau(  49) = (   0.4264937   0.8529874   2.1602013  )
        50           O   tau(  50) = (   0.4264937   0.8529874   2.3186489  )
        51           H   tau(  51) = (   0.4264937   0.8529874   2.4431567  )

   Crystallographic axes

     site n.     atom                  positions (cryst. coord.)
         1           Sr  tau(   1) = (  0.2508693  0.7491307  0.6943562  )
         2           O   tau(   2) = (  0.4985141  0.5014859  0.6999492  )
         3           Sr  tau(   3) = (  0.7482398  0.7454518  0.6972903  )
         4           Sr  tau(   4) = (  0.7441748  0.2558252  0.6980478  )
         5           Sr  tau(   5) = (  0.2508693  0.7491307  0.5016443  )
         6           Sr  tau(   6) = (  0.2508693  0.7491307  0.3015492  )
         7           Co  tau(   7) = (  0.4998914  0.5001086  0.4015968  )
         8           Co  tau(   8) = (  0.4936915  0.5063085  0.5980003  )
         9           O   tau(   9) = (  0.4988895  0.7610401  0.4015968  )
        10           O   tau(  10) = (  0.2389599  0.5011105  0.4015968  )
        11           O   tau(  11) = (  0.0070918  0.7374880  0.4015968  )
        12           O   tau(  12) = (  0.0088340  0.7405089  0.5980003  )
        13           O   tau(  13) = (  0.5066944  0.7415376  0.5980003  )
        14           O   tau(  14) = (  0.2584624  0.4933056  0.5980003  )
        15           O   tau(  15) = (  0.4985141  0.5014859  0.3071422  )
        16           O   tau(  16) = (  0.4985141  0.5014859  0.4960513  )
        17           Sr  tau(  17) = (  0.7482398  0.7454518  0.3044833  )
        18           Sr  tau(  18) = (  0.7482398  0.7454518  0.4987103  )
        19           Sr  tau(  19) = (  0.7441748  0.2558252  0.3052408  )
        20           Sr  tau(  20) = (  0.7441748  0.2558252  0.4979527  )
        21           O   tau(  21) = (  0.7322655  0.0078049  0.5980003  )
        22           O   tau(  22) = (  0.7558175  0.4996027  0.5980003  )
        23           O   tau(  23) = (  0.5003973  0.2441825  0.5980003  )
        24           O   tau(  24) = (  0.7527966  0.4978604  0.4015968  )
        25           O   tau(  25) = (  0.5021396  0.2472034  0.4015968  )
        26           O   tau(  26) = (  0.7517679  0.0000000  0.4015968  )
        27           O   tau(  27) = (  0.0114961  0.4948124  0.6896512  )
        28           O   tau(  28) = (  0.0048226  0.0077944  0.6999492  )
        29           Sr  tau(  29) = (  0.2545482  0.2517602  0.6972903  )
        30           O   tau(  30) = (  0.5048017  0.0015068  0.7027529  )
        31           Co  tau(  31) = (  0.0056869  0.5006215  0.4015968  )
        32           Co  tau(  32) = (  0.0065315  0.4997770  0.5980003  )
        33           Co  tau(  33) = (  0.0061999  0.0064171  0.4015968  )
        34           Co  tau(  34) = (  0.0000000  0.0126169  0.5980003  )
        35           O   tau(  35) = (  0.0114961  0.4948124  0.5063494  )
        36           O   tau(  36) = (  0.0114961  0.4948124  0.2968442  )
        37           O   tau(  37) = (  0.0051979  0.2673486  0.4015968  )
        38           O   tau(  38) = (  0.0130029  0.2478461  0.5980003  )
        39           O   tau(  39) = (  0.0048226  0.0077944  0.3071422  )
        40           O   tau(  40) = (  0.0048226  0.0077944  0.4960513  )
        41           Sr  tau(  41) = (  0.2545482  0.2517602  0.3044833  )
        42           Sr  tau(  42) = (  0.2545482  0.2517602  0.4987103  )
        43           Co  tau(  43) = (  0.4989925  0.0073160  0.5980003  )
        44           Co  tau(  44) = (  0.4998370  0.0064714  0.4015968  )
        45           O   tau(  45) = (  0.5048017  0.0015068  0.3099459  )
        46           O   tau(  46) = (  0.5048017  0.0015068  0.4932477  )
        47           O   tau(  47) = (  0.2621260  0.0059111  0.5980003  )
        48           O   tau(  48) = (  0.2591051  0.0041689  0.4015968  )
        49           O   tau(  49) = (  0.4264937  0.8529874  0.8534850  )
        50           O   tau(  50) = (  0.4264937  0.8529874  0.9160869  )
        51           H   tau(  51) = (  0.4264937  0.8529874  0.9652793  )

     number of k points=    10  Gaussian smearing, width (Ry)=  0.0700
                       cart. coord. in units 2pi/alat
        k(    1) = (   0.0000000   0.0000000   0.0000000), wk =   0.1250000
        k(    2) = (   0.0000000   0.2500000   0.0000000), wk =   0.2500000
        k(    3) = (   0.0000000  -0.5000000   0.0000000), wk =   0.1250000
        k(    4) = (   0.2500000   0.2500000   0.0000000), wk =   0.2500000
        k(    5) = (   0.2500000  -0.5000000   0.0000000), wk =   0.2500000
        k(    6) = (  -0.5000000  -0.5000000   0.0000000), wk =   0.1250000
        k(    7) = (   0.2500000   0.0000000   0.0000000), wk =   0.2500000
        k(    8) = (  -0.5000000   0.0000000   0.0000000), wk =   0.1250000
        k(    9) = (  -0.2500000   0.2500000   0.0000000), wk =   0.2500000
        k(   10) = (  -0.5000000   0.2500000   0.0000000), wk =   0.2500000

                       cryst. coord.
        k(    1) = (   0.0000000   0.0000000   0.0000000), wk =   0.1250000
        k(    2) = (   0.0000000   0.2500000   0.0000000), wk =   0.2500000
        k(    3) = (   0.0000000  -0.5000000   0.0000000), wk =   0.1250000
        k(    4) = (   0.2500000   0.2500000   0.0000000), wk =   0.2500000
        k(    5) = (   0.2500000  -0.5000000   0.0000000), wk =   0.2500000
        k(    6) = (  -0.5000000  -0.5000000   0.0000000), wk =   0.1250000
        k(    7) = (   0.2500000   0.0000000   0.0000000), wk =   0.2500000
        k(    8) = (  -0.5000000   0.0000000   0.0000000), wk =   0.1250000
        k(    9) = (  -0.2500000   0.2500000   0.0000000), wk =   0.2500000
        k(   10) = (  -0.5000000   0.2500000   0.0000000), wk =   0.2500000

     Dense  grid:  1474595 G-vectors     FFT dimensions: ( 108, 108, 270)

     Smooth grid:   521381 G-vectors     FFT dimensions: (  75,  75, 192)

     Dynamical RAM for                 wfc:      10.90 MB

     Dynamical RAM for     wfc (w. buffer):      65.37 MB

     Dynamical RAM for           str. fact:       3.75 MB

     Dynamical RAM for           local pot:       0.00 MB

     Dynamical RAM for          nlocal pot:      24.94 MB

     Dynamical RAM for                qrad:       7.03 MB

     Dynamical RAM for          rho,v,vnew:       6.02 MB

     Dynamical RAM for               rhoin:       2.01 MB

     Dynamical RAM for            rho*nmix:      15.00 MB

     Dynamical RAM for           G-vectors:       3.68 MB

     Dynamical RAM for          h,s,v(r/c):       1.40 MB

     Dynamical RAM for          <psi|beta>:       2.42 MB

     Dynamical RAM for                 psi:      21.79 MB

     Dynamical RAM for                hpsi:      21.79 MB

     Dynamical RAM for                spsi:      21.79 MB

     Dynamical RAM for      wfcinit/wfcrot:      34.89 MB

     Dynamical RAM for           addusdens:     101.73 MB

     Estimated static dynamical RAM per process >     122.82 MB

     Estimated max dynamical RAM per process >     239.55 MB

     Estimated total dynamical RAM >      10.88 GB

     Check: negative core charge=   -0.000004

     Initial potential from superposition of free atoms

     starting charge     428.5961, renormalised to     437.0000

     negative rho (up, down):  7.813E-01 0.000E+00
     Starting wfcs are  381 randomized atomic wfcs
     Checking if some PAW data can be deallocated... 
       PAW data deallocated on   18 nodes for type:  2

     total cpu time spent up to now is        9.4 secs

     Self-consistent Calculation

     iteration #  1     ecut=    60.00 Ry     beta= 0.15
     Davidson diagonalization with overlap

---- Real-time Memory Report at c_bands before calling an iterative solver
             0 MiB given to the printing process from OS
             0 MiB allocation reported by mallinfo(arena+hblkhd)
          6884 MiB available memory on the node where the printing process lives
------------------
     ethr =  1.00E-02,  avg # of iterations =  2.0

     negative rho (up, down):  7.716E-01 0.000E+00

     total cpu time spent up to now is       25.4 secs

     total energy              =   -4489.32530544 Ry
     estimated scf accuracy    <      49.74381046 Ry

     iteration #  2     ecut=    60.00 Ry     beta= 0.15
     Davidson diagonalization with overlap

---- Real-time Memory Report at c_bands before calling an iterative solver
             0 MiB given to the printing process from OS
             0 MiB allocation reported by mallinfo(arena+hblkhd)
          7197 MiB available memory on the node where the printing process lives
------------------
     ethr =  1.00E-02,  avg # of iterations =  1.0

     negative rho (up, down):  7.613E-01 0.000E+00

     total cpu time spent up to now is       38.5 secs

     total energy              =   -4486.80913104 Ry
     estimated scf accuracy    <      35.42134649 Ry

     iteration #  3     ecut=    60.00 Ry     beta= 0.15
     Davidson diagonalization with overlap

---- Real-time Memory Report at c_bands before calling an iterative solver
             0 MiB given to the printing process from OS
             0 MiB allocation reported by mallinfo(arena+hblkhd)
          6402 MiB available memory on the node where the printing process lives
------------------
     ethr =  8.11E-03,  avg # of iterations =  1.0

     negative rho (up, down):  7.563E-01 0.000E+00

     total cpu time spent up to now is       51.9 secs

     total energy              =   -4486.77293453 Ry
     estimated scf accuracy    <      35.42987502 Ry

     iteration #  4     ecut=    60.00 Ry     beta= 0.15
     Davidson diagonalization with overlap

---- Real-time Memory Report at c_bands before calling an iterative solver
             0 MiB given to the printing process from OS
             0 MiB allocation reported by mallinfo(arena+hblkhd)
          6374 MiB available memory on the node where the printing process lives
------------------
     ethr =  8.11E-03,  avg # of iterations =  1.0

     negative rho (up, down):  7.576E-01 0.000E+00

     total cpu time spent up to now is       65.3 secs

     total energy              =   -4486.58231473 Ry
     estimated scf accuracy    <      34.26037545 Ry

     iteration #  5     ecut=    60.00 Ry     beta= 0.15
     Davidson diagonalization with overlap

---- Real-time Memory Report at c_bands before calling an iterative solver
             0 MiB given to the printing process from OS
             0 MiB allocation reported by mallinfo(arena+hblkhd)
          6354 MiB available memory on the node where the printing process lives
------------------
     ethr =  7.84E-03,  avg # of iterations =  1.0

     negative rho (up, down):  7.335E-01 0.000E+00

     total cpu time spent up to now is       78.5 secs

     total energy              =   -4482.46297691 Ry
     estimated scf accuracy    <      22.54409869 Ry

     iteration #  6     ecut=    60.00 Ry     beta= 0.15
     Davidson diagonalization with overlap

---- Real-time Memory Report at c_bands before calling an iterative solver
             0 MiB given to the printing process from OS
             0 MiB allocation reported by mallinfo(arena+hblkhd)
          6335 MiB available memory on the node where the printing process lives
------------------
     ethr =  5.16E-03,  avg # of iterations =  2.0

     negative rho (up, down):  7.490E-01 0.000E+00

     total cpu time spent up to now is       93.2 secs

     total energy              =   -4483.48327659 Ry
     estimated scf accuracy    <      34.67801695 Ry

     iteration #  7     ecut=    60.00 Ry     beta= 0.15
     Davidson diagonalization with overlap

---- Real-time Memory Report at c_bands before calling an iterative solver
             0 MiB given to the printing process from OS
             0 MiB allocation reported by mallinfo(arena+hblkhd)
          6304 MiB available memory on the node where the printing process lives
------------------
     ethr =  5.16E-03,  avg # of iterations =  1.0

     negative rho (up, down):  7.542E-01 0.000E+00

     total cpu time spent up to now is      106.4 secs

     total energy              =   -4483.61648278 Ry
     estimated scf accuracy    <      33.93753111 Ry

     iteration #  8     ecut=    60.00 Ry     beta= 0.15
     Davidson diagonalization with overlap

---- Real-time Memory Report at c_bands before calling an iterative solver
             0 MiB given to the printing process from OS
             0 MiB allocation reported by mallinfo(arena+hblkhd)
          6288 MiB available memory on the node where the printing process lives
------------------
     ethr =  5.16E-03,  avg # of iterations =  1.0

     negative rho (up, down):  7.516E-01 0.000E+00

     total cpu time spent up to now is      119.5 secs

     total energy              =   -4483.85933356 Ry
     estimated scf accuracy    <       6.58148231 Ry

     iteration #  9     ecut=    60.00 Ry     beta= 0.15
     Davidson diagonalization with overlap

---- Real-time Memory Report at c_bands before calling an iterative solver
             0 MiB given to the printing process from OS
             0 MiB allocation reported by mallinfo(arena+hblkhd)
          6266 MiB available memory on the node where the printing process lives
------------------
     ethr =  1.51E-03,  avg # of iterations =  3.0

     negative rho (up, down):  7.662E-01 0.000E+00

     total cpu time spent up to now is      134.6 secs

     total energy              =   -4483.77389923 Ry
     estimated scf accuracy    <       3.87751449 Ry

     iteration # 10     ecut=    60.00 Ry     beta= 0.15
     Davidson diagonalization with overlap

---- Real-time Memory Report at c_bands before calling an iterative solver
             0 MiB given to the printing process from OS
             0 MiB allocation reported by mallinfo(arena+hblkhd)
          6233 MiB available memory on the node where the printing process lives
------------------
     ethr =  8.87E-04,  avg # of iterations = 12.0

     negative rho (up, down):  7.896E-01 0.000E+00

     total cpu time spent up to now is      154.2 secs

     total energy              =   -4483.50007272 Ry
     estimated scf accuracy    <       4.61348216 Ry

     iteration # 11     ecut=    60.00 Ry     beta= 0.15
     Davidson diagonalization with overlap

---- Real-time Memory Report at c_bands before calling an iterative solver
             0 MiB given to the printing process from OS
             0 MiB allocation reported by mallinfo(arena+hblkhd)
          5952 MiB available memory on the node where the printing process lives
------------------
     ethr =  8.87E-04,  avg # of iterations =  7.3

     negative rho (up, down):  7.928E-01 0.000E+00

     total cpu time spent up to now is      172.0 secs

     total energy              =   -4483.18885630 Ry
     estimated scf accuracy    <       4.00829039 Ry

     iteration # 12     ecut=    60.00 Ry     beta= 0.15
     Davidson diagonalization with overlap

---- Real-time Memory Report at c_bands before calling an iterative solver
             0 MiB given to the printing process from OS
             0 MiB allocation reported by mallinfo(arena+hblkhd)
          5885 MiB available memory on the node where the printing process lives
------------------
     ethr =  8.87E-04,  avg # of iterations =  7.1

     negative rho (up, down):  8.022E-01 0.000E+00

     total cpu time spent up to now is      189.4 secs

     total energy              =   -4483.21089878 Ry
     estimated scf accuracy    <       2.05787818 Ry

     iteration # 13     ecut=    60.00 Ry     beta= 0.15
     Davidson diagonalization with overlap

---- Real-time Memory Report at c_bands before calling an iterative solver
             0 MiB given to the printing process from OS
             0 MiB allocation reported by mallinfo(arena+hblkhd)
          5852 MiB available memory on the node where the printing process lives
------------------
     ethr =  4.71E-04,  avg # of iterations =  2.9

     negative rho (up, down):  8.032E-01 0.000E+00

     total cpu time spent up to now is      204.6 secs

     total energy              =   -4483.26049875 Ry
     estimated scf accuracy    <       1.07152471 Ry

     iteration # 14     ecut=    60.00 Ry     beta= 0.15
     Davidson diagonalization with overlap

---- Real-time Memory Report at c_bands before calling an iterative solver
             0 MiB given to the printing process from OS
             0 MiB allocation reported by mallinfo(arena+hblkhd)
          5847 MiB available memory on the node where the printing process lives
------------------
     ethr =  2.45E-04,  avg # of iterations =  8.2

     negative rho (up, down):  8.146E-01 0.000E+00

     total cpu time spent up to now is      222.9 secs

     total energy              =   -4483.11297773 Ry
     estimated scf accuracy    <       0.75147415 Ry

     iteration # 15     ecut=    60.00 Ry     beta= 0.15
     Davidson diagonalization with overlap

---- Real-time Memory Report at c_bands before calling an iterative solver
             0 MiB given to the printing process from OS
             0 MiB allocation reported by mallinfo(arena+hblkhd)
          5782 MiB available memory on the node where the printing process lives
------------------
     ethr =  1.72E-04,  avg # of iterations =  5.3

     negative rho (up, down):  8.177E-01 0.000E+00

     total cpu time spent up to now is      239.4 secs

     total energy              =   -4483.13371396 Ry
     estimated scf accuracy    <       2.47725694 Ry

     iteration # 16     ecut=    60.00 Ry     beta= 0.15
     Davidson diagonalization with overlap

---- Real-time Memory Report at c_bands before calling an iterative solver
             0 MiB given to the printing process from OS
             0 MiB allocation reported by mallinfo(arena+hblkhd)
          5796 MiB available memory on the node where the printing process lives
------------------
     ethr =  1.72E-04,  avg # of iterations =  6.0

     negative rho (up, down):  8.157E-01 0.000E+00

     total cpu time spent up to now is      256.0 secs

     total energy              =   -4483.11392122 Ry
     estimated scf accuracy    <       0.97126120 Ry

     iteration # 17     ecut=    60.00 Ry     beta= 0.15
     Davidson diagonalization with overlap

---- Real-time Memory Report at c_bands before calling an iterative solver
             0 MiB given to the printing process from OS
             0 MiB allocation reported by mallinfo(arena+hblkhd)
          5789 MiB available memory on the node where the printing process lives
------------------
     ethr =  1.72E-04,  avg # of iterations =  1.3

     negative rho (up, down):  8.194E-01 0.000E+00

     total cpu time spent up to now is      270.3 secs

     total energy              =   -4483.04659791 Ry
     estimated scf accuracy    <       0.39463146 Ry

     iteration # 18     ecut=    60.00 Ry     beta= 0.15
     Davidson diagonalization with overlap

---- Real-time Memory Report at c_bands before calling an iterative solver
             0 MiB given to the printing process from OS
             0 MiB allocation reported by mallinfo(arena+hblkhd)
          5792 MiB available memory on the node where the printing process lives
------------------
     ethr =  9.03E-05,  avg # of iterations = 11.3

     negative rho (up, down):  8.197E-01 0.000E+00

     total cpu time spent up to now is      290.2 secs

     total energy              =   -4483.02938237 Ry
     estimated scf accuracy    <       1.24026492 Ry

     iteration # 19     ecut=    60.00 Ry     beta= 0.15
     Davidson diagonalization with overlap

---- Real-time Memory Report at c_bands before calling an iterative solver
             0 MiB given to the printing process from OS
             0 MiB allocation reported by mallinfo(arena+hblkhd)
          5738 MiB available memory on the node where the printing process lives
------------------
     ethr =  9.03E-05,  avg # of iterations =  1.9

     negative rho (up, down):  8.288E-01 0.000E+00

     total cpu time spent up to now is      305.1 secs

     total energy              =   -4483.02159287 Ry
     estimated scf accuracy    <       0.39985621 Ry

     iteration # 20     ecut=    60.00 Ry     beta= 0.15
     Davidson diagonalization with overlap

---- Real-time Memory Report at c_bands before calling an iterative solver
             0 MiB given to the printing process from OS
             0 MiB allocation reported by mallinfo(arena+hblkhd)
          5752 MiB available memory on the node where the printing process lives
------------------
     ethr =  9.03E-05,  avg # of iterations =  2.1

     negative rho (up, down):  8.237E-01 0.000E+00

     total cpu time spent up to now is      320.0 secs

     total energy              =   -4482.97070302 Ry
     estimated scf accuracy    <       0.67281364 Ry

     iteration # 21     ecut=    60.00 Ry     beta= 0.15
     Davidson diagonalization with overlap

---- Real-time Memory Report at c_bands before calling an iterative solver
             0 MiB given to the printing process from OS
             0 MiB allocation reported by mallinfo(arena+hblkhd)
          5772 MiB available memory on the node where the printing process lives
------------------
     ethr =  9.03E-05,  avg # of iterations = 10.6

     negative rho (up, down):  8.423E-01 0.000E+00

     total cpu time spent up to now is      339.3 secs

     total energy              =   -4482.97853174 Ry
     estimated scf accuracy    <       0.06873697 Ry

     iteration # 22     ecut=    60.00 Ry     beta= 0.15
     Davidson diagonalization with overlap

---- Real-time Memory Report at c_bands before calling an iterative solver
             0 MiB given to the printing process from OS
             0 MiB allocation reported by mallinfo(arena+hblkhd)
          5700 MiB available memory on the node where the printing process lives
------------------
     ethr =  1.57E-05,  avg # of iterations = 10.5

     negative rho (up, down):  8.383E-01 0.000E+00

     total cpu time spent up to now is      359.3 secs

     total energy              =   -4482.97610094 Ry
     estimated scf accuracy    <       0.04707305 Ry

     iteration # 23     ecut=    60.00 Ry     beta= 0.15
     Davidson diagonalization with overlap

---- Real-time Memory Report at c_bands before calling an iterative solver
             0 MiB given to the printing process from OS
             0 MiB allocation reported by mallinfo(arena+hblkhd)
          5497 MiB available memory on the node where the printing process lives
------------------
     ethr =  1.08E-05,  avg # of iterations =  2.6

     negative rho (up, down):  8.278E-01 0.000E+00

     total cpu time spent up to now is      374.4 secs

     total energy              =   -4482.97208323 Ry
     estimated scf accuracy    <       0.02933358 Ry

     iteration # 24     ecut=    60.00 Ry     beta= 0.15
     Davidson diagonalization with overlap

---- Real-time Memory Report at c_bands before calling an iterative solver
             0 MiB given to the printing process from OS
             0 MiB allocation reported by mallinfo(arena+hblkhd)
          5569 MiB available memory on the node where the printing process lives
------------------
     ethr =  6.71E-06,  avg # of iterations = 13.2

     negative rho (up, down):  8.191E-01 0.000E+00

     total cpu time spent up to now is      395.4 secs

     total energy              =   -4482.97191507 Ry
     estimated scf accuracy    <       0.01487261 Ry

     iteration # 25     ecut=    60.00 Ry     beta= 0.15
     Davidson diagonalization with overlap

---- Real-time Memory Report at c_bands before calling an iterative solver
             0 MiB given to the printing process from OS
             0 MiB allocation reported by mallinfo(arena+hblkhd)
          5522 MiB available memory on the node where the printing process lives
------------------
     ethr =  3.40E-06,  avg # of iterations =  2.0

     negative rho (up, down):  8.088E-01 0.000E+00

     total cpu time spent up to now is      410.6 secs

     total energy              =   -4482.97008360 Ry
     estimated scf accuracy    <       0.01201824 Ry

     iteration # 26     ecut=    60.00 Ry     beta= 0.15
     Davidson diagonalization with overlap

---- Real-time Memory Report at c_bands before calling an iterative solver
             0 MiB given to the printing process from OS
             0 MiB allocation reported by mallinfo(arena+hblkhd)
          5536 MiB available memory on the node where the printing process lives
------------------
     ethr =  2.75E-06,  avg # of iterations =  4.1

     negative rho (up, down):  8.007E-01 0.000E+00

     total cpu time spent up to now is      426.9 secs

     total energy              =   -4482.96903462 Ry
     estimated scf accuracy    <       0.00620773 Ry

     iteration # 27     ecut=    60.00 Ry     beta= 0.15
     Davidson diagonalization with overlap

---- Real-time Memory Report at c_bands before calling an iterative solver
             0 MiB given to the printing process from OS
             0 MiB allocation reported by mallinfo(arena+hblkhd)
          5532 MiB available memory on the node where the printing process lives
------------------
     ethr =  1.42E-06,  avg # of iterations =  9.0

     negative rho (up, down):  7.973E-01 0.000E+00

     total cpu time spent up to now is      446.7 secs

     total energy              =   -4482.96948477 Ry
     estimated scf accuracy    <       0.00153236 Ry

     iteration # 28     ecut=    60.00 Ry     beta= 0.15
     Davidson diagonalization with overlap

---- Real-time Memory Report at c_bands before calling an iterative solver
             0 MiB given to the printing process from OS
             0 MiB allocation reported by mallinfo(arena+hblkhd)
          5504 MiB available memory on the node where the printing process lives
------------------
     c_bands:  1 eigenvalues not converged
     ethr =  3.51E-07,  avg # of iterations =  7.0

     negative rho (up, down):  7.971E-01 0.000E+00

     total cpu time spent up to now is      464.0 secs

     total energy              =   -4482.96952175 Ry
     estimated scf accuracy    <       0.00094791 Ry

     iteration # 29     ecut=    60.00 Ry     beta= 0.15
     Davidson diagonalization with overlap

---- Real-time Memory Report at c_bands before calling an iterative solver
             0 MiB given to the printing process from OS
             0 MiB allocation reported by mallinfo(arena+hblkhd)
          5453 MiB available memory on the node where the printing process lives
------------------
     ethr =  2.17E-07,  avg # of iterations =  2.8

     negative rho (up, down):  7.938E-01 0.000E+00

     total cpu time spent up to now is      479.3 secs

     total energy              =   -4482.96940285 Ry
     estimated scf accuracy    <       0.00068103 Ry

     iteration # 30     ecut=    60.00 Ry     beta= 0.15
     Davidson diagonalization with overlap

---- Real-time Memory Report at c_bands before calling an iterative solver
             0 MiB given to the printing process from OS
             0 MiB allocation reported by mallinfo(arena+hblkhd)
          5461 MiB available memory on the node where the printing process lives
------------------
     ethr =  1.56E-07,  avg # of iterations =  9.7

     negative rho (up, down):  7.927E-01 0.000E+00

     total cpu time spent up to now is      498.0 secs

     total energy              =   -4482.96941142 Ry
     estimated scf accuracy    <       0.00030823 Ry

     iteration # 31     ecut=    60.00 Ry     beta= 0.15
     Davidson diagonalization with overlap

---- Real-time Memory Report at c_bands before calling an iterative solver
             0 MiB given to the printing process from OS
             0 MiB allocation reported by mallinfo(arena+hblkhd)
          5454 MiB available memory on the node where the printing process lives
------------------
     ethr =  7.05E-08,  avg # of iterations =  3.5

     negative rho (up, down):  7.919E-01 0.000E+00

     total cpu time spent up to now is      513.7 secs

     total energy              =   -4482.96938901 Ry
     estimated scf accuracy    <       0.00020588 Ry

     iteration # 32     ecut=    60.00 Ry     beta= 0.15
     Davidson diagonalization with overlap

---- Real-time Memory Report at c_bands before calling an iterative solver
             0 MiB given to the printing process from OS
             0 MiB allocation reported by mallinfo(arena+hblkhd)
          5456 MiB available memory on the node where the printing process lives
------------------
     c_bands:  1 eigenvalues not converged
     ethr =  4.71E-08,  avg # of iterations =  6.7

     negative rho (up, down):  7.920E-01 0.000E+00

     total cpu time spent up to now is      531.1 secs

     total energy              =   -4482.96937586 Ry
     estimated scf accuracy    <       0.00011385 Ry

     iteration # 33     ecut=    60.00 Ry     beta= 0.15
     Davidson diagonalization with overlap

---- Real-time Memory Report at c_bands before calling an iterative solver
             0 MiB given to the printing process from OS
             0 MiB allocation reported by mallinfo(arena+hblkhd)
          5459 MiB available memory on the node where the printing process lives
------------------
     ethr =  2.61E-08,  avg # of iterations =  4.7

     negative rho (up, down):  7.920E-01 0.000E+00

     total cpu time spent up to now is      547.7 secs

     total energy              =   -4482.96938498 Ry
     estimated scf accuracy    <       0.00003381 Ry

     iteration # 34     ecut=    60.00 Ry     beta= 0.15
     Davidson diagonalization with overlap

---- Real-time Memory Report at c_bands before calling an iterative solver
             0 MiB given to the printing process from OS
             0 MiB allocation reported by mallinfo(arena+hblkhd)
          5454 MiB available memory on the node where the printing process lives
------------------
     ethr =  7.74E-09,  avg # of iterations =  3.9

     negative rho (up, down):  7.921E-01 0.000E+00

     total cpu time spent up to now is      563.3 secs

     total energy              =   -4482.96938990 Ry
     estimated scf accuracy    <       0.00002725 Ry

     iteration # 35     ecut=    60.00 Ry     beta= 0.15
     Davidson diagonalization with overlap

---- Real-time Memory Report at c_bands before calling an iterative solver
             0 MiB given to the printing process from OS
             0 MiB allocation reported by mallinfo(arena+hblkhd)
          5483 MiB available memory on the node where the printing process lives
------------------
     ethr =  6.24E-09,  avg # of iterations =  2.6

     negative rho (up, down):  7.921E-01 0.000E+00

     total cpu time spent up to now is      578.5 secs

     total energy              =   -4482.96939348 Ry
     estimated scf accuracy    <       0.00002269 Ry

     iteration # 36     ecut=    60.00 Ry     beta= 0.15
     Davidson diagonalization with overlap

---- Real-time Memory Report at c_bands before calling an iterative solver
             0 MiB given to the printing process from OS
             0 MiB allocation reported by mallinfo(arena+hblkhd)
          5494 MiB available memory on the node where the printing process lives
------------------
     ethr =  5.19E-09,  avg # of iterations =  2.7

     negative rho (up, down):  7.921E-01 0.000E+00

     total cpu time spent up to now is      593.6 secs

     total energy              =   -4482.96940140 Ry
     estimated scf accuracy    <       0.00001938 Ry

     iteration # 37     ecut=    60.00 Ry     beta= 0.15
     Davidson diagonalization with overlap

---- Real-time Memory Report at c_bands before calling an iterative solver
             0 MiB given to the printing process from OS
             0 MiB allocation reported by mallinfo(arena+hblkhd)
          5485 MiB available memory on the node where the printing process lives
------------------
     ethr =  4.43E-09,  avg # of iterations =  3.5

     negative rho (up, down):  7.922E-01 0.000E+00

     total cpu time spent up to now is      609.3 secs

     total energy              =   -4482.96940429 Ry
     estimated scf accuracy    <       0.00001456 Ry

     iteration # 38     ecut=    60.00 Ry     beta= 0.15
     Davidson diagonalization with overlap

---- Real-time Memory Report at c_bands before calling an iterative solver
             0 MiB given to the printing process from OS
             0 MiB allocation reported by mallinfo(arena+hblkhd)
          5506 MiB available memory on the node where the printing process lives
------------------
     ethr =  3.33E-09,  avg # of iterations =  3.9

     negative rho (up, down):  7.922E-01 0.000E+00

     total cpu time spent up to now is      625.1 secs

     total energy              =   -4482.96940489 Ry
     estimated scf accuracy    <       0.00000771 Ry

     iteration # 39     ecut=    60.00 Ry     beta= 0.15
     Davidson diagonalization with overlap

---- Real-time Memory Report at c_bands before calling an iterative solver
             0 MiB given to the printing process from OS
             0 MiB allocation reported by mallinfo(arena+hblkhd)
          5509 MiB available memory on the node where the printing process lives
------------------
     ethr =  1.76E-09,  avg # of iterations =  2.1

     negative rho (up, down):  7.922E-01 0.000E+00

     total cpu time spent up to now is      640.0 secs

     total energy              =   -4482.96940531 Ry
     estimated scf accuracy    <       0.00000697 Ry

     iteration # 40     ecut=    60.00 Ry     beta= 0.15
     Davidson diagonalization with overlap

---- Real-time Memory Report at c_bands before calling an iterative solver
             0 MiB given to the printing process from OS
             0 MiB allocation reported by mallinfo(arena+hblkhd)
          5523 MiB available memory on the node where the printing process lives
------------------
     ethr =  1.59E-09,  avg # of iterations =  2.5

     negative rho (up, down):  7.922E-01 0.000E+00

     total cpu time spent up to now is      655.2 secs

     total energy              =   -4482.96940386 Ry
     estimated scf accuracy    <       0.00000500 Ry

     iteration # 41     ecut=    60.00 Ry     beta= 0.15
     Davidson diagonalization with overlap

---- Real-time Memory Report at c_bands before calling an iterative solver
             0 MiB given to the printing process from OS
             0 MiB allocation reported by mallinfo(arena+hblkhd)
          5528 MiB available memory on the node where the printing process lives
------------------
     ethr =  1.14E-09,  avg # of iterations =  5.3

     negative rho (up, down):  7.923E-01 0.000E+00

     total cpu time spent up to now is      671.8 secs

     total energy              =   -4482.96940361 Ry
     estimated scf accuracy    <       0.00000166 Ry

     iteration # 42     ecut=    60.00 Ry     beta= 0.15
     Davidson diagonalization with overlap

---- Real-time Memory Report at c_bands before calling an iterative solver
             0 MiB given to the printing process from OS
             0 MiB allocation reported by mallinfo(arena+hblkhd)
          5526 MiB available memory on the node where the printing process lives
------------------
     ethr =  3.81E-10,  avg # of iterations =  4.2

     negative rho (up, down):  7.923E-01 0.000E+00

     total cpu time spent up to now is      687.7 secs

     total energy              =   -4482.96940427 Ry
     estimated scf accuracy    <       0.00000063 Ry

     iteration # 43     ecut=    60.00 Ry     beta= 0.15
     Davidson diagonalization with overlap

---- Real-time Memory Report at c_bands before calling an iterative solver
             0 MiB given to the printing process from OS
             0 MiB allocation reported by mallinfo(arena+hblkhd)
          5517 MiB available memory on the node where the printing process lives
------------------
     ethr =  1.45E-10,  avg # of iterations =  3.7

     negative rho (up, down):  7.923E-01 0.000E+00

     total cpu time spent up to now is      703.5 secs

     total energy              =   -4482.96940479 Ry
     estimated scf accuracy    <       0.00000041 Ry

     iteration # 44     ecut=    60.00 Ry     beta= 0.15
     Davidson diagonalization with overlap

---- Real-time Memory Report at c_bands before calling an iterative solver
             0 MiB given to the printing process from OS
             0 MiB allocation reported by mallinfo(arena+hblkhd)
          5520 MiB available memory on the node where the printing process lives
------------------
     ethr =  9.41E-11,  avg # of iterations =  4.4

     negative rho (up, down):  7.923E-01 0.000E+00

     total cpu time spent up to now is      719.5 secs

     total energy              =   -4482.96940500 Ry
     estimated scf accuracy    <       0.00000017 Ry

     iteration # 45     ecut=    60.00 Ry     beta= 0.15
     Davidson diagonalization with overlap

---- Real-time Memory Report at c_bands before calling an iterative solver
             0 MiB given to the printing process from OS
             0 MiB allocation reported by mallinfo(arena+hblkhd)
          5519 MiB available memory on the node where the printing process lives
------------------
     ethr =  3.88E-11,  avg # of iterations =  3.9

     negative rho (up, down):  7.923E-01 0.000E+00

     total cpu time spent up to now is      735.3 secs

     total energy              =   -4482.96940525 Ry
     estimated scf accuracy    <       0.00000012 Ry

     iteration # 46     ecut=    60.00 Ry     beta= 0.15
     Davidson diagonalization with overlap

---- Real-time Memory Report at c_bands before calling an iterative solver
             0 MiB given to the printing process from OS
             0 MiB allocation reported by mallinfo(arena+hblkhd)
          5521 MiB available memory on the node where the printing process lives
------------------
     ethr =  2.81E-11,  avg # of iterations =  4.9

     negative rho (up, down):  7.923E-01 0.000E+00

     total cpu time spent up to now is      751.7 secs

     total energy              =   -4482.96940546 Ry
     estimated scf accuracy    <       0.00000008 Ry

     iteration # 47     ecut=    60.00 Ry     beta= 0.15
     Davidson diagonalization with overlap

---- Real-time Memory Report at c_bands before calling an iterative solver
             0 MiB given to the printing process from OS
             0 MiB allocation reported by mallinfo(arena+hblkhd)
          5528 MiB available memory on the node where the printing process lives
------------------
     ethr =  1.73E-11,  avg # of iterations =  5.6

     negative rho (up, down):  7.923E-01 0.000E+00

     total cpu time spent up to now is      768.5 secs

     total energy              =   -4482.96940552 Ry
     estimated scf accuracy    <       0.00000003 Ry

     iteration # 48     ecut=    60.00 Ry     beta= 0.15
     Davidson diagonalization with overlap

---- Real-time Memory Report at c_bands before calling an iterative solver
             0 MiB given to the printing process from OS
             0 MiB allocation reported by mallinfo(arena+hblkhd)
          5529 MiB available memory on the node where the printing process lives
------------------
     ethr =  7.89E-12,  avg # of iterations =  5.2

     negative rho (up, down):  7.923E-01 0.000E+00

     total cpu time spent up to now is      784.8 secs

     total energy              =   -4482.96940554 Ry
     estimated scf accuracy    <       0.00000002 Ry

     iteration # 49     ecut=    60.00 Ry     beta= 0.15
     Davidson diagonalization with overlap

---- Real-time Memory Report at c_bands before calling an iterative solver
             0 MiB given to the printing process from OS
             0 MiB allocation reported by mallinfo(arena+hblkhd)
          5553 MiB available memory on the node where the printing process lives
------------------
     ethr =  5.65E-12,  avg # of iterations =  5.6

     negative rho (up, down):  7.923E-01 0.000E+00

     total cpu time spent up to now is      801.3 secs

     End of self-consistent calculation

          k = 0.0000 0.0000 0.0000 ( 65197 PWs)   bands (ev):

   -92.3293 -92.2725 -92.1828 -92.1343 -92.0759 -92.0354 -92.0180 -91.8935
   -55.6825 -55.6586 -55.5408 -55.5304 -55.5215 -55.5171 -55.4780 -55.4525
   -55.4360 -55.4344 -55.4242 -55.3841 -55.3657 -55.3278 -55.3086 -55.2756
   -55.2696 -55.2243 -55.2212 -55.2208 -55.2127 -55.1677 -55.1488 -55.0608
   -30.9155 -30.8963 -30.7700 -30.7558 -30.7344 -30.6689 -30.4990 -30.4829
   -29.4804 -29.4369 -29.4118 -29.3028 -22.2477 -14.7142 -14.6788 -14.5928
   -14.4623 -14.2807 -14.1563 -13.8547 -13.8399 -13.8049 -13.7706 -13.7641
   -13.7249 -13.7165 -13.6987 -13.6842 -13.6575 -13.6301 -13.5636 -13.4166
   -13.2499 -13.2059 -13.1729 -13.1501 -13.1281 -13.0830 -13.0425 -12.9625
   -12.8900 -12.8021 -12.7859 -12.7482 -12.7374 -12.7134 -12.6979 -12.6887
   -12.6496 -12.6351 -12.6122 -12.5922 -12.5819 -12.5656 -12.5566 -12.5391
   -12.4854 -12.4706 -12.4435 -12.3942 -12.3422 -12.3269 -11.9809 -11.8359
   -11.7114 -11.6485 -11.4945 -11.4196 -11.4087 -11.3865 -11.3690 -11.3048
   -11.2877 -11.2528 -11.2241 -11.1130 -11.0322 -11.0286  -5.8442  -3.1526
    -3.1468  -2.5751  -2.3413  -2.1120  -1.9663  -1.9017  -1.7586  -1.4530
    -1.4389  -1.4172  -1.3365  -1.3170  -1.2489  -1.2334  -1.1908  -1.1466
    -0.9655  -0.7444  -0.7144  -0.5624  -0.5491  -0.5055  -0.4885  -0.4436
    -0.4278  -0.3661  -0.3400  -0.2719  -0.2598  -0.1788  -0.0526  -0.0379
    -0.0097   0.0609   0.0737   0.0887   0.1577   0.2372   0.2745   0.3286
     0.3560   0.4077   0.4877   0.5466   0.5627   0.5751   0.8287   0.8445
     1.0161   1.0867   1.1525   1.1840   1.2822   1.2992   1.3103   1.3849
     1.4122   1.4472   1.5064   1.6413   1.6955   1.7143   1.7284   1.7407
     1.8130   1.8916   1.9826   1.9946   2.0613   2.0797   2.1152   2.1350
     2.1403   2.1978   2.2475   2.2661   2.2887   2.3331   2.3891   2.5176
     2.5992   2.6475   2.6548   2.8143   2.8271   2.8749   2.8833   2.9808
     3.0226   3.0470   3.0628   3.0667   3.0816   3.0873   3.1588   3.2730
     3.3046   3.3202   3.3273   3.3938   3.3980   3.4220   3.4307   3.4376
     3.4489   3.4565   3.4691   3.4746   3.4887   3.4973   3.5055   3.5259
     3.5470   3.5521   3.5640   3.5892   3.7054   3.7493   4.4284   4.7423
     4.8157   5.1455   5.3962   5.5004   5.6748   6.2815   6.3276   6.3574
     6.6204   6.6355   6.6840   6.7320   6.9550   7.1492   7.3062   7.3341
     7.4709   7.6599   7.8115   7.9266   7.9361   7.9614   7.9948   8.0494
     8.3197   8.3267   8.3773   8.4315   8.5340   8.5560   8.6216

     occupation numbers 
     1.0000   1.0000   1.0000   1.0000   1.0000   1.0000   1.0000   1.0000
     1.0000   1.0000   1.0000   1.0000   1.0000   1.0000   1.0000   1.0000
     1.0000   1.0000   1.0000   1.0000   1.0000   1.0000   1.0000   1.0000
     1.0000   1.0000   1.0000   1.0000   1.0000   1.0000   1.0000   1.0000
     1.0000   1.0000   1.0000   1.0000   1.0000   1.0000   1.0000   1.0000
     1.0000   1.0000   1.0000   1.0000   1.0000   1.0000   1.0000   1.0000
     1.0000   1.0000   1.0000   1.0000   1.0000   1.0000   1.0000   1.0000
     1.0000   1.0000   1.0000   1.0000   1.0000   1.0000   1.0000   1.0000
     1.0000   1.0000   1.0000   1.0000   1.0000   1.0000   1.0000   1.0000
     1.0000   1.0000   1.0000   1.0000   1.0000   1.0000   1.0000   1.0000
     1.0000   1.0000   1.0000   1.0000   1.0000   1.0000   1.0000   1.0000
     1.0000   1.0000   1.0000   1.0000   1.0000   1.0000   1.0000   1.0000
     1.0000   1.0000   1.0000   1.0000   1.0000   1.0000   1.0000   1.0000
     1.0000   1.0000   1.0000   1.0000   1.0000   1.0000   1.0000   1.0000
     1.0000   1.0000   1.0000   1.0000   1.0000   1.0000   1.0000   1.0000
     1.0000   1.0000   1.0000   1.0000   1.0000   1.0000   1.0000   1.0000
     1.0000   1.0000   1.0000   1.0000   1.0000   1.0000   1.0000   1.0000
     1.0000   1.0000   1.0000   1.0000   1.0000   1.0000   1.0000   1.0000
     1.0000   1.0000   1.0000   1.0000   1.0000   1.0000   1.0000   1.0000
     1.0000   1.0000   1.0000   1.0000   1.0000   1.0000   1.0000   1.0000
     1.0000   0.9999   0.9999   0.9999   0.9998   0.9998   0.9998   0.9997
     0.9997   0.9996   0.9994   0.9989   0.9985   0.9984   0.9983   0.9982
     0.9974   0.9963   0.9946   0.9943   0.9924   0.9918   0.9906   0.9898
     0.9896   0.9870   0.9843   0.9832   0.9818   0.9786   0.9740   0.9601
     0.9485   0.9405   0.9392   0.9051   0.9018   0.8890   0.8866   0.8563
     0.8418   0.8329   0.8269   0.8255   0.8197   0.8175   0.7880   0.7356
     0.7200   0.7122   0.7086   0.6739   0.6716   0.6586   0.6539   0.6501
     0.6439   0.6396   0.6326   0.6295   0.6216   0.6167   0.6121   0.6004
     0.5883   0.5853   0.5784   0.5637   0.4952   0.4692   0.1388   0.0603
     0.0484   0.0158   0.0058   0.0037   0.0017   0.0001   0.0000   0.0000
     0.0000   0.0000   0.0000   0.0000   0.0000   0.0000   0.0000   0.0000
     0.0000   0.0000   0.0000   0.0000   0.0000   0.0000   0.0000   0.0000
     0.0000   0.0000   0.0000   0.0000   0.0000   0.0000   0.0000

          k = 0.0000 0.2500 0.0000 ( 65257 PWs)   bands (ev):

   -92.3293 -92.2725 -92.1828 -92.1343 -92.0759 -92.0354 -92.0180 -91.8935
   -55.6825 -55.6586 -55.5408 -55.5304 -55.5215 -55.5171 -55.4780 -55.4525
   -55.4360 -55.4344 -55.4242 -55.3841 -55.3657 -55.3278 -55.3086 -55.2756
   -55.2696 -55.2243 -55.2212 -55.2208 -55.2127 -55.1677 -55.1488 -55.0608
   -30.9153 -30.8961 -30.7691 -30.7560 -30.7353 -30.6691 -30.4967 -30.4852
   -29.4798 -29.4366 -29.4125 -29.3032 -22.2477 -14.6771 -14.6530 -14.5678
   -14.4331 -14.3181 -14.1470 -14.0008 -13.8209 -13.7924 -13.7722 -13.7668
   -13.7409 -13.6837 -13.6783 -13.6635 -13.6457 -13.6125 -13.4842 -13.4468
   -13.2856 -13.2726 -13.2150 -13.1824 -13.1425 -13.0979 -13.0616 -12.9812
   -12.9485 -12.9144 -12.8589 -12.7872 -12.7727 -12.7459 -12.7295 -12.6639
   -12.6221 -12.5965 -12.5730 -12.5438 -12.5221 -12.5148 -12.5043 -12.4742
   -12.4608 -12.4419 -12.4340 -12.3844 -12.2427 -12.1782 -12.0422 -11.8872
   -11.7678 -11.7164 -11.4600 -11.4164 -11.3892 -11.3609 -11.3441 -11.2968
   -11.2854 -11.2631 -11.2286 -11.1273 -11.0739 -11.0632  -5.8442  -3.1526
    -3.1470  -2.4399  -2.2169  -2.0801  -1.8978  -1.8543  -1.6896  -1.4732
    -1.3851  -1.3720  -1.3178  -1.2135  -1.1985  -1.1648  -1.1389  -1.0954
    -0.8967  -0.7690  -0.7564  -0.6823  -0.6692  -0.5647  -0.5338  -0.4799
    -0.4553  -0.4105  -0.3493  -0.3238  -0.2903  -0.2597  -0.2433  -0.2091
    -0.1366  -0.0839  -0.0313   0.0850   0.1011   0.1479   0.2716   0.3033
     0.3633   0.4151   0.4629   0.4918   0.5244   0.5827   0.8769   0.9643
     0.9962   1.0831   1.1236   1.1428   1.2724   1.2907   1.3853   1.4108
     1.4414   1.5555   1.6401   1.6712   1.6920   1.7060   1.7396   1.8008
     1.8253   1.8530   1.9026   1.9314   1.9612   2.0395   2.0694   2.1103
     2.1608   2.2173   2.2549   2.2793   2.3102   2.3363   2.4227   2.5559
     2.6237   2.6399   2.7257   2.7715   2.8107   2.8152   2.8786   2.9226
     2.9988   3.0371   3.0546   3.0649   3.0850   3.2337   3.2558   3.2874
     3.3073   3.3263   3.3354   3.3435   3.3519   3.3810   3.3827   3.3993
     3.4047   3.4168   3.4331   3.4435   3.4541   3.4767   3.4875   3.4919
     3.5274   3.5444   3.6048   3.9673   3.9785   4.2427   4.6127   4.7545
     4.9143   5.0872   5.4169   5.5529   5.7997   5.9114   6.1636   6.3162
     6.3400   6.4657   6.5347   6.7462   6.8806   7.0302   7.2994   7.4952
     7.5570   7.7026   7.8058   7.8765   7.9279   7.9868   8.0865   8.1927
     8.2402   8.4204   8.5374   8.5768   8.5994   8.6897   8.9555

     occupation numbers 
     1.0000   1.0000   1.0000   1.0000   1.0000   1.0000   1.0000   1.0000
     1.0000   1.0000   1.0000   1.0000   1.0000   1.0000   1.0000   1.0000
     1.0000   1.0000   1.0000   1.0000   1.0000   1.0000   1.0000   1.0000
     1.0000   1.0000   1.0000   1.0000   1.0000   1.0000   1.0000   1.0000
     1.0000   1.0000   1.0000   1.0000   1.0000   1.0000   1.0000   1.0000
     1.0000   1.0000   1.0000   1.0000   1.0000   1.0000   1.0000   1.0000
     1.0000   1.0000   1.0000   1.0000   1.0000   1.0000   1.0000   1.0000
     1.0000   1.0000   1.0000   1.0000   1.0000   1.0000   1.0000   1.0000
     1.0000   1.0000   1.0000   1.0000   1.0000   1.0000   1.0000   1.0000
     1.0000   1.0000   1.0000   1.0000   1.0000   1.0000   1.0000   1.0000
     1.0000   1.0000   1.0000   1.0000   1.0000   1.0000   1.0000   1.0000
     1.0000   1.0000   1.0000   1.0000   1.0000   1.0000   1.0000   1.0000
     1.0000   1.0000   1.0000   1.0000   1.0000   1.0000   1.0000   1.0000
     1.0000   1.0000   1.0000   1.0000   1.0000   1.0000   1.0000   1.0000
     1.0000   1.0000   1.0000   1.0000   1.0000   1.0000   1.0000   1.0000
     1.0000   1.0000   1.0000   1.0000   1.0000   1.0000   1.0000   1.0000
     1.0000   1.0000   1.0000   1.0000   1.0000   1.0000   1.0000   1.0000
     1.0000   1.0000   1.0000   1.0000   1.0000   1.0000   1.0000   1.0000
     1.0000   1.0000   1.0000   1.0000   1.0000   1.0000   1.0000   1.0000
     1.0000   1.0000   1.0000   1.0000   1.0000   1.0000   1.0000   1.0000
     1.0000   0.9999   0.9999   0.9999   0.9998   0.9998   0.9997   0.9997
     0.9996   0.9993   0.9989   0.9987   0.9985   0.9984   0.9982   0.9976
     0.9973   0.9969   0.9961   0.9956   0.9950   0.9931   0.9922   0.9908
     0.9887   0.9860   0.9839   0.9824   0.9803   0.9784   0.9708   0.9549
     0.9445   0.9418   0.9254   0.9154   0.9060   0.9049   0.8879   0.8750
     0.8502   0.8365   0.8300   0.8261   0.8184   0.7544   0.7439   0.7286
     0.7187   0.7091   0.7045   0.7003   0.6960   0.6807   0.6798   0.6709
     0.6680   0.6615   0.6525   0.6468   0.6409   0.6283   0.6223   0.6198
     0.5995   0.5898   0.5546   0.3442   0.3381   0.2090   0.0870   0.0582
     0.0354   0.0195   0.0053   0.0029   0.0009   0.0005   0.0001   0.0001
     0.0000   0.0000   0.0000   0.0000   0.0000   0.0000   0.0000   0.0000
     0.0000   0.0000   0.0000   0.0000   0.0000   0.0000   0.0000   0.0000
     0.0000   0.0000   0.0000   0.0000   0.0000   0.0000   0.0000

          k = 0.0000-0.5000 0.0000 ( 65180 PWs)   bands (ev):

   -92.3293 -92.2725 -92.1828 -92.1343 -92.0759 -92.0354 -92.0180 -91.8935
   -55.6825 -55.6586 -55.5408 -55.5304 -55.5215 -55.5171 -55.4780 -55.4525
   -55.4360 -55.4344 -55.4242 -55.3841 -55.3657 -55.3278 -55.3086 -55.2756
   -55.2696 -55.2243 -55.2212 -55.2208 -55.2127 -55.1677 -55.1488 -55.0608
   -30.9151 -30.8960 -30.7682 -30.7562 -30.7362 -30.6692 -30.4917 -30.4902
   -29.4792 -29.4363 -29.4131 -29.3035 -22.2477 -14.6458 -14.5964 -14.5461
   -14.4196 -14.3324 -14.1936 -14.0524 -13.9237 -13.7905 -13.7702 -13.7331
   -13.6859 -13.6714 -13.6276 -13.6066 -13.5621 -13.5467 -13.5180 -13.4807
   -13.4561 -13.4189 -13.2176 -13.1649 -13.1513 -13.0911 -13.0737 -12.9954
   -12.9859 -12.9323 -12.9224 -12.8572 -12.7586 -12.7446 -12.7240 -12.7092
   -12.6105 -12.5953 -12.5679 -12.5216 -12.5198 -12.5034 -12.4732 -12.4573
   -12.4180 -12.3887 -12.3430 -12.2898 -12.1534 -12.1048 -11.9626 -11.9536
   -11.8874 -11.8437 -11.4134 -11.4116 -11.3844 -11.3466 -11.3125 -11.3015
   -11.2584 -11.2546 -11.2100 -11.1489 -11.1348 -11.1203  -5.8442  -3.1526
    -3.1472  -2.2255  -2.1656  -2.0139  -1.9411  -1.6624  -1.5779  -1.4502
    -1.3111  -1.2780  -1.2555  -1.1770  -1.1454  -1.0647  -1.0289  -0.9537
    -0.9116  -0.8715  -0.8449  -0.7917  -0.7521  -0.7056  -0.6700  -0.6358
    -0.6013  -0.4916  -0.4459  -0.4149  -0.4138  -0.3272  -0.2941  -0.2707
    -0.2244  -0.1411  -0.0694   0.0071   0.0350   0.1457   0.1903   0.3375
     0.3567   0.3976   0.4402   0.5696   0.6202   0.7598   0.8239   0.8314
     0.9613   0.9984   1.0908   1.2402   1.3448   1.3762   1.4094   1.4170
     1.4516   1.4752   1.5127   1.5328   1.5393   1.6496   1.7071   1.7309
     1.7569   2.0149   2.0518   2.0756   2.1647   2.1882   2.2259   2.2435
     2.2759   2.2854   2.2867   2.3272   2.3657   2.3895   2.4145   2.4315
     2.4624   2.5174   2.5946   2.6228   2.8036   2.9707   2.9780   2.9913
     3.0311   3.0361   3.0483   3.0674   3.0810   3.1033   3.1149   3.1680
     3.1879   3.2642   3.2757   3.3441   3.3539   3.3778   3.3789   3.3996
     3.4033   3.4051   3.4104   3.4137   3.4266   3.4469   3.4482   3.5124
     3.5188   3.5341   3.5885   4.4763   4.5068   4.5437   4.5940   4.9598
     5.1095   5.2409   5.4385   5.5150   5.6223   5.8254   5.9342   5.9980
     6.2240   6.3709   6.4056   6.4175   7.0106   7.0740   7.1594   7.3936
     7.5993   7.6178   7.7009   8.0254   8.0516   8.0842   8.2201   8.3617
     8.5329   8.5477   8.6411   8.7289   8.7754   8.8521   8.9854

     occupation numbers 
     1.0000   1.0000   1.0000   1.0000   1.0000   1.0000   1.0000   1.0000
     1.0000   1.0000   1.0000   1.0000   1.0000   1.0000   1.0000   1.0000
     1.0000   1.0000   1.0000   1.0000   1.0000   1.0000   1.0000   1.0000
     1.0000   1.0000   1.0000   1.0000   1.0000   1.0000   1.0000   1.0000
     1.0000   1.0000   1.0000   1.0000   1.0000   1.0000   1.0000   1.0000
     1.0000   1.0000   1.0000   1.0000   1.0000   1.0000   1.0000   1.0000
     1.0000   1.0000   1.0000   1.0000   1.0000   1.0000   1.0000   1.0000
     1.0000   1.0000   1.0000   1.0000   1.0000   1.0000   1.0000   1.0000
     1.0000   1.0000   1.0000   1.0000   1.0000   1.0000   1.0000   1.0000
     1.0000   1.0000   1.0000   1.0000   1.0000   1.0000   1.0000   1.0000
     1.0000   1.0000   1.0000   1.0000   1.0000   1.0000   1.0000   1.0000
     1.0000   1.0000   1.0000   1.0000   1.0000   1.0000   1.0000   1.0000
     1.0000   1.0000   1.0000   1.0000   1.0000   1.0000   1.0000   1.0000
     1.0000   1.0000   1.0000   1.0000   1.0000   1.0000   1.0000   1.0000
     1.0000   1.0000   1.0000   1.0000   1.0000   1.0000   1.0000   1.0000
     1.0000   1.0000   1.0000   1.0000   1.0000   1.0000   1.0000   1.0000
     1.0000   1.0000   1.0000   1.0000   1.0000   1.0000   1.0000   1.0000
     1.0000   1.0000   1.0000   1.0000   1.0000   1.0000   1.0000   1.0000
     1.0000   1.0000   1.0000   1.0000   1.0000   1.0000   1.0000   1.0000
     1.0000   1.0000   1.0000   1.0000   1.0000   1.0000   1.0000   1.0000
     1.0000   1.0000   0.9999   0.9999   0.9998   0.9997   0.9997   0.9996
     0.9996   0.9995   0.9994   0.9993   0.9993   0.9988   0.9984   0.9982
     0.9980   0.9938   0.9927   0.9920   0.9886   0.9875   0.9855   0.9846
     0.9826   0.9820   0.9819   0.9790   0.9760   0.9739   0.9716   0.9699
     0.9666   0.9601   0.9492   0.9447   0.9077   0.8597   0.8572   0.8527
     0.8387   0.8369   0.8324   0.8252   0.8199   0.8111   0.8064   0.7840
     0.7753   0.7399   0.7343   0.7000   0.6949   0.6824   0.6818   0.6707
     0.6687   0.6678   0.6649   0.6631   0.6561   0.6450   0.6443   0.6081
     0.6045   0.5957   0.5641   0.1237   0.1147   0.1044   0.0915   0.0304
     0.0180   0.0109   0.0049   0.0035   0.0021   0.0008   0.0004   0.0003
     0.0001   0.0000   0.0000   0.0000   0.0000   0.0000   0.0000   0.0000
     0.0000   0.0000   0.0000   0.0000   0.0000   0.0000   0.0000   0.0000
     0.0000   0.0000   0.0000   0.0000   0.0000   0.0000   0.0000

          k = 0.2500 0.2500 0.0000 ( 65198 PWs)   bands (ev):

   -92.3293 -92.2725 -92.1828 -92.1343 -92.0759 -92.0354 -92.0180 -91.8935
   -55.6825 -55.6586 -55.5408 -55.5304 -55.5215 -55.5171 -55.4780 -55.4525
   -55.4360 -55.4344 -55.4242 -55.3841 -55.3657 -55.3278 -55.3086 -55.2756
   -55.2696 -55.2243 -55.2212 -55.2208 -55.2127 -55.1677 -55.1488 -55.0608
   -30.9136 -30.8979 -30.7690 -30.7557 -30.7352 -30.6695 -30.4968 -30.4854
   -29.4788 -29.4376 -29.4121 -29.3036 -22.2477 -14.6493 -14.6170 -14.5401
   -14.4226 -14.3101 -14.1855 -14.1059 -13.9065 -13.7705 -13.7445 -13.7333
   -13.6991 -13.6682 -13.6471 -13.6262 -13.5915 -13.5753 -13.4771 -13.4616
   -13.3010 -13.2877 -13.2577 -13.2371 -13.2052 -13.1485 -13.1066 -13.0638
   -12.9745 -12.9461 -12.8695 -12.7817 -12.7437 -12.7297 -12.6938 -12.6622
   -12.6536 -12.6035 -12.5868 -12.5746 -12.5468 -12.5222 -12.4737 -12.4368
   -12.4001 -12.3812 -12.3742 -12.3518 -12.1852 -12.0965 -12.0907 -11.9164
   -11.7996 -11.7610 -11.4321 -11.4001 -11.3896 -11.3824 -11.3198 -11.2851
   -11.2784 -11.2429 -11.2354 -11.1437 -11.1022 -11.0846  -5.8442  -3.1528
    -3.1470  -2.3019  -2.0913  -1.9744  -1.8809  -1.7584  -1.6927  -1.4984
    -1.3506  -1.3301  -1.3041  -1.2083  -1.1745  -1.0812  -1.0545  -1.0044
    -0.8716  -0.8246  -0.7533  -0.7067  -0.6640  -0.6385  -0.6130  -0.5718
    -0.5553  -0.4659  -0.4159  -0.3547  -0.3047  -0.2743  -0.2213  -0.2105
    -0.1482  -0.0980  -0.0483  -0.0078   0.0731   0.1300   0.1570   0.1995
     0.2524   0.3232   0.3636   0.3847   0.4555   0.4910   0.7706   0.9152
     0.9560   1.0076   1.0519   1.0928   1.1643   1.2198   1.2557   1.5292
     1.6030   1.6772   1.7044   1.7452   1.7833   1.8178   1.8550   1.8723
     1.9010   1.9388   1.9485   1.9681   2.0053   2.0467   2.0886   2.1390
     2.1785   2.1885   2.2183   2.2559   2.3068   2.3347   2.4657   2.5335
     2.5742   2.6027   2.6551   2.7315   2.7603   2.7979   2.8235   2.8327
     2.9424   2.9798   3.0605   3.0693   3.0879   3.2446   3.2616   3.2688
     3.2841   3.2976   3.3105   3.3242   3.3318   3.3410   3.3547   3.3661
     3.3860   3.3917   3.4033   3.4231   3.4379   3.4478   3.4785   3.7807
     3.8727   3.9069   3.9754   3.9950   4.2109   4.3223   4.6535   4.7984
     4.9905   5.1334   5.3362   5.6077   5.8990   5.9315   6.0022   6.1294
     6.2120   6.2511   6.3552   6.4256   6.9000   6.9993   7.1098   7.1866
     7.7081   7.7910   7.8424   7.8949   8.0315   8.1558   8.2117   8.3049
     8.3536   8.4571   8.5770   8.7003   8.7274   8.7606   8.8580

     occupation numbers 
     1.0000   1.0000   1.0000   1.0000   1.0000   1.0000   1.0000   1.0000
     1.0000   1.0000   1.0000   1.0000   1.0000   1.0000   1.0000   1.0000
     1.0000   1.0000   1.0000   1.0000   1.0000   1.0000   1.0000   1.0000
     1.0000   1.0000   1.0000   1.0000   1.0000   1.0000   1.0000   1.0000
     1.0000   1.0000   1.0000   1.0000   1.0000   1.0000   1.0000   1.0000
     1.0000   1.0000   1.0000   1.0000   1.0000   1.0000   1.0000   1.0000
     1.0000   1.0000   1.0000   1.0000   1.0000   1.0000   1.0000   1.0000
     1.0000   1.0000   1.0000   1.0000   1.0000   1.0000   1.0000   1.0000
     1.0000   1.0000   1.0000   1.0000   1.0000   1.0000   1.0000   1.0000
     1.0000   1.0000   1.0000   1.0000   1.0000   1.0000   1.0000   1.0000
     1.0000   1.0000   1.0000   1.0000   1.0000   1.0000   1.0000   1.0000
     1.0000   1.0000   1.0000   1.0000   1.0000   1.0000   1.0000   1.0000
     1.0000   1.0000   1.0000   1.0000   1.0000   1.0000   1.0000   1.0000
     1.0000   1.0000   1.0000   1.0000   1.0000   1.0000   1.0000   1.0000
     1.0000   1.0000   1.0000   1.0000   1.0000   1.0000   1.0000   1.0000
     1.0000   1.0000   1.0000   1.0000   1.0000   1.0000   1.0000   1.0000
     1.0000   1.0000   1.0000   1.0000   1.0000   1.0000   1.0000   1.0000
     1.0000   1.0000   1.0000   1.0000   1.0000   1.0000   1.0000   1.0000
     1.0000   1.0000   1.0000   1.0000   1.0000   1.0000   1.0000   1.0000
     1.0000   1.0000   1.0000   1.0000   1.0000   1.0000   1.0000   1.0000
     1.0000   1.0000   1.0000   0.9999   0.9999   0.9999   0.9999   0.9994
     0.9991   0.9986   0.9985   0.9981   0.9978   0.9974   0.9969   0.9966
     0.9962   0.9955   0.9953   0.9949   0.9940   0.9929   0.9915   0.9897
     0.9879   0.9875   0.9860   0.9838   0.9805   0.9785   0.9663   0.9580
     0.9523   0.9480   0.9391   0.9242   0.9179   0.9091   0.9028   0.9004
     0.8688   0.8566   0.8278   0.8244   0.8172   0.7492   0.7411   0.7377
     0.7302   0.7235   0.7171   0.7102   0.7063   0.7016   0.6945   0.6886
     0.6780   0.6750   0.6688   0.6580   0.6499   0.6444   0.6274   0.4507
     0.3972   0.3778   0.3398   0.3292   0.2228   0.1766   0.0778   0.0510
     0.0274   0.0165   0.0075   0.0023   0.0005   0.0005   0.0003   0.0002
     0.0001   0.0001   0.0000   0.0000   0.0000   0.0000   0.0000   0.0000
     0.0000   0.0000   0.0000   0.0000   0.0000   0.0000   0.0000   0.0000
     0.0000   0.0000   0.0000   0.0000   0.0000   0.0000   0.0000

          k = 0.2500-0.5000 0.0000 ( 65138 PWs)   bands (ev):

   -92.3293 -92.2725 -92.1828 -92.1342 -92.0759 -92.0354 -92.0180 -91.8935
   -55.6825 -55.6586 -55.5408 -55.5304 -55.5215 -55.5171 -55.4780 -55.4525
   -55.4360 -55.4344 -55.4242 -55.3841 -55.3657 -55.3278 -55.3086 -55.2756
   -55.2696 -55.2243 -55.2212 -55.2208 -55.2127 -55.1677 -55.1488 -55.0608
   -30.9134 -30.8977 -30.7681 -30.7559 -30.7361 -30.6696 -30.4919 -30.4903
   -29.4782 -29.4373 -29.4127 -29.3039 -22.2477 -14.6155 -14.5694 -14.5030
   -14.3880 -14.3568 -14.2341 -14.1530 -14.0206 -13.7703 -13.7081 -13.6628
   -13.6307 -13.6127 -13.5947 -13.5784 -13.5475 -13.5345 -13.4983 -13.4558
   -13.4393 -13.4100 -13.3013 -13.2528 -13.2234 -13.1737 -13.1301 -13.1039
   -13.0288 -13.0015 -12.8449 -12.7810 -12.7627 -12.6983 -12.6953 -12.6654
   -12.6278 -12.6096 -12.5824 -12.5515 -12.5195 -12.5093 -12.4741 -12.4594
   -12.4302 -12.3883 -12.2937 -12.2624 -12.1600 -12.0887 -11.9601 -11.9340
   -11.8793 -11.8416 -11.4075 -11.3956 -11.3847 -11.3577 -11.3260 -11.2980
   -11.2563 -11.2289 -11.2064 -11.1619 -11.1358 -11.1243  -5.8442  -3.1527
    -3.1471  -2.0842  -2.0178  -1.8879  -1.8101  -1.6830  -1.5985  -1.4747
    -1.3231  -1.2717  -1.2482  -1.1848  -1.1715  -1.0755  -1.0077  -0.9218
    -0.8754  -0.8654  -0.8005  -0.7610  -0.7239  -0.6773  -0.6402  -0.6051
    -0.5645  -0.5549  -0.5082  -0.4800  -0.4396  -0.4086  -0.3408  -0.2425
    -0.2018  -0.1247  -0.0611  -0.0146   0.0314   0.0545   0.1019   0.2660
     0.2771   0.3694   0.4159   0.4237   0.4688   0.5008   0.5410   0.5681
     0.6422   0.9009   0.9953   1.0549   1.1276   1.3872   1.4146   1.5040
     1.5285   1.6997   1.7294   1.7747   1.7993   1.8173   1.8367   1.8954
     1.9376   1.9779   2.0506   2.1405   2.1824   2.2024   2.2120   2.2535
     2.2661   2.2691   2.3144   2.3293   2.3482   2.3673   2.3978   2.4239
     2.4541   2.5152   2.5500   2.6266   2.7715   2.9238   2.9378   2.9561
     2.9822   3.0082   3.0346   3.0579   3.0617   3.0709   3.0815   3.1082
     3.1939   3.2431   3.2619   3.2638   3.2818   3.3020   3.3157   3.3345
     3.3422   3.3711   3.3831   3.3998   3.4085   3.4157   3.4286   3.9422
     3.9525   4.1121   4.1616   4.4950   4.5431   4.5497   4.6653   5.0252
     5.1330   5.2706   5.4625   5.5000   5.6612   5.6853   5.8692   5.9510
     6.0839   6.1029   6.2928   6.4717   6.6002   6.6379   7.0984   7.2855
     7.5344   7.6280   7.9638   8.0794   8.1890   8.2116   8.3575   8.3947
     8.5420   8.5760   8.6928   8.7830   8.8810   8.8980   8.9569

     occupation numbers 
     1.0000   1.0000   1.0000   1.0000   1.0000   1.0000   1.0000   1.0000
     1.0000   1.0000   1.0000   1.0000   1.0000   1.0000   1.0000   1.0000
     1.0000   1.0000   1.0000   1.0000   1.0000   1.0000   1.0000   1.0000
     1.0000   1.0000   1.0000   1.0000   1.0000   1.0000   1.0000   1.0000
     1.0000   1.0000   1.0000   1.0000   1.0000   1.0000   1.0000   1.0000
     1.0000   1.0000   1.0000   1.0000   1.0000   1.0000   1.0000   1.0000
     1.0000   1.0000   1.0000   1.0000   1.0000   1.0000   1.0000   1.0000
     1.0000   1.0000   1.0000   1.0000   1.0000   1.0000   1.0000   1.0000
     1.0000   1.0000   1.0000   1.0000   1.0000   1.0000   1.0000   1.0000
     1.0000   1.0000   1.0000   1.0000   1.0000   1.0000   1.0000   1.0000
     1.0000   1.0000   1.0000   1.0000   1.0000   1.0000   1.0000   1.0000
     1.0000   1.0000   1.0000   1.0000   1.0000   1.0000   1.0000   1.0000
     1.0000   1.0000   1.0000   1.0000   1.0000   1.0000   1.0000   1.0000
     1.0000   1.0000   1.0000   1.0000   1.0000   1.0000   1.0000   1.0000
     1.0000   1.0000   1.0000   1.0000   1.0000   1.0000   1.0000   1.0000
     1.0000   1.0000   1.0000   1.0000   1.0000   1.0000   1.0000   1.0000
     1.0000   1.0000   1.0000   1.0000   1.0000   1.0000   1.0000   1.0000
     1.0000   1.0000   1.0000   1.0000   1.0000   1.0000   1.0000   1.0000
     1.0000   1.0000   1.0000   1.0000   1.0000   1.0000   1.0000   1.0000
     1.0000   1.0000   1.0000   1.0000   1.0000   1.0000   1.0000   1.0000
     1.0000   1.0000   1.0000   1.0000   0.9999   0.9997   0.9996   0.9994
     0.9994   0.9985   0.9983   0.9978   0.9976   0.9974   0.9971   0.9963
     0.9955   0.9947   0.9928   0.9896   0.9878   0.9868   0.9863   0.9840
     0.9832   0.9830   0.9800   0.9789   0.9774   0.9759   0.9732   0.9707
     0.9675   0.9604   0.9558   0.9441   0.9154   0.8746   0.8703   0.8644
     0.8558   0.8469   0.8374   0.8288   0.8274   0.8238   0.8197   0.8091
     0.7726   0.7500   0.7410   0.7401   0.7314   0.7213   0.7145   0.7049
     0.7010   0.6859   0.6796   0.6707   0.6660   0.6620   0.6550   0.3580
     0.3523   0.2689   0.2452   0.1181   0.1046   0.1028   0.0753   0.0243
     0.0165   0.0097   0.0044   0.0037   0.0018   0.0016   0.0006   0.0004
     0.0002   0.0002   0.0001   0.0000   0.0000   0.0000   0.0000   0.0000
     0.0000   0.0000   0.0000   0.0000   0.0000   0.0000   0.0000   0.0000
     0.0000   0.0000   0.0000   0.0000   0.0000   0.0000   0.0000

          k =-0.5000-0.5000 0.0000 ( 65132 PWs)   bands (ev):

   -92.3293 -92.2725 -92.1828 -92.1342 -92.0759 -92.0354 -92.0180 -91.8935
   -55.6825 -55.6586 -55.5408 -55.5304 -55.5215 -55.5171 -55.4780 -55.4525
   -55.4360 -55.4344 -55.4242 -55.3841 -55.3657 -55.3278 -55.3086 -55.2756
   -55.2696 -55.2243 -55.2212 -55.2208 -55.2127 -55.1677 -55.1488 -55.0608
   -30.9112 -30.9000 -30.7680 -30.7555 -30.7360 -30.6700 -30.4920 -30.4904
   -29.4772 -29.4383 -29.4123 -29.3043 -22.2477 -14.5699 -14.5419 -14.4245
   -14.4146 -14.3237 -14.2813 -14.2547 -14.1204 -13.7703 -13.6206 -13.6100
   -13.5735 -13.5567 -13.5381 -13.5336 -13.4933 -13.4867 -13.4756 -13.4647
   -13.4497 -13.3709 -13.3630 -13.3423 -13.3209 -13.3005 -13.2015 -13.1959
   -13.0680 -13.0637 -12.7958 -12.7598 -12.6950 -12.6738 -12.6649 -12.6590
   -12.6237 -12.6207 -12.6118 -12.5923 -12.5189 -12.5033 -12.4742 -12.4562
   -12.4471 -12.3992 -12.2436 -12.2360 -12.1763 -12.0735 -11.9566 -11.9123
   -11.8736 -11.8387 -11.4040 -11.3917 -11.3739 -11.3573 -11.3224 -11.3043
   -11.2707 -11.2095 -11.1890 -11.1838 -11.1334 -11.1301  -5.8442  -3.1529
    -3.1471  -1.8616  -1.7842  -1.7733  -1.7024  -1.6626  -1.5840  -1.5164
    -1.3916  -1.2734  -1.2432  -1.2056  -1.1467  -1.0749  -1.0617  -0.9892
    -0.9473  -0.8319  -0.8050  -0.7558  -0.7229  -0.6591  -0.6163  -0.5960
    -0.5849  -0.5339  -0.4842  -0.4735  -0.3581  -0.3004  -0.2547  -0.2046
    -0.1831  -0.1716  -0.1330  -0.0926  -0.0606  -0.0444   0.0414   0.1088
     0.1576   0.1789   0.2545   0.3034   0.3234   0.3754   0.3876   0.4109
     0.4197   0.8671   0.9131   0.9984   1.0409   1.4217   1.4342   1.4654
     1.5044   1.7810   1.8007   1.8070   1.8437   1.9814   2.0787   2.1046
     2.1403   2.1512   2.1796   2.1875   2.2213   2.2281   2.2413   2.2492
     2.3066   2.3149   2.3387   2.3598   2.3680   2.3854   2.4232   2.4523
     2.4592   2.4974   2.5179   2.5970   2.6633   2.9384   2.9679   2.9862
     3.0049   3.0073   3.0393   3.0474   3.0565   3.0712   3.0799   3.0940
     3.1008   3.1215   3.1318   3.1945   3.1994   3.2195   3.2339   3.2442
     3.2630   3.2686   3.2787   3.3784   3.3838   3.4120   3.4214   4.3520
     4.3845   4.4247   4.4380   4.6881   4.7579   4.7886   5.0286   5.1328
     5.1503   5.2349   5.3680   5.4105   5.4338   5.5701   5.6906   5.7152
     5.9805   6.0265   6.1272   6.2533   6.5180   6.6911   6.7068   7.2110
     7.5082   7.5298   7.7118   8.2880   8.3036   8.3873   8.4288   8.5694
     8.6745   8.7993   8.8984   8.9070   8.9533   8.9677   8.9764

     occupation numbers 
     1.0000   1.0000   1.0000   1.0000   1.0000   1.0000   1.0000   1.0000
     1.0000   1.0000   1.0000   1.0000   1.0000   1.0000   1.0000   1.0000
     1.0000   1.0000   1.0000   1.0000   1.0000   1.0000   1.0000   1.0000
     1.0000   1.0000   1.0000   1.0000   1.0000   1.0000   1.0000   1.0000
     1.0000   1.0000   1.0000   1.0000   1.0000   1.0000   1.0000   1.0000
     1.0000   1.0000   1.0000   1.0000   1.0000   1.0000   1.0000   1.0000
     1.0000   1.0000   1.0000   1.0000   1.0000   1.0000   1.0000   1.0000
     1.0000   1.0000   1.0000   1.0000   1.0000   1.0000   1.0000   1.0000
     1.0000   1.0000   1.0000   1.0000   1.0000   1.0000   1.0000   1.0000
     1.0000   1.0000   1.0000   1.0000   1.0000   1.0000   1.0000   1.0000
     1.0000   1.0000   1.0000   1.0000   1.0000   1.0000   1.0000   1.0000
     1.0000   1.0000   1.0000   1.0000   1.0000   1.0000   1.0000   1.0000
     1.0000   1.0000   1.0000   1.0000   1.0000   1.0000   1.0000   1.0000
     1.0000   1.0000   1.0000   1.0000   1.0000   1.0000   1.0000   1.0000
     1.0000   1.0000   1.0000   1.0000   1.0000   1.0000   1.0000   1.0000
     1.0000   1.0000   1.0000   1.0000   1.0000   1.0000   1.0000   1.0000
     1.0000   1.0000   1.0000   1.0000   1.0000   1.0000   1.0000   1.0000
     1.0000   1.0000   1.0000   1.0000   1.0000   1.0000   1.0000   1.0000
     1.0000   1.0000   1.0000   1.0000   1.0000   1.0000   1.0000   1.0000
     1.0000   1.0000   1.0000   1.0000   1.0000   1.0000   1.0000   1.0000
     1.0000   1.0000   1.0000   1.0000   1.0000   0.9996   0.9996   0.9995
     0.9994   0.9978   0.9976   0.9975   0.9970   0.9946   0.9919   0.9910
     0.9896   0.9892   0.9879   0.9875   0.9858   0.9854   0.9847   0.9842
[...]
     0.0000   0.0000   0.0000   0.0000   0.0000   0.0000   0.0000   0.0000
     0.0000   0.0000   0.0000   0.0000   0.0000   0.0000   0.0000

          k =-0.5000 0.0000 0.0000 ( 65180 PWs)   bands (ev):

   -92.3293 -92.2725 -92.1828 -92.1343 -92.0759 -92.0354 -92.0180 -91.8935
   -55.6825 -55.6586 -55.5408 -55.5304 -55.5215 -55.5171 -55.4780 -55.4525
   -55.4360 -55.4344 -55.4242 -55.3841 -55.3657 -55.3278 -55.3086 -55.2756
   -55.2696 -55.2243 -55.2212 -55.2208 -55.2127 -55.1677 -55.1488 -55.0608
   -30.9115 -30.9002 -30.7698 -30.7551 -30.7342 -30.6697 -30.4993 -30.4831
   -29.4784 -29.4390 -29.4111 -29.3036 -22.2477 -14.6488 -14.6010 -14.5380
   -14.4347 -14.3236 -14.1811 -14.0401 -13.9060 -13.7713 -13.7699 -13.7628
   -13.7408 -13.6868 -13.6293 -13.5959 -13.5538 -13.5460 -13.5331 -13.4753
   -13.4713 -13.3724 -13.1889 -13.1773 -13.1298 -13.1213 -13.0827 -13.0001
   -12.9803 -12.9078 -12.8934 -12.8841 -12.7781 -12.6928 -12.6862 -12.6770
   -12.6621 -12.6500 -12.5951 -12.5869 -12.5747 -12.5545 -12.4540 -12.4078
   -12.3442 -12.3262 -12.2783 -12.2692 -12.1793 -12.1623 -12.0235 -11.9664
   -11.8594 -11.8225 -11.4109 -11.3899 -11.3828 -11.3679 -11.3501 -11.3086
   -11.2459 -11.2286 -11.1964 -11.1508 -11.1414 -11.1256  -5.8442  -3.1530
    -3.1468  -2.2151  -2.1761  -2.0113  -1.9723  -1.6610  -1.5866  -1.4357
    -1.3182  -1.2799  -1.2351  -1.1856  -1.1593  -1.0381  -0.9924  -0.9794
    -0.8960  -0.8602  -0.8480  -0.8129  -0.7580  -0.6880  -0.6573  -0.6327
    -0.5370  -0.4872  -0.4393  -0.4067  -0.3846  -0.3575  -0.3079  -0.2833
    -0.2448  -0.1547  -0.0780  -0.0203   0.0446   0.2118   0.2413   0.3103
     0.3282   0.3991   0.4170   0.5496   0.5839   0.6185   0.8083   0.9061
     0.9524   1.0144   1.0972   1.2192   1.2346   1.3663   1.3943   1.4462
     1.4652   1.5112   1.5263   1.5688   1.5963   1.6600   1.7050   1.7534
     1.7600   2.0594   2.0623   2.0825   2.0990   2.2190   2.2248   2.2347
     2.2543   2.2780   2.2909   2.3292   2.3602   2.3789   2.4452   2.4488
     2.5051   2.5218   2.5845   2.6796   2.7942   2.8693   2.8823   2.9656
     2.9963   3.0204   3.0597   3.0803   3.0883   3.1021   3.1084   3.1350
     3.2035   3.2500   3.2891   3.3246   3.3665   3.3721   3.3732   3.3859
     3.3987   3.4117   3.4271   3.4286   3.4508   3.4560   3.4788   3.4989
     3.5035   3.6322   3.6367   4.4160   4.4737   4.5403   4.6757   4.9611
     5.1434   5.2550   5.3455   5.5076   5.6400   5.8937   5.9210   6.0041
     6.1554   6.3837   6.4003   6.4362   6.9715   7.0867   7.1902   7.4433
     7.5369   7.6515   7.6953   7.9630   8.0712   8.1067   8.2002   8.3820
     8.4961   8.5899   8.6357   8.7210   8.7679   8.8666   8.9730

     occupation numbers 
     1.0000   1.0000   1.0000   1.0000   1.0000   1.0000   1.0000   1.0000
     1.0000   1.0000   1.0000   1.0000   1.0000   1.0000   1.0000   1.0000
     1.0000   1.0000   1.0000   1.0000   1.0000   1.0000   1.0000   1.0000
     1.0000   1.0000   1.0000   1.0000   1.0000   1.0000   1.0000   1.0000
     1.0000   1.0000   1.0000   1.0000   1.0000   1.0000   1.0000   1.0000
     1.0000   1.0000   1.0000   1.0000   1.0000   1.0000   1.0000   1.0000
     1.0000   1.0000   1.0000   1.0000   1.0000   1.0000   1.0000   1.0000
     1.0000   1.0000   1.0000   1.0000   1.0000   1.0000   1.0000   1.0000
     1.0000   1.0000   1.0000   1.0000   1.0000   1.0000   1.0000   1.0000
     1.0000   1.0000   1.0000   1.0000   1.0000   1.0000   1.0000   1.0000
     1.0000   1.0000   1.0000   1.0000   1.0000   1.0000   1.0000   1.0000
     1.0000   1.0000   1.0000   1.0000   1.0000   1.0000   1.0000   1.0000
     1.0000   1.0000   1.0000   1.0000   1.0000   1.0000   1.0000   1.0000
     1.0000   1.0000   1.0000   1.0000   1.0000   1.0000   1.0000   1.0000
     1.0000   1.0000   1.0000   1.0000   1.0000   1.0000   1.0000   1.0000
     1.0000   1.0000   1.0000   1.0000   1.0000   1.0000   1.0000   1.0000
     1.0000   1.0000   1.0000   1.0000   1.0000   1.0000   1.0000   1.0000
     1.0000   1.0000   1.0000   1.0000   1.0000   1.0000   1.0000   1.0000
     1.0000   1.0000   1.0000   1.0000   1.0000   1.0000   1.0000   1.0000
     1.0000   1.0000   1.0000   1.0000   1.0000   1.0000   1.0000   1.0000
     1.0000   1.0000   0.9999   0.9999   0.9999   0.9997   0.9997   0.9996
     0.9995   0.9994   0.9994   0.9992   0.9991   0.9988   0.9985   0.9981
     0.9980   0.9925   0.9924   0.9918   0.9912   0.9859   0.9856   0.9851
     0.9839   0.9825   0.9816   0.9789   0.9764   0.9749   0.9685   0.9681
     0.9617   0.9595   0.9508   0.9346   0.9100   0.8905   0.8869   0.8614
     0.8510   0.8426   0.8281   0.8202   0.8171   0.8116   0.8090   0.7981
     0.7683   0.7467   0.7277   0.7100   0.6883   0.6854   0.6848   0.6781
     0.6712   0.6642   0.6558   0.6550   0.6428   0.6399   0.6272   0.6158
     0.6132   0.5385   0.5358   0.1429   0.1245   0.1053   0.0731   0.0303
     0.0159   0.0104   0.0072   0.0036   0.0020   0.0006   0.0005   0.0003
     0.0001   0.0000   0.0000   0.0000   0.0000   0.0000   0.0000   0.0000
     0.0000   0.0000   0.0000   0.0000   0.0000   0.0000   0.0000   0.0000
     0.0000   0.0000   0.0000   0.0000   0.0000   0.0000   0.0000

          k =-0.2500 0.2500 0.0000 ( 65198 PWs)   bands (ev):

   -92.3293 -92.2725 -92.1828 -92.1343 -92.0759 -92.0354 -92.0180 -91.8935
   -55.6825 -55.6586 -55.5408 -55.5304 -55.5215 -55.5171 -55.4780 -55.4525
   -55.4360 -55.4344 -55.4242 -55.3841 -55.3657 -55.3278 -55.3086 -55.2756
   -55.2696 -55.2243 -55.2212 -55.2208 -55.2127 -55.1677 -55.1488 -55.0608
   -30.9136 -30.8979 -30.7690 -30.7557 -30.7352 -30.6695 -30.4968 -30.4854
   -29.4788 -29.4376 -29.4121 -29.3036 -22.2477 -14.6507 -14.6159 -14.5385
   -14.4206 -14.3168 -14.1895 -14.0979 -13.8982 -13.7706 -13.7522 -13.7214
   -13.7135 -13.6635 -13.6406 -13.6254 -13.6132 -13.5716 -13.4740 -13.4622
   -13.3097 -13.2832 -13.2566 -13.2354 -13.2068 -13.1342 -13.0981 -13.0735
   -12.9772 -12.9519 -12.8629 -12.7853 -12.7457 -12.7258 -12.6819 -12.6633
   -12.6383 -12.6169 -12.5835 -12.5738 -12.5604 -12.5278 -12.4785 -12.4335
   -12.4090 -12.4024 -12.3673 -12.3301 -12.1882 -12.0931 -12.0804 -11.9221
   -11.7972 -11.7640 -11.4314 -11.4095 -11.3826 -11.3702 -11.3295 -11.2949
   -11.2715 -11.2504 -11.2276 -11.1435 -11.0975 -11.0879  -5.8442  -3.1528
    -3.1470  -2.3003  -2.0902  -1.9700  -1.8829  -1.7626  -1.6953  -1.4961
    -1.3472  -1.3279  -1.3021  -1.2089  -1.1734  -1.0809  -1.0479  -1.0220
    -0.8773  -0.8225  -0.7565  -0.7268  -0.6675  -0.6436  -0.6034  -0.5741
    -0.5343  -0.4724  -0.4250  -0.3666  -0.2957  -0.2705  -0.2173  -0.1893
    -0.1445  -0.0896  -0.0501  -0.0020   0.0917   0.1300   0.1374   0.1855
     0.2510   0.3232   0.3663   0.3900   0.4574   0.4894   0.7524   0.9159
     0.9651   1.0007   1.0551   1.0954   1.1645   1.2259   1.2547   1.5366
     1.6543   1.6932   1.7226   1.7327   1.7757   1.7939   1.8367   1.8676
     1.8843   1.9104   1.9489   1.9616   2.0079   2.0228   2.0676   2.1531
     2.1680   2.1866   2.2217   2.2531   2.2887   2.3422   2.4561   2.5639
     2.5981   2.6378   2.6616   2.7281   2.7744   2.8002   2.8230   2.8441
     2.9434   2.9785   3.0609   3.0689   3.0869   3.2513   3.2600   3.2737
     3.2843   3.2941   3.3076   3.3137   3.3312   3.3390   3.3560   3.3653
     3.3785   3.3876   3.3925   3.4250   3.4373   3.4469   3.4801   3.7736
     3.8548   3.9113   3.9825   3.9997   4.1950   4.3308   4.6529   4.7985
     4.9880   5.1350   5.3455   5.6064   5.9071   5.9393   5.9878   6.1328
     6.2076   6.2535   6.3625   6.4138   6.9289   6.9836   7.0945   7.1799
     7.7182   7.8105   7.8539   7.9101   7.9922   8.1550   8.1954   8.3151
     8.3609   8.4768   8.4962   8.6941   8.7344   8.8104   8.8809

     occupation numbers 
     1.0000   1.0000   1.0000   1.0000   1.0000   1.0000   1.0000   1.0000
     1.0000   1.0000   1.0000   1.0000   1.0000   1.0000   1.0000   1.0000
     1.0000   1.0000   1.0000   1.0000   1.0000   1.0000   1.0000   1.0000
     1.0000   1.0000   1.0000   1.0000   1.0000   1.0000   1.0000   1.0000
     1.0000   1.0000   1.0000   1.0000   1.0000   1.0000   1.0000   1.0000
     1.0000   1.0000   1.0000   1.0000   1.0000   1.0000   1.0000   1.0000
     1.0000   1.0000   1.0000   1.0000   1.0000   1.0000   1.0000   1.0000
     1.0000   1.0000   1.0000   1.0000   1.0000   1.0000   1.0000   1.0000
     1.0000   1.0000   1.0000   1.0000   1.0000   1.0000   1.0000   1.0000
     1.0000   1.0000   1.0000   1.0000   1.0000   1.0000   1.0000   1.0000
     1.0000   1.0000   1.0000   1.0000   1.0000   1.0000   1.0000   1.0000
     1.0000   1.0000   1.0000   1.0000   1.0000   1.0000   1.0000   1.0000
     1.0000   1.0000   1.0000   1.0000   1.0000   1.0000   1.0000   1.0000
     1.0000   1.0000   1.0000   1.0000   1.0000   1.0000   1.0000   1.0000
     1.0000   1.0000   1.0000   1.0000   1.0000   1.0000   1.0000   1.0000
     1.0000   1.0000   1.0000   1.0000   1.0000   1.0000   1.0000   1.0000
     1.0000   1.0000   1.0000   1.0000   1.0000   1.0000   1.0000   1.0000
     1.0000   1.0000   1.0000   1.0000   1.0000   1.0000   1.0000   1.0000
     1.0000   1.0000   1.0000   1.0000   1.0000   1.0000   1.0000   1.0000
     1.0000   1.0000   1.0000   1.0000   1.0000   1.0000   1.0000   1.0000
     1.0000   1.0000   1.0000   0.9999   0.9999   0.9999   0.9999   0.9993
     0.9988   0.9985   0.9983   0.9982   0.9978   0.9976   0.9971   0.9967
     0.9964   0.9960   0.9953   0.9950   0.9939   0.9935   0.9922   0.9891
     0.9884   0.9876   0.9858   0.9840   0.9818   0.9779   0.9673   0.9538
     0.9487   0.9422   0.9380   0.9249   0.9147   0.9086   0.9029   0.8974
     0.8685   0.8571   0.8276   0.8246   0.8176   0.7461   0.7419   0.7353
     0.7301   0.7253   0.7186   0.7155   0.7066   0.7026   0.6938   0.6889
     0.6820   0.6772   0.6746   0.6570   0.6502   0.6450   0.6264   0.4549
     0.4075   0.3753   0.3359   0.3267   0.2299   0.1734   0.0779   0.0510
     0.0276   0.0164   0.0072   0.0023   0.0005   0.0004   0.0003   0.0001
     0.0001   0.0001   0.0000   0.0000   0.0000   0.0000   0.0000   0.0000
     0.0000   0.0000   0.0000   0.0000   0.0000   0.0000   0.0000   0.0000
     0.0000   0.0000   0.0000   0.0000   0.0000   0.0000   0.0000

          k =-0.5000 0.2500 0.0000 ( 65138 PWs)   bands (ev):

   -92.3293 -92.2725 -92.1828 -92.1342 -92.0759 -92.0354 -92.0180 -91.8935
   -55.6825 -55.6586 -55.5408 -55.5304 -55.5215 -55.5171 -55.4780 -55.4525
   -55.4360 -55.4344 -55.4242 -55.3841 -55.3657 -55.3278 -55.3086 -55.2756
   -55.2696 -55.2243 -55.2212 -55.2208 -55.2127 -55.1677 -55.1488 -55.0608
   -30.9114 -30.9001 -30.7689 -30.7553 -30.7350 -30.6698 -30.4969 -30.4855
   -29.4778 -29.4386 -29.4117 -29.3040 -22.2477 -14.6166 -14.5742 -14.4951
   -14.3994 -14.3544 -14.2270 -14.1438 -14.0183 -13.7704 -13.7028 -13.6727
   -13.6597 -13.6156 -13.5994 -13.5692 -13.5400 -13.5306 -13.5096 -13.4722
   -13.4548 -13.3599 -13.2735 -13.2379 -13.2227 -13.2128 -13.1418 -13.1062
   -13.0252 -12.9827 -12.8388 -12.8029 -12.7251 -12.7091 -12.6696 -12.6560
   -12.6501 -12.6171 -12.6016 -12.5812 -12.5733 -12.5273 -12.4619 -12.4348
   -12.3884 -12.3647 -12.2606 -12.2530 -12.1776 -12.1121 -11.9723 -11.9617
   -11.8579 -11.8318 -11.4038 -11.3912 -11.3769 -11.3652 -11.3438 -11.3135
   -11.2334 -11.2246 -11.2014 -11.1653 -11.1369 -11.1281  -5.8442  -3.1529
    -3.1469  -2.0734  -2.0308  -1.8812  -1.8392  -1.6802  -1.6055  -1.4600
    -1.3247  -1.2690  -1.2414  -1.2016  -1.1619  -1.0822  -0.9675  -0.9109
    -0.8875  -0.8629  -0.7884  -0.7567  -0.7201  -0.7006  -0.6401  -0.6139
    -0.5719  -0.5368  -0.5082  -0.4517  -0.4251  -0.3831  -0.3500  -0.2466
    -0.2185  -0.1381  -0.0715  -0.0406   0.0136   0.1031   0.1353   0.2366
     0.2731   0.3274   0.3790   0.3967   0.4819   0.5054   0.5366   0.5982
     0.6361   0.9328   0.9969   1.0532   1.0863   1.3748   1.4242   1.5042
     1.5286   1.7099   1.7483   1.7852   1.8007   1.8189   1.8367   1.9056
     1.9454   1.9858   2.0099   2.1343   2.1646   2.1982   2.2115   2.2498
     2.2768   2.2884   2.3035   2.3272   2.3485   2.3932   2.4172   2.4462
     2.4692   2.4967   2.5614   2.6754   2.7859   2.8145   2.8829   2.9227
     2.9804   3.0180   3.0267   3.0573   3.0612   3.0852   3.1019   3.1204
     3.2030   3.2457   3.2581   3.2656   3.2863   3.3096   3.3224   3.3371
     3.3496   3.3688   3.3814   3.3936   3.4009   3.4107   3.4219   3.9425
     3.9914   4.1415   4.1654   4.4268   4.5018   4.5519   4.7616   5.0312
     5.1456   5.2645   5.3629   5.5079   5.7052   5.7782   5.8130   5.9376
     6.0626   6.1037   6.2774   6.4840   6.6080   6.6436   7.0975   7.2767
     7.5438   7.6265   7.9793   8.0775   8.1918   8.2138   8.3381   8.3695
     8.5071   8.6211   8.7116   8.8018   8.8624   8.8999   8.9357

     occupation numbers 
     1.0000   1.0000   1.0000   1.0000   1.0000   1.0000   1.0000   1.0000
     1.0000   1.0000   1.0000   1.0000   1.0000   1.0000   1.0000   1.0000
     1.0000   1.0000   1.0000   1.0000   1.0000   1.0000   1.0000   1.0000
     1.0000   1.0000   1.0000   1.0000   1.0000   1.0000   1.0000   1.0000
     1.0000   1.0000   1.0000   1.0000   1.0000   1.0000   1.0000   1.0000
     1.0000   1.0000   1.0000   1.0000   1.0000   1.0000   1.0000   1.0000
     1.0000   1.0000   1.0000   1.0000   1.0000   1.0000   1.0000   1.0000
     1.0000   1.0000   1.0000   1.0000   1.0000   1.0000   1.0000   1.0000
     1.0000   1.0000   1.0000   1.0000   1.0000   1.0000   1.0000   1.0000
     1.0000   1.0000   1.0000   1.0000   1.0000   1.0000   1.0000   1.0000
     1.0000   1.0000   1.0000   1.0000   1.0000   1.0000   1.0000   1.0000
     1.0000   1.0000   1.0000   1.0000   1.0000   1.0000   1.0000   1.0000
     1.0000   1.0000   1.0000   1.0000   1.0000   1.0000   1.0000   1.0000
     1.0000   1.0000   1.0000   1.0000   1.0000   1.0000   1.0000   1.0000
     1.0000   1.0000   1.0000   1.0000   1.0000   1.0000   1.0000   1.0000
     1.0000   1.0000   1.0000   1.0000   1.0000   1.0000   1.0000   1.0000
     1.0000   1.0000   1.0000   1.0000   1.0000   1.0000   1.0000   1.0000
     1.0000   1.0000   1.0000   1.0000   1.0000   1.0000   1.0000   1.0000
     1.0000   1.0000   1.0000   1.0000   1.0000   1.0000   1.0000   1.0000
     1.0000   1.0000   1.0000   1.0000   1.0000   1.0000   1.0000   1.0000
     1.0000   1.0000   1.0000   1.0000   0.9999   0.9997   0.9996   0.9994
     0.9994   0.9984   0.9981   0.9977   0.9976   0.9974   0.9971   0.9961
     0.9954   0.9945   0.9939   0.9899   0.9886   0.9870   0.9863   0.9842
     0.9825   0.9818   0.9808   0.9790   0.9774   0.9736   0.9713   0.9684
     0.9659   0.9627   0.9542   0.9354   0.9120   0.9050   0.8867   0.8749
     0.8564   0.8434   0.8403   0.8290   0.8275   0.8183   0.8117   0.8042
     0.7685   0.7487   0.7428   0.7392   0.7291   0.7175   0.7111   0.7036
     0.6972   0.6871   0.6805   0.6740   0.6700   0.6648   0.6587   0.3578
     0.3311   0.2547   0.2435   0.1393   0.1161   0.1022   0.0570   0.0238
     0.0158   0.0100   0.0067   0.0036   0.0014   0.0010   0.0008   0.0004
     0.0002   0.0002   0.0001   0.0000   0.0000   0.0000   0.0000   0.0000
     0.0000   0.0000   0.0000   0.0000   0.0000   0.0000   0.0000   0.0000
     0.0000   0.0000   0.0000   0.0000   0.0000   0.0000   0.0000

     the Fermi energy is     3.6972 ev

!    total energy              =   -4482.96940555 Ry
     estimated scf accuracy    <          6.8E-09 Ry
     smearing contrib. (-TS)   =      -1.17302991 Ry
     internal energy E=F+TS    =   -4481.79637563 Ry

     The total energy is F=E-TS. E is the sum of the following terms:
     one-electron contribution =  -20253.19486494 Ry
     hartree contribution      =   10266.39166111 Ry
     xc contribution           =    -701.57902078 Ry
     ewald contribution        =    6492.24296221 Ry
     one-center paw contrib.   =    -285.65711323 Ry
      -> PAW hartree energy AE =      25.17291768 Ry
      -> PAW hartree energy PS =     -25.05674584 Ry
      -> PAW xc energy AE      =     -16.51884946 Ry
      -> PAW xc energy PS      =       6.87840134 Ry
      -> total E_H with PAW    =   10266.50783295 Ry
      -> total E_XC with PAW   =    -711.21946890 Ry

     convergence has been achieved in  49 iterations

     Writing all to output data dir /bsuhome/zayahcortright/scratch/pwscf.save/
 
     init_run     :      8.37s CPU      8.95s WALL (       1 calls)
     electrons    :    746.19s CPU    792.18s WALL (       1 calls)

     Called by init_run:
     wfcinit      :      5.97s CPU      6.18s WALL (       1 calls)
     wfcinit:atom :      0.05s CPU      0.07s WALL (       5 calls)
     wfcinit:wfcr :      5.65s CPU      5.79s WALL (       5 calls)
     potinit      :      0.21s CPU      0.23s WALL (       1 calls)
     hinit0       :      0.63s CPU      0.79s WALL (       1 calls)

     Called by electrons:
     c_bands      :    599.22s CPU    607.57s WALL (      49 calls)
     sum_band     :    109.98s CPU    131.72s WALL (      49 calls)
     v_of_rho     :      5.34s CPU      5.74s WALL (      50 calls)
     v_h          :      0.46s CPU      0.47s WALL (      50 calls)
     v_xc         :      4.87s CPU      5.27s WALL (      50 calls)
     newd         :     17.31s CPU     32.26s WALL (      50 calls)
     PAW_pot      :      1.65s CPU      1.67s WALL (      50 calls)
     mix_rho      :     12.46s CPU     12.86s WALL (      49 calls)

     Called by c_bands:
     init_us_2    :      7.45s CPU      7.52s WALL (     495 calls)
     init_us_2:cp :      7.45s CPU      7.52s WALL (     495 calls)
     cegterg      :    568.29s CPU    576.36s WALL (     245 calls)

     Called by sum_band:
     sum_band:wei :      0.34s CPU      0.34s WALL (      49 calls)
     sum_band:loo :     92.47s CPU     93.27s WALL (      49 calls)
     sum_band:buf :      1.53s CPU      1.60s WALL (     245 calls)
     sum_band:ini :      3.50s CPU      3.51s WALL (     245 calls)
     sum_band:cal :     20.64s CPU     20.70s WALL (     245 calls)
     sum_band:bec :      0.58s CPU      0.60s WALL (     245 calls)
     addusdens    :     15.97s CPU     36.86s WALL (      49 calls)
                                        0.00s GPU  (      49 calls)
     addusd:skk   :      0.32s CPU      0.96s WALL (     196 calls)
                                        0.00s GPU  (     196 calls)

     Called by *egterg:
     cdiaghg      :     61.72s CPU     61.98s WALL (    1420 calls)
     cegterg:over :     41.52s CPU     41.69s WALL (    1175 calls)
     cegterg:upda :     32.23s CPU     32.80s WALL (    1175 calls)
     cegterg:last :     64.72s CPU     65.03s WALL (     454 calls)
     cdiaghg:chol :      3.64s CPU      3.66s WALL (    1420 calls)
     cdiaghg:inve :      3.61s CPU      3.62s WALL (    1420 calls)
     cdiaghg:para :      7.92s CPU      7.97s WALL (    2840 calls)
     h_psi        :    306.25s CPU    309.54s WALL (    1425 calls)
     s_psi        :     44.23s CPU     44.36s WALL (    1425 calls)
     g_psi        :      1.18s CPU      1.19s WALL (    1175 calls)

     Called by h_psi:
     h_psi:calbec :     47.84s CPU     48.04s WALL (    1425 calls)
     vloc_psi     :    212.19s CPU    214.22s WALL (    1425 calls)
     add_vuspsi   :     42.95s CPU     43.17s WALL (    1425 calls)

     General routines
     calbec       :     68.47s CPU     68.73s WALL (    1670 calls)
     fft          :      3.38s CPU      3.43s WALL (     648 calls)
     ffts         :      4.50s CPU      4.55s WALL (    5141 calls)
     fftw         :    176.08s CPU    177.49s WALL (  338593 calls)
     interpolate  :      0.41s CPU      0.42s WALL (      50 calls)
 
     Parallel routines

     PAW routines
     PAW_pot      :      1.65s CPU      1.67s WALL (      50 calls)
 
     PWSCF        :  12m36.40s CPU  13m28.23s WALL

 
   This run was terminated on:   0:42:45  19Jun2024            

=------------------------------------------------------------------------------=
   JOB DONE.
=------------------------------------------------------------------------------=
