
     Program PWSCF v.7.2 starts on 20Jun2024 at 20:20:54 

     This program is part of the open-source Quantum ESPRESSO suite
     for quantum simulation of materials; please cite
         "P. Giannozzi et al., J. Phys.:Condens. Matter 21 395502 (2009);
         "P. Giannozzi et al., J. Phys.:Condens. Matter 29 465901 (2017);
         "P. Giannozzi et al., J. Chem. Phys. 152 154105 (2020);
          URL http://www.quantum-espresso.org", 
     in publications or presentations arising from this work. More details at
     http://www.quantum-espresso.org/quote

     Parallel version (MPI & OpenMP), running on      48 processor cores
     Number of MPI processes:                48
     Threads/MPI process:                     1

     MPI processes distributed on     1 nodes
     41846 MiB available memory on the printing compute node when the environment starts
 
     Reading input from espresso.pwi
Warning: card &CELL ignored
Warning: card / ignored
Warning: card &FCP ignored
Warning: card / ignored
Warning: card &RISM ignored
Warning: card / ignored

     Current dimensions of program PWSCF are:
     Max number of different atomic species (ntypx) = 10
     Max number of k-points (npk) =  40000
     Max angular momentum in pseudopotentials (lmaxx) =  4
     file O.pbe-n-kjpaw_psl.0.1.UPF: wavefunction(s)  2P renormalized
     signal trapping enabled: kill the code with -SIGUSR1 to stop cleanly the simulation 
 
     K-points division:     npool     =       2
     R & G space division:  proc/nbgrp/npool/nimage =      24
     Subspace diagonalization in iterative solution of the eigenvalue problem:
     one sub-group per band group will be used
     scalapack distributed-memory algorithm (size of sub-group:  3*  3 procs)

 
     Parallelization info
     --------------------
     sticks:   dense  smooth     PW     G-vecs:    dense   smooth      PW
     Min         350     175     47                61430    21716    3036
     Max         351     177     48                61449    21727    3041
     Sum        8421    4205   1137              1474595   521381   72913
 
     Using Slab Decomposition
 


     bravais-lattice index     =            0
     lattice parameter (alat)  =      14.8599  a.u.
     unit-cell volume          =    8305.1283 (a.u.)^3
     number of atoms/cell      =           51
     number of atomic types    =            4
     number of electrons       =       437.00
     number of Kohn-Sham states=          263
     kinetic-energy cutoff     =      60.0000  Ry
     charge density cutoff     =     480.0000  Ry
     scf convergence threshold =      1.0E-08
     mixing beta               =       0.1500
     number of iterations used =            8  local-TF  mixing
     Exchange-correlation= PBE
                           (   1   4   3   4   0   0   0)

     celldm(1)=  14.859904  celldm(2)=   0.000000  celldm(3)=   0.000000
     celldm(4)=   0.000000  celldm(5)=   0.000000  celldm(6)=   0.000000

     crystal axes: (cart. coord. in units of alat)
               a(1) = (   1.000000   0.000000   0.000000 )  
               a(2) = (   0.000000   1.000000   0.000000 )  
               a(3) = (   0.000000   0.000000   2.531036 )  

     reciprocal axes: (cart. coord. in units 2 pi/alat)
               b(1) = (  1.000000  0.000000  0.000000 )  
               b(2) = (  0.000000  1.000000  0.000000 )  
               b(3) = (  0.000000  0.000000  0.395095 )  


     PseudoPot. # 1 for Sr read from file:
     /bsuhome/zayahcortright/q-e/pseudo/Sr_pbe_v1.uspp.F.UPF
     MD5 check sum: 6b418c05fbe9db5448babca5e47b7a5b
     Pseudo is Ultrasoft + core correction, Zval = 10.0
     Generated by new atomic code, or converted to UPF format
     Using radial grid of  883 points,  6 beta functions with: 
                l(1) =   0
                l(2) =   0
                l(3) =   1
                l(4) =   1
                l(5) =   2
                l(6) =   2
     Q(r) pseudized with  6 coefficients,  rinner =    1.400   1.400   1.400
                                                       1.400   1.400

     PseudoPot. # 2 for O  read from file:
     /bsuhome/zayahcortright/q-e/pseudo/O.pbe-n-kjpaw_psl.0.1.UPF
     MD5 check sum: 0234752ac141de4415c5fc33072bef88
     Pseudo is Projector augmented-wave + core cor, Zval =  6.0
     Generated using "atomic" code by A. Dal Corso  v.5.0.99 svn rev. 10869
     Shape of augmentation charge: BESSEL
     Using radial grid of 1095 points,  4 beta functions with: 
                l(1) =   0
                l(2) =   0
                l(3) =   1
                l(4) =   1
     Q(r) pseudized with 0 coefficients 


     PseudoPot. # 3 for Co read from file:
     /bsuhome/zayahcortright/q-e/pseudo/Co_pbe_v1.2.uspp.F.UPF
     MD5 check sum: 5f91765df6ddd3222702df6e7b74a16d
     Pseudo is Ultrasoft + core correction, Zval = 17.0
     Generated by new atomic code, or converted to UPF format
     Using radial grid of  863 points,  6 beta functions with: 
                l(1) =   0
                l(2) =   0
                l(3) =   1
                l(4) =   1
                l(5) =   2
                l(6) =   2
     Q(r) pseudized with  8 coefficients,  rinner =    1.200   1.200   1.200
                                                       1.200   1.200

     PseudoPot. # 4 for H  read from file:
     /bsuhome/zayahcortright/q-e/pseudo/H.pbe-rrkjus_psl.1.0.0.UPF
     MD5 check sum: f52b6d4d1c606e5624b1dc7b2218f220
     Pseudo is Ultrasoft, Zval =  1.0
     Generated using "atomic" code by A. Dal Corso  v.5.1
     Using radial grid of  929 points,  2 beta functions with: 
                l(1) =   0
                l(2) =   0
     Q(r) pseudized with 0 coefficients 


     atomic species   valence    mass     pseudopotential
        Sr            10.00    87.62000     Sr( 1.00)
        O              6.00    15.99900     O ( 1.00)
        Co            17.00    58.93319     Co( 1.00)
        H              1.00     1.00800     H ( 1.00)

     No symmetry found


                                    s                        frac. trans.

      isym =  1     identity                                     

 cryst.   s( 1) = (     1          0          0      )
                  (     0          1          0      )
                  (     0          0          1      )

 cart.    s( 1) = (  1.0000000  0.0000000  0.0000000 )
                  (  0.0000000  1.0000000  0.0000000 )
                  (  0.0000000  0.0000000  1.0000000 )


   Cartesian axes

     site n.     atom                  positions (alat units)
         1           Sr  tau(   1) = (   0.2508693   0.7491307   1.7574407  )
         2           O   tau(   2) = (   0.4985141   0.5014859   1.7715967  )
         3           Sr  tau(   3) = (   0.7482398   0.7454518   1.7648669  )
         4           Sr  tau(   4) = (   0.7441748   0.2558252   1.7667843  )
         5           Sr  tau(   5) = (   0.2508693   0.7491307   1.2696799  )
         6           Sr  tau(   6) = (   0.2508693   0.7491307   0.7632319  )
         7           Co  tau(   7) = (   0.4998914   0.5001086   1.0164559  )
         8           Co  tau(   8) = (   0.4936915   0.5063085   1.5135603  )
         9           O   tau(   9) = (   0.4988895   0.7610401   1.0164559  )
        10           O   tau(  10) = (   0.2389599   0.5011105   1.0164559  )
        11           O   tau(  11) = (   0.0070918   0.7374880   1.0164559  )
        12           O   tau(  12) = (   0.0088340   0.7405089   1.5135603  )
        13           O   tau(  13) = (   0.5066944   0.7415376   1.5135603  )
        14           O   tau(  14) = (   0.2584624   0.4933056   1.5135603  )
        15           O   tau(  15) = (   0.4985141   0.5014859   0.7773880  )
        16           O   tau(  16) = (   0.4985141   0.5014859   1.2555238  )
        17           Sr  tau(  17) = (   0.7482398   0.7454518   0.7706582  )
        18           Sr  tau(  18) = (   0.7482398   0.7454518   1.2622536  )
        19           Sr  tau(  19) = (   0.7441748   0.2558252   0.7725755  )
        20           Sr  tau(  20) = (   0.7441748   0.2558252   1.2603363  )
        21           O   tau(  21) = (   0.7322655   0.0078049   1.5135603  )
        22           O   tau(  22) = (   0.7558175   0.4996027   1.5135603  )
        23           O   tau(  23) = (   0.5003973   0.2441825   1.5135603  )
        24           O   tau(  24) = (   0.7527966   0.4978604   1.0164559  )
        25           O   tau(  25) = (   0.5021396   0.2472034   1.0164559  )
        26           O   tau(  26) = (   0.7517679   0.0000000   1.0164559  )
        27           O   tau(  27) = (   0.0114961   0.4948124   1.7455321  )
        28           O   tau(  28) = (   0.0048226   0.0077944   1.7715967  )
        29           Sr  tau(  29) = (   0.2545482   0.2517602   1.7648669  )
        30           O   tau(  30) = (   0.5048017   0.0015068   1.7786929  )
        31           Co  tau(  31) = (   0.0056869   0.5006215   1.0164559  )
        32           Co  tau(  32) = (   0.0065315   0.4997770   1.5135603  )
        33           Co  tau(  33) = (   0.0061999   0.0064171   1.0164559  )
        34           Co  tau(  34) = (   0.0000000   0.0126169   1.5135603  )
        35           O   tau(  35) = (   0.0114961   0.4948124   1.2815885  )
        36           O   tau(  36) = (   0.0114961   0.4948124   0.7513233  )
        37           O   tau(  37) = (   0.0051979   0.2673486   1.0164559  )
        38           O   tau(  38) = (   0.0130029   0.2478461   1.5135603  )
        39           O   tau(  39) = (   0.0048226   0.0077944   0.7773880  )
        40           O   tau(  40) = (   0.0048226   0.0077944   1.2555238  )
        41           Sr  tau(  41) = (   0.2545482   0.2517602   0.7706582  )
        42           Sr  tau(  42) = (   0.2545482   0.2517602   1.2622536  )
        43           Co  tau(  43) = (   0.4989925   0.0073160   1.5135603  )
        44           Co  tau(  44) = (   0.4998370   0.0064714   1.0164559  )
        45           O   tau(  45) = (   0.5048017   0.0015068   0.7844841  )
        46           O   tau(  46) = (   0.5048017   0.0015068   1.2484277  )
        47           O   tau(  47) = (   0.2621260   0.0059111   1.5135603  )
        48           O   tau(  48) = (   0.2591051   0.0041689   1.0164559  )
        49           O   tau(  49) = (   0.9951520   0.7108228   2.1602013  )
        50           O   tau(  50) = (   0.9951520   0.7108228   2.3186489  )
        51           H   tau(  51) = (   0.9951520   0.7108228   2.4431567  )

   Crystallographic axes

     site n.     atom                  positions (cryst. coord.)
         1           Sr  tau(   1) = (  0.2508693  0.7491307  0.6943562  )
         2           O   tau(   2) = (  0.4985141  0.5014859  0.6999492  )
         3           Sr  tau(   3) = (  0.7482398  0.7454518  0.6972903  )
         4           Sr  tau(   4) = (  0.7441748  0.2558252  0.6980478  )
         5           Sr  tau(   5) = (  0.2508693  0.7491307  0.5016443  )
         6           Sr  tau(   6) = (  0.2508693  0.7491307  0.3015492  )
         7           Co  tau(   7) = (  0.4998914  0.5001086  0.4015968  )
         8           Co  tau(   8) = (  0.4936915  0.5063085  0.5980003  )
         9           O   tau(   9) = (  0.4988895  0.7610401  0.4015968  )
        10           O   tau(  10) = (  0.2389599  0.5011105  0.4015968  )
        11           O   tau(  11) = (  0.0070918  0.7374880  0.4015968  )
        12           O   tau(  12) = (  0.0088340  0.7405089  0.5980003  )
        13           O   tau(  13) = (  0.5066944  0.7415376  0.5980003  )
        14           O   tau(  14) = (  0.2584624  0.4933056  0.5980003  )
        15           O   tau(  15) = (  0.4985141  0.5014859  0.3071422  )
        16           O   tau(  16) = (  0.4985141  0.5014859  0.4960513  )
        17           Sr  tau(  17) = (  0.7482398  0.7454518  0.3044833  )
        18           Sr  tau(  18) = (  0.7482398  0.7454518  0.4987103  )
        19           Sr  tau(  19) = (  0.7441748  0.2558252  0.3052408  )
        20           Sr  tau(  20) = (  0.7441748  0.2558252  0.4979527  )
        21           O   tau(  21) = (  0.7322655  0.0078049  0.5980003  )
        22           O   tau(  22) = (  0.7558175  0.4996027  0.5980003  )
        23           O   tau(  23) = (  0.5003973  0.2441825  0.5980003  )
        24           O   tau(  24) = (  0.7527966  0.4978604  0.4015968  )
        25           O   tau(  25) = (  0.5021396  0.2472034  0.4015968  )
        26           O   tau(  26) = (  0.7517679  0.0000000  0.4015968  )
        27           O   tau(  27) = (  0.0114961  0.4948124  0.6896512  )
        28           O   tau(  28) = (  0.0048226  0.0077944  0.6999492  )
        29           Sr  tau(  29) = (  0.2545482  0.2517602  0.6972903  )
        30           O   tau(  30) = (  0.5048017  0.0015068  0.7027529  )
        31           Co  tau(  31) = (  0.0056869  0.5006215  0.4015968  )
        32           Co  tau(  32) = (  0.0065315  0.4997770  0.5980003  )
        33           Co  tau(  33) = (  0.0061999  0.0064171  0.4015968  )
        34           Co  tau(  34) = (  0.0000000  0.0126169  0.5980003  )
        35           O   tau(  35) = (  0.0114961  0.4948124  0.5063494  )
        36           O   tau(  36) = (  0.0114961  0.4948124  0.2968442  )
        37           O   tau(  37) = (  0.0051979  0.2673486  0.4015968  )
        38           O   tau(  38) = (  0.0130029  0.2478461  0.5980003  )
        39           O   tau(  39) = (  0.0048226  0.0077944  0.3071422  )
        40           O   tau(  40) = (  0.0048226  0.0077944  0.4960513  )
        41           Sr  tau(  41) = (  0.2545482  0.2517602  0.3044833  )
        42           Sr  tau(  42) = (  0.2545482  0.2517602  0.4987103  )
        43           Co  tau(  43) = (  0.4989925  0.0073160  0.5980003  )
        44           Co  tau(  44) = (  0.4998370  0.0064714  0.4015968  )
        45           O   tau(  45) = (  0.5048017  0.0015068  0.3099459  )
        46           O   tau(  46) = (  0.5048017  0.0015068  0.4932477  )
        47           O   tau(  47) = (  0.2621260  0.0059111  0.5980003  )
        48           O   tau(  48) = (  0.2591051  0.0041689  0.4015968  )
        49           O   tau(  49) = (  0.9951520  0.7108228  0.8534850  )
        50           O   tau(  50) = (  0.9951520  0.7108228  0.9160869  )
        51           H   tau(  51) = (  0.9951520  0.7108228  0.9652793  )

     number of k points=    10  Gaussian smearing, width (Ry)=  0.0700
                       cart. coord. in units 2pi/alat
        k(    1) = (   0.0000000   0.0000000   0.0000000), wk =   0.1250000
        k(    2) = (   0.0000000   0.2500000   0.0000000), wk =   0.2500000
        k(    3) = (   0.0000000  -0.5000000   0.0000000), wk =   0.1250000
        k(    4) = (   0.2500000   0.2500000   0.0000000), wk =   0.2500000
        k(    5) = (   0.2500000  -0.5000000   0.0000000), wk =   0.2500000
        k(    6) = (  -0.5000000  -0.5000000   0.0000000), wk =   0.1250000
        k(    7) = (   0.2500000   0.0000000   0.0000000), wk =   0.2500000
        k(    8) = (  -0.5000000   0.0000000   0.0000000), wk =   0.1250000
        k(    9) = (  -0.2500000   0.2500000   0.0000000), wk =   0.2500000
        k(   10) = (  -0.5000000   0.2500000   0.0000000), wk =   0.2500000

                       cryst. coord.
        k(    1) = (   0.0000000   0.0000000   0.0000000), wk =   0.1250000
        k(    2) = (   0.0000000   0.2500000   0.0000000), wk =   0.2500000
        k(    3) = (   0.0000000  -0.5000000   0.0000000), wk =   0.1250000
        k(    4) = (   0.2500000   0.2500000   0.0000000), wk =   0.2500000
        k(    5) = (   0.2500000  -0.5000000   0.0000000), wk =   0.2500000
        k(    6) = (  -0.5000000  -0.5000000   0.0000000), wk =   0.1250000
        k(    7) = (   0.2500000   0.0000000   0.0000000), wk =   0.2500000
        k(    8) = (  -0.5000000   0.0000000   0.0000000), wk =   0.1250000
        k(    9) = (  -0.2500000   0.2500000   0.0000000), wk =   0.2500000
        k(   10) = (  -0.5000000   0.2500000   0.0000000), wk =   0.2500000

     Dense  grid:  1474595 G-vectors     FFT dimensions: ( 108, 108, 270)

     Smooth grid:   521381 G-vectors     FFT dimensions: (  75,  75, 192)

     Dynamical RAM for                 wfc:      10.90 MB

     Dynamical RAM for     wfc (w. buffer):      65.37 MB

     Dynamical RAM for           str. fact:       3.75 MB

     Dynamical RAM for           local pot:       0.00 MB

     Dynamical RAM for          nlocal pot:      24.94 MB

     Dynamical RAM for                qrad:       7.03 MB

     Dynamical RAM for          rho,v,vnew:       6.02 MB

     Dynamical RAM for               rhoin:       2.01 MB

     Dynamical RAM for            rho*nmix:      15.00 MB

     Dynamical RAM for           G-vectors:       3.68 MB

     Dynamical RAM for          h,s,v(r/c):       1.40 MB

     Dynamical RAM for          <psi|beta>:       2.42 MB

     Dynamical RAM for                 psi:      21.79 MB

     Dynamical RAM for                hpsi:      21.79 MB

     Dynamical RAM for                spsi:      21.79 MB

     Dynamical RAM for      wfcinit/wfcrot:      34.89 MB

     Dynamical RAM for           addusdens:     101.73 MB

     Estimated static dynamical RAM per process >     122.82 MB

     Estimated max dynamical RAM per process >     239.55 MB

     Estimated total dynamical RAM >      10.88 GB

     Check: negative core charge=   -0.000004

     Initial potential from superposition of free atoms

     starting charge     428.5961, renormalised to     437.0000

     negative rho (up, down):  7.813E-01 0.000E+00
     Starting wfcs are  381 randomized atomic wfcs
     Checking if some PAW data can be deallocated... 
       PAW data deallocated on   18 nodes for type:  2

     total cpu time spent up to now is        9.9 secs

     Self-consistent Calculation

     iteration #  1     ecut=    60.00 Ry     beta= 0.15
     Davidson diagonalization with overlap

---- Real-time Memory Report at c_bands before calling an iterative solver
             0 MiB given to the printing process from OS
             0 MiB allocation reported by mallinfo(arena+hblkhd)
         32065 MiB available memory on the node where the printing process lives
------------------
     ethr =  1.00E-02,  avg # of iterations =  2.0

     negative rho (up, down):  7.716E-01 0.000E+00

     total cpu time spent up to now is       25.6 secs

     total energy              =   -4489.31946907 Ry
     estimated scf accuracy    <      49.77304443 Ry

     iteration #  2     ecut=    60.00 Ry     beta= 0.15
     Davidson diagonalization with overlap

---- Real-time Memory Report at c_bands before calling an iterative solver
             0 MiB given to the printing process from OS
             0 MiB allocation reported by mallinfo(arena+hblkhd)
         32460 MiB available memory on the node where the printing process lives
------------------
     ethr =  1.00E-02,  avg # of iterations =  1.0

     negative rho (up, down):  7.612E-01 0.000E+00

     total cpu time spent up to now is       38.3 secs

     total energy              =   -4486.80476750 Ry
     estimated scf accuracy    <      35.39527779 Ry

     iteration #  3     ecut=    60.00 Ry     beta= 0.15
     Davidson diagonalization with overlap

---- Real-time Memory Report at c_bands before calling an iterative solver
             0 MiB given to the printing process from OS
             0 MiB allocation reported by mallinfo(arena+hblkhd)
         31693 MiB available memory on the node where the printing process lives
------------------
     ethr =  8.10E-03,  avg # of iterations =  1.0

     negative rho (up, down):  7.562E-01 0.000E+00

     total cpu time spent up to now is       50.9 secs

     total energy              =   -4486.75871827 Ry
     estimated scf accuracy    <      35.20677986 Ry

     iteration #  4     ecut=    60.00 Ry     beta= 0.15
     Davidson diagonalization with overlap

---- Real-time Memory Report at c_bands before calling an iterative solver
             0 MiB given to the printing process from OS
             0 MiB allocation reported by mallinfo(arena+hblkhd)
         31671 MiB available memory on the node where the printing process lives
------------------
     ethr =  8.06E-03,  avg # of iterations =  1.0

     negative rho (up, down):  7.573E-01 0.000E+00

     total cpu time spent up to now is       63.5 secs

     total energy              =   -4486.66012137 Ry
     estimated scf accuracy    <      34.30620162 Ry

     iteration #  5     ecut=    60.00 Ry     beta= 0.15
     Davidson diagonalization with overlap

---- Real-time Memory Report at c_bands before calling an iterative solver
             0 MiB given to the printing process from OS
             0 MiB allocation reported by mallinfo(arena+hblkhd)
         31657 MiB available memory on the node where the printing process lives
------------------
     ethr =  7.85E-03,  avg # of iterations =  1.0

     negative rho (up, down):  7.342E-01 0.000E+00

     total cpu time spent up to now is       76.1 secs

     total energy              =   -4482.87936795 Ry
     estimated scf accuracy    <      23.58528579 Ry

     iteration #  6     ecut=    60.00 Ry     beta= 0.15
     Davidson diagonalization with overlap

---- Real-time Memory Report at c_bands before calling an iterative solver
             0 MiB given to the printing process from OS
             0 MiB allocation reported by mallinfo(arena+hblkhd)
         31637 MiB available memory on the node where the printing process lives
------------------
     ethr =  5.40E-03,  avg # of iterations =  2.0

     negative rho (up, down):  7.477E-01 0.000E+00

     total cpu time spent up to now is       90.0 secs

     total energy              =   -4484.07577860 Ry
     estimated scf accuracy    <      41.52199678 Ry

     iteration #  7     ecut=    60.00 Ry     beta= 0.15
     Davidson diagonalization with overlap

---- Real-time Memory Report at c_bands before calling an iterative solver
             0 MiB given to the printing process from OS
             0 MiB allocation reported by mallinfo(arena+hblkhd)
         31616 MiB available memory on the node where the printing process lives
------------------
     ethr =  5.40E-03,  avg # of iterations =  1.0

     negative rho (up, down):  7.532E-01 0.000E+00

     total cpu time spent up to now is      102.4 secs

     total energy              =   -4483.48037462 Ry
     estimated scf accuracy    <      42.49583316 Ry

     iteration #  8     ecut=    60.00 Ry     beta= 0.15
     Davidson diagonalization with overlap

---- Real-time Memory Report at c_bands before calling an iterative solver
             0 MiB given to the printing process from OS
             0 MiB allocation reported by mallinfo(arena+hblkhd)
         31602 MiB available memory on the node where the printing process lives
------------------
     ethr =  5.40E-03,  avg # of iterations =  1.0

     negative rho (up, down):  7.507E-01 0.000E+00

     total cpu time spent up to now is      114.9 secs

     total energy              =   -4483.81866694 Ry
     estimated scf accuracy    <       5.93756010 Ry

     iteration #  9     ecut=    60.00 Ry     beta= 0.15
     Davidson diagonalization with overlap

---- Real-time Memory Report at c_bands before calling an iterative solver
             0 MiB given to the printing process from OS
             0 MiB allocation reported by mallinfo(arena+hblkhd)
         31572 MiB available memory on the node where the printing process lives
------------------
     ethr =  1.36E-03,  avg # of iterations =  5.0

     negative rho (up, down):  7.642E-01 0.000E+00

     total cpu time spent up to now is      130.0 secs

     total energy              =   -4483.69678361 Ry
     estimated scf accuracy    <       3.53350014 Ry

     iteration # 10     ecut=    60.00 Ry     beta= 0.15
     Davidson diagonalization with overlap

---- Real-time Memory Report at c_bands before calling an iterative solver
             0 MiB given to the printing process from OS
             0 MiB allocation reported by mallinfo(arena+hblkhd)
         31524 MiB available memory on the node where the printing process lives
------------------
     ethr =  8.09E-04,  avg # of iterations = 10.4

     negative rho (up, down):  7.812E-01 0.000E+00

     total cpu time spent up to now is      147.9 secs

     total energy              =   -4483.52932143 Ry
     estimated scf accuracy    <       4.32235851 Ry

     iteration # 11     ecut=    60.00 Ry     beta= 0.15
     Davidson diagonalization with overlap

---- Real-time Memory Report at c_bands before calling an iterative solver
             0 MiB given to the printing process from OS
             0 MiB allocation reported by mallinfo(arena+hblkhd)
         31193 MiB available memory on the node where the printing process lives
------------------
     ethr =  8.09E-04,  avg # of iterations =  6.9

     negative rho (up, down):  7.884E-01 0.000E+00

     total cpu time spent up to now is      164.6 secs

     total energy              =   -4483.30589554 Ry
     estimated scf accuracy    <       4.18560504 Ry

     iteration # 12     ecut=    60.00 Ry     beta= 0.15
     Davidson diagonalization with overlap

---- Real-time Memory Report at c_bands before calling an iterative solver
             0 MiB given to the printing process from OS
             0 MiB allocation reported by mallinfo(arena+hblkhd)
         31118 MiB available memory on the node where the printing process lives
------------------
     ethr =  8.09E-04,  avg # of iterations =  6.2

     negative rho (up, down):  8.004E-01 0.000E+00

     total cpu time spent up to now is      181.4 secs

     total energy              =   -4483.19409528 Ry
     estimated scf accuracy    <       2.14152876 Ry

     iteration # 13     ecut=    60.00 Ry     beta= 0.15
     Davidson diagonalization with overlap

---- Real-time Memory Report at c_bands before calling an iterative solver
             0 MiB given to the printing process from OS
             0 MiB allocation reported by mallinfo(arena+hblkhd)
         31095 MiB available memory on the node where the printing process lives
------------------
     ethr =  4.90E-04,  avg # of iterations =  3.7

     negative rho (up, down):  7.988E-01 0.000E+00

     total cpu time spent up to now is      197.1 secs

     total energy              =   -4483.28272682 Ry
     estimated scf accuracy    <       1.58208316 Ry

     iteration # 14     ecut=    60.00 Ry     beta= 0.15
     Davidson diagonalization with overlap

---- Real-time Memory Report at c_bands before calling an iterative solver
             0 MiB given to the printing process from OS
             0 MiB allocation reported by mallinfo(arena+hblkhd)
         31118 MiB available memory on the node where the printing process lives
------------------
     ethr =  3.62E-04,  avg # of iterations =  3.8

     negative rho (up, down):  8.089E-01 0.000E+00

     total cpu time spent up to now is      212.1 secs

     total energy              =   -4483.18043054 Ry
     estimated scf accuracy    <       0.90175888 Ry

     iteration # 15     ecut=    60.00 Ry     beta= 0.15
     Davidson diagonalization with overlap

---- Real-time Memory Report at c_bands before calling an iterative solver
             0 MiB given to the printing process from OS
             0 MiB allocation reported by mallinfo(arena+hblkhd)
         31134 MiB available memory on the node where the printing process lives
------------------
     ethr =  2.06E-04,  avg # of iterations =  6.3

     negative rho (up, down):  8.159E-01 0.000E+00

     total cpu time spent up to now is      229.4 secs

     total energy              =   -4483.14593915 Ry
     estimated scf accuracy    <       1.57541213 Ry

     iteration # 16     ecut=    60.00 Ry     beta= 0.15
     Davidson diagonalization with overlap

---- Real-time Memory Report at c_bands before calling an iterative solver
             0 MiB given to the printing process from OS
             0 MiB allocation reported by mallinfo(arena+hblkhd)
         31088 MiB available memory on the node where the printing process lives
------------------
     ethr =  2.06E-04,  avg # of iterations =  2.8

     negative rho (up, down):  8.148E-01 0.000E+00

     total cpu time spent up to now is      244.1 secs

     total energy              =   -4483.10875138 Ry
     estimated scf accuracy    <       1.55701593 Ry

     iteration # 17     ecut=    60.00 Ry     beta= 0.15
     Davidson diagonalization with overlap

---- Real-time Memory Report at c_bands before calling an iterative solver
             0 MiB given to the printing process from OS
             0 MiB allocation reported by mallinfo(arena+hblkhd)
         31107 MiB available memory on the node where the printing process lives
------------------
     ethr =  2.06E-04,  avg # of iterations =  6.7

     negative rho (up, down):  8.180E-01 0.000E+00

     total cpu time spent up to now is      260.5 secs

     total energy              =   -4483.09383012 Ry
     estimated scf accuracy    <       0.38780818 Ry

     iteration # 18     ecut=    60.00 Ry     beta= 0.15
     Davidson diagonalization with overlap

---- Real-time Memory Report at c_bands before calling an iterative solver
             0 MiB given to the printing process from OS
             0 MiB allocation reported by mallinfo(arena+hblkhd)
         31084 MiB available memory on the node where the printing process lives
------------------
     ethr =  8.87E-05,  avg # of iterations = 12.4

     negative rho (up, down):  8.192E-01 0.000E+00

     total cpu time spent up to now is      280.0 secs

     total energy              =   -4483.05747101 Ry
     estimated scf accuracy    <       0.51742225 Ry

     iteration # 19     ecut=    60.00 Ry     beta= 0.15
     Davidson diagonalization with overlap

---- Real-time Memory Report at c_bands before calling an iterative solver
             0 MiB given to the printing process from OS
             0 MiB allocation reported by mallinfo(arena+hblkhd)
         31036 MiB available memory on the node where the printing process lives
------------------
     ethr =  8.87E-05,  avg # of iterations =  4.7

     negative rho (up, down):  8.219E-01 0.000E+00

     total cpu time spent up to now is      295.9 secs

     total energy              =   -4483.03155793 Ry
     estimated scf accuracy    <       0.43847864 Ry

     iteration # 20     ecut=    60.00 Ry     beta= 0.15
     Davidson diagonalization with overlap

---- Real-time Memory Report at c_bands before calling an iterative solver
             0 MiB given to the printing process from OS
             0 MiB allocation reported by mallinfo(arena+hblkhd)
         31047 MiB available memory on the node where the printing process lives
------------------
     ethr =  8.87E-05,  avg # of iterations =  6.0

     negative rho (up, down):  8.263E-01 0.000E+00

     total cpu time spent up to now is      312.5 secs

     total energy              =   -4483.01099137 Ry
     estimated scf accuracy    <       0.25343389 Ry

     iteration # 21     ecut=    60.00 Ry     beta= 0.15
     Davidson diagonalization with overlap

---- Real-time Memory Report at c_bands before calling an iterative solver
             0 MiB given to the printing process from OS
             0 MiB allocation reported by mallinfo(arena+hblkhd)
         31050 MiB available memory on the node where the printing process lives
------------------
     ethr =  5.80E-05,  avg # of iterations =  9.8

     negative rho (up, down):  8.328E-01 0.000E+00

     total cpu time spent up to now is      330.8 secs

     total energy              =   -4482.97586092 Ry
     estimated scf accuracy    <       0.37720336 Ry

     iteration # 22     ecut=    60.00 Ry     beta= 0.15
     Davidson diagonalization with overlap

---- Real-time Memory Report at c_bands before calling an iterative solver
             0 MiB given to the printing process from OS
             0 MiB allocation reported by mallinfo(arena+hblkhd)
         31010 MiB available memory on the node where the printing process lives
------------------
     ethr =  5.80E-05,  avg # of iterations =  7.0

     negative rho (up, down):  8.417E-01 0.000E+00

     total cpu time spent up to now is      348.1 secs

     total energy              =   -4482.98178276 Ry
     estimated scf accuracy    <       0.05654850 Ry

     iteration # 23     ecut=    60.00 Ry     beta= 0.15
     Davidson diagonalization with overlap

---- Real-time Memory Report at c_bands before calling an iterative solver
             0 MiB given to the printing process from OS
             0 MiB allocation reported by mallinfo(arena+hblkhd)
         31016 MiB available memory on the node where the printing process lives
------------------
     ethr =  1.29E-05,  avg # of iterations = 11.4

     negative rho (up, down):  8.409E-01 0.000E+00

     total cpu time spent up to now is      367.5 secs

     total energy              =   -4482.98106606 Ry
     estimated scf accuracy    <       0.02927916 Ry

     iteration # 24     ecut=    60.00 Ry     beta= 0.15
     Davidson diagonalization with overlap

---- Real-time Memory Report at c_bands before calling an iterative solver
             0 MiB given to the printing process from OS
             0 MiB allocation reported by mallinfo(arena+hblkhd)
         30893 MiB available memory on the node where the printing process lives
------------------
     ethr =  6.70E-06,  avg # of iterations =  6.0

     negative rho (up, down):  8.242E-01 0.000E+00

     total cpu time spent up to now is      383.6 secs

     total energy              =   -4482.97846306 Ry
     estimated scf accuracy    <       0.01910336 Ry

     iteration # 25     ecut=    60.00 Ry     beta= 0.15
     Davidson diagonalization with overlap

---- Real-time Memory Report at c_bands before calling an iterative solver
             0 MiB given to the printing process from OS
             0 MiB allocation reported by mallinfo(arena+hblkhd)
         30885 MiB available memory on the node where the printing process lives
------------------
     ethr =  4.37E-06,  avg # of iterations = 11.5

     negative rho (up, down):  8.198E-01 0.000E+00

     total cpu time spent up to now is      402.3 secs

     total energy              =   -4482.97818378 Ry
     estimated scf accuracy    <       0.01070405 Ry

     iteration # 26     ecut=    60.00 Ry     beta= 0.15
     Davidson diagonalization with overlap

---- Real-time Memory Report at c_bands before calling an iterative solver
             0 MiB given to the printing process from OS
             0 MiB allocation reported by mallinfo(arena+hblkhd)
         30877 MiB available memory on the node where the printing process lives
------------------
     ethr =  2.45E-06,  avg # of iterations =  2.0

     negative rho (up, down):  8.008E-01 0.000E+00

     total cpu time spent up to now is      416.7 secs

     total energy              =   -4482.97704334 Ry
     estimated scf accuracy    <       0.00765465 Ry

     iteration # 27     ecut=    60.00 Ry     beta= 0.15
     Davidson diagonalization with overlap

---- Real-time Memory Report at c_bands before calling an iterative solver
             0 MiB given to the printing process from OS
             0 MiB allocation reported by mallinfo(arena+hblkhd)
         30866 MiB available memory on the node where the printing process lives
------------------
     c_bands:  1 eigenvalues not converged
     ethr =  1.75E-06,  avg # of iterations =  9.4

     negative rho (up, down):  7.961E-01 0.000E+00

     total cpu time spent up to now is      435.5 secs

     total energy              =   -4482.97637281 Ry
     estimated scf accuracy    <       0.00498386 Ry

     iteration # 28     ecut=    60.00 Ry     beta= 0.15
     Davidson diagonalization with overlap

---- Real-time Memory Report at c_bands before calling an iterative solver
             0 MiB given to the printing process from OS
             0 MiB allocation reported by mallinfo(arena+hblkhd)
         30874 MiB available memory on the node where the printing process lives
------------------
     ethr =  1.14E-06,  avg # of iterations = 10.5

     negative rho (up, down):  7.945E-01 0.000E+00

     total cpu time spent up to now is      454.7 secs

     total energy              =   -4482.97644170 Ry
     estimated scf accuracy    <       0.00170464 Ry

     iteration # 29     ecut=    60.00 Ry     beta= 0.15
     Davidson diagonalization with overlap

---- Real-time Memory Report at c_bands before calling an iterative solver
             0 MiB given to the printing process from OS
             0 MiB allocation reported by mallinfo(arena+hblkhd)
         30866 MiB available memory on the node where the printing process lives
------------------
     ethr =  3.90E-07,  avg # of iterations =  6.5

     negative rho (up, down):  7.940E-01 0.000E+00

     total cpu time spent up to now is      471.7 secs

     total energy              =   -4482.97632906 Ry
     estimated scf accuracy    <       0.00093817 Ry

     iteration # 30     ecut=    60.00 Ry     beta= 0.15
     Davidson diagonalization with overlap

---- Real-time Memory Report at c_bands before calling an iterative solver
             0 MiB given to the printing process from OS
             0 MiB allocation reported by mallinfo(arena+hblkhd)
         30856 MiB available memory on the node where the printing process lives
------------------
     ethr =  2.15E-07,  avg # of iterations =  3.3

     negative rho (up, down):  7.933E-01 0.000E+00

     total cpu time spent up to now is      487.0 secs

     total energy              =   -4482.97632530 Ry
     estimated scf accuracy    <       0.00035749 Ry

     iteration # 31     ecut=    60.00 Ry     beta= 0.15
     Davidson diagonalization with overlap

---- Real-time Memory Report at c_bands before calling an iterative solver
             0 MiB given to the printing process from OS
             0 MiB allocation reported by mallinfo(arena+hblkhd)
         30872 MiB available memory on the node where the printing process lives
------------------
     ethr =  8.18E-08,  avg # of iterations =  3.5

     negative rho (up, down):  7.929E-01 0.000E+00

     total cpu time spent up to now is      502.3 secs

     total energy              =   -4482.97632007 Ry
     estimated scf accuracy    <       0.00021383 Ry

     iteration # 32     ecut=    60.00 Ry     beta= 0.15
     Davidson diagonalization with overlap

---- Real-time Memory Report at c_bands before calling an iterative solver
             0 MiB given to the printing process from OS
             0 MiB allocation reported by mallinfo(arena+hblkhd)
         30896 MiB available memory on the node where the printing process lives
------------------
     ethr =  4.89E-08,  avg # of iterations =  2.8

     negative rho (up, down):  7.925E-01 0.000E+00

     total cpu time spent up to now is      517.3 secs

     total energy              =   -4482.97632969 Ry
     estimated scf accuracy    <       0.00011783 Ry

     iteration # 33     ecut=    60.00 Ry     beta= 0.15
     Davidson diagonalization with overlap

---- Real-time Memory Report at c_bands before calling an iterative solver
             0 MiB given to the printing process from OS
             0 MiB allocation reported by mallinfo(arena+hblkhd)
         30885 MiB available memory on the node where the printing process lives
------------------
     ethr =  2.70E-08,  avg # of iterations =  2.8

     negative rho (up, down):  7.923E-01 0.000E+00

     total cpu time spent up to now is      532.2 secs

     total energy              =   -4482.97633961 Ry
     estimated scf accuracy    <       0.00006462 Ry

     iteration # 34     ecut=    60.00 Ry     beta= 0.15
     Davidson diagonalization with overlap

---- Real-time Memory Report at c_bands before calling an iterative solver
             0 MiB given to the printing process from OS
             0 MiB allocation reported by mallinfo(arena+hblkhd)
         30908 MiB available memory on the node where the printing process lives
------------------
     ethr =  1.48E-08,  avg # of iterations =  6.9

     negative rho (up, down):  7.921E-01 0.000E+00

     total cpu time spent up to now is      548.6 secs

     total energy              =   -4482.97634676 Ry
     estimated scf accuracy    <       0.00003683 Ry

     iteration # 35     ecut=    60.00 Ry     beta= 0.15
     Davidson diagonalization with overlap

---- Real-time Memory Report at c_bands before calling an iterative solver
             0 MiB given to the printing process from OS
             0 MiB allocation reported by mallinfo(arena+hblkhd)
         30929 MiB available memory on the node where the printing process lives
------------------
     ethr =  8.43E-09,  avg # of iterations =  3.3

     negative rho (up, down):  7.921E-01 0.000E+00

     total cpu time spent up to now is      563.4 secs

     total energy              =   -4482.97634977 Ry
     estimated scf accuracy    <       0.00002089 Ry

     iteration # 36     ecut=    60.00 Ry     beta= 0.15
     Davidson diagonalization with overlap

---- Real-time Memory Report at c_bands before calling an iterative solver
             0 MiB given to the printing process from OS
             0 MiB allocation reported by mallinfo(arena+hblkhd)
         30937 MiB available memory on the node where the printing process lives
------------------
     ethr =  4.78E-09,  avg # of iterations =  3.4

     negative rho (up, down):  7.922E-01 0.000E+00

     total cpu time spent up to now is      577.9 secs

     total energy              =   -4482.97634681 Ry
     estimated scf accuracy    <       0.00001366 Ry

     iteration # 37     ecut=    60.00 Ry     beta= 0.15
     Davidson diagonalization with overlap

---- Real-time Memory Report at c_bands before calling an iterative solver
             0 MiB given to the printing process from OS
             0 MiB allocation reported by mallinfo(arena+hblkhd)
         30942 MiB available memory on the node where the printing process lives
------------------
     ethr =  3.13E-09,  avg # of iterations =  4.0

     negative rho (up, down):  7.922E-01 0.000E+00

     total cpu time spent up to now is      592.7 secs

     total energy              =   -4482.97634599 Ry
     estimated scf accuracy    <       0.00000900 Ry

     iteration # 38     ecut=    60.00 Ry     beta= 0.15
     Davidson diagonalization with overlap

---- Real-time Memory Report at c_bands before calling an iterative solver
             0 MiB given to the printing process from OS
             0 MiB allocation reported by mallinfo(arena+hblkhd)
         30947 MiB available memory on the node where the printing process lives
------------------
     ethr =  2.06E-09,  avg # of iterations =  3.4

     negative rho (up, down):  7.922E-01 0.000E+00

     total cpu time spent up to now is      607.3 secs

     total energy              =   -4482.97634891 Ry
     estimated scf accuracy    <       0.00000579 Ry

     iteration # 39     ecut=    60.00 Ry     beta= 0.15
     Davidson diagonalization with overlap

---- Real-time Memory Report at c_bands before calling an iterative solver
             0 MiB given to the printing process from OS
             0 MiB allocation reported by mallinfo(arena+hblkhd)
         30947 MiB available memory on the node where the printing process lives
------------------
     ethr =  1.33E-09,  avg # of iterations =  3.6

     negative rho (up, down):  7.923E-01 0.000E+00

     total cpu time spent up to now is      621.9 secs

     total energy              =   -4482.97635010 Ry
     estimated scf accuracy    <       0.00000513 Ry

     iteration # 40     ecut=    60.00 Ry     beta= 0.15
     Davidson diagonalization with overlap

---- Real-time Memory Report at c_bands before calling an iterative solver
             0 MiB given to the printing process from OS
             0 MiB allocation reported by mallinfo(arena+hblkhd)
         30954 MiB available memory on the node where the printing process lives
------------------
     ethr =  1.17E-09,  avg # of iterations =  3.0

     negative rho (up, down):  7.923E-01 0.000E+00

     total cpu time spent up to now is      636.4 secs

     total energy              =   -4482.97635112 Ry
     estimated scf accuracy    <       0.00000348 Ry

     iteration # 41     ecut=    60.00 Ry     beta= 0.15
     Davidson diagonalization with overlap

---- Real-time Memory Report at c_bands before calling an iterative solver
             0 MiB given to the printing process from OS
             0 MiB allocation reported by mallinfo(arena+hblkhd)
         30958 MiB available memory on the node where the printing process lives
------------------
     ethr =  7.95E-10,  avg # of iterations =  4.5

     negative rho (up, down):  7.923E-01 0.000E+00

     total cpu time spent up to now is      651.5 secs

     total energy              =   -4482.97635042 Ry
     estimated scf accuracy    <       0.00000232 Ry

     iteration # 42     ecut=    60.00 Ry     beta= 0.15
     Davidson diagonalization with overlap

---- Real-time Memory Report at c_bands before calling an iterative solver
             0 MiB given to the printing process from OS
             0 MiB allocation reported by mallinfo(arena+hblkhd)
         30958 MiB available memory on the node where the printing process lives
------------------
     ethr =  5.30E-10,  avg # of iterations =  4.1

     negative rho (up, down):  7.923E-01 0.000E+00

     total cpu time spent up to now is      666.8 secs

     total energy              =   -4482.97635067 Ry
     estimated scf accuracy    <       0.00000113 Ry

     iteration # 43     ecut=    60.00 Ry     beta= 0.15
     Davidson diagonalization with overlap

---- Real-time Memory Report at c_bands before calling an iterative solver
             0 MiB given to the printing process from OS
             0 MiB allocation reported by mallinfo(arena+hblkhd)
         30952 MiB available memory on the node where the printing process lives
------------------
     ethr =  2.58E-10,  avg # of iterations =  2.3

     negative rho (up, down):  7.923E-01 0.000E+00

     total cpu time spent up to now is      681.0 secs

     total energy              =   -4482.97635115 Ry
     estimated scf accuracy    <       0.00000095 Ry

     iteration # 44     ecut=    60.00 Ry     beta= 0.15
     Davidson diagonalization with overlap

---- Real-time Memory Report at c_bands before calling an iterative solver
             0 MiB given to the printing process from OS
             0 MiB allocation reported by mallinfo(arena+hblkhd)
         30960 MiB available memory on the node where the printing process lives
------------------
     ethr =  2.17E-10,  avg # of iterations =  4.2

     negative rho (up, down):  7.923E-01 0.000E+00

     total cpu time spent up to now is      696.3 secs

     total energy              =   -4482.97635138 Ry
     estimated scf accuracy    <       0.00000049 Ry

     iteration # 45     ecut=    60.00 Ry     beta= 0.15
     Davidson diagonalization with overlap

---- Real-time Memory Report at c_bands before calling an iterative solver
             0 MiB given to the printing process from OS
             0 MiB allocation reported by mallinfo(arena+hblkhd)
         30965 MiB available memory on the node where the printing process lives
------------------
     ethr =  1.12E-10,  avg # of iterations =  4.4

     negative rho (up, down):  7.923E-01 0.000E+00

     total cpu time spent up to now is      711.4 secs

     total energy              =   -4482.97635145 Ry
     estimated scf accuracy    <       0.00000032 Ry

     iteration # 46     ecut=    60.00 Ry     beta= 0.15
     Davidson diagonalization with overlap

---- Real-time Memory Report at c_bands before calling an iterative solver
             0 MiB given to the printing process from OS
             0 MiB allocation reported by mallinfo(arena+hblkhd)
         30963 MiB available memory on the node where the printing process lives
------------------
     ethr =  7.28E-11,  avg # of iterations =  4.7

     negative rho (up, down):  7.923E-01 0.000E+00

     total cpu time spent up to now is      727.1 secs

     total energy              =   -4482.97635150 Ry
     estimated scf accuracy    <       0.00000019 Ry

     iteration # 47     ecut=    60.00 Ry     beta= 0.15
     Davidson diagonalization with overlap

---- Real-time Memory Report at c_bands before calling an iterative solver
             0 MiB given to the printing process from OS
             0 MiB allocation reported by mallinfo(arena+hblkhd)
         30966 MiB available memory on the node where the printing process lives
------------------
     ethr =  4.40E-11,  avg # of iterations =  4.7

     negative rho (up, down):  7.923E-01 0.000E+00

     total cpu time spent up to now is      742.5 secs

     total energy              =   -4482.97635152 Ry
     estimated scf accuracy    <       0.00000009 Ry

     iteration # 48     ecut=    60.00 Ry     beta= 0.15
     Davidson diagonalization with overlap

---- Real-time Memory Report at c_bands before calling an iterative solver
             0 MiB given to the printing process from OS
             0 MiB allocation reported by mallinfo(arena+hblkhd)
         30967 MiB available memory on the node where the printing process lives
------------------
     ethr =  2.01E-11,  avg # of iterations =  4.4

     negative rho (up, down):  7.923E-01 0.000E+00

     total cpu time spent up to now is      757.7 secs

     total energy              =   -4482.97635153 Ry
     estimated scf accuracy    <       0.00000005 Ry

     iteration # 49     ecut=    60.00 Ry     beta= 0.15
     Davidson diagonalization with overlap

---- Real-time Memory Report at c_bands before calling an iterative solver
             0 MiB given to the printing process from OS
             0 MiB allocation reported by mallinfo(arena+hblkhd)
         30970 MiB available memory on the node where the printing process lives
------------------
     ethr =  1.18E-11,  avg # of iterations =  4.2

     negative rho (up, down):  7.923E-01 0.000E+00

     total cpu time spent up to now is      773.4 secs

     total energy              =   -4482.97635154 Ry
     estimated scf accuracy    <       0.00000001 Ry

     iteration # 50     ecut=    60.00 Ry     beta= 0.15
     Davidson diagonalization with overlap

---- Real-time Memory Report at c_bands before calling an iterative solver
             0 MiB given to the printing process from OS
             0 MiB allocation reported by mallinfo(arena+hblkhd)
         30956 MiB available memory on the node where the printing process lives
------------------
     ethr =  2.68E-12,  avg # of iterations =  3.5

     negative rho (up, down):  7.923E-01 0.000E+00

     total cpu time spent up to now is      788.5 secs

     End of self-consistent calculation

          k = 0.0000 0.0000 0.0000 ( 65197 PWs)   bands (ev):

   -92.3461 -92.2935 -92.2002 -92.1503 -92.0929 -92.0524 -92.0352 -91.9121
   -55.6992 -55.6800 -55.5580 -55.5472 -55.5393 -55.5339 -55.4982 -55.4697
   -55.4533 -55.4514 -55.4441 -55.4013 -55.3812 -55.3447 -55.3263 -55.2924
   -55.2856 -55.2414 -55.2390 -55.2382 -55.2297 -55.1868 -55.1659 -55.0787
   -30.9332 -30.9142 -30.7732 -30.7429 -30.7064 -30.6866 -30.5318 -30.5121
   -29.4969 -29.4534 -29.4282 -29.3198 -22.2577 -14.7312 -14.6935 -14.6088
   -14.4789 -14.2930 -14.1720 -13.8709 -13.8526 -13.8213 -13.7798 -13.7783
   -13.7399 -13.7299 -13.7124 -13.6975 -13.6731 -13.6421 -13.5800 -13.4321
   -13.2575 -13.2215 -13.1891 -13.1584 -13.1426 -13.0989 -13.0592 -12.9802
   -12.9074 -12.8137 -12.7741 -12.7659 -12.7540 -12.7305 -12.7135 -12.6861
   -12.6606 -12.6489 -12.6180 -12.5811 -12.5748 -12.5647 -12.5618 -12.5489
   -12.4946 -12.4807 -12.4582 -12.4148 -12.3749 -12.3614 -11.9983 -11.8537
   -11.7344 -11.6599 -11.5110 -11.4362 -11.4252 -11.4031 -11.3854 -11.3214
   -11.3044 -11.2693 -11.2405 -11.1298 -11.0489 -11.0453  -5.9023  -3.1661
    -3.1545  -2.5913  -2.3581  -2.1287  -1.9819  -1.9185  -1.7756  -1.4688
    -1.4546  -1.4338  -1.3502  -1.3329  -1.2651  -1.2491  -1.2072  -1.1620
    -0.9820  -0.7574  -0.7285  -0.5793  -0.5655  -0.5210  -0.5032  -0.4592
    -0.4432  -0.3826  -0.3564  -0.2886  -0.2766  -0.1955  -0.0699  -0.0548
    -0.0249   0.0570   0.0680   0.0852   0.1417   0.2214   0.2431   0.3159
     0.3346   0.3880   0.4745   0.5290   0.5500   0.5570   0.8141   0.8289
     0.9999   1.0687   1.1297   1.1700   1.2679   1.2815   1.2975   1.3681
     1.3967   1.4310   1.4895   1.6249   1.6763   1.6998   1.7179   1.7274
     1.7963   1.8741   1.9691   1.9842   2.0357   2.0591   2.0968   2.1207
     2.1278   2.1814   2.2357   2.2406   2.2769   2.3005   2.3721   2.5014
     2.5803   2.6310   2.6438   2.7913   2.8055   2.8555   2.8661   2.9688
     3.0052   3.0118   3.0383   3.0543   3.0649   3.0725   3.1473   3.2560
     3.2911   3.3033   3.3103   3.3772   3.3814   3.4052   3.4138   3.4217
     3.4327   3.4400   3.4534   3.4586   3.4716   3.4806   3.4882   3.5089
     3.5302   3.5352   3.5470   3.5632   3.6877   3.7414   4.4152   4.7496
     4.7880   5.1352   5.3792   5.4685   5.7388   6.2789   6.3179   6.3469
     6.6158   6.6207   6.6671   6.7153   7.0139   7.1430   7.2410   7.4389
     7.5208   7.6452   7.8613   7.9080   7.9318   7.9400   8.0063   8.0568
     8.3068   8.3621   8.3826   8.4467   8.5091   8.5696   8.6384

     occupation numbers 
     1.0000   1.0000   1.0000   1.0000   1.0000   1.0000   1.0000   1.0000
     1.0000   1.0000   1.0000   1.0000   1.0000   1.0000   1.0000   1.0000
     1.0000   1.0000   1.0000   1.0000   1.0000   1.0000   1.0000   1.0000
     1.0000   1.0000   1.0000   1.0000   1.0000   1.0000   1.0000   1.0000
     1.0000   1.0000   1.0000   1.0000   1.0000   1.0000   1.0000   1.0000
     1.0000   1.0000   1.0000   1.0000   1.0000   1.0000   1.0000   1.0000
     1.0000   1.0000   1.0000   1.0000   1.0000   1.0000   1.0000   1.0000
     1.0000   1.0000   1.0000   1.0000   1.0000   1.0000   1.0000   1.0000
     1.0000   1.0000   1.0000   1.0000   1.0000   1.0000   1.0000   1.0000
     1.0000   1.0000   1.0000   1.0000   1.0000   1.0000   1.0000   1.0000
     1.0000   1.0000   1.0000   1.0000   1.0000   1.0000   1.0000   1.0000
     1.0000   1.0000   1.0000   1.0000   1.0000   1.0000   1.0000   1.0000
     1.0000   1.0000   1.0000   1.0000   1.0000   1.0000   1.0000   1.0000
     1.0000   1.0000   1.0000   1.0000   1.0000   1.0000   1.0000   1.0000
     1.0000   1.0000   1.0000   1.0000   1.0000   1.0000   1.0000   1.0000
     1.0000   1.0000   1.0000   1.0000   1.0000   1.0000   1.0000   1.0000
     1.0000   1.0000   1.0000   1.0000   1.0000   1.0000   1.0000   1.0000
     1.0000   1.0000   1.0000   1.0000   1.0000   1.0000   1.0000   1.0000
     1.0000   1.0000   1.0000   1.0000   1.0000   1.0000   1.0000   1.0000
     1.0000   1.0000   1.0000   1.0000   1.0000   1.0000   1.0000   1.0000
     1.0000   0.9999   0.9999   0.9999   0.9998   0.9998   0.9998   0.9997
     0.9997   0.9996   0.9994   0.9989   0.9985   0.9984   0.9982   0.9981
     0.9974   0.9963   0.9945   0.9941   0.9927   0.9920   0.9906   0.9897
     0.9894   0.9870   0.9840   0.9837   0.9814   0.9798   0.9740   0.9600
     0.9488   0.9404   0.9381   0.9066   0.9030   0.8897   0.8866   0.8546
     0.8419   0.8395   0.8297   0.8237   0.8196   0.8166   0.7856   0.7356
     0.7183   0.7122   0.7086   0.6737   0.6714   0.6585   0.6538   0.6495
     0.6434   0.6393   0.6319   0.6289   0.6216   0.6165   0.6122   0.6004
     0.5882   0.5852   0.5784   0.5690   0.4955   0.4638   0.1376   0.0561
     0.0500   0.0154   0.0058   0.0040   0.0011   0.0001   0.0000   0.0000
     0.0000   0.0000   0.0000   0.0000   0.0000   0.0000   0.0000   0.0000
     0.0000   0.0000   0.0000   0.0000   0.0000   0.0000   0.0000   0.0000
     0.0000   0.0000   0.0000   0.0000   0.0000   0.0000   0.0000

          k = 0.0000 0.2500 0.0000 ( 65257 PWs)   bands (ev):

   -92.3461 -92.2935 -92.2002 -92.1503 -92.0929 -92.0524 -92.0352 -91.9121
   -55.6992 -55.6800 -55.5580 -55.5472 -55.5393 -55.5339 -55.4982 -55.4697
   -55.4533 -55.4514 -55.4441 -55.4013 -55.3812 -55.3448 -55.3263 -55.2924
   -55.2856 -55.2414 -55.2390 -55.2382 -55.2297 -55.1868 -55.1659 -55.0787
   -30.9330 -30.9140 -30.7734 -30.7421 -30.7073 -30.6867 -30.5300 -30.5138
   -29.4963 -29.4531 -29.4289 -29.3202 -22.2577 -14.6942 -14.6675 -14.5841
   -14.4493 -14.3322 -14.1610 -14.0168 -13.8369 -13.8057 -13.7842 -13.7779
   -13.7558 -13.6977 -13.6934 -13.6780 -13.6591 -13.6232 -13.5002 -13.4623
   -13.3012 -13.2830 -13.2308 -13.1961 -13.1494 -13.1141 -13.0776 -12.9986
   -12.9662 -12.9299 -12.8595 -12.8038 -12.7644 -12.7517 -12.7459 -12.6539
   -12.6339 -12.6086 -12.5894 -12.5584 -12.5240 -12.5197 -12.5062 -12.4858
   -12.4645 -12.4563 -12.4477 -12.4050 -12.2718 -12.1960 -12.0597 -11.9050
   -11.7925 -11.7286 -11.4765 -11.4329 -11.4057 -11.3773 -11.3606 -11.3133
   -11.3020 -11.2796 -11.2451 -11.1441 -11.0906 -11.0799  -5.9023  -3.1661
    -3.1547  -2.4560  -2.2337  -2.0966  -1.9140  -1.8707  -1.7065  -1.4879
    -1.4020  -1.3889  -1.3306  -1.2300  -1.2149  -1.1803  -1.1550  -1.1111
    -0.9133  -0.7843  -0.7725  -0.6957  -0.6853  -0.5807  -0.5504  -0.4956
    -0.4700  -0.4270  -0.3640  -0.3391  -0.3053  -0.2775  -0.2604  -0.2256
    -0.1544  -0.1001  -0.0343   0.0703   0.0963   0.1338   0.2489   0.2845
     0.3465   0.3976   0.4551   0.4734   0.5063   0.5614   0.8608   0.9507
     0.9804   1.0660   1.1079   1.1255   1.2568   1.2746   1.3679   1.3940
     1.4253   1.5403   1.6270   1.6527   1.6772   1.6945   1.7227   1.7841
     1.8105   1.8366   1.8859   1.9152   1.9462   2.0254   2.0575   2.0882
     2.1488   2.1969   2.2255   2.2564   2.2936   2.3144   2.4088   2.5385
     2.6087   2.6280   2.7092   2.7508   2.7883   2.7932   2.8634   2.9059
     2.9846   3.0105   3.0334   3.0464   3.0689   3.2174   3.2383   3.2702
     3.2930   3.3099   3.3191   3.3261   3.3341   3.3645   3.3667   3.3838
     3.3888   3.3997   3.4176   3.4272   3.4375   3.4598   3.4705   3.4756
     3.5109   3.5276   3.5875   3.9353   3.9711   4.2294   4.6003   4.7398
     4.9043   5.0825   5.4035   5.5138   5.8594   5.9189   6.1618   6.3018
     6.3341   6.4501   6.5192   6.7314   6.9281   7.1011   7.2689   7.5241
     7.5438   7.6900   7.7924   7.8916   7.9556   7.9902   8.1122   8.2172
     8.2680   8.4098   8.5277   8.5495   8.6293   8.6742   8.9559

     occupation numbers 
     1.0000   1.0000   1.0000   1.0000   1.0000   1.0000   1.0000   1.0000
     1.0000   1.0000   1.0000   1.0000   1.0000   1.0000   1.0000   1.0000
     1.0000   1.0000   1.0000   1.0000   1.0000   1.0000   1.0000   1.0000
     1.0000   1.0000   1.0000   1.0000   1.0000   1.0000   1.0000   1.0000
     1.0000   1.0000   1.0000   1.0000   1.0000   1.0000   1.0000   1.0000
     1.0000   1.0000   1.0000   1.0000   1.0000   1.0000   1.0000   1.0000
     1.0000   1.0000   1.0000   1.0000   1.0000   1.0000   1.0000   1.0000
     1.0000   1.0000   1.0000   1.0000   1.0000   1.0000   1.0000   1.0000
     1.0000   1.0000   1.0000   1.0000   1.0000   1.0000   1.0000   1.0000
     1.0000   1.0000   1.0000   1.0000   1.0000   1.0000   1.0000   1.0000
     1.0000   1.0000   1.0000   1.0000   1.0000   1.0000   1.0000   1.0000
     1.0000   1.0000   1.0000   1.0000   1.0000   1.0000   1.0000   1.0000
     1.0000   1.0000   1.0000   1.0000   1.0000   1.0000   1.0000   1.0000
     1.0000   1.0000   1.0000   1.0000   1.0000   1.0000   1.0000   1.0000
     1.0000   1.0000   1.0000   1.0000   1.0000   1.0000   1.0000   1.0000
     1.0000   1.0000   1.0000   1.0000   1.0000   1.0000   1.0000   1.0000
     1.0000   1.0000   1.0000   1.0000   1.0000   1.0000   1.0000   1.0000
     1.0000   1.0000   1.0000   1.0000   1.0000   1.0000   1.0000   1.0000
     1.0000   1.0000   1.0000   1.0000   1.0000   1.0000   1.0000   1.0000
     1.0000   1.0000   1.0000   1.0000   1.0000   1.0000   1.0000   1.0000
     1.0000   0.9999   0.9999   0.9999   0.9998   0.9998   0.9997   0.9997
     0.9996   0.9993   0.9989   0.9987   0.9985   0.9984   0.9982   0.9976
     0.9973   0.9969   0.9961   0.9956   0.9950   0.9930   0.9920   0.9910
     0.9885   0.9862   0.9846   0.9828   0.9803   0.9787   0.9705   0.9550
     0.9442   0.9409   0.9253   0.9162   0.9073   0.9061   0.8874   0.8749
     0.8492   0.8400   0.8316   0.8267   0.8180   0.7540   0.7441   0.7287
     0.7174   0.7088   0.7041   0.7005   0.6964   0.6804   0.6792   0.6701
     0.6674   0.6615   0.6517   0.6465   0.6407   0.6283   0.6223   0.6194
     0.5993   0.5896   0.5548   0.3525   0.3329   0.2074   0.0859   0.0578
     0.0346   0.0187   0.0052   0.0032   0.0006   0.0004   0.0001   0.0000
     0.0000   0.0000   0.0000   0.0000   0.0000   0.0000   0.0000   0.0000
     0.0000   0.0000   0.0000   0.0000   0.0000   0.0000   0.0000   0.0000
     0.0000   0.0000   0.0000   0.0000   0.0000   0.0000   0.0000

          k = 0.0000-0.5000 0.0000 ( 65180 PWs)   bands (ev):

   -92.3461 -92.2935 -92.2002 -92.1503 -92.0929 -92.0524 -92.0352 -91.9121
   -55.6992 -55.6800 -55.5580 -55.5472 -55.5393 -55.5339 -55.4982 -55.4697
   -55.4533 -55.4514 -55.4441 -55.4013 -55.3812 -55.3448 -55.3263 -55.2924
   -55.2856 -55.2414 -55.2390 -55.2382 -55.2297 -55.1868 -55.1659 -55.0787
   -30.9328 -30.9139 -30.7736 -30.7412 -30.7082 -30.6869 -30.5277 -30.5162
   -29.4957 -29.4528 -29.4295 -29.3205 -22.2577 -14.6616 -14.6126 -14.5623
   -14.4342 -14.3486 -14.2088 -14.0668 -13.9368 -13.8075 -13.7790 -13.7454
   -13.6985 -13.6882 -13.6417 -13.6231 -13.5788 -13.5558 -13.5333 -13.4952
   -13.4644 -13.4358 -13.2345 -13.1765 -13.1573 -13.1082 -13.0898 -13.0116
   -12.9989 -12.9401 -12.9392 -12.8748 -12.7651 -12.7492 -12.7279 -12.6886
   -12.6280 -12.6123 -12.5853 -12.5372 -12.5234 -12.4964 -12.4831 -12.4590
   -12.4289 -12.4126 -12.3606 -12.3073 -12.1708 -12.1204 -11.9803 -11.9625
   -11.9086 -11.8703 -11.4299 -11.4280 -11.4009 -11.3631 -11.3289 -11.3179
   -11.2747 -11.2709 -11.2266 -11.1658 -11.1516 -11.1371  -5.9023  -3.1661
    -3.1549  -2.2411  -2.1822  -2.0306  -1.9580  -1.6767  -1.5950  -1.4664
    -1.3282  -1.2899  -1.2722  -1.1933  -1.1615  -1.0815  -1.0456  -0.9689
    -0.9282  -0.8884  -0.8616  -0.8059  -0.7686  -0.7210  -0.6845  -0.6524
    -0.6177  -0.5077  -0.4625  -0.4299  -0.4277  -0.3420  -0.3092  -0.2874
    -0.2415  -0.1524  -0.0879  -0.0013   0.0304   0.1255   0.1658   0.3206
     0.3585   0.3814   0.4268   0.5386   0.5982   0.7428   0.8093   0.8161
     0.9450   0.9880   1.0747   1.2218   1.3269   1.3601   1.3961   1.4026
     1.4384   1.4589   1.4955   1.5122   1.5227   1.6312   1.6897   1.7222
     1.7489   2.0093   2.0345   2.0545   2.1394   2.1697   2.2059   2.2185
     2.2565   2.2638   2.2728   2.3021   2.3523   2.3742   2.4015   2.4161
     2.4444   2.4988   2.5806   2.6062   2.7819   2.9550   2.9639   2.9755
     3.0091   3.0188   3.0324   3.0340   3.0685   3.0825   3.0962   3.1511
     3.1708   3.2485   3.2610   3.3310   3.3352   3.3623   3.3644   3.3822
     3.3850   3.3886   3.3957   3.3973   3.4096   3.4300   3.4313   3.4959
     3.5018   3.5172   3.5714   4.4635   4.4709   4.5153   4.5855   4.9829
     5.1036   5.2311   5.3436   5.5419   5.6765   5.7981   5.8887   6.0367
     6.2255   6.3779   6.3909   6.4746   6.9995   7.1044   7.1257   7.4136
     7.6079   7.6834   7.7292   7.9810   8.0624   8.0673   8.2041   8.3937
     8.5109   8.5625   8.7106   8.7316   8.7681   8.8651   8.9590

     occupation numbers 
     1.0000   1.0000   1.0000   1.0000   1.0000   1.0000   1.0000   1.0000
     1.0000   1.0000   1.0000   1.0000   1.0000   1.0000   1.0000   1.0000
     1.0000   1.0000   1.0000   1.0000   1.0000   1.0000   1.0000   1.0000
     1.0000   1.0000   1.0000   1.0000   1.0000   1.0000   1.0000   1.0000
     1.0000   1.0000   1.0000   1.0000   1.0000   1.0000   1.0000   1.0000
     1.0000   1.0000   1.0000   1.0000   1.0000   1.0000   1.0000   1.0000
     1.0000   1.0000   1.0000   1.0000   1.0000   1.0000   1.0000   1.0000
     1.0000   1.0000   1.0000   1.0000   1.0000   1.0000   1.0000   1.0000
     1.0000   1.0000   1.0000   1.0000   1.0000   1.0000   1.0000   1.0000
     1.0000   1.0000   1.0000   1.0000   1.0000   1.0000   1.0000   1.0000
     1.0000   1.0000   1.0000   1.0000   1.0000   1.0000   1.0000   1.0000
     1.0000   1.0000   1.0000   1.0000   1.0000   1.0000   1.0000   1.0000
     1.0000   1.0000   1.0000   1.0000   1.0000   1.0000   1.0000   1.0000
     1.0000   1.0000   1.0000   1.0000   1.0000   1.0000   1.0000   1.0000
     1.0000   1.0000   1.0000   1.0000   1.0000   1.0000   1.0000   1.0000
     1.0000   1.0000   1.0000   1.0000   1.0000   1.0000   1.0000   1.0000
     1.0000   1.0000   1.0000   1.0000   1.0000   1.0000   1.0000   1.0000
     1.0000   1.0000   1.0000   1.0000   1.0000   1.0000   1.0000   1.0000
     1.0000   1.0000   1.0000   1.0000   1.0000   1.0000   1.0000   1.0000
     1.0000   1.0000   1.0000   1.0000   1.0000   1.0000   1.0000   1.0000
     1.0000   1.0000   0.9999   0.9999   0.9998   0.9997   0.9997   0.9996
     0.9996   0.9995   0.9994   0.9994   0.9993   0.9988   0.9984   0.9982
     0.9979   0.9935   0.9927   0.9921   0.9889   0.9875   0.9857   0.9850
     0.9827   0.9823   0.9817   0.9796   0.9757   0.9738   0.9712   0.9697
     0.9667   0.9603   0.9487   0.9446   0.9089   0.8592   0.8562   0.8523
     0.8405   0.8370   0.8320   0.8314   0.8181   0.8126   0.8071   0.7840
     0.7753   0.7392   0.7332   0.6980   0.6958   0.6816   0.6804   0.6710
     0.6695   0.6675   0.6637   0.6628   0.6561   0.6449   0.6442   0.6078
     0.6044   0.5956   0.5642   0.1224   0.1202   0.1075   0.0894   0.0265
     0.0173   0.0106   0.0068   0.0029   0.0015   0.0008   0.0005   0.0002
     0.0001   0.0000   0.0000   0.0000   0.0000   0.0000   0.0000   0.0000
     0.0000   0.0000   0.0000   0.0000   0.0000   0.0000   0.0000   0.0000
     0.0000   0.0000   0.0000   0.0000   0.0000   0.0000   0.0000

          k = 0.2500 0.2500 0.0000 ( 65198 PWs)   bands (ev):

   -92.3461 -92.2935 -92.2002 -92.1503 -92.0929 -92.0524 -92.0352 -91.9121
   -55.6992 -55.6800 -55.5580 -55.5472 -55.5393 -55.5339 -55.4982 -55.4697
   -55.4533 -55.4514 -55.4441 -55.4013 -55.3812 -55.3448 -55.3263 -55.2924
   -55.2856 -55.2414 -55.2390 -55.2382 -55.2297 -55.1868 -55.1659 -55.0787
   -30.9313 -30.9158 -30.7730 -30.7419 -30.7071 -30.6871 -30.5302 -30.5140
   -29.4953 -29.4541 -29.4285 -29.3206 -22.2577 -14.6661 -14.6319 -14.5563
   -14.4388 -14.3238 -14.2007 -14.1217 -13.9198 -13.7798 -13.7598 -13.7485
   -13.7143 -13.6828 -13.6633 -13.6394 -13.6054 -13.5833 -13.4926 -13.4766
   -13.3175 -13.3034 -13.2726 -13.2532 -13.2025 -13.1653 -13.1239 -13.0813
   -12.9907 -12.9491 -12.8869 -12.7981 -12.7579 -12.7134 -12.7048 -12.6752
   -12.6443 -12.6086 -12.6035 -12.5790 -12.5546 -12.5149 -12.4902 -12.4554
   -12.4116 -12.3994 -12.3965 -12.3694 -12.2089 -12.1082 -12.1018 -11.9342
   -11.8244 -11.7769 -11.4486 -11.4166 -11.4061 -11.3988 -11.3363 -11.3015
   -11.2949 -11.2596 -11.2518 -11.1606 -11.1189 -11.1014  -5.9023  -3.1663
    -3.1547  -2.3179  -2.1081  -1.9909  -1.8964  -1.7751  -1.7098  -1.5128
    -1.3672  -1.3470  -1.3177  -1.2244  -1.1903  -1.0973  -1.0706  -1.0205
    -0.8882  -0.8409  -0.7678  -0.7228  -0.6782  -0.6540  -0.6292  -0.5881
    -0.5716  -0.4818  -0.4324  -0.3681  -0.3194  -0.2911  -0.2385  -0.2282
    -0.1642  -0.1124  -0.0547  -0.0232   0.0633   0.1130   0.1436   0.1835
     0.2377   0.2980   0.3461   0.3727   0.4364   0.4774   0.7554   0.9019
     0.9401   0.9917   1.0329   1.0812   1.1381   1.2022   1.2424   1.5168
     1.5877   1.6617   1.6870   1.7337   1.7671   1.8029   1.8391   1.8568
     1.8855   1.9225   1.9347   1.9524   1.9951   2.0329   2.0732   2.1161
     2.1522   2.1715   2.1944   2.2365   2.2872   2.3142   2.4487   2.5167
     2.5579   2.5863   2.6438   2.7101   2.7428   2.7810   2.8012   2.8148
     2.9286   2.9652   3.0186   3.0557   3.0720   3.2278   3.2460   3.2517
     3.2672   3.2816   3.2949   3.3074   3.3145   3.3250   3.3390   3.3511
     3.3694   3.3754   3.3875   3.4081   3.4214   3.4313   3.4618   3.7637
     3.8537   3.8943   3.9552   3.9681   4.2022   4.3054   4.6340   4.7939
     4.9788   5.1313   5.3199   5.5469   5.9168   6.0031   6.0149   6.1212
     6.1930   6.2390   6.3636   6.3870   6.9836   7.0140   7.0820   7.2173
     7.7229   7.8202   7.8436   7.9069   8.0142   8.1366   8.2355   8.2782
     8.4166   8.4985   8.5161   8.6808   8.7083   8.7848   8.8898

     occupation numbers 
     1.0000   1.0000   1.0000   1.0000   1.0000   1.0000   1.0000   1.0000
     1.0000   1.0000   1.0000   1.0000   1.0000   1.0000   1.0000   1.0000
     1.0000   1.0000   1.0000   1.0000   1.0000   1.0000   1.0000   1.0000
     1.0000   1.0000   1.0000   1.0000   1.0000   1.0000   1.0000   1.0000
     1.0000   1.0000   1.0000   1.0000   1.0000   1.0000   1.0000   1.0000
     1.0000   1.0000   1.0000   1.0000   1.0000   1.0000   1.0000   1.0000
     1.0000   1.0000   1.0000   1.0000   1.0000   1.0000   1.0000   1.0000
     1.0000   1.0000   1.0000   1.0000   1.0000   1.0000   1.0000   1.0000
     1.0000   1.0000   1.0000   1.0000   1.0000   1.0000   1.0000   1.0000
     1.0000   1.0000   1.0000   1.0000   1.0000   1.0000   1.0000   1.0000
     1.0000   1.0000   1.0000   1.0000   1.0000   1.0000   1.0000   1.0000
     1.0000   1.0000   1.0000   1.0000   1.0000   1.0000   1.0000   1.0000
     1.0000   1.0000   1.0000   1.0000   1.0000   1.0000   1.0000   1.0000
     1.0000   1.0000   1.0000   1.0000   1.0000   1.0000   1.0000   1.0000
     1.0000   1.0000   1.0000   1.0000   1.0000   1.0000   1.0000   1.0000
     1.0000   1.0000   1.0000   1.0000   1.0000   1.0000   1.0000   1.0000
     1.0000   1.0000   1.0000   1.0000   1.0000   1.0000   1.0000   1.0000
     1.0000   1.0000   1.0000   1.0000   1.0000   1.0000   1.0000   1.0000
     1.0000   1.0000   1.0000   1.0000   1.0000   1.0000   1.0000   1.0000
     1.0000   1.0000   1.0000   1.0000   1.0000   1.0000   1.0000   1.0000
     1.0000   1.0000   1.0000   0.9999   0.9999   0.9999   0.9999   0.9993
     0.9991   0.9986   0.9985   0.9981   0.9977   0.9973   0.9969   0.9966
     0.9962   0.9955   0.9952   0.9949   0.9938   0.9928   0.9915   0.9899
     0.9884   0.9875   0.9863   0.9840   0.9807   0.9787   0.9663   0.9580
     0.9522   0.9479   0.9381   0.9252   0.9180   0.9091   0.9041   0.9006
     0.8678   0.8558   0.8371   0.8231   0.8168   0.7491   0.7405   0.7377
     0.7302   0.7230   0.7164   0.7101   0.7065   0.7011   0.6938   0.6875
     0.6778   0.6746   0.6681   0.6569   0.6497   0.6442   0.6272   0.4507
     0.3984   0.3753   0.3415   0.3345   0.2191   0.1766   0.0783   0.0491
     0.0269   0.0156   0.0075   0.0028   0.0004   0.0003   0.0003   0.0001
     0.0001   0.0001   0.0000   0.0000   0.0000   0.0000   0.0000   0.0000
     0.0000   0.0000   0.0000   0.0000   0.0000   0.0000   0.0000   0.0000
     0.0000   0.0000   0.0000   0.0000   0.0000   0.0000   0.0000

          k = 0.2500-0.5000 0.0000 ( 65138 PWs)   bands (ev):

   -92.3461 -92.2935 -92.2002 -92.1503 -92.0929 -92.0524 -92.0352 -91.9121
   -55.6992 -55.6800 -55.5580 -55.5472 -55.5393 -55.5339 -55.4982 -55.4697
   -55.4533 -55.4514 -55.4441 -55.4013 -55.3812 -55.3448 -55.3263 -55.2924
   -55.2856 -55.2414 -55.2390 -55.2382 -55.2297 -55.1868 -55.1659 -55.0787
   -30.9311 -30.9157 -30.7732 -30.7410 -30.7080 -30.6872 -30.5279 -30.5163
   -29.4947 -29.4538 -29.4291 -29.3209 -22.2577 -14.6313 -14.5857 -14.5193
   -14.4028 -14.3726 -14.2497 -14.1672 -14.0343 -13.7792 -13.7242 -13.6765
   -13.6455 -13.6278 -13.6091 -13.5953 -13.5632 -13.5437 -13.5110 -13.4724
   -13.4486 -13.4261 -13.3180 -13.2696 -13.2212 -13.1908 -13.1454 -13.1214
   -13.0445 -13.0057 -12.8626 -12.7984 -12.7757 -12.7011 -12.6893 -12.6472
   -12.6401 -12.6268 -12.5994 -12.5681 -12.5216 -12.5077 -12.4876 -12.4652
   -12.4392 -12.4132 -12.3112 -12.2798 -12.1774 -12.1040 -11.9779 -11.9434
   -11.8982 -11.8691 -11.4240 -11.4121 -11.4013 -11.3742 -11.3424 -11.3144
   -11.2726 -11.2455 -11.2229 -11.1788 -11.1526 -11.1412  -5.9023  -3.1663
    -3.1548  -2.0994  -2.0345  -1.9047  -1.8270  -1.6975  -1.6151  -1.4909
    -1.3395  -1.2855  -1.2637  -1.2012  -1.1880  -1.0923  -1.0241  -0.9388
    -0.8908  -0.8812  -0.8167  -0.7759  -0.7405  -0.6929  -0.6556  -0.6213
    -0.5811  -0.5706  -0.5245  -0.4964  -0.4537  -0.4242  -0.3561  -0.2542
    -0.2191  -0.1389  -0.0744  -0.0263   0.0160   0.0371   0.0885   0.2478
     0.2545   0.3703   0.3977   0.4088   0.4544   0.4816   0.5183   0.5505
     0.6253   0.8895   0.9807   1.0390   1.1027   1.3756   1.3962   1.4902
     1.5132   1.6847   1.7187   1.7586   1.7834   1.7999   1.8209   1.8816
     1.9289   1.9644   2.0367   2.1209   2.1574   2.1811   2.1967   2.2274
     2.2449   2.2532   2.2915   2.3087   2.3275   2.3617   2.3768   2.4076
     2.4365   2.4968   2.5365   2.6114   2.7519   2.9068   2.9223   2.9417
     2.9669   2.9921   3.0129   3.0248   3.0437   3.0536   3.0716   3.0785
     3.1772   3.2268   3.2464   3.2503   3.2650   3.2851   3.2991   3.3175
     3.3258   3.3584   3.3690   3.3837   3.3917   3.4001   3.4117   3.9212
     3.9385   4.0951   4.1440   4.4677   4.5236   4.5258   4.6513   5.0436
     5.1368   5.2600   5.3800   5.5008   5.6477   5.7253   5.8448   5.9284
     6.0737   6.1304   6.3215   6.5179   6.6148   6.6244   7.1801   7.2706
     7.5520   7.6453   7.9472   8.0710   8.1760   8.2164   8.3453   8.4300
     8.5166   8.6207   8.6904   8.8068   8.8782   8.9188   8.9586

     occupation numbers 
     1.0000   1.0000   1.0000   1.0000   1.0000   1.0000   1.0000   1.0000
     1.0000   1.0000   1.0000   1.0000   1.0000   1.0000   1.0000   1.0000
     1.0000   1.0000   1.0000   1.0000   1.0000   1.0000   1.0000   1.0000
     1.0000   1.0000   1.0000   1.0000   1.0000   1.0000   1.0000   1.0000
     1.0000   1.0000   1.0000   1.0000   1.0000   1.0000   1.0000   1.0000
     1.0000   1.0000   1.0000   1.0000   1.0000   1.0000   1.0000   1.0000
     1.0000   1.0000   1.0000   1.0000   1.0000   1.0000   1.0000   1.0000
     1.0000   1.0000   1.0000   1.0000   1.0000   1.0000   1.0000   1.0000
     1.0000   1.0000   1.0000   1.0000   1.0000   1.0000   1.0000   1.0000
     1.0000   1.0000   1.0000   1.0000   1.0000   1.0000   1.0000   1.0000
     1.0000   1.0000   1.0000   1.0000   1.0000   1.0000   1.0000   1.0000
     1.0000   1.0000   1.0000   1.0000   1.0000   1.0000   1.0000   1.0000
     1.0000   1.0000   1.0000   1.0000   1.0000   1.0000   1.0000   1.0000
     1.0000   1.0000   1.0000   1.0000   1.0000   1.0000   1.0000   1.0000
     1.0000   1.0000   1.0000   1.0000   1.0000   1.0000   1.0000   1.0000
     1.0000   1.0000   1.0000   1.0000   1.0000   1.0000   1.0000   1.0000
     1.0000   1.0000   1.0000   1.0000   1.0000   1.0000   1.0000   1.0000
     1.0000   1.0000   1.0000   1.0000   1.0000   1.0000   1.0000   1.0000
     1.0000   1.0000   1.0000   1.0000   1.0000   1.0000   1.0000   1.0000
     1.0000   1.0000   1.0000   1.0000   1.0000   1.0000   1.0000   1.0000
     1.0000   1.0000   1.0000   1.0000   0.9999   0.9997   0.9997   0.9994
     0.9994   0.9985   0.9982   0.9978   0.9976   0.9974   0.9971   0.9962
     0.9953   0.9946   0.9927   0.9897   0.9881   0.9870   0.9862   0.9845
     0.9835   0.9830   0.9804   0.9792   0.9777   0.9749   0.9735   0.9706
     0.9676   0.9606   0.9553   0.9437   0.9160   0.8746   0.8698   0.8636
     0.8553   0.8465   0.8391   0.8348   0.8277   0.8239   0.8169   0.8142
     0.7724   0.7496   0.7403   0.7384   0.7312   0.7213   0.7143   0.7049
     0.7006   0.6836   0.6780   0.6702   0.6658   0.6613   0.6549   0.3602
     0.3507   0.2689   0.2455   0.1211   0.1052   0.1046   0.0747   0.0215
     0.0153   0.0095   0.0058   0.0034   0.0017   0.0012   0.0007   0.0004
     0.0002   0.0001   0.0000   0.0000   0.0000   0.0000   0.0000   0.0000
     0.0000   0.0000   0.0000   0.0000   0.0000   0.0000   0.0000   0.0000
     0.0000   0.0000   0.0000   0.0000   0.0000   0.0000   0.0000

          k =-0.5000-0.5000 0.0000 ( 65132 PWs)   bands (ev):

   -92.3461 -92.2935 -92.2002 -92.1503 -92.0929 -92.0524 -92.0352 -91.9121
   -55.6992 -55.6800 -55.5580 -55.5472 -55.5393 -55.5339 -55.4982 -55.4697
   -55.4533 -55.4514 -55.4441 -55.4013 -55.3812 -55.3448 -55.3263 -55.2924
   -55.2856 -55.2414 -55.2390 -55.2382 -55.2297 -55.1868 -55.1659 -55.0787
   -30.9288 -30.9179 -30.7729 -30.7409 -30.7078 -30.6876 -30.5281 -30.5164
   -29.4937 -29.4548 -29.4287 -29.3214 -22.2577 -14.5856 -14.5583 -14.4411
   -14.4305 -14.3387 -14.2978 -14.2676 -14.1343 -13.7792 -13.6360 -13.6263
   -13.5889 -13.5722 -13.5544 -13.5425 -13.5097 -13.5025 -13.4913 -13.4780
   -13.4619 -13.3864 -13.3804 -13.3534 -13.3189 -13.3166 -13.2188 -13.2088
   -13.0943 -13.0579 -12.8136 -12.7725 -12.7096 -12.6825 -12.6747 -12.6410
   -12.6394 -12.6292 -12.6094 -12.6085 -12.5191 -12.4941 -12.4906 -12.4672
   -12.4591 -12.4309 -12.2610 -12.2534 -12.1938 -12.0883 -11.9745 -11.9225
   -11.8887 -11.8685 -11.4206 -11.4082 -11.3903 -11.3737 -11.3388 -11.3208
   -11.2869 -11.2261 -11.2054 -11.2007 -11.1502 -11.1470  -5.9023  -3.1664
    -3.1548  -1.8750  -1.8000  -1.7917  -1.7180  -1.6788  -1.6006  -1.5329
    -1.4067  -1.2897  -1.2603  -1.2192  -1.1636  -1.0913  -1.0782  -1.0061
    -0.9638  -0.8475  -0.8197  -0.7706  -0.7398  -0.6758  -0.6322  -0.6128
    -0.6017  -0.5478  -0.5007  -0.4873  -0.3736  -0.3165  -0.2711  -0.2215
    -0.1953  -0.1819  -0.1486  -0.1102  -0.0726  -0.0609   0.0251   0.0908
     0.1407   0.1611   0.2379   0.2888   0.2956   0.3578   0.3903   0.3959
     0.4058   0.8587   0.8947   0.9854   1.0074   1.4059   1.4183   1.4526
     1.4935   1.7675   1.7864   1.7931   1.8351   1.9656   2.0624   2.0877
     2.1231   2.1355   2.1597   2.1713   2.2031   2.2084   2.2170   2.2315
     2.2946   2.2979   2.3217   2.3259   2.3522   2.3631   2.4050   2.4334
     2.4460   2.4807   2.5076   2.5807   2.6487   2.9157   2.9509   2.9690
     2.9902   2.9970   3.0164   3.0274   3.0328   3.0513   3.0623   3.0715
     3.0800   3.1038   3.1132   3.1786   3.1829   3.2027   3.2172   3.2303
     3.2498   3.2524   3.2618   3.3652   3.3702   3.3951   3.4067   4.3475
     4.3723   4.3838   4.4073   4.6716   4.7435   4.7717   5.0107   5.1328
     5.1801   5.2176   5.3335   5.3899   5.4425   5.5563   5.5585   5.7858
     5.9755   6.0591   6.1358   6.2245   6.6026   6.7114   6.8047   7.1485
     7.5562   7.5783   7.6909   8.2755   8.2951   8.3679   8.4657   8.5516
     8.6364   8.8621   8.8835   8.9136   8.9180   8.9569   9.0429

     occupation numbers 
     1.0000   1.0000   1.0000   1.0000   1.0000   1.0000   1.0000   1.0000
     1.0000   1.0000   1.0000   1.0000   1.0000   1.0000   1.0000   1.0000
     1.0000   1.0000   1.0000   1.0000   1.0000   1.0000   1.0000   1.0000
     1.0000   1.0000   1.0000   1.0000   1.0000   1.0000   1.0000   1.0000
     1.0000   1.0000   1.0000   1.0000   1.0000   1.0000   1.0000   1.0000
     1.0000   1.0000   1.0000   1.0000   1.0000   1.0000   1.0000   1.0000
     1.0000   1.0000   1.0000   1.0000   1.0000   1.0000   1.0000   1.0000
     1.0000   1.0000   1.0000   1.0000   1.0000   1.0000   1.0000   1.0000
     1.0000   1.0000   1.0000   1.0000   1.0000   1.0000   1.0000   1.0000
     1.0000   1.0000   1.0000   1.0000   1.0000   1.0000   1.0000   1.0000
     1.0000   1.0000   1.0000   1.0000   1.0000   1.0000   1.0000   1.0000
     1.0000   1.0000   1.0000   1.0000   1.0000   1.0000   1.0000   1.0000
     1.0000   1.0000   1.0000   1.0000   1.0000   1.0000   1.0000   1.0000
     1.0000   1.0000   1.0000   1.0000   1.0000   1.0000   1.0000   1.0000
     1.0000   1.0000   1.0000   1.0000   1.0000   1.0000   1.0000   1.0000
[...]
     0.0000   0.0000   0.0000   0.0000   0.0000   0.0000   0.0000   0.0000
     0.0000   0.0000   0.0000   0.0000   0.0000   0.0000   0.0000

          k =-0.5000 0.0000 0.0000 ( 65180 PWs)   bands (ev):

   -92.3461 -92.2935 -92.2002 -92.1503 -92.0929 -92.0524 -92.0352 -91.9121
   -55.6992 -55.6800 -55.5580 -55.5472 -55.5393 -55.5339 -55.4982 -55.4697
   -55.4533 -55.4514 -55.4441 -55.4013 -55.3812 -55.3447 -55.3263 -55.2924
   -55.2856 -55.2414 -55.2390 -55.2382 -55.2297 -55.1868 -55.1659 -55.0787
   -30.9292 -30.9182 -30.7725 -30.7426 -30.7061 -30.6873 -30.5322 -30.5123
   -29.4949 -29.4554 -29.4274 -29.3207 -22.2577 -14.6657 -14.6162 -14.5544
   -14.4477 -14.3408 -14.1965 -14.0581 -13.9153 -13.7835 -13.7802 -13.7758
   -13.7579 -13.7025 -13.6465 -13.6133 -13.5640 -13.5595 -13.5453 -13.4913
   -13.4801 -13.3876 -13.2061 -13.1788 -13.1461 -13.1376 -13.0991 -13.0173
   -12.9962 -12.9252 -12.9065 -12.9017 -12.7570 -12.7100 -12.6998 -12.6756
   -12.6667 -12.6632 -12.6043 -12.5847 -12.5663 -12.5489 -12.4667 -12.4304
   -12.3763 -12.3594 -12.2957 -12.2867 -12.1968 -12.1625 -12.0178 -11.9842
   -11.8877 -11.8483 -11.4274 -11.4063 -11.3993 -11.3845 -11.3665 -11.3252
   -11.2624 -11.2450 -11.2124 -11.1678 -11.1584 -11.1425  -5.9023  -3.1665
    -3.1545  -2.2313  -2.1924  -2.0280  -1.9890  -1.6768  -1.6006  -1.4529
    -1.3346  -1.2954  -1.2492  -1.2017  -1.1761  -1.0547  -1.0092  -0.9950
    -0.9119  -0.8765  -0.8626  -0.8295  -0.7734  -0.7041  -0.6742  -0.6471
    -0.5531  -0.5038  -0.4546  -0.4234  -0.4018  -0.3707  -0.3239  -0.2991
    -0.2628  -0.1628  -0.0961  -0.0268   0.0342   0.1815   0.2311   0.2927
     0.3229   0.3710   0.4041   0.5306   0.5715   0.6096   0.7904   0.8888
     0.9352   1.0114   1.0644   1.2025   1.2139   1.3442   1.3775   1.4322
     1.4580   1.4982   1.5084   1.5569   1.5805   1.6444   1.6912   1.7387
     1.7482   2.0390   2.0502   2.0552   2.0870   2.1993   2.2078   2.2144
     2.2309   2.2637   2.2765   2.3102   2.3418   2.3590   2.4283   2.4325
     2.4911   2.5030   2.5696   2.6716   2.7656   2.8502   2.8649   2.9449
     2.9793   3.0043   3.0180   3.0687   3.0757   3.0818   3.0927   3.1211
     3.1867   3.2312   3.2803   3.3043   3.3522   3.3559   3.3573   3.3689
     3.3832   3.3960   3.4103   3.4135   3.4328   3.4389   3.4619   3.4821
     3.4864   3.6122   3.6199   4.4111   4.4603   4.5226   4.6366   5.0095
     5.1376   5.1903   5.3088   5.4456   5.7182   5.8683   5.9416   5.9806
     6.2635   6.3623   6.3741   6.4256   6.9792   7.1057   7.1475   7.4714
     7.5007   7.6771   7.8185   8.0526   8.0838   8.1565   8.2268   8.2484
     8.4294   8.5987   8.6757   8.7281   8.7823   8.8535   8.9215

     occupation numbers 
     1.0000   1.0000   1.0000   1.0000   1.0000   1.0000   1.0000   1.0000
     1.0000   1.0000   1.0000   1.0000   1.0000   1.0000   1.0000   1.0000
     1.0000   1.0000   1.0000   1.0000   1.0000   1.0000   1.0000   1.0000
     1.0000   1.0000   1.0000   1.0000   1.0000   1.0000   1.0000   1.0000
     1.0000   1.0000   1.0000   1.0000   1.0000   1.0000   1.0000   1.0000
     1.0000   1.0000   1.0000   1.0000   1.0000   1.0000   1.0000   1.0000
     1.0000   1.0000   1.0000   1.0000   1.0000   1.0000   1.0000   1.0000
     1.0000   1.0000   1.0000   1.0000   1.0000   1.0000   1.0000   1.0000
     1.0000   1.0000   1.0000   1.0000   1.0000   1.0000   1.0000   1.0000
     1.0000   1.0000   1.0000   1.0000   1.0000   1.0000   1.0000   1.0000
     1.0000   1.0000   1.0000   1.0000   1.0000   1.0000   1.0000   1.0000
     1.0000   1.0000   1.0000   1.0000   1.0000   1.0000   1.0000   1.0000
     1.0000   1.0000   1.0000   1.0000   1.0000   1.0000   1.0000   1.0000
     1.0000   1.0000   1.0000   1.0000   1.0000   1.0000   1.0000   1.0000
     1.0000   1.0000   1.0000   1.0000   1.0000   1.0000   1.0000   1.0000
     1.0000   1.0000   1.0000   1.0000   1.0000   1.0000   1.0000   1.0000
     1.0000   1.0000   1.0000   1.0000   1.0000   1.0000   1.0000   1.0000
     1.0000   1.0000   1.0000   1.0000   1.0000   1.0000   1.0000   1.0000
     1.0000   1.0000   1.0000   1.0000   1.0000   1.0000   1.0000   1.0000
     1.0000   1.0000   1.0000   1.0000   1.0000   1.0000   1.0000   1.0000
     1.0000   1.0000   0.9999   0.9999   0.9999   0.9997   0.9997   0.9996
     0.9995   0.9994   0.9994   0.9992   0.9991   0.9987   0.9984   0.9980
     0.9979   0.9926   0.9922   0.9921   0.9910   0.9861   0.9856   0.9852
     0.9843   0.9823   0.9814   0.9790   0.9766   0.9751   0.9685   0.9680
     0.9613   0.9598   0.9504   0.9329   0.9128   0.8911   0.8870   0.8626
     0.8510   0.8422   0.8373   0.8181   0.8153   0.8129   0.8085   0.7968
     0.7682   0.7476   0.7237   0.7117   0.6869   0.6850   0.6842   0.6780
     0.6704   0.6635   0.6557   0.6540   0.6433   0.6399   0.6271   0.6157
     0.6133   0.5402   0.5357   0.1389   0.1234   0.1055   0.0778   0.0242
     0.0152   0.0125   0.0078   0.0044   0.0012   0.0006   0.0004   0.0003
     0.0001   0.0000   0.0000   0.0000   0.0000   0.0000   0.0000   0.0000
     0.0000   0.0000   0.0000   0.0000   0.0000   0.0000   0.0000   0.0000
     0.0000   0.0000   0.0000   0.0000   0.0000   0.0000   0.0000

          k =-0.2500 0.2500 0.0000 ( 65198 PWs)   bands (ev):

   -92.3461 -92.2935 -92.2002 -92.1503 -92.0929 -92.0524 -92.0352 -91.9121
   -55.6992 -55.6800 -55.5580 -55.5472 -55.5393 -55.5339 -55.4982 -55.4697
   -55.4533 -55.4514 -55.4441 -55.4013 -55.3812 -55.3448 -55.3263 -55.2924
   -55.2856 -55.2414 -55.2390 -55.2382 -55.2297 -55.1868 -55.1659 -55.0787
   -30.9313 -30.9158 -30.7730 -30.7419 -30.7071 -30.6871 -30.5302 -30.5140
   -29.4953 -29.4541 -29.4285 -29.3206 -22.2577 -14.6675 -14.6308 -14.5546
   -14.4371 -14.3302 -14.2051 -14.1138 -13.9111 -13.7795 -13.7675 -13.7379
   -13.7268 -13.6794 -13.6547 -13.6402 -13.6244 -13.5829 -13.4891 -13.4769
   -13.3265 -13.2986 -13.2702 -13.2503 -13.2080 -13.1507 -13.1137 -13.0909
   -12.9965 -12.9520 -12.8802 -12.8022 -12.7594 -12.7151 -12.6952 -12.6676
   -12.6444 -12.6186 -12.5952 -12.5829 -12.5613 -12.5191 -12.4896 -12.4510
   -12.4263 -12.4139 -12.3945 -12.3475 -12.2028 -12.1099 -12.0979 -11.9399
   -11.8262 -11.7742 -11.4478 -11.4260 -11.3992 -11.3868 -11.3459 -11.3113
   -11.2881 -11.2668 -11.2442 -11.1603 -11.1142 -11.1047  -5.9023  -3.1663
    -3.1547  -2.3163  -2.1070  -1.9867  -1.8981  -1.7794  -1.7124  -1.5104
    -1.3640  -1.3447  -1.3156  -1.2251  -1.1891  -1.0973  -1.0638  -1.0379
    -0.8942  -0.8388  -0.7705  -0.7426  -0.6823  -0.6599  -0.6194  -0.5905
    -0.5506  -0.4881  -0.4416  -0.3780  -0.3116  -0.2876  -0.2347  -0.2059
    -0.1616  -0.1025  -0.0580  -0.0175   0.0813   0.1151   0.1224   0.1718
     0.2343   0.2980   0.3462   0.3787   0.4407   0.4754   0.7361   0.9058
     0.9477   0.9835   1.0381   1.0795   1.1406   1.2101   1.2395   1.5239
     1.6395   1.6774   1.7106   1.7175   1.7593   1.7765   1.8218   1.8520
     1.8676   1.8944   1.9343   1.9469   1.9937   2.0118   2.0550   2.1252
     2.1460   2.1704   2.1988   2.2347   2.2692   2.3195   2.4369   2.5471
     2.5823   2.6261   2.6460   2.7086   2.7546   2.7821   2.8026   2.8262
     2.9290   2.9644   3.0179   3.0573   3.0707   3.2351   3.2430   3.2572
     3.2670   3.2776   3.2911   3.2979   3.3157   3.3240   3.3393   3.3493
     3.3616   3.3708   3.3766   3.4101   3.4213   3.4301   3.4637   3.7568
     3.8370   3.8969   3.9536   3.9818   4.1867   4.3138   4.6332   4.7937
     4.9749   5.1352   5.3289   5.5488   5.9137   6.0012   6.0172   6.1241
     6.1894   6.2396   6.3462   6.4067   6.9504   7.0165   7.1123   7.2326
     7.7289   7.8063   7.8299   7.9082   7.9740   8.1691   8.2221   8.3192
     8.3981   8.4765   8.5309   8.6913   8.7110   8.7851   8.8970

     occupation numbers 
     1.0000   1.0000   1.0000   1.0000   1.0000   1.0000   1.0000   1.0000
     1.0000   1.0000   1.0000   1.0000   1.0000   1.0000   1.0000   1.0000
     1.0000   1.0000   1.0000   1.0000   1.0000   1.0000   1.0000   1.0000
     1.0000   1.0000   1.0000   1.0000   1.0000   1.0000   1.0000   1.0000
     1.0000   1.0000   1.0000   1.0000   1.0000   1.0000   1.0000   1.0000
     1.0000   1.0000   1.0000   1.0000   1.0000   1.0000   1.0000   1.0000
     1.0000   1.0000   1.0000   1.0000   1.0000   1.0000   1.0000   1.0000
     1.0000   1.0000   1.0000   1.0000   1.0000   1.0000   1.0000   1.0000
     1.0000   1.0000   1.0000   1.0000   1.0000   1.0000   1.0000   1.0000
     1.0000   1.0000   1.0000   1.0000   1.0000   1.0000   1.0000   1.0000
     1.0000   1.0000   1.0000   1.0000   1.0000   1.0000   1.0000   1.0000
     1.0000   1.0000   1.0000   1.0000   1.0000   1.0000   1.0000   1.0000
     1.0000   1.0000   1.0000   1.0000   1.0000   1.0000   1.0000   1.0000
     1.0000   1.0000   1.0000   1.0000   1.0000   1.0000   1.0000   1.0000
     1.0000   1.0000   1.0000   1.0000   1.0000   1.0000   1.0000   1.0000
     1.0000   1.0000   1.0000   1.0000   1.0000   1.0000   1.0000   1.0000
     1.0000   1.0000   1.0000   1.0000   1.0000   1.0000   1.0000   1.0000
     1.0000   1.0000   1.0000   1.0000   1.0000   1.0000   1.0000   1.0000
     1.0000   1.0000   1.0000   1.0000   1.0000   1.0000   1.0000   1.0000
     1.0000   1.0000   1.0000   1.0000   1.0000   1.0000   1.0000   1.0000
     1.0000   1.0000   1.0000   0.9999   0.9999   0.9999   0.9999   0.9993
     0.9988   0.9985   0.9983   0.9982   0.9978   0.9976   0.9971   0.9967
     0.9964   0.9960   0.9952   0.9950   0.9939   0.9934   0.9921   0.9895
     0.9886   0.9875   0.9861   0.9841   0.9819   0.9783   0.9676   0.9538
     0.9485   0.9412   0.9377   0.9255   0.9154   0.9088   0.9037   0.8976
     0.8677   0.8561   0.8373   0.8225   0.8173   0.7457   0.7419   0.7350
     0.7303   0.7250   0.7183   0.7149   0.7058   0.7016   0.6936   0.6884
     0.6820   0.6770   0.6740   0.6558   0.6497   0.6448   0.6261   0.4547
     0.4079   0.3738   0.3424   0.3272   0.2260   0.1734   0.0785   0.0491
     0.0273   0.0154   0.0072   0.0028   0.0005   0.0003   0.0003   0.0001
     0.0001   0.0001   0.0000   0.0000   0.0000   0.0000   0.0000   0.0000
     0.0000   0.0000   0.0000   0.0000   0.0000   0.0000   0.0000   0.0000
     0.0000   0.0000   0.0000   0.0000   0.0000   0.0000   0.0000

          k =-0.5000 0.2500 0.0000 ( 65138 PWs)   bands (ev):

   -92.3461 -92.2935 -92.2002 -92.1503 -92.0929 -92.0524 -92.0352 -91.9121
   -55.6992 -55.6800 -55.5580 -55.5472 -55.5393 -55.5339 -55.4982 -55.4697
   -55.4533 -55.4514 -55.4441 -55.4013 -55.3812 -55.3448 -55.3263 -55.2924
   -55.2856 -55.2414 -55.2390 -55.2382 -55.2297 -55.1868 -55.1659 -55.0787
   -30.9290 -30.9181 -30.7727 -30.7418 -30.7070 -30.6875 -30.5304 -30.5141
   -29.4943 -29.4551 -29.4281 -29.3210 -22.2577 -14.6333 -14.5896 -14.5116
   -14.4131 -14.3706 -14.2429 -14.1604 -14.0301 -13.7792 -13.7178 -13.6876
   -13.6758 -13.6330 -13.6123 -13.5862 -13.5492 -13.5446 -13.5230 -13.4826
   -13.4703 -13.3742 -13.2903 -13.2418 -13.2383 -13.2259 -13.1567 -13.1238
   -13.0414 -12.9889 -12.8565 -12.8196 -12.7257 -12.7064 -12.6829 -12.6713
   -12.6470 -12.6185 -12.6058 -12.5945 -12.5789 -12.5108 -12.4810 -12.4498
   -12.4076 -12.3948 -12.2780 -12.2705 -12.1950 -12.1218 -11.9798 -11.9746
   -11.8828 -11.8574 -11.4203 -11.4077 -11.3934 -11.3816 -11.3603 -11.3300
   -11.2497 -11.2412 -11.2176 -11.1823 -11.1539 -11.1449  -5.9023  -3.1665
    -3.1547  -2.0892  -2.0469  -1.8978  -1.8560  -1.6965  -1.6194  -1.4771
    -1.3408  -1.2835  -1.2566  -1.2177  -1.1788  -1.0989  -0.9840  -0.9274
    -0.9040  -0.8779  -0.8028  -0.7729  -0.7361  -0.7171  -0.6565  -0.6285
    -0.5881  -0.5532  -0.5245  -0.4672  -0.4412  -0.3997  -0.3649  -0.2602
    -0.2361  -0.1458  -0.0884  -0.0540   0.0043   0.0860   0.1159   0.2228
     0.2483   0.3136   0.3543   0.3923   0.4642   0.4935   0.5237   0.5816
     0.6192   0.9295   0.9745   1.0363   1.0553   1.3540   1.4160   1.4905
     1.5174   1.6970   1.7323   1.7702   1.7856   1.8030   1.8206   1.8895
     1.9330   1.9681   2.0011   2.1024   2.1492   2.1848   2.1946   2.2237
     2.2570   2.2727   2.2846   2.3062   2.3313   2.3732   2.3999   2.4300
     2.4541   2.4798   2.5468   2.6654   2.7642   2.7942   2.8638   2.9062
     2.9621   3.0017   3.0095   3.0176   3.0474   3.0688   3.0820   3.1057
     3.1867   3.2290   3.2434   3.2496   3.2710   3.2928   3.3056   3.3201
     3.3329   3.3535   3.3670   3.3775   3.3856   3.3941   3.4064   3.9307
     3.9616   4.1266   4.1462   4.4201   4.4809   4.5355   4.7335   5.0674
     5.1502   5.2147   5.3340   5.4445   5.7217   5.7672   5.8308   5.9330
     6.0389   6.1416   6.3615   6.4764   6.5615   6.6451   7.1608   7.3597
     7.4990   7.6812   7.9626   8.0501   8.1830   8.2227   8.3174   8.4197
     8.5233   8.6446   8.6912   8.8258   8.8702   8.9018   8.9367

     occupation numbers 
     1.0000   1.0000   1.0000   1.0000   1.0000   1.0000   1.0000   1.0000
     1.0000   1.0000   1.0000   1.0000   1.0000   1.0000   1.0000   1.0000
     1.0000   1.0000   1.0000   1.0000   1.0000   1.0000   1.0000   1.0000
     1.0000   1.0000   1.0000   1.0000   1.0000   1.0000   1.0000   1.0000
     1.0000   1.0000   1.0000   1.0000   1.0000   1.0000   1.0000   1.0000
     1.0000   1.0000   1.0000   1.0000   1.0000   1.0000   1.0000   1.0000
     1.0000   1.0000   1.0000   1.0000   1.0000   1.0000   1.0000   1.0000
     1.0000   1.0000   1.0000   1.0000   1.0000   1.0000   1.0000   1.0000
     1.0000   1.0000   1.0000   1.0000   1.0000   1.0000   1.0000   1.0000
     1.0000   1.0000   1.0000   1.0000   1.0000   1.0000   1.0000   1.0000
     1.0000   1.0000   1.0000   1.0000   1.0000   1.0000   1.0000   1.0000
     1.0000   1.0000   1.0000   1.0000   1.0000   1.0000   1.0000   1.0000
     1.0000   1.0000   1.0000   1.0000   1.0000   1.0000   1.0000   1.0000
     1.0000   1.0000   1.0000   1.0000   1.0000   1.0000   1.0000   1.0000
     1.0000   1.0000   1.0000   1.0000   1.0000   1.0000   1.0000   1.0000
     1.0000   1.0000   1.0000   1.0000   1.0000   1.0000   1.0000   1.0000
     1.0000   1.0000   1.0000   1.0000   1.0000   1.0000   1.0000   1.0000
     1.0000   1.0000   1.0000   1.0000   1.0000   1.0000   1.0000   1.0000
     1.0000   1.0000   1.0000   1.0000   1.0000   1.0000   1.0000   1.0000
     1.0000   1.0000   1.0000   1.0000   1.0000   1.0000   1.0000   1.0000
     1.0000   1.0000   1.0000   1.0000   1.0000   0.9997   0.9996   0.9994
     0.9993   0.9984   0.9981   0.9977   0.9975   0.9973   0.9971   0.9961
     0.9953   0.9945   0.9937   0.9904   0.9885   0.9868   0.9863   0.9847
     0.9827   0.9817   0.9809   0.9793   0.9774   0.9739   0.9714   0.9683
     0.9657   0.9627   0.9538   0.9341   0.9131   0.9059   0.8873   0.8748
     0.8569   0.8431   0.8404   0.8374   0.8263   0.8180   0.8128   0.8032
     0.7682   0.7486   0.7417   0.7387   0.7283   0.7174   0.7110   0.7036
     0.6970   0.6862   0.6791   0.6734   0.6691   0.6645   0.6579   0.3550
     0.3381   0.2537   0.2445   0.1360   0.1172   0.1020   0.0589   0.0197
     0.0145   0.0113   0.0070   0.0044   0.0012   0.0010   0.0007   0.0004
     0.0002   0.0001   0.0000   0.0000   0.0000   0.0000   0.0000   0.0000
     0.0000   0.0000   0.0000   0.0000   0.0000   0.0000   0.0000   0.0000
     0.0000   0.0000   0.0000   0.0000   0.0000   0.0000   0.0000

     the Fermi energy is     3.6802 ev

!    total energy              =   -4482.97635154 Ry
     estimated scf accuracy    <          6.3E-09 Ry
     smearing contrib. (-TS)   =      -1.17206393 Ry
     internal energy E=F+TS    =   -4481.80428761 Ry

     The total energy is F=E-TS. E is the sum of the following terms:
     one-electron contribution =  -20250.88311531 Ry
     hartree contribution      =   10264.98826795 Ry
     xc contribution           =    -701.58469383 Ry
     ewald contribution        =    6491.33029999 Ry
     one-center paw contrib.   =    -285.65504642 Ry
      -> PAW hartree energy AE =      25.18350088 Ry
      -> PAW hartree energy PS =     -25.06720881 Ry
      -> PAW xc energy AE      =     -16.52036196 Ry
      -> PAW xc energy PS      =       6.87998477 Ry
      -> total E_H with PAW    =   10265.10456002 Ry
      -> total E_XC with PAW   =    -711.22507102 Ry

     convergence has been achieved in  50 iterations

     Writing all to output data dir /bsuhome/zayahcortright/scratch/pwscf.save/
 
     init_run     :      8.77s CPU      9.47s WALL (       1 calls)
     electrons    :    766.18s CPU    778.90s WALL (       1 calls)

     Called by init_run:
     wfcinit      :      6.54s CPU      6.70s WALL (       1 calls)
     wfcinit:atom :      0.05s CPU      0.06s WALL (       5 calls)
     wfcinit:wfcr :      6.21s CPU      6.32s WALL (       5 calls)
     potinit      :      0.19s CPU      0.21s WALL (       1 calls)
     hinit0       :      0.94s CPU      1.38s WALL (       1 calls)

     Called by electrons:
     c_bands      :    608.07s CPU    613.20s WALL (      50 calls)
     sum_band     :    116.46s CPU    120.80s WALL (      50 calls)
     v_of_rho     :      5.54s CPU      5.87s WALL (      51 calls)
     v_h          :      0.49s CPU      0.49s WALL (      51 calls)
     v_xc         :      5.05s CPU      5.38s WALL (      51 calls)
     newd         :     21.33s CPU     23.81s WALL (      51 calls)
     PAW_pot      :      1.63s CPU      1.66s WALL (      51 calls)
     mix_rho      :     12.78s CPU     13.06s WALL (      50 calls)

     Called by c_bands:
     init_us_2    :      7.44s CPU      7.49s WALL (     505 calls)
     init_us_2:cp :      7.44s CPU      7.49s WALL (     505 calls)
     cegterg      :    574.10s CPU    579.05s WALL (     250 calls)

     Called by sum_band:
     sum_band:wei :      0.37s CPU      0.38s WALL (      50 calls)
     sum_band:loo :     92.98s CPU     93.69s WALL (      50 calls)
     sum_band:buf :      1.63s CPU      1.65s WALL (     250 calls)
     sum_band:ini :      3.37s CPU      3.38s WALL (     250 calls)
     sum_band:cal :     20.69s CPU     20.75s WALL (     250 calls)
     sum_band:bec :      0.65s CPU      0.66s WALL (     250 calls)
     addusdens    :     18.46s CPU     22.04s WALL (      50 calls)
                                        0.00s GPU  (      50 calls)
     addusd:skk   :      0.36s CPU      0.74s WALL (     200 calls)
                                        0.00s GPU  (     200 calls)

     Called by *egterg:
     cdiaghg      :     64.66s CPU     64.93s WALL (    1466 calls)
     cegterg:over :     43.73s CPU     43.92s WALL (    1216 calls)
     cegterg:upda :     32.10s CPU     32.44s WALL (    1216 calls)
     cegterg:last :     66.02s CPU     66.20s WALL (     465 calls)
     cdiaghg:chol :      3.85s CPU      3.87s WALL (    1466 calls)
     cdiaghg:inve :      4.10s CPU      4.11s WALL (    1466 calls)
     cdiaghg:para :      8.21s CPU      8.26s WALL (    2932 calls)
     h_psi        :    306.46s CPU    309.38s WALL (    1471 calls)
     s_psi        :     43.06s CPU     43.18s WALL (    1471 calls)
     g_psi        :      1.11s CPU      1.12s WALL (    1216 calls)

     Called by h_psi:
     h_psi:calbec :     48.08s CPU     48.25s WALL (    1471 calls)
     vloc_psi     :    211.99s CPU    214.15s WALL (    1471 calls)
     add_vuspsi   :     43.14s CPU     43.30s WALL (    1471 calls)

     General routines
     calbec       :     68.76s CPU     68.99s WALL (    1721 calls)
     fft          :      6.12s CPU      6.16s WALL (     661 calls)
     ffts         :      4.87s CPU      4.91s WALL (    5212 calls)
     fftw         :    181.39s CPU    183.02s WALL (  344530 calls)
     interpolate  :      0.44s CPU      0.45s WALL (      51 calls)
 
     Parallel routines

     PAW routines
     PAW_pot      :      1.63s CPU      1.66s WALL (      51 calls)
 
     PWSCF        :  12m56.53s CPU  13m13.20s WALL

 
   This run was terminated on:  20:34: 8  20Jun2024            

=------------------------------------------------------------------------------=
   JOB DONE.
=------------------------------------------------------------------------------=
