
     Program PWSCF v.7.2 starts on 21Jun2024 at 14:22:45 

     This program is part of the open-source Quantum ESPRESSO suite
     for quantum simulation of materials; please cite
         "P. Giannozzi et al., J. Phys.:Condens. Matter 21 395502 (2009);
         "P. Giannozzi et al., J. Phys.:Condens. Matter 29 465901 (2017);
         "P. Giannozzi et al., J. Chem. Phys. 152 154105 (2020);
          URL http://www.quantum-espresso.org", 
     in publications or presentations arising from this work. More details at
     http://www.quantum-espresso.org/quote

     Parallel version (MPI & OpenMP), running on      48 processor cores
     Number of MPI processes:                48
     Threads/MPI process:                     1

     MPI processes distributed on     1 nodes
     180170 MiB available memory on the printing compute node when the environment starts
 
     Reading input from espresso.pwi
Warning: card &CELL ignored
Warning: card / ignored
Warning: card &FCP ignored
Warning: card / ignored
Warning: card &RISM ignored
Warning: card / ignored

     Current dimensions of program PWSCF are:
     Max number of different atomic species (ntypx) = 10
     Max number of k-points (npk) =  40000
     Max angular momentum in pseudopotentials (lmaxx) =  4
     file O.pbe-n-kjpaw_psl.0.1.UPF: wavefunction(s)  2P renormalized
     signal trapping enabled: kill the code with -SIGUSR1 to stop cleanly the simulation 
 
     K-points division:     npool     =       2
     R & G space division:  proc/nbgrp/npool/nimage =      24
     Subspace diagonalization in iterative solution of the eigenvalue problem:
     one sub-group per band group will be used
     scalapack distributed-memory algorithm (size of sub-group:  3*  3 procs)

 
     Parallelization info
     --------------------
     sticks:   dense  smooth     PW     G-vecs:    dense   smooth      PW
     Min         350     175     47                61430    21716    3036
     Max         351     177     48                61449    21727    3041
     Sum        8421    4205   1137              1474595   521381   72913
 
     Using Slab Decomposition
 


     bravais-lattice index     =            0
     lattice parameter (alat)  =      14.8599  a.u.
     unit-cell volume          =    8305.1283 (a.u.)^3
     number of atoms/cell      =           49
     number of atomic types    =            4
     number of electrons       =       425.00
     number of Kohn-Sham states=          256
     kinetic-energy cutoff     =      60.0000  Ry
     charge density cutoff     =     480.0000  Ry
     scf convergence threshold =      1.0E-08
     mixing beta               =       0.1500
     number of iterations used =            8  local-TF  mixing
     Exchange-correlation= PBE
                           (   1   4   3   4   0   0   0)

     celldm(1)=  14.859904  celldm(2)=   0.000000  celldm(3)=   0.000000
     celldm(4)=   0.000000  celldm(5)=   0.000000  celldm(6)=   0.000000

     crystal axes: (cart. coord. in units of alat)
               a(1) = (   1.000000   0.000000   0.000000 )  
               a(2) = (   0.000000   1.000000   0.000000 )  
               a(3) = (   0.000000   0.000000   2.531036 )  

     reciprocal axes: (cart. coord. in units 2 pi/alat)
               b(1) = (  1.000000  0.000000  0.000000 )  
               b(2) = (  0.000000  1.000000  0.000000 )  
               b(3) = (  0.000000  0.000000  0.395095 )  


     PseudoPot. # 1 for Sr read from file:
     /bsuhome/zayahcortright/q-e/pseudo/Sr_pbe_v1.uspp.F.UPF
     MD5 check sum: 6b418c05fbe9db5448babca5e47b7a5b
     Pseudo is Ultrasoft + core correction, Zval = 10.0
     Generated by new atomic code, or converted to UPF format
     Using radial grid of  883 points,  6 beta functions with: 
                l(1) =   0
                l(2) =   0
                l(3) =   1
                l(4) =   1
                l(5) =   2
                l(6) =   2
     Q(r) pseudized with  6 coefficients,  rinner =    1.400   1.400   1.400
                                                       1.400   1.400

     PseudoPot. # 2 for O  read from file:
     /bsuhome/zayahcortright/q-e/pseudo/O.pbe-n-kjpaw_psl.0.1.UPF
     MD5 check sum: 0234752ac141de4415c5fc33072bef88
     Pseudo is Projector augmented-wave + core cor, Zval =  6.0
     Generated using "atomic" code by A. Dal Corso  v.5.0.99 svn rev. 10869
     Shape of augmentation charge: BESSEL
     Using radial grid of 1095 points,  4 beta functions with: 
                l(1) =   0
                l(2) =   0
                l(3) =   1
                l(4) =   1
     Q(r) pseudized with 0 coefficients 


     PseudoPot. # 3 for Co read from file:
     /bsuhome/zayahcortright/q-e/pseudo/Co_pbe_v1.2.uspp.F.UPF
     MD5 check sum: 5f91765df6ddd3222702df6e7b74a16d
     Pseudo is Ultrasoft + core correction, Zval = 17.0
     Generated by new atomic code, or converted to UPF format
     Using radial grid of  863 points,  6 beta functions with: 
                l(1) =   0
                l(2) =   0
                l(3) =   1
                l(4) =   1
                l(5) =   2
                l(6) =   2
     Q(r) pseudized with  8 coefficients,  rinner =    1.200   1.200   1.200
                                                       1.200   1.200

     PseudoPot. # 4 for H  read from file:
     /bsuhome/zayahcortright/q-e/pseudo/H.pbe-rrkjus_psl.1.0.0.UPF
     MD5 check sum: f52b6d4d1c606e5624b1dc7b2218f220
     Pseudo is Ultrasoft, Zval =  1.0
     Generated using "atomic" code by A. Dal Corso  v.5.1
     Using radial grid of  929 points,  2 beta functions with: 
                l(1) =   0
                l(2) =   0
     Q(r) pseudized with 0 coefficients 


     atomic species   valence    mass     pseudopotential
        Sr            10.00    87.62000     Sr( 1.00)
        O              6.00    15.99900     O ( 1.00)
        Co            17.00    58.93319     Co( 1.00)
        H              1.00     1.00800     H ( 1.00)

     No symmetry found


                                    s                        frac. trans.

      isym =  1     identity                                     

 cryst.   s( 1) = (     1          0          0      )
                  (     0          1          0      )
                  (     0          0          1      )

 cart.    s( 1) = (  1.0000000  0.0000000  0.0000000 )
                  (  0.0000000  1.0000000  0.0000000 )
                  (  0.0000000  0.0000000  1.0000000 )


   Cartesian axes

     site n.     atom                  positions (alat units)
         1           Sr  tau(   1) = (   0.2508693   0.7491307   1.7574407  )
         2           O   tau(   2) = (   0.4985141   0.5014859   1.7715967  )
         3           Sr  tau(   3) = (   0.7482398   0.7454518   1.7648669  )
         4           Sr  tau(   4) = (   0.7441748   0.2558252   1.7667843  )
         5           Sr  tau(   5) = (   0.2508693   0.7491307   1.2696799  )
         6           Sr  tau(   6) = (   0.2508693   0.7491307   0.7632319  )
         7           Co  tau(   7) = (   0.4998914   0.5001086   1.0164559  )
         8           Co  tau(   8) = (   0.4936915   0.5063085   1.5135603  )
         9           O   tau(   9) = (   0.4988895   0.7610401   1.0164559  )
        10           O   tau(  10) = (   0.2389599   0.5011105   1.0164559  )
        11           O   tau(  11) = (   0.0070918   0.7374880   1.0164559  )
        12           O   tau(  12) = (   0.0088340   0.7405089   1.5135603  )
        13           O   tau(  13) = (   0.5066944   0.7415376   1.5135603  )
        14           O   tau(  14) = (   0.2584624   0.4933056   1.5135603  )
        15           O   tau(  15) = (   0.4985141   0.5014859   0.7773880  )
        16           O   tau(  16) = (   0.4985141   0.5014859   1.2555238  )
        17           Sr  tau(  17) = (   0.7482398   0.7454518   0.7706582  )
        18           Sr  tau(  18) = (   0.7482398   0.7454518   1.2622536  )
        19           Sr  tau(  19) = (   0.7441748   0.2558252   0.7725755  )
        20           Sr  tau(  20) = (   0.7441748   0.2558252   1.2603363  )
        21           O   tau(  21) = (   0.7322655   0.0078049   1.5135603  )
        22           O   tau(  22) = (   0.7558175   0.4996027   1.5135603  )
        23           O   tau(  23) = (   0.5003973   0.2441825   1.5135603  )
        24           O   tau(  24) = (   0.7527966   0.4978604   1.0164559  )
        25           O   tau(  25) = (   0.5021396   0.2472034   1.0164559  )
        26           O   tau(  26) = (   0.7517679   0.0000000   1.0164559  )
        27           O   tau(  27) = (   0.0114961   0.4948124   1.7455321  )
        28           O   tau(  28) = (   0.0048226   0.0077944   1.7715967  )
        29           Sr  tau(  29) = (   0.2545482   0.2517602   1.7648669  )
        30           O   tau(  30) = (   0.5048017   0.0015068   1.7786929  )
        31           Co  tau(  31) = (   0.0056869   0.5006215   1.0164559  )
        32           Co  tau(  32) = (   0.0065315   0.4997770   1.5135603  )
        33           Co  tau(  33) = (   0.0061999   0.0064171   1.0164559  )
        34           Co  tau(  34) = (   0.0000000   0.0126169   1.5135603  )
        35           O   tau(  35) = (   0.0114961   0.4948124   1.2815885  )
        36           O   tau(  36) = (   0.0114961   0.4948124   0.7513233  )
        37           O   tau(  37) = (   0.0051979   0.2673486   1.0164559  )
        38           O   tau(  38) = (   0.0130029   0.2478461   1.5135603  )
        39           O   tau(  39) = (   0.0048226   0.0077944   0.7773880  )
        40           O   tau(  40) = (   0.0048226   0.0077944   1.2555238  )
        41           Sr  tau(  41) = (   0.2545482   0.2517602   0.7706582  )
        42           Sr  tau(  42) = (   0.2545482   0.2517602   1.2622536  )
        43           Co  tau(  43) = (   0.4989925   0.0073160   1.5135603  )
        44           Co  tau(  44) = (   0.4998370   0.0064714   1.0164559  )
        45           O   tau(  45) = (   0.5048017   0.0015068   0.7844841  )
        46           O   tau(  46) = (   0.5048017   0.0015068   1.2484277  )
        47           O   tau(  47) = (   0.2621260   0.0059111   1.5135603  )
        48           O   tau(  48) = (   0.2591051   0.0041689   1.0164559  )
        49           H   tau(  49) = (   0.1421646   0.5686583   2.1602013  )

   Crystallographic axes

     site n.     atom                  positions (cryst. coord.)
         1           Sr  tau(   1) = (  0.2508693  0.7491307  0.6943562  )
         2           O   tau(   2) = (  0.4985141  0.5014859  0.6999492  )
         3           Sr  tau(   3) = (  0.7482398  0.7454518  0.6972903  )
         4           Sr  tau(   4) = (  0.7441748  0.2558252  0.6980478  )
         5           Sr  tau(   5) = (  0.2508693  0.7491307  0.5016443  )
         6           Sr  tau(   6) = (  0.2508693  0.7491307  0.3015492  )
         7           Co  tau(   7) = (  0.4998914  0.5001086  0.4015968  )
         8           Co  tau(   8) = (  0.4936915  0.5063085  0.5980003  )
         9           O   tau(   9) = (  0.4988895  0.7610401  0.4015968  )
        10           O   tau(  10) = (  0.2389599  0.5011105  0.4015968  )
        11           O   tau(  11) = (  0.0070918  0.7374880  0.4015968  )
        12           O   tau(  12) = (  0.0088340  0.7405089  0.5980003  )
        13           O   tau(  13) = (  0.5066944  0.7415376  0.5980003  )
        14           O   tau(  14) = (  0.2584624  0.4933056  0.5980003  )
        15           O   tau(  15) = (  0.4985141  0.5014859  0.3071422  )
        16           O   tau(  16) = (  0.4985141  0.5014859  0.4960513  )
        17           Sr  tau(  17) = (  0.7482398  0.7454518  0.3044833  )
        18           Sr  tau(  18) = (  0.7482398  0.7454518  0.4987103  )
        19           Sr  tau(  19) = (  0.7441748  0.2558252  0.3052408  )
        20           Sr  tau(  20) = (  0.7441748  0.2558252  0.4979527  )
        21           O   tau(  21) = (  0.7322655  0.0078049  0.5980003  )
        22           O   tau(  22) = (  0.7558175  0.4996027  0.5980003  )
        23           O   tau(  23) = (  0.5003973  0.2441825  0.5980003  )
        24           O   tau(  24) = (  0.7527966  0.4978604  0.4015968  )
        25           O   tau(  25) = (  0.5021396  0.2472034  0.4015968  )
        26           O   tau(  26) = (  0.7517679  0.0000000  0.4015968  )
        27           O   tau(  27) = (  0.0114961  0.4948124  0.6896512  )
        28           O   tau(  28) = (  0.0048226  0.0077944  0.6999492  )
        29           Sr  tau(  29) = (  0.2545482  0.2517602  0.6972903  )
        30           O   tau(  30) = (  0.5048017  0.0015068  0.7027529  )
        31           Co  tau(  31) = (  0.0056869  0.5006215  0.4015968  )
        32           Co  tau(  32) = (  0.0065315  0.4997770  0.5980003  )
        33           Co  tau(  33) = (  0.0061999  0.0064171  0.4015968  )
        34           Co  tau(  34) = (  0.0000000  0.0126169  0.5980003  )
        35           O   tau(  35) = (  0.0114961  0.4948124  0.5063494  )
        36           O   tau(  36) = (  0.0114961  0.4948124  0.2968442  )
        37           O   tau(  37) = (  0.0051979  0.2673486  0.4015968  )
        38           O   tau(  38) = (  0.0130029  0.2478461  0.5980003  )
        39           O   tau(  39) = (  0.0048226  0.0077944  0.3071422  )
        40           O   tau(  40) = (  0.0048226  0.0077944  0.4960513  )
        41           Sr  tau(  41) = (  0.2545482  0.2517602  0.3044833  )
        42           Sr  tau(  42) = (  0.2545482  0.2517602  0.4987103  )
        43           Co  tau(  43) = (  0.4989925  0.0073160  0.5980003  )
        44           Co  tau(  44) = (  0.4998370  0.0064714  0.4015968  )
        45           O   tau(  45) = (  0.5048017  0.0015068  0.3099459  )
        46           O   tau(  46) = (  0.5048017  0.0015068  0.4932477  )
        47           O   tau(  47) = (  0.2621260  0.0059111  0.5980003  )
        48           O   tau(  48) = (  0.2591051  0.0041689  0.4015968  )
        49           H   tau(  49) = (  0.1421646  0.5686583  0.8534850  )

     number of k points=    10  Gaussian smearing, width (Ry)=  0.0700
                       cart. coord. in units 2pi/alat
        k(    1) = (   0.0000000   0.0000000   0.0000000), wk =   0.1250000
        k(    2) = (   0.0000000   0.2500000   0.0000000), wk =   0.2500000
        k(    3) = (   0.0000000  -0.5000000   0.0000000), wk =   0.1250000
        k(    4) = (   0.2500000   0.2500000   0.0000000), wk =   0.2500000
        k(    5) = (   0.2500000  -0.5000000   0.0000000), wk =   0.2500000
        k(    6) = (  -0.5000000  -0.5000000   0.0000000), wk =   0.1250000
        k(    7) = (   0.2500000   0.0000000   0.0000000), wk =   0.2500000
        k(    8) = (  -0.5000000   0.0000000   0.0000000), wk =   0.1250000
        k(    9) = (  -0.2500000   0.2500000   0.0000000), wk =   0.2500000
        k(   10) = (  -0.5000000   0.2500000   0.0000000), wk =   0.2500000

                       cryst. coord.
        k(    1) = (   0.0000000   0.0000000   0.0000000), wk =   0.1250000
        k(    2) = (   0.0000000   0.2500000   0.0000000), wk =   0.2500000
        k(    3) = (   0.0000000  -0.5000000   0.0000000), wk =   0.1250000
        k(    4) = (   0.2500000   0.2500000   0.0000000), wk =   0.2500000
        k(    5) = (   0.2500000  -0.5000000   0.0000000), wk =   0.2500000
        k(    6) = (  -0.5000000  -0.5000000   0.0000000), wk =   0.1250000
        k(    7) = (   0.2500000   0.0000000   0.0000000), wk =   0.2500000
        k(    8) = (  -0.5000000   0.0000000   0.0000000), wk =   0.1250000
        k(    9) = (  -0.2500000   0.2500000   0.0000000), wk =   0.2500000
        k(   10) = (  -0.5000000   0.2500000   0.0000000), wk =   0.2500000

     Dense  grid:  1474595 G-vectors     FFT dimensions: ( 108, 108, 270)

     Smooth grid:   521381 G-vectors     FFT dimensions: (  75,  75, 192)

     Dynamical RAM for                 wfc:      10.61 MB

     Dynamical RAM for     wfc (w. buffer):      63.63 MB

     Dynamical RAM for           str. fact:       3.75 MB

     Dynamical RAM for           local pot:       0.00 MB

     Dynamical RAM for          nlocal pot:      24.28 MB

     Dynamical RAM for                qrad:       7.03 MB

     Dynamical RAM for          rho,v,vnew:       6.02 MB

     Dynamical RAM for               rhoin:       2.01 MB

     Dynamical RAM for            rho*nmix:      15.00 MB

     Dynamical RAM for           G-vectors:       3.68 MB

     Dynamical RAM for          h,s,v(r/c):       1.32 MB

     Dynamical RAM for          <psi|beta>:       2.29 MB

     Dynamical RAM for                 psi:      21.21 MB

     Dynamical RAM for                hpsi:      21.21 MB

     Dynamical RAM for                spsi:      21.21 MB

     Dynamical RAM for      wfcinit/wfcrot:      34.09 MB

     Dynamical RAM for           addusdens:     100.79 MB

     Estimated static dynamical RAM per process >     120.42 MB

     Estimated max dynamical RAM per process >     236.21 MB

     Estimated total dynamical RAM >      10.72 GB

     Check: negative core charge=   -0.000004

     Initial potential from superposition of free atoms

     starting charge     416.5961, renormalised to     425.0000

     negative rho (up, down):  7.826E-01 0.000E+00
     Starting wfcs are  373 randomized atomic wfcs
     Checking if some PAW data can be deallocated... 
       PAW data deallocated on   20 nodes for type:  2

     total cpu time spent up to now is        9.0 secs

     Self-consistent Calculation

     iteration #  1     ecut=    60.00 Ry     beta= 0.15
     Davidson diagonalization with overlap

---- Real-time Memory Report at c_bands before calling an iterative solver
             0 MiB given to the printing process from OS
             0 MiB allocation reported by mallinfo(arena+hblkhd)
        170493 MiB available memory on the node where the printing process lives
------------------
     ethr =  1.00E-02,  avg # of iterations =  2.0

     negative rho (up, down):  7.718E-01 0.000E+00

     total cpu time spent up to now is       23.2 secs

     total energy              =   -4404.76909447 Ry
     estimated scf accuracy    <      42.20844981 Ry

     iteration #  2     ecut=    60.00 Ry     beta= 0.15
     Davidson diagonalization with overlap

---- Real-time Memory Report at c_bands before calling an iterative solver
             0 MiB given to the printing process from OS
             0 MiB allocation reported by mallinfo(arena+hblkhd)
        170713 MiB available memory on the node where the printing process lives
------------------
     ethr =  9.93E-03,  avg # of iterations =  1.0

     negative rho (up, down):  7.533E-01 0.000E+00

     total cpu time spent up to now is       35.2 secs

     total energy              =   -4400.03311421 Ry
     estimated scf accuracy    <      26.69188984 Ry

     iteration #  3     ecut=    60.00 Ry     beta= 0.15
     Davidson diagonalization with overlap

---- Real-time Memory Report at c_bands before calling an iterative solver
             0 MiB given to the printing process from OS
             0 MiB allocation reported by mallinfo(arena+hblkhd)
        169971 MiB available memory on the node where the printing process lives
------------------
     ethr =  6.28E-03,  avg # of iterations =  2.0

     negative rho (up, down):  7.545E-01 0.000E+00

     total cpu time spent up to now is       48.5 secs

     total energy              =   -4402.38964323 Ry
     estimated scf accuracy    <      49.17282600 Ry

     iteration #  4     ecut=    60.00 Ry     beta= 0.15
     Davidson diagonalization with overlap

---- Real-time Memory Report at c_bands before calling an iterative solver
             0 MiB given to the printing process from OS
             0 MiB allocation reported by mallinfo(arena+hblkhd)
        169836 MiB available memory on the node where the printing process lives
------------------
     ethr =  6.28E-03,  avg # of iterations =  1.0

     negative rho (up, down):  7.411E-01 0.000E+00

     total cpu time spent up to now is       60.6 secs

     total energy              =   -4401.65325934 Ry
     estimated scf accuracy    <      29.27609117 Ry

     iteration #  5     ecut=    60.00 Ry     beta= 0.15
     Davidson diagonalization with overlap

---- Real-time Memory Report at c_bands before calling an iterative solver
             0 MiB given to the printing process from OS
             0 MiB allocation reported by mallinfo(arena+hblkhd)
        169816 MiB available memory on the node where the printing process lives
------------------
     ethr =  6.28E-03,  avg # of iterations =  1.0

     negative rho (up, down):  7.471E-01 0.000E+00

     total cpu time spent up to now is       72.6 secs

     total energy              =   -4399.81915595 Ry
     estimated scf accuracy    <      44.15494527 Ry

     iteration #  6     ecut=    60.00 Ry     beta= 0.15
     Davidson diagonalization with overlap

---- Real-time Memory Report at c_bands before calling an iterative solver
             0 MiB given to the printing process from OS
             0 MiB allocation reported by mallinfo(arena+hblkhd)
        169802 MiB available memory on the node where the printing process lives
------------------
     ethr =  6.28E-03,  avg # of iterations =  1.0

     negative rho (up, down):  7.421E-01 0.000E+00

     total cpu time spent up to now is       84.9 secs

     total energy              =   -4400.64221603 Ry
     estimated scf accuracy    <      12.03392338 Ry

     iteration #  7     ecut=    60.00 Ry     beta= 0.15
     Davidson diagonalization with overlap

---- Real-time Memory Report at c_bands before calling an iterative solver
             0 MiB given to the printing process from OS
             0 MiB allocation reported by mallinfo(arena+hblkhd)
        169772 MiB available memory on the node where the printing process lives
------------------
     ethr =  2.83E-03,  avg # of iterations =  1.1

     negative rho (up, down):  7.443E-01 0.000E+00

     total cpu time spent up to now is       97.0 secs

     total energy              =   -4400.81124802 Ry
     estimated scf accuracy    <       4.10128987 Ry

     iteration #  8     ecut=    60.00 Ry     beta= 0.15
     Davidson diagonalization with overlap

---- Real-time Memory Report at c_bands before calling an iterative solver
             0 MiB given to the printing process from OS
             0 MiB allocation reported by mallinfo(arena+hblkhd)
        169754 MiB available memory on the node where the printing process lives
------------------
     ethr =  9.65E-04,  avg # of iterations =  1.6

     negative rho (up, down):  7.543E-01 0.000E+00

     total cpu time spent up to now is      109.4 secs

     total energy              =   -4400.29793630 Ry
     estimated scf accuracy    <       3.45270473 Ry

     iteration #  9     ecut=    60.00 Ry     beta= 0.15
     Davidson diagonalization with overlap

---- Real-time Memory Report at c_bands before calling an iterative solver
             0 MiB given to the printing process from OS
             0 MiB allocation reported by mallinfo(arena+hblkhd)
        169740 MiB available memory on the node where the printing process lives
------------------
     ethr =  8.12E-04,  avg # of iterations =  4.5

     negative rho (up, down):  7.760E-01 0.000E+00

     total cpu time spent up to now is      124.5 secs

     total energy              =   -4399.82189750 Ry
     estimated scf accuracy    <      45.54238697 Ry

     iteration # 10     ecut=    60.00 Ry     beta= 0.15
     Davidson diagonalization with overlap

---- Real-time Memory Report at c_bands before calling an iterative solver
             0 MiB given to the printing process from OS
             0 MiB allocation reported by mallinfo(arena+hblkhd)
        169623 MiB available memory on the node where the printing process lives
------------------
     ethr =  8.12E-04,  avg # of iterations =  9.6

     negative rho (up, down):  7.787E-01 0.000E+00

     total cpu time spent up to now is      142.4 secs

     total energy              =   -4399.78611502 Ry
     estimated scf accuracy    <      11.67445025 Ry

     iteration # 11     ecut=    60.00 Ry     beta= 0.15
     Davidson diagonalization with overlap

---- Real-time Memory Report at c_bands before calling an iterative solver
             0 MiB given to the printing process from OS
             0 MiB allocation reported by mallinfo(arena+hblkhd)
        169276 MiB available memory on the node where the printing process lives
------------------
     ethr =  8.12E-04,  avg # of iterations =  1.0

     negative rho (up, down):  7.815E-01 0.000E+00

     total cpu time spent up to now is      154.3 secs

     total energy              =   -4400.12034972 Ry
     estimated scf accuracy    <       1.14219582 Ry

     iteration # 12     ecut=    60.00 Ry     beta= 0.15
     Davidson diagonalization with overlap

---- Real-time Memory Report at c_bands before calling an iterative solver
             0 MiB given to the printing process from OS
             0 MiB allocation reported by mallinfo(arena+hblkhd)
        169289 MiB available memory on the node where the printing process lives
------------------
     ethr =  2.69E-04,  avg # of iterations =  3.6

     negative rho (up, down):  7.900E-01 0.000E+00

     total cpu time spent up to now is      168.2 secs

     total energy              =   -4400.09659012 Ry
     estimated scf accuracy    <       0.76878373 Ry

     iteration # 13     ecut=    60.00 Ry     beta= 0.15
     Davidson diagonalization with overlap

---- Real-time Memory Report at c_bands before calling an iterative solver
             0 MiB given to the printing process from OS
             0 MiB allocation reported by mallinfo(arena+hblkhd)
        169306 MiB available memory on the node where the printing process lives
------------------
     ethr =  1.81E-04,  avg # of iterations =  4.1

     negative rho (up, down):  8.001E-01 0.000E+00

     total cpu time spent up to now is      182.3 secs

     total energy              =   -4400.09493296 Ry
     estimated scf accuracy    <       1.54075853 Ry

     iteration # 14     ecut=    60.00 Ry     beta= 0.15
     Davidson diagonalization with overlap

---- Real-time Memory Report at c_bands before calling an iterative solver
             0 MiB given to the printing process from OS
             0 MiB allocation reported by mallinfo(arena+hblkhd)
        169302 MiB available memory on the node where the printing process lives
------------------
     ethr =  1.81E-04,  avg # of iterations =  8.0

     negative rho (up, down):  8.059E-01 0.000E+00

     total cpu time spent up to now is      198.5 secs

     total energy              =   -4400.01647586 Ry
     estimated scf accuracy    <       1.62996335 Ry

     iteration # 15     ecut=    60.00 Ry     beta= 0.15
     Davidson diagonalization with overlap

---- Real-time Memory Report at c_bands before calling an iterative solver
             0 MiB given to the printing process from OS
             0 MiB allocation reported by mallinfo(arena+hblkhd)
        169309 MiB available memory on the node where the printing process lives
------------------
     ethr =  1.81E-04,  avg # of iterations =  4.5

     negative rho (up, down):  8.087E-01 0.000E+00

     total cpu time spent up to now is      212.7 secs

     total energy              =   -4400.04859914 Ry
     estimated scf accuracy    <       0.36640206 Ry

     iteration # 16     ecut=    60.00 Ry     beta= 0.15
     Davidson diagonalization with overlap

---- Real-time Memory Report at c_bands before calling an iterative solver
             0 MiB given to the printing process from OS
             0 MiB allocation reported by mallinfo(arena+hblkhd)
        169308 MiB available memory on the node where the printing process lives
------------------
     c_bands:  1 eigenvalues not converged
     ethr =  8.62E-05,  avg # of iterations =  6.5

     negative rho (up, down):  8.128E-01 0.000E+00

     total cpu time spent up to now is      227.9 secs

     total energy              =   -4400.01460299 Ry
     estimated scf accuracy    <       0.31130735 Ry

     iteration # 17     ecut=    60.00 Ry     beta= 0.15
     Davidson diagonalization with overlap

---- Real-time Memory Report at c_bands before calling an iterative solver
             0 MiB given to the printing process from OS
             0 MiB allocation reported by mallinfo(arena+hblkhd)
        169289 MiB available memory on the node where the printing process lives
------------------
     ethr =  7.32E-05,  avg # of iterations =  7.8

     negative rho (up, down):  8.182E-01 0.000E+00

     total cpu time spent up to now is      244.1 secs

     total energy              =   -4399.95031072 Ry
     estimated scf accuracy    <       0.25045722 Ry

     iteration # 18     ecut=    60.00 Ry     beta= 0.15
     Davidson diagonalization with overlap

---- Real-time Memory Report at c_bands before calling an iterative solver
             0 MiB given to the printing process from OS
             0 MiB allocation reported by mallinfo(arena+hblkhd)
        169289 MiB available memory on the node where the printing process lives
------------------
     ethr =  5.89E-05,  avg # of iterations = 12.4

     negative rho (up, down):  8.198E-01 0.000E+00

     total cpu time spent up to now is      263.2 secs

     total energy              =   -4399.95066533 Ry
     estimated scf accuracy    <       0.11593495 Ry

     iteration # 19     ecut=    60.00 Ry     beta= 0.15
     Davidson diagonalization with overlap

---- Real-time Memory Report at c_bands before calling an iterative solver
             0 MiB given to the printing process from OS
             0 MiB allocation reported by mallinfo(arena+hblkhd)
        169178 MiB available memory on the node where the printing process lives
------------------
     ethr =  2.73E-05,  avg # of iterations =  5.5

     negative rho (up, down):  8.173E-01 0.000E+00

     total cpu time spent up to now is      278.0 secs

     total energy              =   -4399.93354893 Ry
     estimated scf accuracy    <       0.10070809 Ry

     iteration # 20     ecut=    60.00 Ry     beta= 0.15
     Davidson diagonalization with overlap

---- Real-time Memory Report at c_bands before calling an iterative solver
             0 MiB given to the printing process from OS
             0 MiB allocation reported by mallinfo(arena+hblkhd)
        169190 MiB available memory on the node where the printing process lives
------------------
     ethr =  2.37E-05,  avg # of iterations =  7.1

     negative rho (up, down):  8.152E-01 0.000E+00

     total cpu time spent up to now is      294.1 secs

     total energy              =   -4399.92641816 Ry
     estimated scf accuracy    <       0.06025095 Ry

     iteration # 21     ecut=    60.00 Ry     beta= 0.15
     Davidson diagonalization with overlap

---- Real-time Memory Report at c_bands before calling an iterative solver
             0 MiB given to the printing process from OS
             0 MiB allocation reported by mallinfo(arena+hblkhd)
        169151 MiB available memory on the node where the printing process lives
------------------
     ethr =  1.42E-05,  avg # of iterations = 11.6

     negative rho (up, down):  8.080E-01 0.000E+00

     total cpu time spent up to now is      312.2 secs

     total energy              =   -4399.92413702 Ry
     estimated scf accuracy    <       0.03897446 Ry

     iteration # 22     ecut=    60.00 Ry     beta= 0.15
     Davidson diagonalization with overlap

---- Real-time Memory Report at c_bands before calling an iterative solver
             0 MiB given to the printing process from OS
             0 MiB allocation reported by mallinfo(arena+hblkhd)
        169126 MiB available memory on the node where the printing process lives
------------------
     ethr =  9.17E-06,  avg # of iterations =  2.0

     negative rho (up, down):  8.040E-01 0.000E+00

     total cpu time spent up to now is      325.7 secs

     total energy              =   -4399.92134670 Ry
     estimated scf accuracy    <       0.02631173 Ry

     iteration # 23     ecut=    60.00 Ry     beta= 0.15
     Davidson diagonalization with overlap

---- Real-time Memory Report at c_bands before calling an iterative solver
             0 MiB given to the printing process from OS
             0 MiB allocation reported by mallinfo(arena+hblkhd)
        169146 MiB available memory on the node where the printing process lives
------------------
     ethr =  6.19E-06,  avg # of iterations = 13.8

     negative rho (up, down):  7.974E-01 0.000E+00

     total cpu time spent up to now is      344.6 secs

     total energy              =   -4399.92033312 Ry
     estimated scf accuracy    <       0.01740003 Ry

     iteration # 24     ecut=    60.00 Ry     beta= 0.15
     Davidson diagonalization with overlap

---- Real-time Memory Report at c_bands before calling an iterative solver
             0 MiB given to the printing process from OS
             0 MiB allocation reported by mallinfo(arena+hblkhd)
        169051 MiB available memory on the node where the printing process lives
------------------
     ethr =  4.09E-06,  avg # of iterations =  4.4

     negative rho (up, down):  7.933E-01 0.000E+00

     total cpu time spent up to now is      359.4 secs

     total energy              =   -4399.92007194 Ry
     estimated scf accuracy    <       0.01064228 Ry

     iteration # 25     ecut=    60.00 Ry     beta= 0.15
     Davidson diagonalization with overlap

---- Real-time Memory Report at c_bands before calling an iterative solver
             0 MiB given to the printing process from OS
             0 MiB allocation reported by mallinfo(arena+hblkhd)
        169071 MiB available memory on the node where the printing process lives
------------------
     ethr =  2.50E-06,  avg # of iterations =  9.5

     negative rho (up, down):  7.891E-01 0.000E+00

     total cpu time spent up to now is      376.2 secs

     total energy              =   -4399.91961772 Ry
     estimated scf accuracy    <       0.00740605 Ry

     iteration # 26     ecut=    60.00 Ry     beta= 0.15
     Davidson diagonalization with overlap

---- Real-time Memory Report at c_bands before calling an iterative solver
             0 MiB given to the printing process from OS
             0 MiB allocation reported by mallinfo(arena+hblkhd)
        169074 MiB available memory on the node where the printing process lives
------------------
     ethr =  1.74E-06,  avg # of iterations =  2.4

     negative rho (up, down):  7.919E-01 0.000E+00

     total cpu time spent up to now is      390.2 secs

     total energy              =   -4399.91912775 Ry
     estimated scf accuracy    <       0.00518754 Ry

     iteration # 27     ecut=    60.00 Ry     beta= 0.15
     Davidson diagonalization with overlap

---- Real-time Memory Report at c_bands before calling an iterative solver
             0 MiB given to the printing process from OS
             0 MiB allocation reported by mallinfo(arena+hblkhd)
        169083 MiB available memory on the node where the printing process lives
------------------
     c_bands:  1 eigenvalues not converged
     ethr =  1.22E-06,  avg # of iterations =  8.4

     negative rho (up, down):  7.926E-01 0.000E+00

     total cpu time spent up to now is      407.1 secs

     total energy              =   -4399.91901669 Ry
     estimated scf accuracy    <       0.00228980 Ry

     iteration # 28     ecut=    60.00 Ry     beta= 0.15
     Davidson diagonalization with overlap

---- Real-time Memory Report at c_bands before calling an iterative solver
             0 MiB given to the printing process from OS
             0 MiB allocation reported by mallinfo(arena+hblkhd)
        169052 MiB available memory on the node where the printing process lives
------------------
     ethr =  5.39E-07,  avg # of iterations = 10.0

     negative rho (up, down):  7.939E-01 0.000E+00

     total cpu time spent up to now is      424.2 secs

     total energy              =   -4399.91893795 Ry
     estimated scf accuracy    <       0.00107916 Ry

     iteration # 29     ecut=    60.00 Ry     beta= 0.15
     Davidson diagonalization with overlap

---- Real-time Memory Report at c_bands before calling an iterative solver
             0 MiB given to the printing process from OS
             0 MiB allocation reported by mallinfo(arena+hblkhd)
        169030 MiB available memory on the node where the printing process lives
------------------
     ethr =  2.54E-07,  avg # of iterations =  9.9

     negative rho (up, down):  7.948E-01 0.000E+00

     total cpu time spent up to now is      443.2 secs

     total energy              =   -4399.91902611 Ry
     estimated scf accuracy    <       0.00030874 Ry

     iteration # 30     ecut=    60.00 Ry     beta= 0.15
     Davidson diagonalization with overlap

---- Real-time Memory Report at c_bands before calling an iterative solver
             0 MiB given to the printing process from OS
             0 MiB allocation reported by mallinfo(arena+hblkhd)
        168973 MiB available memory on the node where the printing process lives
------------------
     ethr =  7.26E-08,  avg # of iterations =  2.1

     negative rho (up, down):  7.941E-01 0.000E+00

     total cpu time spent up to now is      457.9 secs

     total energy              =   -4399.91904896 Ry
     estimated scf accuracy    <       0.00012524 Ry

     iteration # 31     ecut=    60.00 Ry     beta= 0.15
     Davidson diagonalization with overlap

---- Real-time Memory Report at c_bands before calling an iterative solver
             0 MiB given to the printing process from OS
             0 MiB allocation reported by mallinfo(arena+hblkhd)
        168989 MiB available memory on the node where the printing process lives
------------------
     ethr =  2.95E-08,  avg # of iterations =  2.0

     negative rho (up, down):  7.934E-01 0.000E+00

     total cpu time spent up to now is      471.8 secs

     total energy              =   -4399.91905495 Ry
     estimated scf accuracy    <       0.00008595 Ry

     iteration # 32     ecut=    60.00 Ry     beta= 0.15
     Davidson diagonalization with overlap

---- Real-time Memory Report at c_bands before calling an iterative solver
             0 MiB given to the printing process from OS
             0 MiB allocation reported by mallinfo(arena+hblkhd)
        169018 MiB available memory on the node where the printing process lives
------------------
     ethr =  2.02E-08,  avg # of iterations =  2.0

     negative rho (up, down):  7.930E-01 0.000E+00

     total cpu time spent up to now is      485.7 secs

     total energy              =   -4399.91905969 Ry
     estimated scf accuracy    <       0.00005843 Ry

     iteration # 33     ecut=    60.00 Ry     beta= 0.15
     Davidson diagonalization with overlap

---- Real-time Memory Report at c_bands before calling an iterative solver
             0 MiB given to the printing process from OS
             0 MiB allocation reported by mallinfo(arena+hblkhd)
        169040 MiB available memory on the node where the printing process lives
------------------
     ethr =  1.37E-08,  avg # of iterations =  3.0

     negative rho (up, down):  7.927E-01 0.000E+00

     total cpu time spent up to now is      499.4 secs

     total energy              =   -4399.91906429 Ry
     estimated scf accuracy    <       0.00003275 Ry

     iteration # 34     ecut=    60.00 Ry     beta= 0.15
     Davidson diagonalization with overlap

---- Real-time Memory Report at c_bands before calling an iterative solver
             0 MiB given to the printing process from OS
             0 MiB allocation reported by mallinfo(arena+hblkhd)
        169052 MiB available memory on the node where the printing process lives
------------------
     ethr =  7.70E-09,  avg # of iterations =  2.2

     negative rho (up, down):  7.924E-01 0.000E+00

     total cpu time spent up to now is      513.1 secs

     total energy              =   -4399.91906884 Ry
     estimated scf accuracy    <       0.00001861 Ry

     iteration # 35     ecut=    60.00 Ry     beta= 0.15
     Davidson diagonalization with overlap

---- Real-time Memory Report at c_bands before calling an iterative solver
             0 MiB given to the printing process from OS
             0 MiB allocation reported by mallinfo(arena+hblkhd)
        169058 MiB available memory on the node where the printing process lives
------------------
     ethr =  4.38E-09,  avg # of iterations =  2.1

     negative rho (up, down):  7.922E-01 0.000E+00

     total cpu time spent up to now is      527.1 secs

     total energy              =   -4399.91907247 Ry
     estimated scf accuracy    <       0.00001090 Ry

     iteration # 36     ecut=    60.00 Ry     beta= 0.15
     Davidson diagonalization with overlap

---- Real-time Memory Report at c_bands before calling an iterative solver
             0 MiB given to the printing process from OS
             0 MiB allocation reported by mallinfo(arena+hblkhd)
        169092 MiB available memory on the node where the printing process lives
------------------
     ethr =  2.56E-09,  avg # of iterations =  2.8

     negative rho (up, down):  7.921E-01 0.000E+00

     total cpu time spent up to now is      541.3 secs

     total energy              =   -4399.91907337 Ry
     estimated scf accuracy    <       0.00000523 Ry

     iteration # 37     ecut=    60.00 Ry     beta= 0.15
     Davidson diagonalization with overlap

---- Real-time Memory Report at c_bands before calling an iterative solver
             0 MiB given to the printing process from OS
             0 MiB allocation reported by mallinfo(arena+hblkhd)
        169098 MiB available memory on the node where the printing process lives
------------------
     ethr =  1.23E-09,  avg # of iterations =  2.1

     negative rho (up, down):  7.921E-01 0.000E+00

     total cpu time spent up to now is      555.3 secs

     total energy              =   -4399.91907357 Ry
     estimated scf accuracy    <       0.00000377 Ry

     iteration # 38     ecut=    60.00 Ry     beta= 0.15
     Davidson diagonalization with overlap

---- Real-time Memory Report at c_bands before calling an iterative solver
             0 MiB given to the printing process from OS
             0 MiB allocation reported by mallinfo(arena+hblkhd)
        169104 MiB available memory on the node where the printing process lives
------------------
     ethr =  8.87E-10,  avg # of iterations =  2.3

     negative rho (up, down):  7.922E-01 0.000E+00

     total cpu time spent up to now is      569.4 secs

     total energy              =   -4399.91907350 Ry
     estimated scf accuracy    <       0.00000289 Ry

     iteration # 39     ecut=    60.00 Ry     beta= 0.15
     Davidson diagonalization with overlap

---- Real-time Memory Report at c_bands before calling an iterative solver
             0 MiB given to the printing process from OS
             0 MiB allocation reported by mallinfo(arena+hblkhd)
        169124 MiB available memory on the node where the printing process lives
------------------
     ethr =  6.81E-10,  avg # of iterations =  2.0

     negative rho (up, down):  7.923E-01 0.000E+00

     total cpu time spent up to now is      583.1 secs

     total energy              =   -4399.91907341 Ry
     estimated scf accuracy    <       0.00000221 Ry

     iteration # 40     ecut=    60.00 Ry     beta= 0.15
     Davidson diagonalization with overlap

---- Real-time Memory Report at c_bands before calling an iterative solver
             0 MiB given to the printing process from OS
             0 MiB allocation reported by mallinfo(arena+hblkhd)
        169124 MiB available memory on the node where the printing process lives
------------------
     ethr =  5.20E-10,  avg # of iterations =  2.1

     negative rho (up, down):  7.924E-01 0.000E+00

     total cpu time spent up to now is      596.8 secs

     total energy              =   -4399.91907349 Ry
     estimated scf accuracy    <       0.00000115 Ry

     iteration # 41     ecut=    60.00 Ry     beta= 0.15
     Davidson diagonalization with overlap

---- Real-time Memory Report at c_bands before calling an iterative solver
             0 MiB given to the printing process from OS
             0 MiB allocation reported by mallinfo(arena+hblkhd)
        169124 MiB available memory on the node where the printing process lives
------------------
     ethr =  2.70E-10,  avg # of iterations =  2.6

     negative rho (up, down):  7.924E-01 0.000E+00

     total cpu time spent up to now is      610.7 secs

     total energy              =   -4399.91907358 Ry
     estimated scf accuracy    <       0.00000067 Ry

     iteration # 42     ecut=    60.00 Ry     beta= 0.15
     Davidson diagonalization with overlap

---- Real-time Memory Report at c_bands before calling an iterative solver
             0 MiB given to the printing process from OS
             0 MiB allocation reported by mallinfo(arena+hblkhd)
        169126 MiB available memory on the node where the printing process lives
------------------
     ethr =  1.58E-10,  avg # of iterations =  2.1

     negative rho (up, down):  7.924E-01 0.000E+00

     total cpu time spent up to now is      624.5 secs

     total energy              =   -4399.91907361 Ry
     estimated scf accuracy    <       0.00000036 Ry

     iteration # 43     ecut=    60.00 Ry     beta= 0.15
     Davidson diagonalization with overlap

---- Real-time Memory Report at c_bands before calling an iterative solver
             0 MiB given to the printing process from OS
             0 MiB allocation reported by mallinfo(arena+hblkhd)
        169128 MiB available memory on the node where the printing process lives
------------------
     ethr =  8.50E-11,  avg # of iterations =  2.2

     negative rho (up, down):  7.925E-01 0.000E+00

     total cpu time spent up to now is      638.3 secs

     total energy              =   -4399.91907361 Ry
     estimated scf accuracy    <       0.00000021 Ry

     iteration # 44     ecut=    60.00 Ry     beta= 0.15
     Davidson diagonalization with overlap

---- Real-time Memory Report at c_bands before calling an iterative solver
             0 MiB given to the printing process from OS
             0 MiB allocation reported by mallinfo(arena+hblkhd)
        169127 MiB available memory on the node where the printing process lives
------------------
     ethr =  4.85E-11,  avg # of iterations =  2.6

     negative rho (up, down):  7.924E-01 0.000E+00

     total cpu time spent up to now is      651.9 secs

     total energy              =   -4399.91907358 Ry
     estimated scf accuracy    <       0.00000013 Ry

     iteration # 45     ecut=    60.00 Ry     beta= 0.15
     Davidson diagonalization with overlap

---- Real-time Memory Report at c_bands before calling an iterative solver
             0 MiB given to the printing process from OS
             0 MiB allocation reported by mallinfo(arena+hblkhd)
        169132 MiB available memory on the node where the printing process lives
------------------
     ethr =  2.95E-11,  avg # of iterations =  2.7

     negative rho (up, down):  7.924E-01 0.000E+00

     total cpu time spent up to now is      665.4 secs

     total energy              =   -4399.91907356 Ry
     estimated scf accuracy    <       0.00000008 Ry

     iteration # 46     ecut=    60.00 Ry     beta= 0.15
     Davidson diagonalization with overlap

---- Real-time Memory Report at c_bands before calling an iterative solver
             0 MiB given to the printing process from OS
             0 MiB allocation reported by mallinfo(arena+hblkhd)
        169136 MiB available memory on the node where the printing process lives
------------------
     ethr =  1.79E-11,  avg # of iterations =  2.2

     negative rho (up, down):  7.924E-01 0.000E+00

     total cpu time spent up to now is      679.3 secs

     total energy              =   -4399.91907354 Ry
     estimated scf accuracy    <       0.00000005 Ry

     iteration # 47     ecut=    60.00 Ry     beta= 0.15
     Davidson diagonalization with overlap

---- Real-time Memory Report at c_bands before calling an iterative solver
             0 MiB given to the printing process from OS
             0 MiB allocation reported by mallinfo(arena+hblkhd)
        169135 MiB available memory on the node where the printing process lives
------------------
     ethr =  1.12E-11,  avg # of iterations =  2.2

     negative rho (up, down):  7.924E-01 0.000E+00

     total cpu time spent up to now is      692.8 secs

     total energy              =   -4399.91907354 Ry
     estimated scf accuracy    <       0.00000003 Ry

     iteration # 48     ecut=    60.00 Ry     beta= 0.15
     Davidson diagonalization with overlap

---- Real-time Memory Report at c_bands before calling an iterative solver
             0 MiB given to the printing process from OS
             0 MiB allocation reported by mallinfo(arena+hblkhd)
        169142 MiB available memory on the node where the printing process lives
------------------
     ethr =  5.96E-12,  avg # of iterations =  1.2

     negative rho (up, down):  7.924E-01 0.000E+00

     total cpu time spent up to now is      705.2 secs

     total energy              =   -4399.91907354 Ry
     estimated scf accuracy    <       0.00000001 Ry

     iteration # 49     ecut=    60.00 Ry     beta= 0.15
     Davidson diagonalization with overlap

---- Real-time Memory Report at c_bands before calling an iterative solver
             0 MiB given to the printing process from OS
             0 MiB allocation reported by mallinfo(arena+hblkhd)
        169144 MiB available memory on the node where the printing process lives
------------------
     ethr =  3.45E-12,  avg # of iterations =  1.1

     negative rho (up, down):  7.924E-01 0.000E+00

     total cpu time spent up to now is      717.3 secs

     total energy              =   -4399.91907357 Ry
     estimated scf accuracy    <       0.00000001 Ry

     iteration # 50     ecut=    60.00 Ry     beta= 0.15
     Davidson diagonalization with overlap

---- Real-time Memory Report at c_bands before calling an iterative solver
             0 MiB given to the printing process from OS
             0 MiB allocation reported by mallinfo(arena+hblkhd)
        169152 MiB available memory on the node where the printing process lives
------------------
     ethr =  2.84E-12,  avg # of iterations =  3.5

     negative rho (up, down):  7.924E-01 0.000E+00

     total cpu time spent up to now is      731.3 secs

     End of self-consistent calculation

          k = 0.0000 0.0000 0.0000 ( 65197 PWs)   bands (ev):

   -92.7361 -92.6834 -92.5908 -92.5416 -92.4855 -92.4427 -92.4252 -92.3028
   -56.0895 -56.0687 -55.9478 -55.9368 -55.9296 -55.9236 -55.8879 -55.8598
   -55.8437 -55.8423 -55.8347 -55.7926 -55.7724 -55.7368 -55.7176 -55.6854
   -55.6770 -55.6309 -55.6298 -55.6279 -55.6195 -55.5776 -55.5555 -55.4685
   -31.3117 -31.2918 -31.1509 -31.1459 -31.0881 -31.0635 -30.7871 -30.7705
   -29.8839 -29.8401 -29.8156 -29.7063 -15.1164 -15.0723 -14.9923 -14.8623
   -14.6685 -14.5471 -14.2538 -14.2362 -14.2047 -14.1620 -14.1169 -14.1047
   -14.0926 -14.0746 -14.0499 -14.0250 -13.9661 -13.8152 -13.6332 -13.6031
   -13.5721 -13.5376 -13.5218 -13.4725 -13.4379 -13.3558 -13.2843 -13.1833
   -13.1561 -13.1442 -13.1268 -13.1091 -13.0917 -13.0599 -13.0394 -13.0242
   -12.9963 -12.9681 -12.9589 -12.9518 -12.9346 -12.9258 -12.8259 -12.7966
   -12.7609 -12.6843 -12.6461 -12.6296 -12.3765 -12.2304 -12.0677 -11.9936
   -11.8972 -11.8230 -11.8123 -11.7892 -11.7718 -11.7079 -11.6909 -11.6557
   -11.6274 -11.5154 -11.4355 -11.4319  -2.9770  -2.7448  -2.5154  -2.3673
    -2.3054  -2.1630  -1.8552  -1.8407  -1.8216  -1.7347  -1.7179  -1.6499
    -1.6336  -1.5924  -1.5485  -1.3672  -1.1414  -1.1112  -0.9661  -0.9518
    -0.9048  -0.8876  -0.8417  -0.8254  -0.7694  -0.7426  -0.6702  -0.6594
    -0.5824  -0.4508  -0.4380  -0.4089  -0.3279  -0.3054  -0.2767  -0.2352
    -0.1633  -0.1254  -0.0669  -0.0443   0.0177   0.0925   0.1444   0.1650
     0.1764   0.4343   0.4510   0.6217   0.6884   0.7509   0.7970   0.8861
     0.8993   0.9147   0.9865   1.0139   1.0480   1.1057   1.2381   1.2943
     1.3165   1.3396   1.3506   1.4129   1.4859   1.5924   1.6078   1.6630
     1.6775   1.7202   1.7403   1.7503   1.8038   1.8600   1.8666   1.9006
     1.9316   1.9891   2.1204   2.2054   2.2497   2.2629   2.4118   2.4251
     2.4758   2.4776   2.5840   2.6213   2.6485   2.6674   2.6836   2.7362
     2.7951   2.8712   2.9073   2.9159   2.9224   2.9901   3.0005   3.0175
     3.0257   3.0341   3.0448   3.0541   3.0682   3.0737   3.0844   3.0934
     3.1019   3.1214   3.1423   3.1474   3.1598   3.1825   3.3004   3.4049
     4.0727   4.3898   4.7352   4.8555   5.0026   5.8591   5.9347   5.9672
     5.9861   6.2789   6.3260   6.4652   6.4749   6.7458   6.9882   7.0801
     7.1697   7.2815   7.3430   7.5933   7.6353   7.6557   7.7083   7.8586
     7.9648   8.0913   8.1334   8.1797   8.4805   8.6254   8.7930   8.8708

     occupation numbers 
     1.0000   1.0000   1.0000   1.0000   1.0000   1.0000   1.0000   1.0000
     1.0000   1.0000   1.0000   1.0000   1.0000   1.0000   1.0000   1.0000
     1.0000   1.0000   1.0000   1.0000   1.0000   1.0000   1.0000   1.0000
     1.0000   1.0000   1.0000   1.0000   1.0000   1.0000   1.0000   1.0000
     1.0000   1.0000   1.0000   1.0000   1.0000   1.0000   1.0000   1.0000
     1.0000   1.0000   1.0000   1.0000   1.0000   1.0000   1.0000   1.0000
     1.0000   1.0000   1.0000   1.0000   1.0000   1.0000   1.0000   1.0000
     1.0000   1.0000   1.0000   1.0000   1.0000   1.0000   1.0000   1.0000
     1.0000   1.0000   1.0000   1.0000   1.0000   1.0000   1.0000   1.0000
     1.0000   1.0000   1.0000   1.0000   1.0000   1.0000   1.0000   1.0000
     1.0000   1.0000   1.0000   1.0000   1.0000   1.0000   1.0000   1.0000
     1.0000   1.0000   1.0000   1.0000   1.0000   1.0000   1.0000   1.0000
     1.0000   1.0000   1.0000   1.0000   1.0000   1.0000   1.0000   1.0000
     1.0000   1.0000   1.0000   1.0000   1.0000   1.0000   1.0000   1.0000
     1.0000   1.0000   1.0000   1.0000   1.0000   1.0000   1.0000   1.0000
     1.0000   1.0000   1.0000   1.0000   1.0000   1.0000   1.0000   1.0000
     1.0000   1.0000   1.0000   1.0000   1.0000   1.0000   1.0000   1.0000
     1.0000   1.0000   1.0000   1.0000   1.0000   1.0000   1.0000   1.0000
     1.0000   1.0000   1.0000   1.0000   1.0000   1.0000   1.0000   1.0000
     1.0000   1.0000   1.0000   1.0000   0.9999   0.9999   0.9999   0.9998
     0.9998   0.9998   0.9997   0.9996   0.9996   0.9994   0.9989   0.9985
     0.9983   0.9981   0.9980   0.9974   0.9963   0.9942   0.9938   0.9922
     0.9917   0.9902   0.9894   0.9889   0.9864   0.9832   0.9828   0.9806
     0.9783   0.9734   0.9590   0.9466   0.9391   0.9367   0.9043   0.9009
     0.8871   0.8866   0.8533   0.8402   0.8302   0.8230   0.8167   0.7952
     0.7695   0.7337   0.7158   0.7115   0.7082   0.6728   0.6672   0.6579
     0.6535   0.6488   0.6430   0.6378   0.6299   0.6268   0.6207   0.6157
     0.6109   0.5997   0.5876   0.5847   0.5775   0.5643   0.4947   0.4331
     0.1230   0.0515   0.0160   0.0101   0.0055   0.0001   0.0000   0.0000
     0.0000   0.0000   0.0000   0.0000   0.0000   0.0000   0.0000   0.0000
     0.0000   0.0000   0.0000   0.0000   0.0000   0.0000   0.0000   0.0000
     0.0000   0.0000   0.0000   0.0000   0.0000   0.0000   0.0000   0.0000

          k = 0.0000 0.2500 0.0000 ( 65257 PWs)   bands (ev):

   -92.7361 -92.6834 -92.5908 -92.5416 -92.4855 -92.4427 -92.4252 -92.3028
   -56.0895 -56.0687 -55.9478 -55.9368 -55.9296 -55.9236 -55.8879 -55.8598
   -55.8437 -55.8423 -55.8347 -55.7926 -55.7724 -55.7368 -55.7176 -55.6854
   -55.6770 -55.6309 -55.6298 -55.6279 -55.6195 -55.5776 -55.5555 -55.4685
   -31.3115 -31.2916 -31.1512 -31.1454 -31.0886 -31.0637 -30.7849 -30.7727
   -29.8833 -29.8398 -29.8162 -29.7066 -15.0798 -15.0459 -14.9674 -14.8328
   -14.7097 -14.5372 -14.4004 -14.2205 -14.1849 -14.1661 -14.1379 -14.0778
   -14.0728 -14.0560 -14.0365 -13.9958 -13.8850 -13.8451 -13.6823 -13.6587
   -13.6135 -13.5767 -13.5256 -13.4898 -13.4505 -13.3776 -13.3421 -13.2999
   -13.2313 -13.1817 -13.1449 -13.1371 -13.1108 -13.0344 -13.0103 -12.9802
   -12.9656 -12.9364 -12.9012 -12.8858 -12.8700 -12.8330 -12.8102 -12.7987
   -12.7418 -12.6784 -12.5631 -12.5004 -12.4379 -12.2815 -12.1258 -12.0607
   -11.8627 -11.8198 -11.7922 -11.7641 -11.7474 -11.6997 -11.6886 -11.6662
   -11.6315 -11.5298 -11.4772 -11.4665  -2.8416  -2.6205  -2.4827  -2.3002
    -2.2569  -2.0936  -1.8724  -1.7896  -1.7765  -1.7149  -1.6158  -1.6003
    -1.5667  -1.5395  -1.4957  -1.2986  -1.1687  -1.1572  -1.0801  -1.0704
    -0.9667  -0.9369  -0.8800  -0.8536  -0.8134  -0.7483  -0.7223  -0.6898
    -0.6606  -0.6432  -0.6092  -0.5365  -0.4847  -0.4113  -0.3049  -0.2767
    -0.2398  -0.1279  -0.0911  -0.0303   0.0189   0.0742   0.0938   0.1227
     0.1816   0.4818   0.5700   0.6041   0.6877   0.7324   0.7543   0.8726
     0.8908   0.9854   1.0129   1.0404   1.1547   1.2496   1.2700   1.2960
     1.3150   1.3385   1.3990   1.4260   1.4538   1.5013   1.5354   1.5660
     1.6523   1.6881   1.7140   1.7718   1.8242   1.8575   1.8885   1.9158
     1.9347   2.0274   2.1599   2.2293   2.2470   2.3240   2.3680   2.4085
     2.4132   2.4787   2.5191   2.6005   2.6452   2.6584   2.7663   2.8324
     2.8551   2.8847   2.9112   2.9233   2.9318   2.9388   2.9472   2.9784
     2.9817   2.9976   3.0081   3.0118   3.0310   3.0464   3.0524   3.0720
     3.0835   3.0903   3.1246   3.1402   3.1994   3.5653   3.6125   3.8465
     4.2594   4.3843   4.6823   5.0072   5.0289   5.6158   5.7804   5.9331
     6.0005   6.0619   6.0803   6.1536   6.5817   6.8123   6.9221   7.0941
     7.3090   7.4563   7.4724   7.5078   7.6195   7.7639   7.8181   7.9842
     8.0507   8.1248   8.1386   8.2565   8.3822   8.5888   8.7665   8.9085

     occupation numbers 
     1.0000   1.0000   1.0000   1.0000   1.0000   1.0000   1.0000   1.0000
     1.0000   1.0000   1.0000   1.0000   1.0000   1.0000   1.0000   1.0000
     1.0000   1.0000   1.0000   1.0000   1.0000   1.0000   1.0000   1.0000
     1.0000   1.0000   1.0000   1.0000   1.0000   1.0000   1.0000   1.0000
     1.0000   1.0000   1.0000   1.0000   1.0000   1.0000   1.0000   1.0000
     1.0000   1.0000   1.0000   1.0000   1.0000   1.0000   1.0000   1.0000
     1.0000   1.0000   1.0000   1.0000   1.0000   1.0000   1.0000   1.0000
     1.0000   1.0000   1.0000   1.0000   1.0000   1.0000   1.0000   1.0000
     1.0000   1.0000   1.0000   1.0000   1.0000   1.0000   1.0000   1.0000
     1.0000   1.0000   1.0000   1.0000   1.0000   1.0000   1.0000   1.0000
     1.0000   1.0000   1.0000   1.0000   1.0000   1.0000   1.0000   1.0000
     1.0000   1.0000   1.0000   1.0000   1.0000   1.0000   1.0000   1.0000
     1.0000   1.0000   1.0000   1.0000   1.0000   1.0000   1.0000   1.0000
     1.0000   1.0000   1.0000   1.0000   1.0000   1.0000   1.0000   1.0000
     1.0000   1.0000   1.0000   1.0000   1.0000   1.0000   1.0000   1.0000
     1.0000   1.0000   1.0000   1.0000   1.0000   1.0000   1.0000   1.0000
     1.0000   1.0000   1.0000   1.0000   1.0000   1.0000   1.0000   1.0000
     1.0000   1.0000   1.0000   1.0000   1.0000   1.0000   1.0000   1.0000
     1.0000   1.0000   1.0000   1.0000   1.0000   1.0000   1.0000   1.0000
     1.0000   1.0000   1.0000   1.0000   0.9999   0.9999   0.9999   0.9998
     0.9998   0.9997   0.9996   0.9996   0.9992   0.9988   0.9987   0.9985
     0.9983   0.9981   0.9975   0.9972   0.9968   0.9961   0.9954   0.9948
     0.9925   0.9914   0.9904   0.9880   0.9853   0.9834   0.9814   0.9795
     0.9780   0.9697   0.9536   0.9426   0.9395   0.9246   0.9149   0.9051
     0.9039   0.8863   0.8743   0.8476   0.8314   0.8264   0.7823   0.7523
     0.7415   0.7271   0.7139   0.7077   0.7033   0.6998   0.6954   0.6790
     0.6772   0.6687   0.6631   0.6610   0.6506   0.6421   0.6387   0.6277
     0.6213   0.6174   0.5979   0.5889   0.5544   0.3421   0.3168   0.2049
     0.0753   0.0523   0.0194   0.0054   0.0049   0.0003   0.0001   0.0000
     0.0000   0.0000   0.0000   0.0000   0.0000   0.0000   0.0000   0.0000
     0.0000   0.0000   0.0000   0.0000   0.0000   0.0000   0.0000   0.0000
     0.0000   0.0000   0.0000   0.0000   0.0000   0.0000   0.0000   0.0000

          k = 0.0000-0.5000 0.0000 ( 65180 PWs)   bands (ev):

   -92.7361 -92.6834 -92.5908 -92.5416 -92.4855 -92.4427 -92.4252 -92.3028
   -56.0895 -56.0687 -55.9478 -55.9368 -55.9296 -55.9236 -55.8879 -55.8598
   -55.8437 -55.8423 -55.8347 -55.7926 -55.7724 -55.7368 -55.7176 -55.6854
   -55.6770 -55.6309 -55.6298 -55.6279 -55.6195 -55.5776 -55.5555 -55.4685
   -31.3113 -31.2915 -31.1514 -31.1449 -31.0892 -31.0638 -30.7811 -30.7765
   -29.8827 -29.8395 -29.8169 -29.7069 -15.0443 -14.9959 -14.9434 -14.8142
   -14.7315 -14.5927 -14.4423 -14.3160 -14.1922 -14.1269 -14.0780 -14.0729
   -14.0208 -14.0057 -13.9602 -13.9323 -13.9139 -13.8755 -13.8337 -13.8074
   -13.6185 -13.5595 -13.5300 -13.4914 -13.4526 -13.3929 -13.3717 -13.3167
   -13.3153 -13.2516 -13.1456 -13.1359 -13.0815 -13.0681 -13.0018 -12.9862
   -12.9628 -12.9161 -12.8670 -12.8631 -12.8072 -12.7941 -12.7402 -12.7235
   -12.6868 -12.6805 -12.5488 -12.4223 -12.3564 -12.2934 -12.2364 -12.2010
   -11.8167 -11.8143 -11.7872 -11.7502 -11.7157 -11.7048 -11.6613 -11.6576
   -11.6126 -11.5517 -11.5379 -11.5236  -2.6263  -2.5683  -2.4171  -2.3452
    -2.0614  -1.9804  -1.8524  -1.7156  -1.6733  -1.6584  -1.5805  -1.5483
    -1.4672  -1.4317  -1.3529  -1.3140  -1.2755  -1.2483  -1.1889  -1.1543
    -1.1045  -1.0702  -1.0381  -1.0033  -0.8939  -0.8492  -0.8136  -0.8111
    -0.7251  -0.6937  -0.6719  -0.6255  -0.5344  -0.4670  -0.3762  -0.3397
    -0.2438  -0.2124  -0.0653  -0.0157   0.0016   0.0463   0.1622   0.2311
     0.3565   0.4251   0.4338   0.5614   0.6176   0.6974   0.8420   0.9431
     0.9770   1.0164   1.0269   1.0593   1.0771   1.1121   1.1283   1.1401
     1.2509   1.3098   1.3437   1.3699   1.6383   1.6571   1.6795   1.7662
     1.7952   1.8312   1.8495   1.8750   1.8913   1.8926   1.9226   1.9697
     1.9932   2.0228   2.0317   2.0608   2.1155   2.2036   2.2330   2.4006
     2.5684   2.5693   2.5926   2.6328   2.6401   2.6471   2.6916   2.7087
     2.7616   2.7799   2.7839   2.8698   2.8796   2.9472   2.9489   2.9756
     2.9794   2.9945   2.9976   3.0021   3.0089   3.0174   3.0320   3.0423
     3.0502   3.1087   3.1149   3.1298   3.1875   4.0860   4.0952   4.1497
     4.2388   4.6971   4.8713   4.9978   5.1495   5.3951   5.4380   5.5559
     5.7175   5.9970   6.0100   6.1078   6.5951   6.8336   6.9369   7.2011
     7.2992   7.3755   7.4571   7.6437   7.7155   7.7334   7.8787   7.9236
     8.1106   8.2310   8.3347   8.4639   8.6326   8.7680   8.7941   8.8103

     occupation numbers 
     1.0000   1.0000   1.0000   1.0000   1.0000   1.0000   1.0000   1.0000
     1.0000   1.0000   1.0000   1.0000   1.0000   1.0000   1.0000   1.0000
     1.0000   1.0000   1.0000   1.0000   1.0000   1.0000   1.0000   1.0000
     1.0000   1.0000   1.0000   1.0000   1.0000   1.0000   1.0000   1.0000
     1.0000   1.0000   1.0000   1.0000   1.0000   1.0000   1.0000   1.0000
     1.0000   1.0000   1.0000   1.0000   1.0000   1.0000   1.0000   1.0000
     1.0000   1.0000   1.0000   1.0000   1.0000   1.0000   1.0000   1.0000
     1.0000   1.0000   1.0000   1.0000   1.0000   1.0000   1.0000   1.0000
     1.0000   1.0000   1.0000   1.0000   1.0000   1.0000   1.0000   1.0000
     1.0000   1.0000   1.0000   1.0000   1.0000   1.0000   1.0000   1.0000
     1.0000   1.0000   1.0000   1.0000   1.0000   1.0000   1.0000   1.0000
     1.0000   1.0000   1.0000   1.0000   1.0000   1.0000   1.0000   1.0000
     1.0000   1.0000   1.0000   1.0000   1.0000   1.0000   1.0000   1.0000
     1.0000   1.0000   1.0000   1.0000   1.0000   1.0000   1.0000   1.0000
     1.0000   1.0000   1.0000   1.0000   1.0000   1.0000   1.0000   1.0000
     1.0000   1.0000   1.0000   1.0000   1.0000   1.0000   1.0000   1.0000
     1.0000   1.0000   1.0000   1.0000   1.0000   1.0000   1.0000   1.0000
     1.0000   1.0000   1.0000   1.0000   1.0000   1.0000   1.0000   1.0000
     1.0000   1.0000   1.0000   1.0000   1.0000   1.0000   1.0000   1.0000
     1.0000   1.0000   1.0000   1.0000   1.0000   0.9999   0.9999   0.9998
     0.9997   0.9996   0.9996   0.9995   0.9995   0.9994   0.9993   0.9993
     0.9988   0.9984   0.9981   0.9978   0.9930   0.9924   0.9917   0.9882
     0.9869   0.9849   0.9839   0.9823   0.9812   0.9811   0.9790   0.9752
     0.9731   0.9702   0.9693   0.9662   0.9596   0.9469   0.9420   0.9071
     0.8585   0.8582   0.8503   0.8360   0.8333   0.8307   0.8135   0.8066
     0.7843   0.7763   0.7745   0.7344   0.7296   0.6954   0.6945   0.6805
     0.6785   0.6704   0.6687   0.6663   0.6626   0.6580   0.6500   0.6443
     0.6399   0.6070   0.6034   0.5948   0.5614   0.1191   0.1163   0.1013
     0.0798   0.0184   0.0095   0.0056   0.0029   0.0009   0.0007   0.0004
     0.0002   0.0000   0.0000   0.0000   0.0000   0.0000   0.0000   0.0000
     0.0000   0.0000   0.0000   0.0000   0.0000   0.0000   0.0000   0.0000
     0.0000   0.0000   0.0000   0.0000   0.0000   0.0000   0.0000   0.0000

          k = 0.2500 0.2500 0.0000 ( 65198 PWs)   bands (ev):

   -92.7361 -92.6834 -92.5908 -92.5416 -92.4855 -92.4427 -92.4252 -92.3028
   -56.0895 -56.0687 -55.9478 -55.9368 -55.9296 -55.9236 -55.8879 -55.8598
   -55.8437 -55.8423 -55.8347 -55.7926 -55.7724 -55.7368 -55.7176 -55.6854
   -55.6770 -55.6309 -55.6298 -55.6279 -55.6195 -55.5776 -55.5555 -55.4685
   -31.3098 -31.2933 -31.1508 -31.1453 -31.0885 -31.0640 -30.7850 -30.7728
   -29.8823 -29.8408 -29.8158 -29.7070 -15.0511 -15.0104 -14.9396 -14.8225
   -14.7024 -14.5782 -14.5061 -14.2997 -14.1436 -14.1309 -14.0955 -14.0655
   -14.0429 -14.0135 -13.9820 -13.9596 -13.8764 -13.8591 -13.6987 -13.6843
   -13.6547 -13.6349 -13.5715 -13.5452 -13.4844 -13.4605 -13.3544 -13.3177
   -13.2639 -13.1765 -13.1368 -13.1003 -13.0815 -13.0530 -13.0298 -12.9878
   -12.9801 -12.9547 -12.9178 -12.8859 -12.7865 -12.7780 -12.7487 -12.7466
   -12.7229 -12.6738 -12.5127 -12.4863 -12.4327 -12.3105 -12.1586 -12.1027
   -11.8350 -11.8033 -11.7925 -11.7856 -11.7226 -11.6884 -11.6815 -11.6458
   -11.6387 -11.5463 -11.5054 -11.4878  -2.7032  -2.4947  -2.3770  -2.2815
    -2.1617  -2.0967  -1.8972  -1.7542  -1.7350  -1.7024  -1.6100  -1.5770
    -1.4830  -1.4551  -1.4049  -1.2744  -1.2259  -1.1518  -1.1078  -1.0627
    -1.0398  -1.0159  -0.9739  -0.9579  -0.8672  -0.8177  -0.7493  -0.7021
    -0.6736  -0.6239  -0.6107  -0.5468  -0.4955  -0.4331  -0.4045  -0.3140
    -0.2663  -0.2357  -0.1990  -0.1439  -0.0710  -0.0330  -0.0060   0.0631
     0.0998   0.3735   0.5238   0.5567   0.6160   0.6545   0.7069   0.7580
     0.8280   0.8655   1.1388   1.2049   1.2786   1.3028   1.3547   1.3828
     1.4200   1.4568   1.4733   1.5015   1.5454   1.5544   1.5704   1.6158
     1.6515   1.6915   1.7471   1.7818   1.7999   1.8225   1.8628   1.9161
     1.9386   2.0680   2.1388   2.1750   2.1994   2.2636   2.3277   2.3586
     2.3956   2.4209   2.4303   2.5436   2.5834   2.6729   2.7740   2.8420
     2.8596   2.8639   2.8847   2.8967   2.9095   2.9217   2.9274   2.9394
     2.9537   2.9715   2.9821   2.9893   3.0004   3.0235   3.0344   3.0437
     3.0747   3.3757   3.4673   3.5201   3.5788   3.5965   3.8327   3.9186
     4.2660   4.4732   4.6883   4.9414   5.1567   5.6142   5.6725   5.7452
     5.8022   5.8637   6.0644   6.1409   6.2037   6.7546   6.8804   7.0748
     7.2528   7.5288   7.5789   7.6846   7.7308   7.8430   7.9552   8.1134
     8.1470   8.1976   8.3024   8.3190   8.4187   8.4579   8.6392   8.8389

     occupation numbers 
     1.0000   1.0000   1.0000   1.0000   1.0000   1.0000   1.0000   1.0000
     1.0000   1.0000   1.0000   1.0000   1.0000   1.0000   1.0000   1.0000
     1.0000   1.0000   1.0000   1.0000   1.0000   1.0000   1.0000   1.0000
     1.0000   1.0000   1.0000   1.0000   1.0000   1.0000   1.0000   1.0000
     1.0000   1.0000   1.0000   1.0000   1.0000   1.0000   1.0000   1.0000
     1.0000   1.0000   1.0000   1.0000   1.0000   1.0000   1.0000   1.0000
     1.0000   1.0000   1.0000   1.0000   1.0000   1.0000   1.0000   1.0000
     1.0000   1.0000   1.0000   1.0000   1.0000   1.0000   1.0000   1.0000
     1.0000   1.0000   1.0000   1.0000   1.0000   1.0000   1.0000   1.0000
     1.0000   1.0000   1.0000   1.0000   1.0000   1.0000   1.0000   1.0000
     1.0000   1.0000   1.0000   1.0000   1.0000   1.0000   1.0000   1.0000
     1.0000   1.0000   1.0000   1.0000   1.0000   1.0000   1.0000   1.0000
     1.0000   1.0000   1.0000   1.0000   1.0000   1.0000   1.0000   1.0000
     1.0000   1.0000   1.0000   1.0000   1.0000   1.0000   1.0000   1.0000
     1.0000   1.0000   1.0000   1.0000   1.0000   1.0000   1.0000   1.0000
     1.0000   1.0000   1.0000   1.0000   1.0000   1.0000   1.0000   1.0000
     1.0000   1.0000   1.0000   1.0000   1.0000   1.0000   1.0000   1.0000
     1.0000   1.0000   1.0000   1.0000   1.0000   1.0000   1.0000   1.0000
     1.0000   1.0000   1.0000   1.0000   1.0000   1.0000   1.0000   1.0000
     1.0000   1.0000   1.0000   1.0000   1.0000   1.0000   0.9999   0.9999
     0.9999   0.9998   0.9993   0.9990   0.9986   0.9984   0.9980   0.9977
     0.9973   0.9968   0.9965   0.9961   0.9952   0.9951   0.9947   0.9936
     0.9926   0.9912   0.9891   0.9875   0.9866   0.9854   0.9831   0.9794
     0.9777   0.9654   0.9565   0.9513   0.9476   0.9365   0.9238   0.9170
     0.9083   0.9019   0.8995   0.8666   0.8535   0.8208   0.7789   0.7478
     0.7393   0.7373   0.7271   0.7211   0.7147   0.7085   0.7056   0.6995
     0.6920   0.6827   0.6770   0.6732   0.6672   0.6547   0.6487   0.6435
     0.6263   0.4502   0.3970   0.3671   0.3348   0.3253   0.2108   0.1759
     0.0739   0.0396   0.0190   0.0071   0.0028   0.0003   0.0002   0.0001
     0.0001   0.0001   0.0000   0.0000   0.0000   0.0000   0.0000   0.0000
     0.0000   0.0000   0.0000   0.0000   0.0000   0.0000   0.0000   0.0000
     0.0000   0.0000   0.0000   0.0000   0.0000   0.0000   0.0000   0.0000

          k = 0.2500-0.5000 0.0000 ( 65138 PWs)   bands (ev):

   -92.7361 -92.6834 -92.5908 -92.5416 -92.4855 -92.4427 -92.4252 -92.3028
   -56.0895 -56.0687 -55.9478 -55.9368 -55.9296 -55.9236 -55.8879 -55.8598
   -55.8437 -55.8423 -55.8347 -55.7926 -55.7724 -55.7368 -55.7176 -55.6854
   -55.6770 -55.6309 -55.6298 -55.6279 -55.6195 -55.5776 -55.5555 -55.4685
   -31.3096 -31.2932 -31.1510 -31.1448 -31.0891 -31.0642 -30.7812 -30.7766
   -29.8817 -29.8405 -29.8165 -29.7073 -15.0135 -14.9689 -14.9000 -14.7841
   -14.7547 -14.6338 -14.5455 -14.4141 -14.1088 -14.0571 -14.0288 -14.0066
   -13.9918 -13.9779 -13.9439 -13.9210 -13.8919 -13.8538 -13.8274 -13.7930
   -13.7007 -13.6521 -13.5887 -13.5730 -13.5073 -13.4958 -13.4128 -13.3742
   -13.2405 -13.1762 -13.1567 -13.0777 -13.0551 -13.0457 -13.0204 -13.0008
   -12.9767 -12.9459 -12.8740 -12.8640 -12.8058 -12.7910 -12.7322 -12.6925
   -12.6863 -12.6577 -12.5554 -12.4070 -12.3539 -12.2735 -12.2256 -12.2015
   -11.8106 -11.7985 -11.7878 -11.7609 -11.7290 -11.7012 -11.6591 -11.6320
   -11.6095 -11.5646 -11.5390 -11.5276  -2.4840  -2.4204  -2.2909  -2.2140
    -2.0820  -2.0003  -1.8768  -1.7265  -1.6702  -1.6491  -1.5878  -1.5751
    -1.4781  -1.4106  -1.3257  -1.2751  -1.2659  -1.2035  -1.1599  -1.1266
    -1.0787  -1.0409  -1.0066  -0.9674  -0.9557  -0.9104  -0.8812  -0.8378
    -0.8081  -0.7404  -0.6367  -0.6020  -0.5202  -0.4545  -0.4023  -0.3634
    -0.3451  -0.2853  -0.1311  -0.1220  -0.0053   0.0166   0.0253   0.0704
     0.1058   0.1376   0.1719   0.2408   0.5182   0.6158   0.6632   0.7224
     1.0042   1.0185   1.1113   1.1360   1.3022   1.3393   1.3765   1.4002
     1.4148   1.4369   1.4998   1.5507   1.5837   1.6545   1.7549   1.7858
     1.8068   1.8171   1.8526   1.8698   1.8742   1.9175   1.9289   1.9495
     1.9817   1.9968   2.0233   2.0549   2.1145   2.1582   2.2334   2.3689
     2.5194   2.5359   2.5540   2.5838   2.6037   2.6342   2.6559   2.6679
     2.6884   2.7762   2.7905   2.8511   2.8610   2.8685   2.8807   2.8984
     2.9117   2.9312   2.9433   2.9762   2.9865   2.9974   3.0049   3.0149
     3.0245   3.5364   3.5724   3.7076   3.7612   4.0868   4.1460   4.1542
     4.2911   4.7177   4.8920   5.0317   5.1129   5.2706   5.4089   5.5826
     5.6415   5.7361   5.7575   6.2203   6.3789   6.4683   6.5281   7.1242
     7.4514   7.5545   7.6782   7.7528   7.7936   7.8517   8.0124   8.2152
     8.3235   8.3855   8.4123   8.5155   8.5309   8.6036   8.6820   8.7445

     occupation numbers 
     1.0000   1.0000   1.0000   1.0000   1.0000   1.0000   1.0000   1.0000
     1.0000   1.0000   1.0000   1.0000   1.0000   1.0000   1.0000   1.0000
     1.0000   1.0000   1.0000   1.0000   1.0000   1.0000   1.0000   1.0000
     1.0000   1.0000   1.0000   1.0000   1.0000   1.0000   1.0000   1.0000
     1.0000   1.0000   1.0000   1.0000   1.0000   1.0000   1.0000   1.0000
     1.0000   1.0000   1.0000   1.0000   1.0000   1.0000   1.0000   1.0000
     1.0000   1.0000   1.0000   1.0000   1.0000   1.0000   1.0000   1.0000
     1.0000   1.0000   1.0000   1.0000   1.0000   1.0000   1.0000   1.0000
     1.0000   1.0000   1.0000   1.0000   1.0000   1.0000   1.0000   1.0000
     1.0000   1.0000   1.0000   1.0000   1.0000   1.0000   1.0000   1.0000
     1.0000   1.0000   1.0000   1.0000   1.0000   1.0000   1.0000   1.0000
     1.0000   1.0000   1.0000   1.0000   1.0000   1.0000   1.0000   1.0000
     1.0000   1.0000   1.0000   1.0000   1.0000   1.0000   1.0000   1.0000
     1.0000   1.0000   1.0000   1.0000   1.0000   1.0000   1.0000   1.0000
     1.0000   1.0000   1.0000   1.0000   1.0000   1.0000   1.0000   1.0000
     1.0000   1.0000   1.0000   1.0000   1.0000   1.0000   1.0000   1.0000
     1.0000   1.0000   1.0000   1.0000   1.0000   1.0000   1.0000   1.0000
     1.0000   1.0000   1.0000   1.0000   1.0000   1.0000   1.0000   1.0000
     1.0000   1.0000   1.0000   1.0000   1.0000   1.0000   1.0000   1.0000
     1.0000   1.0000   1.0000   1.0000   1.0000   1.0000   1.0000   0.9999
     0.9997   0.9996   0.9994   0.9993   0.9984   0.9981   0.9978   0.9975
     0.9973   0.9971   0.9961   0.9951   0.9944   0.9925   0.9887   0.9873
     0.9863   0.9857   0.9837   0.9826   0.9823   0.9793   0.9785   0.9769
     0.9741   0.9727   0.9702   0.9668   0.9597   0.9538   0.9419   0.9147
     0.8742   0.8691   0.8633   0.8534   0.8465   0.8355   0.8274   0.8228
     0.8147   0.7779   0.7715   0.7434   0.7387   0.7350   0.7291   0.7203
     0.7136   0.7037   0.6974   0.6802   0.6747   0.6688   0.6648   0.6594
     0.6541   0.3581   0.3383   0.2683   0.2428   0.1188   0.1023   0.1001
     0.0689   0.0171   0.0087   0.0049   0.0034   0.0016   0.0008   0.0003
     0.0002   0.0001   0.0001   0.0000   0.0000   0.0000   0.0000   0.0000
     0.0000   0.0000   0.0000   0.0000   0.0000   0.0000   0.0000   0.0000
     0.0000   0.0000   0.0000   0.0000   0.0000   0.0000   0.0000   0.0000

          k =-0.5000-0.5000 0.0000 ( 65132 PWs)   bands (ev):

   -92.7361 -92.6834 -92.5908 -92.5416 -92.4855 -92.4427 -92.4252 -92.3028
   -56.0895 -56.0687 -55.9478 -55.9368 -55.9296 -55.9236 -55.8879 -55.8598
   -55.8437 -55.8423 -55.8347 -55.7926 -55.7724 -55.7368 -55.7176 -55.6854
   -55.6770 -55.6309 -55.6298 -55.6279 -55.6195 -55.5776 -55.5555 -55.4685
   -31.3076 -31.2952 -31.1506 -31.1447 -31.0890 -31.0646 -30.7813 -30.7767
   -29.8807 -29.8415 -29.8161 -29.7078 -14.9664 -14.9418 -14.8241 -14.8118
   -14.7194 -14.6809 -14.6487 -14.5144 -14.0192 -14.0073 -13.9732 -13.9562
   -13.9371 -13.9196 -13.8934 -13.8842 -13.8721 -13.8595 -13.8462 -13.7693
   -13.7606 -13.7341 -13.6974 -13.6721 -13.5913 -13.5624 -13.4566 -13.4218
   -13.1903 -13.1547 -13.0858 -13.0598 -13.0474 -13.0335 -13.0181 -13.0091
   -13.0013 -12.9876 -12.8826 -12.8587 -12.8089 -12.7748 -12.7425 -12.7053
   -12.6390 -12.6313 -12.5715 -12.3923 -12.3502 -12.2507 -12.2157 -12.2036
   -11.8071 -11.7950 -11.7770 -11.7604 -11.7252 -11.7069 -11.6739 -11.6124
   -11.5924 -11.5867 -11.5367 -11.5332  -2.2587  -2.1841  -2.1769  -2.1040
    -2.0646  -1.9863  -1.9185  -1.7921  -1.6766  -1.6470  -1.6039  -1.5505
    -1.4784  -1.4645  -1.3931  -1.3511  -1.2338  -1.2033  -1.1555  -1.1276
    -1.0632  -1.0164  -0.9984  -0.9860  -0.9308  -0.8879  -0.8709  -0.7592
    -0.7008  -0.6555  -0.6064  -0.5783  -0.5626  -0.5313  -0.4915  -0.4508
    -0.4449  -0.3576  -0.2902  -0.2457  -0.2194  -0.1461  -0.0866  -0.0819
    -0.0189   0.0122   0.0186   0.0314   0.4914   0.5360   0.6106   0.6293
     1.0291   1.0439   1.0783   1.1169   1.3884   1.4063   1.4127   1.4561
     1.5819   1.6774   1.7039   1.7405   1.7651   1.7806   1.7909   1.8234
     1.8334   1.8496   1.8567   1.9097   1.9152   1.9412   1.9525   1.9736
     1.9879   2.0279   2.0529   2.0670   2.0988   2.1288   2.1968   2.2640
     2.5310   2.5636   2.5771   2.6026   2.6078   2.6387   2.6450   2.6646
     2.6740   2.6930   2.7150   2.7256   2.7761   2.7928   2.8001   2.8160
     2.8339   2.8435   2.8665   2.8716   2.8963   2.9832   2.9888   3.0089
     3.0224   3.9618   4.0074   4.0247   4.0404   4.2832   4.3567   4.3835
     4.6234   4.7457   4.8286   4.9583   5.0474   5.0563   5.1735   5.2665
     5.4198   5.8388   5.8767   5.9311   6.0262   6.4305   6.5259   6.6477
     7.7039   7.8489   7.9205   7.9254   7.9462   7.9609   7.9908   8.0568
     8.2437   8.3454   8.5187   8.5553   8.5908   8.6093   8.6290   8.7124

     occupation numbers 
     1.0000   1.0000   1.0000   1.0000   1.0000   1.0000   1.0000   1.0000
     1.0000   1.0000   1.0000   1.0000   1.0000   1.0000   1.0000   1.0000
     1.0000   1.0000   1.0000   1.0000   1.0000   1.0000   1.0000   1.0000
     1.0000   1.0000   1.0000   1.0000   1.0000   1.0000   1.0000   1.0000
     1.0000   1.0000   1.0000   1.0000   1.0000   1.0000   1.0000   1.0000
     1.0000   1.0000   1.0000   1.0000   1.0000   1.0000   1.0000   1.0000
     1.0000   1.0000   1.0000   1.0000   1.0000   1.0000   1.0000   1.0000
     1.0000   1.0000   1.0000   1.0000   1.0000   1.0000   1.0000   1.0000
     1.0000   1.0000   1.0000   1.0000   1.0000   1.0000   1.0000   1.0000
     1.0000   1.0000   1.0000   1.0000   1.0000   1.0000   1.0000   1.0000
     1.0000   1.0000   1.0000   1.0000   1.0000   1.0000   1.0000   1.0000
     1.0000   1.0000   1.0000   1.0000   1.0000   1.0000   1.0000   1.0000
     1.0000   1.0000   1.0000   1.0000   1.0000   1.0000   1.0000   1.0000
     1.0000   1.0000   1.0000   1.0000   1.0000   1.0000   1.0000   1.0000
     1.0000   1.0000   1.0000   1.0000   1.0000   1.0000   1.0000   1.0000
     1.0000   1.0000   1.0000   1.0000   1.0000   1.0000   1.0000   1.0000
     1.0000   1.0000   1.0000   1.0000   1.0000   1.0000   1.0000   1.0000
     1.0000   1.0000   1.0000   1.0000   1.0000   1.0000   1.0000   1.0000
     1.0000   1.0000   1.0000   1.0000   1.0000   1.0000   1.0000   1.0000
     1.0000   1.0000   1.0000   1.0000   1.0000   1.0000   1.0000   1.0000
     0.9996   0.9996   0.9995   0.9994   0.9976   0.9974   0.9974   0.9968
     0.9944   0.9917   0.9908   0.9894   0.9883   0.9876   0.9871   0.9854
     0.9848   0.9839   0.9834   0.9799   0.9795   0.9775   0.9766   0.9748
     0.9735   0.9697   0.9671   0.9655   0.9617   0.9579   0.9480   0.9365
     0.8706   0.8601   0.8556   0.8468   0.8450   0.8338   0.8315   0.8240
     0.8204   0.8129   0.8040   0.7996   0.7780   0.7705   0.7672   0.7599
     0.7516   0.7471   0.7360   0.7335   0.7214   0.6765   0.6734   0.6626
     0.6553   0.1598   0.1439   0.1381   0.1331   0.0704   0.0569   0.0524
[...]
     0.7436   0.7306   0.7163   0.7151   0.7029   0.6988   0.6914   0.6789
     0.6771   0.6633   0.6571   0.6539   0.6468   0.6355   0.6218   0.6192
     0.6151   0.6103   0.6053   0.5997   0.5275   0.3576   0.3189   0.2032
     0.0793   0.0464   0.0219   0.0056   0.0047   0.0003   0.0001   0.0000
     0.0000   0.0000   0.0000   0.0000   0.0000   0.0000   0.0000   0.0000
     0.0000   0.0000   0.0000   0.0000   0.0000   0.0000   0.0000   0.0000
     0.0000   0.0000   0.0000   0.0000   0.0000   0.0000   0.0000   0.0000

          k =-0.5000 0.0000 0.0000 ( 65180 PWs)   bands (ev):

   -92.7361 -92.6834 -92.5908 -92.5416 -92.4855 -92.4427 -92.4252 -92.3028
   -56.0895 -56.0687 -55.9478 -55.9368 -55.9296 -55.9236 -55.8879 -55.8598
   -55.8437 -55.8423 -55.8347 -55.7926 -55.7724 -55.7368 -55.7176 -55.6854
   -55.6770 -55.6309 -55.6298 -55.6279 -55.6195 -55.5776 -55.5555 -55.4685
   -31.3079 -31.2955 -31.1502 -31.1458 -31.0879 -31.0643 -30.7874 -30.7706
   -29.8819 -29.8421 -29.8148 -29.7071 -15.0499 -14.9965 -14.9357 -14.8297
   -14.7235 -14.5804 -14.4319 -14.2961 -14.1671 -14.1585 -14.1431 -14.0793
   -14.0265 -13.9937 -13.9444 -13.9378 -13.9220 -13.8729 -13.8617 -13.7542
   -13.5899 -13.5510 -13.5281 -13.5217 -13.4626 -13.3986 -13.3533 -13.3019
   -13.2799 -13.2776 -13.1403 -13.0885 -13.0779 -13.0570 -13.0446 -13.0186
   -12.9823 -12.9653 -12.9565 -12.9398 -12.7519 -12.6943 -12.6746 -12.6648
   -12.6470 -12.6332 -12.5748 -12.5158 -12.3914 -12.3602 -12.2075 -12.1611
   -11.8143 -11.7926 -11.7860 -11.7709 -11.7528 -11.7114 -11.6494 -11.6321
   -11.5997 -11.5533 -11.5442 -11.5288  -2.6167  -2.5785  -2.4147  -2.3759
    -2.0614  -1.9847  -1.8386  -1.7215  -1.6811  -1.6348  -1.5877  -1.5637
    -1.4407  -1.3964  -1.3800  -1.2980  -1.2637  -1.2464  -1.2162  -1.1577
    -1.0890  -1.0607  -1.0307  -0.9377  -0.8895  -0.8391  -0.8075  -0.7869
    -0.7545  -0.7082  -0.6841  -0.6450  -0.5409  -0.4785  -0.4015  -0.3431
    -0.1879  -0.1474  -0.0922  -0.0493   0.0041   0.0213   0.1561   0.1902
     0.2294   0.4049   0.5042   0.5509   0.6341   0.6962   0.8210   0.8328
     0.9674   0.9956   1.0502   1.0806   1.1156   1.1268   1.1728   1.1972
     1.2665   1.3112   1.3581   1.3692   1.6647   1.6727   1.6914   1.7150
     1.8219   1.8354   1.8428   1.8512   1.8855   1.8961   1.9320   1.9593
     1.9783   2.0422   2.0535   2.1074   2.1251   2.1865   2.2913   2.3897
     2.4660   2.4808   2.5627   2.5913   2.6091   2.6754   2.6976   2.7024
     2.7346   2.7848   2.8046   2.8557   2.9043   2.9209   2.9660   2.9701
     2.9719   2.9817   2.9973   3.0104   3.0229   3.0334   3.0469   3.0515
     3.0737   3.0939   3.0988   3.2263   3.2364   4.0256   4.1076   4.1538
     4.2737   4.7590   4.8316   5.0157   5.0280   5.4674   5.4838   5.5873
     5.6133   5.9984   6.0040   6.0472   6.7777   6.8538   6.9898   7.2576
     7.2918   7.3796   7.4039   7.5180   7.6516   7.7465   7.7677   7.8591
     8.1061   8.2950   8.4199   8.4829   8.6063   8.7233   8.7342   8.8358

     occupation numbers 
     1.0000   1.0000   1.0000   1.0000   1.0000   1.0000   1.0000   1.0000
     1.0000   1.0000   1.0000   1.0000   1.0000   1.0000   1.0000   1.0000
     1.0000   1.0000   1.0000   1.0000   1.0000   1.0000   1.0000   1.0000
     1.0000   1.0000   1.0000   1.0000   1.0000   1.0000   1.0000   1.0000
     1.0000   1.0000   1.0000   1.0000   1.0000   1.0000   1.0000   1.0000
     1.0000   1.0000   1.0000   1.0000   1.0000   1.0000   1.0000   1.0000
     1.0000   1.0000   1.0000   1.0000   1.0000   1.0000   1.0000   1.0000
     1.0000   1.0000   1.0000   1.0000   1.0000   1.0000   1.0000   1.0000
     1.0000   1.0000   1.0000   1.0000   1.0000   1.0000   1.0000   1.0000
     1.0000   1.0000   1.0000   1.0000   1.0000   1.0000   1.0000   1.0000
     1.0000   1.0000   1.0000   1.0000   1.0000   1.0000   1.0000   1.0000
     1.0000   1.0000   1.0000   1.0000   1.0000   1.0000   1.0000   1.0000
     1.0000   1.0000   1.0000   1.0000   1.0000   1.0000   1.0000   1.0000
     1.0000   1.0000   1.0000   1.0000   1.0000   1.0000   1.0000   1.0000
     1.0000   1.0000   1.0000   1.0000   1.0000   1.0000   1.0000   1.0000
     1.0000   1.0000   1.0000   1.0000   1.0000   1.0000   1.0000   1.0000
     1.0000   1.0000   1.0000   1.0000   1.0000   1.0000   1.0000   1.0000
     1.0000   1.0000   1.0000   1.0000   1.0000   1.0000   1.0000   1.0000
     1.0000   1.0000   1.0000   1.0000   1.0000   1.0000   1.0000   1.0000
     1.0000   1.0000   1.0000   1.0000   1.0000   0.9999   0.9999   0.9999
     0.9997   0.9997   0.9996   0.9995   0.9994   0.9993   0.9992   0.9991
     0.9987   0.9984   0.9980   0.9978   0.9921   0.9919   0.9912   0.9904
     0.9855   0.9847   0.9843   0.9838   0.9816   0.9809   0.9782   0.9760
     0.9744   0.9682   0.9670   0.9606   0.9584   0.9496   0.9313   0.9097
     0.8898   0.8857   0.8604   0.8508   0.8445   0.8199   0.8111   0.8091
     0.7959   0.7741   0.7652   0.7412   0.7173   0.7089   0.6856   0.6834
     0.6824   0.6773   0.6689   0.6618   0.6550   0.6492   0.6418   0.6392
     0.6268   0.6154   0.6126   0.5385   0.5326   0.1379   0.1128   0.1002
     0.0723   0.0147   0.0111   0.0052   0.0050   0.0006   0.0006   0.0003
     0.0003   0.0000   0.0000   0.0000   0.0000   0.0000   0.0000   0.0000
     0.0000   0.0000   0.0000   0.0000   0.0000   0.0000   0.0000   0.0000
     0.0000   0.0000   0.0000   0.0000   0.0000   0.0000   0.0000   0.0000

          k =-0.2500 0.2500 0.0000 ( 65198 PWs)   bands (ev):

   -92.7361 -92.6834 -92.5908 -92.5416 -92.4855 -92.4427 -92.4252 -92.3028
   -56.0895 -56.0687 -55.9478 -55.9368 -55.9296 -55.9236 -55.8879 -55.8598
   -55.8437 -55.8423 -55.8347 -55.7926 -55.7724 -55.7368 -55.7176 -55.6854
   -55.6770 -55.6309 -55.6298 -55.6279 -55.6195 -55.5776 -55.5555 -55.4685
   -31.3098 -31.2933 -31.1508 -31.1453 -31.0885 -31.0640 -30.7850 -30.7728
   -29.8823 -29.8408 -29.8158 -29.7070 -15.0524 -15.0094 -14.9381 -14.8209
   -14.7087 -14.5825 -14.4981 -14.2908 -14.1506 -14.1208 -14.1093 -14.0602
   -14.0377 -14.0172 -13.9947 -13.9604 -13.8729 -13.8600 -13.7068 -13.6813
   -13.6506 -13.6312 -13.5745 -13.5323 -13.4782 -13.4692 -13.3639 -13.3144
   -13.2576 -13.1803 -13.1391 -13.0931 -13.0740 -13.0477 -13.0264 -12.9995
   -12.9688 -12.9612 -12.9289 -12.8938 -12.8052 -12.7804 -12.7496 -12.7295
   -12.7186 -12.6745 -12.5159 -12.4760 -12.4277 -12.3163 -12.1552 -12.1067
   -11.8342 -11.8127 -11.7857 -11.7735 -11.7323 -11.6981 -11.6744 -11.6536
   -11.6307 -11.5460 -11.5008 -11.4912  -2.7016  -2.4937  -2.3728  -2.2831
    -2.1660  -2.0994  -1.8947  -1.7512  -1.7326  -1.7004  -1.6107  -1.5759
    -1.4828  -1.4484  -1.4223  -1.2800  -1.2243  -1.1549  -1.1271  -1.0658
    -1.0462  -1.0057  -0.9770  -0.9366  -0.8737  -0.8263  -0.7602  -0.6942
    -0.6698  -0.6184  -0.5903  -0.5446  -0.4851  -0.4360  -0.3994  -0.2958
    -0.2672  -0.2535  -0.2102  -0.1467  -0.0736  -0.0334   0.0029   0.0672
     0.0974   0.3540   0.5266   0.5651   0.6046   0.6620   0.7071   0.7609
     0.8328   0.8643   1.1467   1.2554   1.2948   1.3296   1.3350   1.3772
     1.3926   1.4382   1.4697   1.4832   1.5093   1.5558   1.5697   1.6105
     1.6322   1.6756   1.7605   1.7746   1.7975   1.8255   1.8614   1.8980
     1.9443   2.0572   2.1690   2.1966   2.2441   2.2629   2.3257   2.3705
     2.3980   2.4213   2.4419   2.5442   2.5831   2.6703   2.7749   2.8536
     2.8569   2.8703   2.8805   2.8903   2.9070   2.9140   2.9295   2.9398
     2.9525   2.9626   2.9744   2.9852   2.9908   3.0260   3.0356   3.0429
     3.0768   3.3691   3.4498   3.5199   3.5825   3.6095   3.8157   3.9271
     4.2647   4.4711   4.6894   4.9525   5.1569   5.6157   5.6702   5.7505
     5.8002   5.8645   6.0546   6.1563   6.1861   6.7673   6.8808   7.0816
     7.2437   7.5418   7.5864   7.6469   7.7341   7.8584   7.9296   8.1071
     8.1664   8.2154   8.2927   8.3028   8.4177   8.4492   8.6858   8.8438

     occupation numbers 
     1.0000   1.0000   1.0000   1.0000   1.0000   1.0000   1.0000   1.0000
     1.0000   1.0000   1.0000   1.0000   1.0000   1.0000   1.0000   1.0000
     1.0000   1.0000   1.0000   1.0000   1.0000   1.0000   1.0000   1.0000
     1.0000   1.0000   1.0000   1.0000   1.0000   1.0000   1.0000   1.0000
     1.0000   1.0000   1.0000   1.0000   1.0000   1.0000   1.0000   1.0000
     1.0000   1.0000   1.0000   1.0000   1.0000   1.0000   1.0000   1.0000
     1.0000   1.0000   1.0000   1.0000   1.0000   1.0000   1.0000   1.0000
     1.0000   1.0000   1.0000   1.0000   1.0000   1.0000   1.0000   1.0000
     1.0000   1.0000   1.0000   1.0000   1.0000   1.0000   1.0000   1.0000
     1.0000   1.0000   1.0000   1.0000   1.0000   1.0000   1.0000   1.0000
     1.0000   1.0000   1.0000   1.0000   1.0000   1.0000   1.0000   1.0000
     1.0000   1.0000   1.0000   1.0000   1.0000   1.0000   1.0000   1.0000
     1.0000   1.0000   1.0000   1.0000   1.0000   1.0000   1.0000   1.0000
     1.0000   1.0000   1.0000   1.0000   1.0000   1.0000   1.0000   1.0000
     1.0000   1.0000   1.0000   1.0000   1.0000   1.0000   1.0000   1.0000
     1.0000   1.0000   1.0000   1.0000   1.0000   1.0000   1.0000   1.0000
     1.0000   1.0000   1.0000   1.0000   1.0000   1.0000   1.0000   1.0000
     1.0000   1.0000   1.0000   1.0000   1.0000   1.0000   1.0000   1.0000
     1.0000   1.0000   1.0000   1.0000   1.0000   1.0000   1.0000   1.0000
     1.0000   1.0000   1.0000   1.0000   1.0000   1.0000   0.9999   0.9999
     0.9999   0.9998   0.9993   0.9988   0.9985   0.9982   0.9982   0.9978
     0.9976   0.9970   0.9966   0.9964   0.9959   0.9950   0.9947   0.9937
     0.9931   0.9918   0.9885   0.9879   0.9867   0.9853   0.9831   0.9807
     0.9773   0.9666   0.9522   0.9480   0.9401   0.9367   0.9242   0.9143
     0.9077   0.9018   0.8965   0.8664   0.8536   0.8219   0.7785   0.7422
     0.7406   0.7341   0.7292   0.7243   0.7160   0.7124   0.7045   0.6992
     0.6927   0.6874   0.6811   0.6754   0.6724   0.6533   0.6480   0.6440
     0.6251   0.4541   0.4071   0.3672   0.3328   0.3184   0.2182   0.1726
     0.0742   0.0399   0.0190   0.0068   0.0028   0.0003   0.0002   0.0001
     0.0001   0.0001   0.0000   0.0000   0.0000   0.0000   0.0000   0.0000
     0.0000   0.0000   0.0000   0.0000   0.0000   0.0000   0.0000   0.0000
     0.0000   0.0000   0.0000   0.0000   0.0000   0.0000   0.0000   0.0000

          k =-0.5000 0.2500 0.0000 ( 65138 PWs)   bands (ev):

   -92.7361 -92.6834 -92.5908 -92.5416 -92.4855 -92.4427 -92.4252 -92.3028
   -56.0895 -56.0687 -55.9478 -55.9368 -55.9296 -55.9236 -55.8879 -55.8598
   -55.8437 -55.8423 -55.8347 -55.7926 -55.7724 -55.7368 -55.7176 -55.6854
   -55.6770 -55.6309 -55.6298 -55.6279 -55.6195 -55.5776 -55.5555 -55.4685
   -31.3078 -31.2954 -31.1504 -31.1453 -31.0884 -31.0644 -30.7851 -30.7729
   -29.8813 -29.8418 -29.8154 -29.7074 -15.0168 -14.9704 -14.8926 -14.7952
   -14.7536 -14.6270 -14.5369 -14.4111 -14.1013 -14.0704 -14.0584 -14.0121
   -13.9917 -13.9672 -13.9304 -13.9232 -13.9005 -13.8641 -13.8532 -13.7458
   -13.6724 -13.6233 -13.6169 -13.5960 -13.5143 -13.5019 -13.4009 -13.3600
   -13.2335 -13.1989 -13.1050 -13.0897 -13.0606 -13.0499 -13.0310 -13.0001
   -12.9779 -12.9691 -12.9495 -12.8983 -12.7563 -12.7373 -12.7126 -12.6762
   -12.6563 -12.6474 -12.5729 -12.4437 -12.3556 -12.3237 -12.2073 -12.1763
   -11.8070 -11.7941 -11.7800 -11.7683 -11.7464 -11.7162 -11.6366 -11.6279
   -11.6049 -11.5679 -11.5399 -11.5314  -2.4743  -2.4325  -2.2844  -2.2426
    -2.0812  -2.0035  -1.8628  -1.7276  -1.6688  -1.6428  -1.6037  -1.5664
    -1.4855  -1.3704  -1.3132  -1.2905  -1.2638  -1.1862  -1.1595  -1.1199
    -1.1033  -1.0422  -1.0124  -0.9739  -0.9392  -0.9103  -0.8521  -0.8256
    -0.7847  -0.7485  -0.6433  -0.6183  -0.5234  -0.4710  -0.4341  -0.3735
    -0.2961  -0.2639  -0.1600  -0.1245  -0.0643  -0.0169   0.0206   0.0840
     0.1094   0.1415   0.1965   0.2348   0.5534   0.6109   0.6616   0.6785
     0.9787   1.0401   1.1124   1.1415   1.3156   1.3509   1.3883   1.4008
     1.4184   1.4360   1.5069   1.5506   1.5913   1.6235   1.7365   1.7807
     1.8077   1.8172   1.8492   1.8824   1.8965   1.9060   1.9275   1.9520
     1.9924   2.0158   2.0480   2.0724   2.1030   2.1627   2.2829   2.3821
     2.4121   2.4790   2.5177   2.5785   2.6096   2.6220   2.6610   2.6893
     2.7156   2.7814   2.8047   2.8482   2.8606   2.8714   2.8851   2.9068
     2.9184   2.9371   2.9462   2.9687   2.9824   2.9917   3.0002   3.0084
     3.0200   3.5524   3.5879   3.7408   3.7592   4.0330   4.1156   4.1670
     4.3627   4.7532   4.8482   5.0162   5.0451   5.3799   5.3990   5.5640
     5.6219   5.7151   5.7689   6.1460   6.3729   6.4828   6.7274   7.0236
     7.4798   7.5200   7.6900   7.7407   7.7741   7.8628   7.9962   8.1284
     8.2988   8.4131   8.4734   8.4926   8.5486   8.6217   8.6653   8.7223

     occupation numbers 
     1.0000   1.0000   1.0000   1.0000   1.0000   1.0000   1.0000   1.0000
     1.0000   1.0000   1.0000   1.0000   1.0000   1.0000   1.0000   1.0000
     1.0000   1.0000   1.0000   1.0000   1.0000   1.0000   1.0000   1.0000
     1.0000   1.0000   1.0000   1.0000   1.0000   1.0000   1.0000   1.0000
     1.0000   1.0000   1.0000   1.0000   1.0000   1.0000   1.0000   1.0000
     1.0000   1.0000   1.0000   1.0000   1.0000   1.0000   1.0000   1.0000
     1.0000   1.0000   1.0000   1.0000   1.0000   1.0000   1.0000   1.0000
     1.0000   1.0000   1.0000   1.0000   1.0000   1.0000   1.0000   1.0000
     1.0000   1.0000   1.0000   1.0000   1.0000   1.0000   1.0000   1.0000
     1.0000   1.0000   1.0000   1.0000   1.0000   1.0000   1.0000   1.0000
     1.0000   1.0000   1.0000   1.0000   1.0000   1.0000   1.0000   1.0000
     1.0000   1.0000   1.0000   1.0000   1.0000   1.0000   1.0000   1.0000
     1.0000   1.0000   1.0000   1.0000   1.0000   1.0000   1.0000   1.0000
     1.0000   1.0000   1.0000   1.0000   1.0000   1.0000   1.0000   1.0000
     1.0000   1.0000   1.0000   1.0000   1.0000   1.0000   1.0000   1.0000
     1.0000   1.0000   1.0000   1.0000   1.0000   1.0000   1.0000   1.0000
     1.0000   1.0000   1.0000   1.0000   1.0000   1.0000   1.0000   1.0000
     1.0000   1.0000   1.0000   1.0000   1.0000   1.0000   1.0000   1.0000
     1.0000   1.0000   1.0000   1.0000   1.0000   1.0000   1.0000   1.0000
     1.0000   1.0000   1.0000   1.0000   1.0000   1.0000   1.0000   0.9999
     0.9997   0.9996   0.9994   0.9993   0.9983   0.9980   0.9976   0.9975
     0.9973   0.9971   0.9960   0.9951   0.9942   0.9934   0.9895   0.9876
     0.9862   0.9857   0.9839   0.9818   0.9808   0.9802   0.9786   0.9767
     0.9731   0.9709   0.9676   0.9649   0.9612   0.9531   0.9329   0.9116
     0.9042   0.8862   0.8747   0.8551   0.8443   0.8399   0.8254   0.8144
     0.8038   0.7756   0.7651   0.7448   0.7389   0.7336   0.7269   0.7161
     0.7102   0.7006   0.6959   0.6841   0.6769   0.6719   0.6673   0.6629
     0.6566   0.3492   0.3299   0.2523   0.2437   0.1354   0.1105   0.0968
     0.0558   0.0150   0.0104   0.0052   0.0046   0.0010   0.0009   0.0004
     0.0003   0.0002   0.0001   0.0000   0.0000   0.0000   0.0000   0.0000
     0.0000   0.0000   0.0000   0.0000   0.0000   0.0000   0.0000   0.0000
     0.0000   0.0000   0.0000   0.0000   0.0000   0.0000   0.0000   0.0000

     the Fermi energy is     3.2915 ev

!    total energy              =   -4399.91907359 Ry
     estimated scf accuracy    <          5.9E-09 Ry
     smearing contrib. (-TS)   =      -1.14700546 Ry
     internal energy E=F+TS    =   -4398.77206812 Ry

     The total energy is F=E-TS. E is the sum of the following terms:
     one-electron contribution =  -21252.21596117 Ry
     hartree contribution      =   10753.70055252 Ry
     xc contribution           =    -686.72638738 Ry
     ewald contribution        =    7053.11488146 Ry
     one-center paw contrib.   =    -266.64515354 Ry
      -> PAW hartree energy AE =      25.15309478 Ry
      -> PAW hartree energy PS =     -25.03711118 Ry
      -> PAW xc energy AE      =     -16.51607239 Ry
      -> PAW xc energy PS      =       6.87547618 Ry
      -> total E_H with PAW    =   10753.81653612 Ry
      -> total E_XC with PAW   =    -696.36698359 Ry

     convergence has been achieved in  50 iterations

     Writing all to output data dir /bsuhome/zayahcortright/scratch/pwscf.save/
 
     init_run     :      7.88s CPU      8.34s WALL (       1 calls)
     electrons    :    710.02s CPU    722.40s WALL (       1 calls)

     Called by init_run:
     wfcinit      :      6.35s CPU      6.45s WALL (       1 calls)
     wfcinit:atom :      0.05s CPU      0.06s WALL (       5 calls)
     wfcinit:wfcr :      6.01s CPU      6.08s WALL (       5 calls)
     potinit      :      0.17s CPU      0.19s WALL (       1 calls)
     hinit0       :      0.49s CPU      0.74s WALL (       1 calls)

     Called by electrons:
     c_bands      :    560.35s CPU    565.03s WALL (      50 calls)
     sum_band     :    112.32s CPU    116.69s WALL (      50 calls)
     v_of_rho     :      5.45s CPU      5.77s WALL (      51 calls)
     v_h          :      0.49s CPU      0.50s WALL (      51 calls)
     v_xc         :      4.96s CPU      5.27s WALL (      51 calls)
     newd         :     17.08s CPU     19.72s WALL (      51 calls)
     PAW_pot      :      1.60s CPU      1.62s WALL (      51 calls)
     mix_rho      :     12.86s CPU     13.13s WALL (      50 calls)

     Called by c_bands:
     init_us_2    :      7.15s CPU      7.20s WALL (     505 calls)
     init_us_2:cp :      7.15s CPU      7.20s WALL (     505 calls)
     cegterg      :    530.00s CPU    534.51s WALL (     250 calls)

     Called by sum_band:
     sum_band:wei :      0.35s CPU      0.35s WALL (      50 calls)
     sum_band:loo :     92.36s CPU     93.01s WALL (      50 calls)
     sum_band:buf :      1.52s CPU      1.54s WALL (     250 calls)
     sum_band:ini :      3.42s CPU      3.43s WALL (     250 calls)
     sum_band:cal :     18.79s CPU     18.84s WALL (     250 calls)
     sum_band:bec :      0.59s CPU      0.59s WALL (     250 calls)
     addusdens    :     18.64s CPU     22.34s WALL (      50 calls)
                                        0.00s GPU  (      50 calls)
     addusd:skk   :      0.34s CPU      0.69s WALL (     200 calls)
                                        0.00s GPU  (     200 calls)

     Called by *egterg:
     cdiaghg      :     56.86s CPU     57.06s WALL (    1321 calls)
     cegterg:over :     37.99s CPU     38.13s WALL (    1071 calls)
     cegterg:upda :     28.04s CPU     28.37s WALL (    1071 calls)
     cegterg:last :     57.70s CPU     57.87s WALL (     454 calls)
     cdiaghg:chol :      3.21s CPU      3.23s WALL (    1321 calls)
     cdiaghg:inve :      3.49s CPU      3.50s WALL (    1321 calls)
     cdiaghg:para :      7.29s CPU      7.32s WALL (    2642 calls)
     h_psi        :    294.59s CPU    297.19s WALL (    1326 calls)
     s_psi        :     39.83s CPU     39.94s WALL (    1326 calls)
     g_psi        :      1.18s CPU      1.18s WALL (    1071 calls)

     Called by h_psi:
     h_psi:calbec :     42.97s CPU     43.10s WALL (    1326 calls)
     vloc_psi     :    208.76s CPU    210.67s WALL (    1326 calls)
     add_vuspsi   :     39.56s CPU     39.68s WALL (    1326 calls)

     General routines
     calbec       :     61.75s CPU     61.93s WALL (    1576 calls)
     fft          :      3.60s CPU      3.67s WALL (     661 calls)
     ffts         :      4.77s CPU      4.80s WALL (    5400 calls)
     fftw         :    180.76s CPU    182.17s WALL (  334168 calls)
     interpolate  :      0.41s CPU      0.42s WALL (      51 calls)
 
     Parallel routines

     PAW routines
     PAW_pot      :      1.60s CPU      1.62s WALL (      51 calls)
 
     PWSCF        :  11m59.67s CPU  12m15.23s WALL

 
   This run was terminated on:  14:35: 0  21Jun2024            

=------------------------------------------------------------------------------=
   JOB DONE.
=------------------------------------------------------------------------------=
