
     Program PWSCF v.7.2 starts on 18Jun2024 at 21:42: 6 

     This program is part of the open-source Quantum ESPRESSO suite
     for quantum simulation of materials; please cite
         "P. Giannozzi et al., J. Phys.:Condens. Matter 21 395502 (2009);
         "P. Giannozzi et al., J. Phys.:Condens. Matter 29 465901 (2017);
         "P. Giannozzi et al., J. Chem. Phys. 152 154105 (2020);
          URL http://www.quantum-espresso.org", 
     in publications or presentations arising from this work. More details at
     http://www.quantum-espresso.org/quote

     Parallel version (MPI & OpenMP), running on      48 processor cores
     Number of MPI processes:                48
     Threads/MPI process:                     1

     MPI processes distributed on     1 nodes
     16417 MiB available memory on the printing compute node when the environment starts
 
     Reading input from espresso.pwi
Warning: card &CELL ignored
Warning: card / ignored
Warning: card &FCP ignored
Warning: card / ignored
Warning: card &RISM ignored
Warning: card / ignored

     Current dimensions of program PWSCF are:
     Max number of different atomic species (ntypx) = 10
     Max number of k-points (npk) =  40000
     Max angular momentum in pseudopotentials (lmaxx) =  4
     file O.pbe-n-kjpaw_psl.0.1.UPF: wavefunction(s)  2P renormalized
     signal trapping enabled: kill the code with -SIGUSR1 to stop cleanly the simulation 
 
     K-points division:     npool     =       2
     R & G space division:  proc/nbgrp/npool/nimage =      24
     Subspace diagonalization in iterative solution of the eigenvalue problem:
     one sub-group per band group will be used
     scalapack distributed-memory algorithm (size of sub-group:  3*  3 procs)

 
     Parallelization info
     --------------------
     sticks:   dense  smooth     PW     G-vecs:    dense   smooth      PW
     Min         350     175     47                61430    21716    3036
     Max         351     177     48                61449    21727    3041
     Sum        8421    4205   1137              1474595   521381   72913
 
     Using Slab Decomposition
 


     bravais-lattice index     =            0
     lattice parameter (alat)  =      14.8599  a.u.
     unit-cell volume          =    8305.1283 (a.u.)^3
     number of atoms/cell      =           51
     number of atomic types    =            4
     number of electrons       =       437.00
     number of Kohn-Sham states=          263
     kinetic-energy cutoff     =      60.0000  Ry
     charge density cutoff     =     480.0000  Ry
     scf convergence threshold =      1.0E-08
     mixing beta               =       0.1500
     number of iterations used =            8  local-TF  mixing
     Exchange-correlation= PBE
                           (   1   4   3   4   0   0   0)

     celldm(1)=  14.859904  celldm(2)=   0.000000  celldm(3)=   0.000000
     celldm(4)=   0.000000  celldm(5)=   0.000000  celldm(6)=   0.000000

     crystal axes: (cart. coord. in units of alat)
               a(1) = (   1.000000   0.000000   0.000000 )  
               a(2) = (   0.000000   1.000000   0.000000 )  
               a(3) = (   0.000000   0.000000   2.531036 )  

     reciprocal axes: (cart. coord. in units 2 pi/alat)
               b(1) = (  1.000000  0.000000  0.000000 )  
               b(2) = (  0.000000  1.000000  0.000000 )  
               b(3) = (  0.000000  0.000000  0.395095 )  


     PseudoPot. # 1 for Sr read from file:
     /bsuhome/zayahcortright/q-e/pseudo/Sr_pbe_v1.uspp.F.UPF
     MD5 check sum: 6b418c05fbe9db5448babca5e47b7a5b
     Pseudo is Ultrasoft + core correction, Zval = 10.0
     Generated by new atomic code, or converted to UPF format
     Using radial grid of  883 points,  6 beta functions with: 
                l(1) =   0
                l(2) =   0
                l(3) =   1
                l(4) =   1
                l(5) =   2
                l(6) =   2
     Q(r) pseudized with  6 coefficients,  rinner =    1.400   1.400   1.400
                                                       1.400   1.400

     PseudoPot. # 2 for O  read from file:
     /bsuhome/zayahcortright/q-e/pseudo/O.pbe-n-kjpaw_psl.0.1.UPF
     MD5 check sum: 0234752ac141de4415c5fc33072bef88
     Pseudo is Projector augmented-wave + core cor, Zval =  6.0
     Generated using "atomic" code by A. Dal Corso  v.5.0.99 svn rev. 10869
     Shape of augmentation charge: BESSEL
     Using radial grid of 1095 points,  4 beta functions with: 
                l(1) =   0
                l(2) =   0
                l(3) =   1
                l(4) =   1
     Q(r) pseudized with 0 coefficients 


     PseudoPot. # 3 for Co read from file:
     /bsuhome/zayahcortright/q-e/pseudo/Co_pbe_v1.2.uspp.F.UPF
     MD5 check sum: 5f91765df6ddd3222702df6e7b74a16d
     Pseudo is Ultrasoft + core correction, Zval = 17.0
     Generated by new atomic code, or converted to UPF format
     Using radial grid of  863 points,  6 beta functions with: 
                l(1) =   0
                l(2) =   0
                l(3) =   1
                l(4) =   1
                l(5) =   2
                l(6) =   2
     Q(r) pseudized with  8 coefficients,  rinner =    1.200   1.200   1.200
                                                       1.200   1.200

     PseudoPot. # 4 for H  read from file:
     /bsuhome/zayahcortright/q-e/pseudo/H.pbe-rrkjus_psl.1.0.0.UPF
     MD5 check sum: f52b6d4d1c606e5624b1dc7b2218f220
     Pseudo is Ultrasoft, Zval =  1.0
     Generated using "atomic" code by A. Dal Corso  v.5.1
     Using radial grid of  929 points,  2 beta functions with: 
                l(1) =   0
                l(2) =   0
     Q(r) pseudized with 0 coefficients 


     atomic species   valence    mass     pseudopotential
        Sr            10.00    87.62000     Sr( 1.00)
        O              6.00    15.99900     O ( 1.00)
        Co            17.00    58.93319     Co( 1.00)
        H              1.00     1.00800     H ( 1.00)

     No symmetry found


                                    s                        frac. trans.

      isym =  1     identity                                     

 cryst.   s( 1) = (     1          0          0      )
                  (     0          1          0      )
                  (     0          0          1      )

 cart.    s( 1) = (  1.0000000  0.0000000  0.0000000 )
                  (  0.0000000  1.0000000  0.0000000 )
                  (  0.0000000  0.0000000  1.0000000 )


   Cartesian axes

     site n.     atom                  positions (alat units)
         1           Sr  tau(   1) = (   0.2508693   0.7491307   1.7574407  )
         2           O   tau(   2) = (   0.4985141   0.5014859   1.7715967  )
         3           Sr  tau(   3) = (   0.7482398   0.7454518   1.7648669  )
         4           Sr  tau(   4) = (   0.7441748   0.2558252   1.7667843  )
         5           Sr  tau(   5) = (   0.2508693   0.7491307   1.2696799  )
         6           Sr  tau(   6) = (   0.2508693   0.7491307   0.7632319  )
         7           Co  tau(   7) = (   0.4998914   0.5001086   1.0164559  )
         8           Co  tau(   8) = (   0.4936915   0.5063085   1.5135603  )
         9           O   tau(   9) = (   0.4988895   0.7610401   1.0164559  )
        10           O   tau(  10) = (   0.2389599   0.5011105   1.0164559  )
        11           O   tau(  11) = (   0.0070918   0.7374880   1.0164559  )
        12           O   tau(  12) = (   0.0088340   0.7405089   1.5135603  )
        13           O   tau(  13) = (   0.5066944   0.7415376   1.5135603  )
        14           O   tau(  14) = (   0.2584624   0.4933056   1.5135603  )
        15           O   tau(  15) = (   0.4985141   0.5014859   0.7773880  )
        16           O   tau(  16) = (   0.4985141   0.5014859   1.2555238  )
        17           Sr  tau(  17) = (   0.7482398   0.7454518   0.7706582  )
        18           Sr  tau(  18) = (   0.7482398   0.7454518   1.2622536  )
        19           Sr  tau(  19) = (   0.7441748   0.2558252   0.7725755  )
        20           Sr  tau(  20) = (   0.7441748   0.2558252   1.2603363  )
        21           O   tau(  21) = (   0.7322655   0.0078049   1.5135603  )
        22           O   tau(  22) = (   0.7558175   0.4996027   1.5135603  )
        23           O   tau(  23) = (   0.5003973   0.2441825   1.5135603  )
        24           O   tau(  24) = (   0.7527966   0.4978604   1.0164559  )
        25           O   tau(  25) = (   0.5021396   0.2472034   1.0164559  )
        26           O   tau(  26) = (   0.7517679   0.0000000   1.0164559  )
        27           O   tau(  27) = (   0.0114961   0.4948124   1.7455321  )
        28           O   tau(  28) = (   0.0048226   0.0077944   1.7715967  )
        29           Sr  tau(  29) = (   0.2545482   0.2517602   1.7648669  )
        30           O   tau(  30) = (   0.5048017   0.0015068   1.7786929  )
        31           Co  tau(  31) = (   0.0056869   0.5006215   1.0164559  )
        32           Co  tau(  32) = (   0.0065315   0.4997770   1.5135603  )
        33           Co  tau(  33) = (   0.0061999   0.0064171   1.0164559  )
        34           Co  tau(  34) = (   0.0000000   0.0126169   1.5135603  )
        35           O   tau(  35) = (   0.0114961   0.4948124   1.2815885  )
        36           O   tau(  36) = (   0.0114961   0.4948124   0.7513233  )
        37           O   tau(  37) = (   0.0051979   0.2673486   1.0164559  )
        38           O   tau(  38) = (   0.0130029   0.2478461   1.5135603  )
        39           O   tau(  39) = (   0.0048226   0.0077944   0.7773880  )
        40           O   tau(  40) = (   0.0048226   0.0077944   1.2555238  )
        41           Sr  tau(  41) = (   0.2545482   0.2517602   0.7706582  )
        42           Sr  tau(  42) = (   0.2545482   0.2517602   1.2622536  )
        43           Co  tau(  43) = (   0.4989925   0.0073160   1.5135603  )
        44           Co  tau(  44) = (   0.4998370   0.0064714   1.0164559  )
        45           O   tau(  45) = (   0.5048017   0.0015068   0.7844841  )
        46           O   tau(  46) = (   0.5048017   0.0015068   1.2484277  )
        47           O   tau(  47) = (   0.2621260   0.0059111   1.5135603  )
        48           O   tau(  48) = (   0.2591051   0.0041689   1.0164559  )
        49           O   tau(  49) = (   0.2843291   0.2843291   2.1602013  )
        50           O   tau(  50) = (   0.2843291   0.2843291   2.3186489  )
        51           H   tau(  51) = (   0.2843291   0.2843291   2.4431567  )

   Crystallographic axes

     site n.     atom                  positions (cryst. coord.)
         1           Sr  tau(   1) = (  0.2508693  0.7491307  0.6943562  )
         2           O   tau(   2) = (  0.4985141  0.5014859  0.6999492  )
         3           Sr  tau(   3) = (  0.7482398  0.7454518  0.6972903  )
         4           Sr  tau(   4) = (  0.7441748  0.2558252  0.6980478  )
         5           Sr  tau(   5) = (  0.2508693  0.7491307  0.5016443  )
         6           Sr  tau(   6) = (  0.2508693  0.7491307  0.3015492  )
         7           Co  tau(   7) = (  0.4998914  0.5001086  0.4015968  )
         8           Co  tau(   8) = (  0.4936915  0.5063085  0.5980003  )
         9           O   tau(   9) = (  0.4988895  0.7610401  0.4015968  )
        10           O   tau(  10) = (  0.2389599  0.5011105  0.4015968  )
        11           O   tau(  11) = (  0.0070918  0.7374880  0.4015968  )
        12           O   tau(  12) = (  0.0088340  0.7405089  0.5980003  )
        13           O   tau(  13) = (  0.5066944  0.7415376  0.5980003  )
        14           O   tau(  14) = (  0.2584624  0.4933056  0.5980003  )
        15           O   tau(  15) = (  0.4985141  0.5014859  0.3071422  )
        16           O   tau(  16) = (  0.4985141  0.5014859  0.4960513  )
        17           Sr  tau(  17) = (  0.7482398  0.7454518  0.3044833  )
        18           Sr  tau(  18) = (  0.7482398  0.7454518  0.4987103  )
        19           Sr  tau(  19) = (  0.7441748  0.2558252  0.3052408  )
        20           Sr  tau(  20) = (  0.7441748  0.2558252  0.4979527  )
        21           O   tau(  21) = (  0.7322655  0.0078049  0.5980003  )
        22           O   tau(  22) = (  0.7558175  0.4996027  0.5980003  )
        23           O   tau(  23) = (  0.5003973  0.2441825  0.5980003  )
        24           O   tau(  24) = (  0.7527966  0.4978604  0.4015968  )
        25           O   tau(  25) = (  0.5021396  0.2472034  0.4015968  )
        26           O   tau(  26) = (  0.7517679  0.0000000  0.4015968  )
        27           O   tau(  27) = (  0.0114961  0.4948124  0.6896512  )
        28           O   tau(  28) = (  0.0048226  0.0077944  0.6999492  )
        29           Sr  tau(  29) = (  0.2545482  0.2517602  0.6972903  )
        30           O   tau(  30) = (  0.5048017  0.0015068  0.7027529  )
        31           Co  tau(  31) = (  0.0056869  0.5006215  0.4015968  )
        32           Co  tau(  32) = (  0.0065315  0.4997770  0.5980003  )
        33           Co  tau(  33) = (  0.0061999  0.0064171  0.4015968  )
        34           Co  tau(  34) = (  0.0000000  0.0126169  0.5980003  )
        35           O   tau(  35) = (  0.0114961  0.4948124  0.5063494  )
        36           O   tau(  36) = (  0.0114961  0.4948124  0.2968442  )
        37           O   tau(  37) = (  0.0051979  0.2673486  0.4015968  )
        38           O   tau(  38) = (  0.0130029  0.2478461  0.5980003  )
        39           O   tau(  39) = (  0.0048226  0.0077944  0.3071422  )
        40           O   tau(  40) = (  0.0048226  0.0077944  0.4960513  )
        41           Sr  tau(  41) = (  0.2545482  0.2517602  0.3044833  )
        42           Sr  tau(  42) = (  0.2545482  0.2517602  0.4987103  )
        43           Co  tau(  43) = (  0.4989925  0.0073160  0.5980003  )
        44           Co  tau(  44) = (  0.4998370  0.0064714  0.4015968  )
        45           O   tau(  45) = (  0.5048017  0.0015068  0.3099459  )
        46           O   tau(  46) = (  0.5048017  0.0015068  0.4932477  )
        47           O   tau(  47) = (  0.2621260  0.0059111  0.5980003  )
        48           O   tau(  48) = (  0.2591051  0.0041689  0.4015968  )
        49           O   tau(  49) = (  0.2843291  0.2843291  0.8534850  )
        50           O   tau(  50) = (  0.2843291  0.2843291  0.9160869  )
        51           H   tau(  51) = (  0.2843291  0.2843291  0.9652793  )

     number of k points=    10  Gaussian smearing, width (Ry)=  0.0700
                       cart. coord. in units 2pi/alat
        k(    1) = (   0.0000000   0.0000000   0.0000000), wk =   0.1250000
        k(    2) = (   0.0000000   0.2500000   0.0000000), wk =   0.2500000
        k(    3) = (   0.0000000  -0.5000000   0.0000000), wk =   0.1250000
        k(    4) = (   0.2500000   0.2500000   0.0000000), wk =   0.2500000
        k(    5) = (   0.2500000  -0.5000000   0.0000000), wk =   0.2500000
        k(    6) = (  -0.5000000  -0.5000000   0.0000000), wk =   0.1250000
        k(    7) = (   0.2500000   0.0000000   0.0000000), wk =   0.2500000
        k(    8) = (  -0.5000000   0.0000000   0.0000000), wk =   0.1250000
        k(    9) = (  -0.2500000   0.2500000   0.0000000), wk =   0.2500000
        k(   10) = (  -0.5000000   0.2500000   0.0000000), wk =   0.2500000

                       cryst. coord.
        k(    1) = (   0.0000000   0.0000000   0.0000000), wk =   0.1250000
        k(    2) = (   0.0000000   0.2500000   0.0000000), wk =   0.2500000
        k(    3) = (   0.0000000  -0.5000000   0.0000000), wk =   0.1250000
        k(    4) = (   0.2500000   0.2500000   0.0000000), wk =   0.2500000
        k(    5) = (   0.2500000  -0.5000000   0.0000000), wk =   0.2500000
        k(    6) = (  -0.5000000  -0.5000000   0.0000000), wk =   0.1250000
        k(    7) = (   0.2500000   0.0000000   0.0000000), wk =   0.2500000
        k(    8) = (  -0.5000000   0.0000000   0.0000000), wk =   0.1250000
        k(    9) = (  -0.2500000   0.2500000   0.0000000), wk =   0.2500000
        k(   10) = (  -0.5000000   0.2500000   0.0000000), wk =   0.2500000

     Dense  grid:  1474595 G-vectors     FFT dimensions: ( 108, 108, 270)

     Smooth grid:   521381 G-vectors     FFT dimensions: (  75,  75, 192)

     Dynamical RAM for                 wfc:      10.90 MB

     Dynamical RAM for     wfc (w. buffer):      65.37 MB

     Dynamical RAM for           str. fact:       3.75 MB

     Dynamical RAM for           local pot:       0.00 MB

     Dynamical RAM for          nlocal pot:      24.94 MB

     Dynamical RAM for                qrad:       7.03 MB

     Dynamical RAM for          rho,v,vnew:       6.02 MB

     Dynamical RAM for               rhoin:       2.01 MB

     Dynamical RAM for            rho*nmix:      15.00 MB

     Dynamical RAM for           G-vectors:       3.68 MB

     Dynamical RAM for          h,s,v(r/c):       1.40 MB

     Dynamical RAM for          <psi|beta>:       2.42 MB

     Dynamical RAM for                 psi:      21.79 MB

     Dynamical RAM for                hpsi:      21.79 MB

     Dynamical RAM for                spsi:      21.79 MB

     Dynamical RAM for      wfcinit/wfcrot:      34.89 MB

     Dynamical RAM for           addusdens:     101.73 MB

     Estimated static dynamical RAM per process >     122.82 MB

     Estimated max dynamical RAM per process >     239.55 MB

     Estimated total dynamical RAM >      10.88 GB

     Check: negative core charge=   -0.000004

     Initial potential from superposition of free atoms

     starting charge     428.5961, renormalised to     437.0000

     negative rho (up, down):  7.813E-01 0.000E+00
     Starting wfcs are  381 randomized atomic wfcs
     Checking if some PAW data can be deallocated... 
       PAW data deallocated on   18 nodes for type:  2

     total cpu time spent up to now is        9.2 secs

     Self-consistent Calculation

     iteration #  1     ecut=    60.00 Ry     beta= 0.15
     Davidson diagonalization with overlap

---- Real-time Memory Report at c_bands before calling an iterative solver
             0 MiB given to the printing process from OS
             0 MiB allocation reported by mallinfo(arena+hblkhd)
          6912 MiB available memory on the node where the printing process lives
------------------
     ethr =  1.00E-02,  avg # of iterations =  2.0

     negative rho (up, down):  7.715E-01 0.000E+00

     total cpu time spent up to now is       25.2 secs

     total energy              =   -4489.29187565 Ry
     estimated scf accuracy    <      49.68875300 Ry

     iteration #  2     ecut=    60.00 Ry     beta= 0.15
     Davidson diagonalization with overlap

---- Real-time Memory Report at c_bands before calling an iterative solver
             0 MiB given to the printing process from OS
             0 MiB allocation reported by mallinfo(arena+hblkhd)
          7197 MiB available memory on the node where the printing process lives
------------------
     ethr =  1.00E-02,  avg # of iterations =  1.0

     negative rho (up, down):  7.614E-01 0.000E+00

     total cpu time spent up to now is       38.3 secs

     total energy              =   -4486.81464002 Ry
     estimated scf accuracy    <      35.28337889 Ry

     iteration #  3     ecut=    60.00 Ry     beta= 0.15
     Davidson diagonalization with overlap

---- Real-time Memory Report at c_bands before calling an iterative solver
             0 MiB given to the printing process from OS
             0 MiB allocation reported by mallinfo(arena+hblkhd)
          6399 MiB available memory on the node where the printing process lives
------------------
     ethr =  8.07E-03,  avg # of iterations =  1.0

     negative rho (up, down):  7.563E-01 0.000E+00

     total cpu time spent up to now is       51.4 secs

     total energy              =   -4486.76288403 Ry
     estimated scf accuracy    <      35.20191612 Ry

     iteration #  4     ecut=    60.00 Ry     beta= 0.15
     Davidson diagonalization with overlap

---- Real-time Memory Report at c_bands before calling an iterative solver
             0 MiB given to the printing process from OS
             0 MiB allocation reported by mallinfo(arena+hblkhd)
          6378 MiB available memory on the node where the printing process lives
------------------
     ethr =  8.06E-03,  avg # of iterations =  1.0

     negative rho (up, down):  7.575E-01 0.000E+00

     total cpu time spent up to now is       64.5 secs

     total energy              =   -4486.61950513 Ry
     estimated scf accuracy    <      34.29275504 Ry

     iteration #  5     ecut=    60.00 Ry     beta= 0.15
     Davidson diagonalization with overlap

---- Real-time Memory Report at c_bands before calling an iterative solver
             0 MiB given to the printing process from OS
             0 MiB allocation reported by mallinfo(arena+hblkhd)
          6355 MiB available memory on the node where the printing process lives
------------------
     ethr =  7.85E-03,  avg # of iterations =  1.0

     negative rho (up, down):  7.336E-01 0.000E+00

     total cpu time spent up to now is       77.5 secs

     total energy              =   -4482.63799504 Ry
     estimated scf accuracy    <      23.01707917 Ry

     iteration #  6     ecut=    60.00 Ry     beta= 0.15
     Davidson diagonalization with overlap

---- Real-time Memory Report at c_bands before calling an iterative solver
             0 MiB given to the printing process from OS
             0 MiB allocation reported by mallinfo(arena+hblkhd)
          6341 MiB available memory on the node where the printing process lives
------------------
     ethr =  5.27E-03,  avg # of iterations =  2.0

     negative rho (up, down):  7.482E-01 0.000E+00

     total cpu time spent up to now is       91.9 secs

     total energy              =   -4483.85035909 Ry
     estimated scf accuracy    <      39.64514608 Ry

     iteration #  7     ecut=    60.00 Ry     beta= 0.15
     Davidson diagonalization with overlap

---- Real-time Memory Report at c_bands before calling an iterative solver
             0 MiB given to the printing process from OS
             0 MiB allocation reported by mallinfo(arena+hblkhd)
          6317 MiB available memory on the node where the printing process lives
------------------
     ethr =  5.27E-03,  avg # of iterations =  1.0

     negative rho (up, down):  7.534E-01 0.000E+00

     total cpu time spent up to now is      104.8 secs

     total energy              =   -4483.46186945 Ry
     estimated scf accuracy    <      39.90731979 Ry

     iteration #  8     ecut=    60.00 Ry     beta= 0.15
     Davidson diagonalization with overlap

---- Real-time Memory Report at c_bands before calling an iterative solver
             0 MiB given to the printing process from OS
             0 MiB allocation reported by mallinfo(arena+hblkhd)
          6297 MiB available memory on the node where the printing process lives
------------------
     ethr =  5.27E-03,  avg # of iterations =  1.0

     negative rho (up, down):  7.506E-01 0.000E+00

     total cpu time spent up to now is      117.8 secs

     total energy              =   -4483.85942259 Ry
     estimated scf accuracy    <       6.14104863 Ry

     iteration #  9     ecut=    60.00 Ry     beta= 0.15
     Davidson diagonalization with overlap

---- Real-time Memory Report at c_bands before calling an iterative solver
             0 MiB given to the printing process from OS
             0 MiB allocation reported by mallinfo(arena+hblkhd)
          6274 MiB available memory on the node where the printing process lives
------------------
     ethr =  1.41E-03,  avg # of iterations =  4.4

     negative rho (up, down):  7.648E-01 0.000E+00

     total cpu time spent up to now is      133.1 secs

     total energy              =   -4483.74103918 Ry
     estimated scf accuracy    <       3.56508838 Ry

     iteration # 10     ecut=    60.00 Ry     beta= 0.15
     Davidson diagonalization with overlap

---- Real-time Memory Report at c_bands before calling an iterative solver
             0 MiB given to the printing process from OS
             0 MiB allocation reported by mallinfo(arena+hblkhd)
          6226 MiB available memory on the node where the printing process lives
------------------
     ethr =  8.16E-04,  avg # of iterations =  9.7

     negative rho (up, down):  7.853E-01 0.000E+00

     total cpu time spent up to now is      152.1 secs

     total energy              =   -4483.53126848 Ry
     estimated scf accuracy    <       4.58754997 Ry

     iteration # 11     ecut=    60.00 Ry     beta= 0.15
     Davidson diagonalization with overlap

---- Real-time Memory Report at c_bands before calling an iterative solver
             0 MiB given to the printing process from OS
             0 MiB allocation reported by mallinfo(arena+hblkhd)
          5899 MiB available memory on the node where the printing process lives
------------------
     ethr =  8.16E-04,  avg # of iterations =  5.7

     negative rho (up, down):  7.894E-01 0.000E+00

     total cpu time spent up to now is      168.7 secs

     total energy              =   -4483.22910461 Ry
     estimated scf accuracy    <       4.31737748 Ry

     iteration # 12     ecut=    60.00 Ry     beta= 0.15
     Davidson diagonalization with overlap

---- Real-time Memory Report at c_bands before calling an iterative solver
             0 MiB given to the printing process from OS
             0 MiB allocation reported by mallinfo(arena+hblkhd)
          5880 MiB available memory on the node where the printing process lives
------------------
     ethr =  8.16E-04,  avg # of iterations =  9.9

     negative rho (up, down):  8.002E-01 0.000E+00

     total cpu time spent up to now is      187.4 secs

     total energy              =   -4483.20823567 Ry
     estimated scf accuracy    <       2.16422055 Ry

     iteration # 13     ecut=    60.00 Ry     beta= 0.15
     Davidson diagonalization with overlap

---- Real-time Memory Report at c_bands before calling an iterative solver
             0 MiB given to the printing process from OS
             0 MiB allocation reported by mallinfo(arena+hblkhd)
          5811 MiB available memory on the node where the printing process lives
------------------
     ethr =  4.95E-04,  avg # of iterations =  2.0

     negative rho (up, down):  8.005E-01 0.000E+00

     total cpu time spent up to now is      202.1 secs

     total energy              =   -4483.27367086 Ry
     estimated scf accuracy    <       1.25059524 Ry

     iteration # 14     ecut=    60.00 Ry     beta= 0.15
     Davidson diagonalization with overlap

---- Real-time Memory Report at c_bands before calling an iterative solver
             0 MiB given to the printing process from OS
             0 MiB allocation reported by mallinfo(arena+hblkhd)
          5832 MiB available memory on the node where the printing process lives
------------------
     ethr =  2.86E-04,  avg # of iterations =  4.2

     negative rho (up, down):  8.119E-01 0.000E+00

     total cpu time spent up to now is      218.0 secs

     total energy              =   -4483.14122797 Ry
     estimated scf accuracy    <       0.82429516 Ry

     iteration # 15     ecut=    60.00 Ry     beta= 0.15
     Davidson diagonalization with overlap

---- Real-time Memory Report at c_bands before calling an iterative solver
             0 MiB given to the printing process from OS
             0 MiB allocation reported by mallinfo(arena+hblkhd)
          5803 MiB available memory on the node where the printing process lives
------------------
     ethr =  1.89E-04,  avg # of iterations =  5.2

     negative rho (up, down):  8.163E-01 0.000E+00

     total cpu time spent up to now is      234.1 secs

     total energy              =   -4483.14857777 Ry
     estimated scf accuracy    <       2.09339026 Ry

     iteration # 16     ecut=    60.00 Ry     beta= 0.15
     Davidson diagonalization with overlap

---- Real-time Memory Report at c_bands before calling an iterative solver
             0 MiB given to the printing process from OS
             0 MiB allocation reported by mallinfo(arena+hblkhd)
          5811 MiB available memory on the node where the printing process lives
------------------
     ethr =  1.89E-04,  avg # of iterations =  3.2

     negative rho (up, down):  8.136E-01 0.000E+00

     total cpu time spent up to now is      248.9 secs

     total energy              =   -4483.12904614 Ry
     estimated scf accuracy    <       1.01062206 Ry

     iteration # 17     ecut=    60.00 Ry     beta= 0.15
     Davidson diagonalization with overlap

---- Real-time Memory Report at c_bands before calling an iterative solver
             0 MiB given to the printing process from OS
             0 MiB allocation reported by mallinfo(arena+hblkhd)
          5805 MiB available memory on the node where the printing process lives
------------------
     ethr =  1.89E-04,  avg # of iterations =  2.6

     negative rho (up, down):  8.179E-01 0.000E+00

     total cpu time spent up to now is      263.4 secs

     total energy              =   -4483.07319727 Ry
     estimated scf accuracy    <       0.44052671 Ry

     iteration # 18     ecut=    60.00 Ry     beta= 0.15
     Davidson diagonalization with overlap

---- Real-time Memory Report at c_bands before calling an iterative solver
             0 MiB given to the printing process from OS
             0 MiB allocation reported by mallinfo(arena+hblkhd)
          5814 MiB available memory on the node where the printing process lives
------------------
     ethr =  1.01E-04,  avg # of iterations = 11.6

     negative rho (up, down):  8.194E-01 0.000E+00

     total cpu time spent up to now is      282.7 secs

     total energy              =   -4483.04601904 Ry
     estimated scf accuracy    <       0.71610673 Ry

     iteration # 19     ecut=    60.00 Ry     beta= 0.15
     Davidson diagonalization with overlap

---- Real-time Memory Report at c_bands before calling an iterative solver
             0 MiB given to the printing process from OS
             0 MiB allocation reported by mallinfo(arena+hblkhd)
          5817 MiB available memory on the node where the printing process lives
------------------
     ethr =  1.01E-04,  avg # of iterations =  7.7

     negative rho (up, down):  8.248E-01 0.000E+00

     total cpu time spent up to now is      300.2 secs

     total energy              =   -4483.03664047 Ry
     estimated scf accuracy    <       0.37242020 Ry

     iteration # 20     ecut=    60.00 Ry     beta= 0.15
     Davidson diagonalization with overlap

---- Real-time Memory Report at c_bands before calling an iterative solver
             0 MiB given to the printing process from OS
             0 MiB allocation reported by mallinfo(arena+hblkhd)
          5813 MiB available memory on the node where the printing process lives
------------------
     ethr =  8.52E-05,  avg # of iterations =  4.2

     negative rho (up, down):  8.263E-01 0.000E+00

     total cpu time spent up to now is      316.1 secs

     total energy              =   -4483.00408526 Ry
     estimated scf accuracy    <       0.48933976 Ry

     iteration # 21     ecut=    60.00 Ry     beta= 0.15
     Davidson diagonalization with overlap

---- Real-time Memory Report at c_bands before calling an iterative solver
             0 MiB given to the printing process from OS
             0 MiB allocation reported by mallinfo(arena+hblkhd)
          5805 MiB available memory on the node where the printing process lives
------------------
     c_bands:  1 eigenvalues not converged
     ethr =  8.52E-05,  avg # of iterations = 11.1

     negative rho (up, down):  8.406E-01 0.000E+00

     total cpu time spent up to now is      334.7 secs

     total energy              =   -4482.98233970 Ry
     estimated scf accuracy    <       0.25555659 Ry

     iteration # 22     ecut=    60.00 Ry     beta= 0.15
     Davidson diagonalization with overlap

---- Real-time Memory Report at c_bands before calling an iterative solver
             0 MiB given to the printing process from OS
             0 MiB allocation reported by mallinfo(arena+hblkhd)
          5796 MiB available memory on the node where the printing process lives
------------------
     ethr =  5.85E-05,  avg # of iterations =  8.9

     negative rho (up, down):  8.459E-01 0.000E+00

     total cpu time spent up to now is      352.3 secs

     total energy              =   -4482.98523208 Ry
     estimated scf accuracy    <       0.05203126 Ry

     iteration # 23     ecut=    60.00 Ry     beta= 0.15
     Davidson diagonalization with overlap

---- Real-time Memory Report at c_bands before calling an iterative solver
             0 MiB given to the printing process from OS
             0 MiB allocation reported by mallinfo(arena+hblkhd)
          5737 MiB available memory on the node where the printing process lives
------------------
     c_bands:  1 eigenvalues not converged
     ethr =  1.19E-05,  avg # of iterations = 10.6

     negative rho (up, down):  8.327E-01 0.000E+00

     total cpu time spent up to now is      372.0 secs

     total energy              =   -4482.97982421 Ry
     estimated scf accuracy    <       0.03316231 Ry

     iteration # 24     ecut=    60.00 Ry     beta= 0.15
     Davidson diagonalization with overlap

---- Real-time Memory Report at c_bands before calling an iterative solver
             0 MiB given to the printing process from OS
             0 MiB allocation reported by mallinfo(arena+hblkhd)
          5631 MiB available memory on the node where the printing process lives
------------------
     ethr =  7.59E-06,  avg # of iterations = 11.4

     negative rho (up, down):  8.241E-01 0.000E+00

     total cpu time spent up to now is      391.2 secs

     total energy              =   -4482.97997322 Ry
     estimated scf accuracy    <       0.01551060 Ry

     iteration # 25     ecut=    60.00 Ry     beta= 0.15
     Davidson diagonalization with overlap

---- Real-time Memory Report at c_bands before calling an iterative solver
             0 MiB given to the printing process from OS
             0 MiB allocation reported by mallinfo(arena+hblkhd)
          5579 MiB available memory on the node where the printing process lives
------------------
     ethr =  3.55E-06,  avg # of iterations =  3.8

     negative rho (up, down):  8.186E-01 0.000E+00

     total cpu time spent up to now is      406.8 secs

     total energy              =   -4482.97896717 Ry
     estimated scf accuracy    <       0.01010751 Ry

     iteration # 26     ecut=    60.00 Ry     beta= 0.15
     Davidson diagonalization with overlap

---- Real-time Memory Report at c_bands before calling an iterative solver
             0 MiB given to the printing process from OS
             0 MiB allocation reported by mallinfo(arena+hblkhd)
          5595 MiB available memory on the node where the printing process lives
------------------
     ethr =  2.31E-06,  avg # of iterations =  8.7

     negative rho (up, down):  7.959E-01 0.000E+00

     total cpu time spent up to now is      424.5 secs

     total energy              =   -4482.97788841 Ry
     estimated scf accuracy    <       0.00626154 Ry

     iteration # 27     ecut=    60.00 Ry     beta= 0.15
     Davidson diagonalization with overlap

---- Real-time Memory Report at c_bands before calling an iterative solver
             0 MiB given to the printing process from OS
             0 MiB allocation reported by mallinfo(arena+hblkhd)
          5581 MiB available memory on the node where the printing process lives
------------------
     ethr =  1.43E-06,  avg # of iterations =  9.4

     negative rho (up, down):  7.951E-01 0.000E+00

     total cpu time spent up to now is      443.3 secs

     total energy              =   -4482.97785594 Ry
     estimated scf accuracy    <       0.00413762 Ry

     iteration # 28     ecut=    60.00 Ry     beta= 0.15
     Davidson diagonalization with overlap

---- Real-time Memory Report at c_bands before calling an iterative solver
             0 MiB given to the printing process from OS
             0 MiB allocation reported by mallinfo(arena+hblkhd)
          5567 MiB available memory on the node where the printing process lives
------------------
     ethr =  9.47E-07,  avg # of iterations =  4.0

     negative rho (up, down):  7.931E-01 0.000E+00

     total cpu time spent up to now is      458.6 secs

     total energy              =   -4482.97772603 Ry
     estimated scf accuracy    <       0.00241126 Ry

     iteration # 29     ecut=    60.00 Ry     beta= 0.15
     Davidson diagonalization with overlap

---- Real-time Memory Report at c_bands before calling an iterative solver
             0 MiB given to the printing process from OS
             0 MiB allocation reported by mallinfo(arena+hblkhd)
          5573 MiB available memory on the node where the printing process lives
------------------
     ethr =  5.52E-07,  avg # of iterations =  5.6

     negative rho (up, down):  7.924E-01 0.000E+00

     total cpu time spent up to now is      474.9 secs

     total energy              =   -4482.97754976 Ry
     estimated scf accuracy    <       0.00156447 Ry

     iteration # 30     ecut=    60.00 Ry     beta= 0.15
     Davidson diagonalization with overlap

---- Real-time Memory Report at c_bands before calling an iterative solver
             0 MiB given to the printing process from OS
             0 MiB allocation reported by mallinfo(arena+hblkhd)
          5689 MiB available memory on the node where the printing process lives
------------------
     ethr =  3.58E-07,  avg # of iterations =  6.5

     negative rho (up, down):  7.925E-01 0.000E+00

     total cpu time spent up to now is      491.8 secs

     total energy              =   -4482.97750158 Ry
     estimated scf accuracy    <       0.00071099 Ry

     iteration # 31     ecut=    60.00 Ry     beta= 0.15
     Davidson diagonalization with overlap

---- Real-time Memory Report at c_bands before calling an iterative solver
             0 MiB given to the printing process from OS
             0 MiB allocation reported by mallinfo(arena+hblkhd)
          5657 MiB available memory on the node where the printing process lives
------------------
     ethr =  1.63E-07,  avg # of iterations =  3.7

     negative rho (up, down):  7.927E-01 0.000E+00

     total cpu time spent up to now is      507.0 secs

     total energy              =   -4482.97749834 Ry
     estimated scf accuracy    <       0.00034595 Ry

     iteration # 32     ecut=    60.00 Ry     beta= 0.15
     Davidson diagonalization with overlap

---- Real-time Memory Report at c_bands before calling an iterative solver
             0 MiB given to the printing process from OS
             0 MiB allocation reported by mallinfo(arena+hblkhd)
          5680 MiB available memory on the node where the printing process lives
------------------
     ethr =  7.92E-08,  avg # of iterations =  2.0

     negative rho (up, down):  7.927E-01 0.000E+00

     total cpu time spent up to now is      521.6 secs

     total energy              =   -4482.97749005 Ry
     estimated scf accuracy    <       0.00021216 Ry

     iteration # 33     ecut=    60.00 Ry     beta= 0.15
     Davidson diagonalization with overlap

---- Real-time Memory Report at c_bands before calling an iterative solver
             0 MiB given to the printing process from OS
             0 MiB allocation reported by mallinfo(arena+hblkhd)
          5696 MiB available memory on the node where the printing process lives
------------------
     ethr =  4.85E-08,  avg # of iterations =  3.4

     negative rho (up, down):  7.925E-01 0.000E+00

     total cpu time spent up to now is      536.9 secs

     total energy              =   -4482.97750314 Ry
     estimated scf accuracy    <       0.00008341 Ry

     iteration # 34     ecut=    60.00 Ry     beta= 0.15
     Davidson diagonalization with overlap

---- Real-time Memory Report at c_bands before calling an iterative solver
             0 MiB given to the printing process from OS
             0 MiB allocation reported by mallinfo(arena+hblkhd)
          5717 MiB available memory on the node where the printing process lives
------------------
     ethr =  1.91E-08,  avg # of iterations =  3.1

     negative rho (up, down):  7.922E-01 0.000E+00

     total cpu time spent up to now is      551.7 secs

     total energy              =   -4482.97752232 Ry
     estimated scf accuracy    <       0.00004996 Ry

     iteration # 35     ecut=    60.00 Ry     beta= 0.15
     Davidson diagonalization with overlap

---- Real-time Memory Report at c_bands before calling an iterative solver
             0 MiB given to the printing process from OS
             0 MiB allocation reported by mallinfo(arena+hblkhd)
          5723 MiB available memory on the node where the printing process lives
------------------
     ethr =  1.14E-08,  avg # of iterations =  3.0

     negative rho (up, down):  7.921E-01 0.000E+00

     total cpu time spent up to now is      566.7 secs

     total energy              =   -4482.97753434 Ry
     estimated scf accuracy    <       0.00002763 Ry

     iteration # 36     ecut=    60.00 Ry     beta= 0.15
     Davidson diagonalization with overlap

---- Real-time Memory Report at c_bands before calling an iterative solver
             0 MiB given to the printing process from OS
             0 MiB allocation reported by mallinfo(arena+hblkhd)
          5727 MiB available memory on the node where the printing process lives
------------------
     ethr =  6.32E-09,  avg # of iterations =  3.6

     negative rho (up, down):  7.922E-01 0.000E+00

     total cpu time spent up to now is      582.0 secs

     total energy              =   -4482.97753976 Ry
     estimated scf accuracy    <       0.00001889 Ry

     iteration # 37     ecut=    60.00 Ry     beta= 0.15
     Davidson diagonalization with overlap

---- Real-time Memory Report at c_bands before calling an iterative solver
             0 MiB given to the printing process from OS
             0 MiB allocation reported by mallinfo(arena+hblkhd)
          5733 MiB available memory on the node where the printing process lives
------------------
     ethr =  4.32E-09,  avg # of iterations =  4.5

     negative rho (up, down):  7.924E-01 0.000E+00

     total cpu time spent up to now is      597.8 secs

     total energy              =   -4482.97754172 Ry
     estimated scf accuracy    <       0.00000891 Ry

     iteration # 38     ecut=    60.00 Ry     beta= 0.15
     Davidson diagonalization with overlap

---- Real-time Memory Report at c_bands before calling an iterative solver
             0 MiB given to the printing process from OS
             0 MiB allocation reported by mallinfo(arena+hblkhd)
          5733 MiB available memory on the node where the printing process lives
------------------
     ethr =  2.04E-09,  avg # of iterations =  5.0

     negative rho (up, down):  7.924E-01 0.000E+00

     total cpu time spent up to now is      613.9 secs

     total energy              =   -4482.97754242 Ry
     estimated scf accuracy    <       0.00000498 Ry

     iteration # 39     ecut=    60.00 Ry     beta= 0.15
     Davidson diagonalization with overlap

---- Real-time Memory Report at c_bands before calling an iterative solver
             0 MiB given to the printing process from OS
             0 MiB allocation reported by mallinfo(arena+hblkhd)
          5731 MiB available memory on the node where the printing process lives
------------------
     ethr =  1.14E-09,  avg # of iterations =  3.3

     negative rho (up, down):  7.924E-01 0.000E+00

     total cpu time spent up to now is      629.2 secs

     total energy              =   -4482.97754214 Ry
     estimated scf accuracy    <       0.00000499 Ry

     iteration # 40     ecut=    60.00 Ry     beta= 0.15
     Davidson diagonalization with overlap

---- Real-time Memory Report at c_bands before calling an iterative solver
             0 MiB given to the printing process from OS
             0 MiB allocation reported by mallinfo(arena+hblkhd)
          5730 MiB available memory on the node where the printing process lives
------------------
     ethr =  1.14E-09,  avg # of iterations =  4.0

     negative rho (up, down):  7.924E-01 0.000E+00

     total cpu time spent up to now is      644.4 secs

     total energy              =   -4482.97754188 Ry
     estimated scf accuracy    <       0.00000382 Ry

     iteration # 41     ecut=    60.00 Ry     beta= 0.15
     Davidson diagonalization with overlap

---- Real-time Memory Report at c_bands before calling an iterative solver
             0 MiB given to the printing process from OS
             0 MiB allocation reported by mallinfo(arena+hblkhd)
          5725 MiB available memory on the node where the printing process lives
------------------
     ethr =  8.73E-10,  avg # of iterations =  3.4

     negative rho (up, down):  7.923E-01 0.000E+00

     total cpu time spent up to now is      659.3 secs

     total energy              =   -4482.97754182 Ry
     estimated scf accuracy    <       0.00000296 Ry

     iteration # 42     ecut=    60.00 Ry     beta= 0.15
     Davidson diagonalization with overlap

---- Real-time Memory Report at c_bands before calling an iterative solver
             0 MiB given to the printing process from OS
             0 MiB allocation reported by mallinfo(arena+hblkhd)
          5731 MiB available memory on the node where the printing process lives
------------------
     ethr =  6.76E-10,  avg # of iterations =  2.6

     negative rho (up, down):  7.923E-01 0.000E+00

     total cpu time spent up to now is      674.0 secs

     total energy              =   -4482.97754191 Ry
     estimated scf accuracy    <       0.00000179 Ry

     iteration # 43     ecut=    60.00 Ry     beta= 0.15
     Davidson diagonalization with overlap

---- Real-time Memory Report at c_bands before calling an iterative solver
             0 MiB given to the printing process from OS
             0 MiB allocation reported by mallinfo(arena+hblkhd)
          5737 MiB available memory on the node where the printing process lives
------------------
     ethr =  4.10E-10,  avg # of iterations =  4.3

     negative rho (up, down):  7.923E-01 0.000E+00

     total cpu time spent up to now is      689.5 secs

     total energy              =   -4482.97754189 Ry
     estimated scf accuracy    <       0.00000123 Ry

     iteration # 44     ecut=    60.00 Ry     beta= 0.15
     Davidson diagonalization with overlap

---- Real-time Memory Report at c_bands before calling an iterative solver
             0 MiB given to the printing process from OS
             0 MiB allocation reported by mallinfo(arena+hblkhd)
          5748 MiB available memory on the node where the printing process lives
------------------
     ethr =  2.82E-10,  avg # of iterations =  3.8

     negative rho (up, down):  7.923E-01 0.000E+00

     total cpu time spent up to now is      704.9 secs

     total energy              =   -4482.97754187 Ry
     estimated scf accuracy    <       0.00000061 Ry

     iteration # 45     ecut=    60.00 Ry     beta= 0.15
     Davidson diagonalization with overlap

---- Real-time Memory Report at c_bands before calling an iterative solver
             0 MiB given to the printing process from OS
             0 MiB allocation reported by mallinfo(arena+hblkhd)
          5745 MiB available memory on the node where the printing process lives
------------------
     ethr =  1.40E-10,  avg # of iterations =  4.3

     negative rho (up, down):  7.923E-01 0.000E+00

     total cpu time spent up to now is      720.5 secs

     total energy              =   -4482.97754188 Ry
     estimated scf accuracy    <       0.00000026 Ry

     iteration # 46     ecut=    60.00 Ry     beta= 0.15
     Davidson diagonalization with overlap

---- Real-time Memory Report at c_bands before calling an iterative solver
             0 MiB given to the printing process from OS
             0 MiB allocation reported by mallinfo(arena+hblkhd)
          5742 MiB available memory on the node where the printing process lives
------------------
     ethr =  6.00E-11,  avg # of iterations =  2.3

     negative rho (up, down):  7.923E-01 0.000E+00

     total cpu time spent up to now is      735.2 secs

     total energy              =   -4482.97754187 Ry
     estimated scf accuracy    <       0.00000015 Ry

     iteration # 47     ecut=    60.00 Ry     beta= 0.15
     Davidson diagonalization with overlap

---- Real-time Memory Report at c_bands before calling an iterative solver
             0 MiB given to the printing process from OS
             0 MiB allocation reported by mallinfo(arena+hblkhd)
          5749 MiB available memory on the node where the printing process lives
------------------
     ethr =  3.36E-11,  avg # of iterations =  2.0

     negative rho (up, down):  7.923E-01 0.000E+00

     total cpu time spent up to now is      749.8 secs

     total energy              =   -4482.97754191 Ry
     estimated scf accuracy    <       0.00000009 Ry

     iteration # 48     ecut=    60.00 Ry     beta= 0.15
     Davidson diagonalization with overlap

---- Real-time Memory Report at c_bands before calling an iterative solver
             0 MiB given to the printing process from OS
             0 MiB allocation reported by mallinfo(arena+hblkhd)
          5750 MiB available memory on the node where the printing process lives
------------------
     ethr =  2.16E-11,  avg # of iterations =  3.2

     negative rho (up, down):  7.923E-01 0.000E+00

     total cpu time spent up to now is      764.8 secs

     total energy              =   -4482.97754195 Ry
     estimated scf accuracy    <       0.00000007 Ry

     iteration # 49     ecut=    60.00 Ry     beta= 0.15
     Davidson diagonalization with overlap

---- Real-time Memory Report at c_bands before calling an iterative solver
             0 MiB given to the printing process from OS
             0 MiB allocation reported by mallinfo(arena+hblkhd)
          5754 MiB available memory on the node where the printing process lives
------------------
     ethr =  1.64E-11,  avg # of iterations =  4.5

     negative rho (up, down):  7.923E-01 0.000E+00

     total cpu time spent up to now is      780.5 secs

     total energy              =   -4482.97754196 Ry
     estimated scf accuracy    <       0.00000004 Ry

     iteration # 50     ecut=    60.00 Ry     beta= 0.15
     Davidson diagonalization with overlap

---- Real-time Memory Report at c_bands before calling an iterative solver
             0 MiB given to the printing process from OS
             0 MiB allocation reported by mallinfo(arena+hblkhd)
          5750 MiB available memory on the node where the printing process lives
------------------
     ethr =  8.51E-12,  avg # of iterations =  4.8

     negative rho (up, down):  7.923E-01 0.000E+00

     total cpu time spent up to now is      796.0 secs

     total energy              =   -4482.97754196 Ry
     estimated scf accuracy    <       0.00000002 Ry

     iteration # 51     ecut=    60.00 Ry     beta= 0.15
     Davidson diagonalization with overlap

---- Real-time Memory Report at c_bands before calling an iterative solver
             0 MiB given to the printing process from OS
             0 MiB allocation reported by mallinfo(arena+hblkhd)
          5746 MiB available memory on the node where the printing process lives
------------------
     ethr =  5.51E-12,  avg # of iterations =  4.3

     negative rho (up, down):  7.923E-01 0.000E+00

     total cpu time spent up to now is      811.6 secs

     End of self-consistent calculation

          k = 0.0000 0.0000 0.0000 ( 65197 PWs)   bands (ev):

   -92.3481 -92.2934 -92.2020 -92.1537 -92.0957 -92.0545 -92.0370 -91.9139
   -55.7012 -55.6797 -55.5599 -55.5492 -55.5416 -55.5359 -55.4981 -55.4716
   -55.4551 -55.4535 -55.4449 -55.4039 -55.3851 -55.3471 -55.3280 -55.2954
   -55.2890 -55.2432 -55.2416 -55.2402 -55.2317 -55.1881 -55.1678 -55.0805
   -30.9352 -30.9160 -30.8444 -30.7748 -30.7221 -30.6883 -30.6100 -30.2753
   -29.5001 -29.4555 -29.4298 -29.3210 -22.2573 -14.7327 -14.6926 -14.6104
   -14.4797 -14.2946 -14.1706 -13.8742 -13.8565 -13.8247 -13.7919 -13.7819
   -13.7384 -13.7275 -13.7174 -13.6977 -13.6830 -13.6498 -13.5831 -13.4344
   -13.2614 -13.2234 -13.1910 -13.1642 -13.1446 -13.0984 -13.0599 -12.9819
   -12.9093 -12.8456 -12.8177 -12.7679 -12.7584 -12.7331 -12.7164 -12.7056
   -12.6717 -12.6529 -12.6363 -12.6242 -12.6108 -12.5841 -12.5740 -12.5589
   -12.5252 -12.5027 -12.4845 -12.2749 -12.2709 -12.2180 -12.0000 -11.8552
   -11.6946 -11.6237 -11.5129 -11.4389 -11.4275 -11.4047 -11.3868 -11.3232
   -11.3059 -11.2715 -11.2431 -11.1303 -11.0505 -11.0469  -5.9903  -3.1568
    -3.1545  -2.5930  -2.3596  -2.1302  -1.9839  -1.9199  -1.7772  -1.4708
    -1.4565  -1.4359  -1.3533  -1.3345  -1.2667  -1.2504  -1.2088  -1.1647
    -0.9830  -0.7609  -0.7306  -0.5812  -0.5674  -0.5231  -0.5047  -0.4611
    -0.4454  -0.3847  -0.3584  -0.2887  -0.2769  -0.1975  -0.0712  -0.0570
    -0.0270   0.0548   0.0654   0.0728   0.1397   0.2193   0.2527   0.3117
     0.3351   0.3935   0.4686   0.5285   0.5466   0.5576   0.8137   0.8269
     0.9969   1.0698   1.1327   1.1721   1.2654   1.2801   1.2949   1.3661
     1.3953   1.4290   1.4886   1.6229   1.6758   1.6969   1.7149   1.7255
     1.7936   1.8726   1.9676   1.9803   2.0381   2.0608   2.0980   2.1178
     2.1261   2.1815   2.2346   2.2428   2.2729   2.3092   2.3713   2.5010
     2.5834   2.6303   2.6396   2.7931   2.8085   2.8558   2.8643   2.9623
     3.0052   3.0276   3.0338   3.0431   3.0518   3.0665   3.1434   3.2546
     3.2879   3.3017   3.3084   3.3753   3.3790   3.4032   3.4121   3.4195
     3.4282   3.4384   3.4507   3.4573   3.4704   3.4792   3.4874   3.5075
     3.5283   3.5335   3.5455   3.5667   3.6866   3.7348   4.4134   4.7472
     4.7841   5.1317   5.3819   5.4555   5.7085   6.2710   6.3132   6.3404
     6.6259   6.6333   6.6656   6.7143   6.9729   7.1333   7.1879   7.3107
     7.6408   7.7488   7.8110   7.8714   7.9267   7.9421   7.9547   8.0463
     8.3198   8.3499   8.3565   8.4076   8.5478   8.6463   8.6955

     occupation numbers 
     1.0000   1.0000   1.0000   1.0000   1.0000   1.0000   1.0000   1.0000
     1.0000   1.0000   1.0000   1.0000   1.0000   1.0000   1.0000   1.0000
     1.0000   1.0000   1.0000   1.0000   1.0000   1.0000   1.0000   1.0000
     1.0000   1.0000   1.0000   1.0000   1.0000   1.0000   1.0000   1.0000
     1.0000   1.0000   1.0000   1.0000   1.0000   1.0000   1.0000   1.0000
     1.0000   1.0000   1.0000   1.0000   1.0000   1.0000   1.0000   1.0000
     1.0000   1.0000   1.0000   1.0000   1.0000   1.0000   1.0000   1.0000
     1.0000   1.0000   1.0000   1.0000   1.0000   1.0000   1.0000   1.0000
     1.0000   1.0000   1.0000   1.0000   1.0000   1.0000   1.0000   1.0000
     1.0000   1.0000   1.0000   1.0000   1.0000   1.0000   1.0000   1.0000
     1.0000   1.0000   1.0000   1.0000   1.0000   1.0000   1.0000   1.0000
     1.0000   1.0000   1.0000   1.0000   1.0000   1.0000   1.0000   1.0000
     1.0000   1.0000   1.0000   1.0000   1.0000   1.0000   1.0000   1.0000
     1.0000   1.0000   1.0000   1.0000   1.0000   1.0000   1.0000   1.0000
     1.0000   1.0000   1.0000   1.0000   1.0000   1.0000   1.0000   1.0000
     1.0000   1.0000   1.0000   1.0000   1.0000   1.0000   1.0000   1.0000
     1.0000   1.0000   1.0000   1.0000   1.0000   1.0000   1.0000   1.0000
     1.0000   1.0000   1.0000   1.0000   1.0000   1.0000   1.0000   1.0000
     1.0000   1.0000   1.0000   1.0000   1.0000   1.0000   1.0000   1.0000
     1.0000   1.0000   1.0000   1.0000   1.0000   1.0000   1.0000   1.0000
     1.0000   0.9999   0.9999   0.9999   0.9998   0.9998   0.9998   0.9997
     0.9997   0.9996   0.9994   0.9989   0.9985   0.9984   0.9982   0.9981
     0.9974   0.9963   0.9945   0.9942   0.9926   0.9918   0.9905   0.9898
     0.9894   0.9869   0.9840   0.9835   0.9816   0.9790   0.9739   0.9598
     0.9480   0.9402   0.9385   0.9057   0.9017   0.8890   0.8866   0.8561
     0.8412   0.8330   0.8307   0.8272   0.8239   0.8182   0.7865   0.7354
     0.7190   0.7120   0.7086   0.6736   0.6717   0.6585   0.6537   0.6496
     0.6448   0.6392   0.6323   0.6286   0.6213   0.6163   0.6116   0.6001
     0.5881   0.5851   0.5782   0.5658   0.4951   0.4666   0.1375   0.0562
     0.0503   0.0155   0.0057   0.0042   0.0013   0.0001   0.0000   0.0000
     0.0000   0.0000   0.0000   0.0000   0.0000   0.0000   0.0000   0.0000
     0.0000   0.0000   0.0000   0.0000   0.0000   0.0000   0.0000   0.0000
     0.0000   0.0000   0.0000   0.0000   0.0000   0.0000   0.0000

          k = 0.0000 0.2500 0.0000 ( 65257 PWs)   bands (ev):

   -92.3481 -92.2934 -92.2020 -92.1537 -92.0957 -92.0545 -92.0370 -91.9139
   -55.7012 -55.6797 -55.5599 -55.5492 -55.5416 -55.5359 -55.4981 -55.4716
   -55.4551 -55.4535 -55.4449 -55.4039 -55.3851 -55.3471 -55.3280 -55.2954
   -55.2890 -55.2432 -55.2416 -55.2402 -55.2317 -55.1881 -55.1678 -55.0805
   -30.9350 -30.9158 -30.8441 -30.7750 -30.7223 -30.6884 -30.6099 -30.2754
   -29.4995 -29.4552 -29.4304 -29.3214 -22.2573 -14.6960 -14.6661 -14.5852
   -14.4505 -14.3334 -14.1614 -14.0182 -13.8393 -13.8097 -13.7948 -13.7838
   -13.7588 -13.7010 -13.6945 -13.6782 -13.6643 -13.6302 -13.5028 -13.4654
   -13.3032 -13.2870 -13.2337 -13.1979 -13.1554 -13.1133 -13.0765 -13.0012
   -12.9686 -12.9374 -12.8817 -12.8168 -12.8043 -12.7658 -12.7494 -12.6829
   -12.6386 -12.6157 -12.5934 -12.5884 -12.5683 -12.5481 -12.5249 -12.5216
   -12.4554 -12.4477 -12.4084 -12.2239 -12.2069 -12.1616 -12.0614 -11.9065
   -11.7471 -11.6853 -11.4783 -11.4357 -11.4079 -11.3789 -11.3622 -11.3152
   -11.3039 -11.2815 -11.2480 -11.1445 -11.0921 -11.0815  -5.9903  -3.1568
    -3.1547  -2.4577  -2.2353  -2.0981  -1.9158  -1.8723  -1.7079  -1.4905
    -1.4034  -1.3904  -1.3341  -1.2313  -1.2166  -1.1826  -1.1563  -1.1130
    -0.9141  -0.7862  -0.7742  -0.6987  -0.6875  -0.5830  -0.5525  -0.4967
    -0.4724  -0.4288  -0.3669  -0.3418  -0.3077  -0.2779  -0.2605  -0.2274
    -0.1549  -0.1017  -0.0409   0.0709   0.0894   0.1306   0.2534   0.2876
     0.3428   0.3973   0.4488   0.4737   0.5051   0.5632   0.8606   0.9485
     0.9794   1.0640   1.1074   1.1296   1.2544   1.2738   1.3665   1.3924
     1.4238   1.5378   1.6252   1.6517   1.6757   1.6906   1.7209   1.7831
     1.8074   1.8356   1.8839   1.9145   1.9435   2.0246   2.0574   2.0908
     2.1459   2.1995   2.2324   2.2606   2.2924   2.3154   2.4058   2.5403
     2.6087   2.6241   2.7075   2.7509   2.7901   2.7962   2.8612   2.9040
     2.9808   3.0189   3.0335   3.0425   3.0445   3.2148   3.2365   3.2694
     3.2899   3.3077   3.3168   3.3245   3.3330   3.3627   3.3646   3.3818
     3.3857   3.3979   3.4142   3.4252   3.4355   3.4581   3.4689   3.4735
     3.5093   3.5258   3.5859   3.9447   3.9638   4.2252   4.5979   4.7439
     4.8983   5.0780   5.4012   5.4862   5.8393   5.9221   6.1520   6.2954
     6.3335   6.4472   6.5172   6.7477   6.8993   7.0261   7.2384   7.5449
     7.6019   7.7054   7.7818   7.8646   7.9068   7.9504   8.0925   8.2164
     8.3751   8.4106   8.5160   8.6067   8.6541   8.6785   8.9039

     occupation numbers 
     1.0000   1.0000   1.0000   1.0000   1.0000   1.0000   1.0000   1.0000
     1.0000   1.0000   1.0000   1.0000   1.0000   1.0000   1.0000   1.0000
     1.0000   1.0000   1.0000   1.0000   1.0000   1.0000   1.0000   1.0000
     1.0000   1.0000   1.0000   1.0000   1.0000   1.0000   1.0000   1.0000
     1.0000   1.0000   1.0000   1.0000   1.0000   1.0000   1.0000   1.0000
     1.0000   1.0000   1.0000   1.0000   1.0000   1.0000   1.0000   1.0000
     1.0000   1.0000   1.0000   1.0000   1.0000   1.0000   1.0000   1.0000
     1.0000   1.0000   1.0000   1.0000   1.0000   1.0000   1.0000   1.0000
     1.0000   1.0000   1.0000   1.0000   1.0000   1.0000   1.0000   1.0000
     1.0000   1.0000   1.0000   1.0000   1.0000   1.0000   1.0000   1.0000
     1.0000   1.0000   1.0000   1.0000   1.0000   1.0000   1.0000   1.0000
     1.0000   1.0000   1.0000   1.0000   1.0000   1.0000   1.0000   1.0000
     1.0000   1.0000   1.0000   1.0000   1.0000   1.0000   1.0000   1.0000
     1.0000   1.0000   1.0000   1.0000   1.0000   1.0000   1.0000   1.0000
     1.0000   1.0000   1.0000   1.0000   1.0000   1.0000   1.0000   1.0000
     1.0000   1.0000   1.0000   1.0000   1.0000   1.0000   1.0000   1.0000
     1.0000   1.0000   1.0000   1.0000   1.0000   1.0000   1.0000   1.0000
     1.0000   1.0000   1.0000   1.0000   1.0000   1.0000   1.0000   1.0000
     1.0000   1.0000   1.0000   1.0000   1.0000   1.0000   1.0000   1.0000
     1.0000   1.0000   1.0000   1.0000   1.0000   1.0000   1.0000   1.0000
     1.0000   0.9999   0.9999   0.9999   0.9998   0.9998   0.9997   0.9997
     0.9996   0.9993   0.9989   0.9987   0.9985   0.9984   0.9982   0.9976
     0.9973   0.9969   0.9961   0.9956   0.9950   0.9930   0.9920   0.9908
     0.9886   0.9860   0.9841   0.9824   0.9802   0.9785   0.9706   0.9545
     0.9439   0.9412   0.9253   0.9158   0.9064   0.9049   0.8875   0.8749
     0.8498   0.8362   0.8308   0.8274   0.8267   0.7544   0.7441   0.7281
     0.7179   0.7090   0.7043   0.7004   0.6960   0.6803   0.6793   0.6702
     0.6680   0.6614   0.6525   0.6465   0.6408   0.6282   0.6221   0.6195
     0.5991   0.5896   0.5546   0.3462   0.3358   0.2084   0.0860   0.0568
     0.0350   0.0188   0.0053   0.0036   0.0007   0.0004   0.0001   0.0001
     0.0000   0.0000   0.0000   0.0000   0.0000   0.0000   0.0000   0.0000
     0.0000   0.0000   0.0000   0.0000   0.0000   0.0000   0.0000   0.0000
     0.0000   0.0000   0.0000   0.0000   0.0000   0.0000   0.0000

          k = 0.0000-0.5000 0.0000 ( 65180 PWs)   bands (ev):

   -92.3481 -92.2934 -92.2020 -92.1537 -92.0957 -92.0545 -92.0370 -91.9139
   -55.7012 -55.6797 -55.5599 -55.5492 -55.5416 -55.5359 -55.4981 -55.4716
   -55.4551 -55.4535 -55.4449 -55.4039 -55.3851 -55.3471 -55.3280 -55.2954
   -55.2890 -55.2432 -55.2416 -55.2402 -55.2317 -55.1881 -55.1678 -55.0805
   -30.9349 -30.9157 -30.8439 -30.7752 -30.7226 -30.6886 -30.6098 -30.2755
   -29.4988 -29.4549 -29.4310 -29.3217 -22.2573 -14.6618 -14.6141 -14.5598
   -14.4385 -14.3476 -14.2146 -14.0601 -13.9464 -13.8094 -13.7921 -13.7490
   -13.7027 -13.6904 -13.6450 -13.6256 -13.5767 -13.5606 -13.5318 -13.5012
   -13.4811 -13.4308 -13.2362 -13.1786 -13.1637 -13.1098 -13.0859 -13.0147
   -13.0019 -12.9589 -12.9419 -12.8767 -12.8097 -12.7659 -12.7429 -12.7206
   -12.6240 -12.6146 -12.5882 -12.5860 -12.5477 -12.5397 -12.5271 -12.4139
   -12.3839 -12.3627 -12.3093 -12.2201 -12.1724 -12.1040 -11.9968 -11.9818
   -11.8342 -11.7876 -11.4326 -11.4301 -11.4028 -11.3644 -11.3305 -11.3196
   -11.2776 -11.2735 -11.2296 -11.1660 -11.1524 -11.1384  -5.9903  -3.1568
    -3.1548  -2.2426  -2.1840  -2.0317  -1.9598  -1.6794  -1.5965  -1.4670
    -1.3301  -1.2928  -1.2735  -1.1951  -1.1653  -1.0812  -1.0474  -0.9702
    -0.9296  -0.8905  -0.8641  -0.8053  -0.7702  -0.7246  -0.6887  -0.6532
    -0.6211  -0.5093  -0.4648  -0.4321  -0.4295  -0.3441  -0.3124  -0.2896
    -0.2425  -0.1565  -0.0869  -0.0025   0.0236   0.1311   0.1671   0.3187
     0.3458   0.3814   0.4225   0.5415   0.6089   0.7409   0.8067   0.8142
     0.9436   0.9840   1.0729   1.2241   1.3259   1.3578   1.3949   1.4033
     1.4349   1.4584   1.4943   1.5087   1.5234   1.6315   1.6904   1.7176
     1.7411   2.0040   2.0378   2.0563   2.1434   2.1704   2.2083   2.2239
     2.2569   2.2686   2.2713   2.3053   2.3472   2.3725   2.3966   2.4153
     2.4434   2.4969   2.5791   2.6100   2.7825   2.9516   2.9612   2.9733
     3.0122   3.0179   3.0286   3.0335   3.0474   3.0841   3.0960   3.1498
     3.1700   3.2438   3.2587   3.3284   3.3340   3.3597   3.3609   3.3805
     3.3830   3.3868   3.3929   3.3954   3.4078   3.4284   3.4291   3.4948
     3.4992   3.5154   3.5704   4.4622   4.4759   4.5247   4.5794   4.9876
     5.0872   5.2292   5.3241   5.5166   5.6546   5.8229   5.8978   6.0240
     6.2032   6.3649   6.3872   6.4561   7.0069   7.0739   7.1257   7.4313
     7.4996   7.6362   7.7658   7.9981   8.0597   8.1903   8.2896   8.4025
     8.4810   8.5746   8.6691   8.7125   8.7894   8.8488   8.9410

     occupation numbers 
     1.0000   1.0000   1.0000   1.0000   1.0000   1.0000   1.0000   1.0000
     1.0000   1.0000   1.0000   1.0000   1.0000   1.0000   1.0000   1.0000
     1.0000   1.0000   1.0000   1.0000   1.0000   1.0000   1.0000   1.0000
     1.0000   1.0000   1.0000   1.0000   1.0000   1.0000   1.0000   1.0000
     1.0000   1.0000   1.0000   1.0000   1.0000   1.0000   1.0000   1.0000
     1.0000   1.0000   1.0000   1.0000   1.0000   1.0000   1.0000   1.0000
     1.0000   1.0000   1.0000   1.0000   1.0000   1.0000   1.0000   1.0000
     1.0000   1.0000   1.0000   1.0000   1.0000   1.0000   1.0000   1.0000
     1.0000   1.0000   1.0000   1.0000   1.0000   1.0000   1.0000   1.0000
     1.0000   1.0000   1.0000   1.0000   1.0000   1.0000   1.0000   1.0000
     1.0000   1.0000   1.0000   1.0000   1.0000   1.0000   1.0000   1.0000
     1.0000   1.0000   1.0000   1.0000   1.0000   1.0000   1.0000   1.0000
     1.0000   1.0000   1.0000   1.0000   1.0000   1.0000   1.0000   1.0000
     1.0000   1.0000   1.0000   1.0000   1.0000   1.0000   1.0000   1.0000
     1.0000   1.0000   1.0000   1.0000   1.0000   1.0000   1.0000   1.0000
     1.0000   1.0000   1.0000   1.0000   1.0000   1.0000   1.0000   1.0000
     1.0000   1.0000   1.0000   1.0000   1.0000   1.0000   1.0000   1.0000
     1.0000   1.0000   1.0000   1.0000   1.0000   1.0000   1.0000   1.0000
     1.0000   1.0000   1.0000   1.0000   1.0000   1.0000   1.0000   1.0000
     1.0000   1.0000   1.0000   1.0000   1.0000   1.0000   1.0000   1.0000
     1.0000   1.0000   0.9999   0.9999   0.9998   0.9997   0.9997   0.9996
     0.9996   0.9995   0.9994   0.9994   0.9993   0.9988   0.9984   0.9982
     0.9980   0.9935   0.9926   0.9920   0.9887   0.9874   0.9855   0.9846
     0.9826   0.9818   0.9817   0.9793   0.9760   0.9737   0.9715   0.9696
     0.9667   0.9603   0.9487   0.9437   0.9083   0.8597   0.8565   0.8524
     0.8387   0.8366   0.8327   0.8308   0.8256   0.8112   0.8064   0.7837
     0.7748   0.7406   0.7334   0.6983   0.6954   0.6820   0.6813   0.6708
     0.6695   0.6674   0.6642   0.6628   0.6561   0.6447   0.6443   0.6074
     0.6049   0.5956   0.5637   0.1222   0.1181   0.1044   0.0904   0.0259
     0.0182   0.0106   0.0073   0.0032   0.0017   0.0007   0.0005   0.0002
     0.0001   0.0000   0.0000   0.0000   0.0000   0.0000   0.0000   0.0000
     0.0000   0.0000   0.0000   0.0000   0.0000   0.0000   0.0000   0.0000
     0.0000   0.0000   0.0000   0.0000   0.0000   0.0000   0.0000

          k = 0.2500 0.2500 0.0000 ( 65198 PWs)   bands (ev):

   -92.3481 -92.2934 -92.2020 -92.1537 -92.0957 -92.0545 -92.0370 -91.9139
   -55.7012 -55.6797 -55.5599 -55.5492 -55.5416 -55.5359 -55.4981 -55.4716
   -55.4551 -55.4535 -55.4449 -55.4039 -55.3851 -55.3471 -55.3280 -55.2954
   -55.2890 -55.2432 -55.2416 -55.2402 -55.2317 -55.1881 -55.1678 -55.0805
   -30.9333 -30.9175 -30.8440 -30.7746 -30.7222 -30.6888 -30.6100 -30.2755
   -29.4985 -29.4561 -29.4300 -29.3218 -22.2573 -14.6676 -14.6304 -14.5573
   -14.4403 -14.3255 -14.2000 -14.1241 -13.9246 -13.7923 -13.7625 -13.7514
   -13.7179 -13.6865 -13.6645 -13.6361 -13.6109 -13.5918 -13.4953 -13.4800
   -13.3195 -13.3067 -13.2741 -13.2562 -13.2145 -13.1666 -13.1215 -13.0833
   -12.9956 -12.9622 -12.8884 -12.8058 -12.7830 -12.7564 -12.7089 -12.6825
   -12.6741 -12.6281 -12.6054 -12.5974 -12.5633 -12.5327 -12.5181 -12.4702
   -12.4013 -12.3739 -12.3713 -12.2263 -12.1901 -12.1098 -12.0474 -11.9357
   -11.7687 -11.7370 -11.4507 -11.4188 -11.4082 -11.4013 -11.3383 -11.3030
   -11.2966 -11.2617 -11.2543 -11.1611 -11.1202 -11.1029  -5.9903  -3.1569
    -3.1547  -2.3196  -2.1095  -1.9922  -1.8986  -1.7764  -1.7111  -1.5155
    -1.3685  -1.3488  -1.3208  -1.2261  -1.1926  -1.0994  -1.0712  -1.0222
    -0.8898  -0.8414  -0.7706  -0.7249  -0.6804  -0.6565  -0.6314  -0.5896
    -0.5738  -0.4844  -0.4342  -0.3712  -0.3217  -0.2920  -0.2397  -0.2294
    -0.1652  -0.1148  -0.0601  -0.0242   0.0588   0.1130   0.1404   0.1819
     0.2352   0.3065   0.3444   0.3679   0.4390   0.4740   0.7534   0.9007
     0.9383   0.9898   1.0331   1.0814   1.1403   1.2020   1.2419   1.5141
     1.5858   1.6601   1.6859   1.7295   1.7649   1.8006   1.8379   1.8552
     1.8835   1.9239   1.9318   1.9500   1.9901   2.0290   2.0721   2.1243
     2.1569   2.1711   2.1969   2.2400   2.2874   2.3163   2.4470   2.5182
     2.5570   2.5843   2.6405   2.7098   2.7416   2.7794   2.8042   2.8144
     2.9254   2.9634   3.0320   3.0393   3.0576   3.2260   3.2433   3.2498
     3.2660   3.2796   3.2926   3.3054   3.3132   3.3229   3.3364   3.3476
     3.3678   3.3740   3.3850   3.4050   3.4195   3.4295   3.4598   3.7618
     3.8530   3.8905   3.9581   3.9707   4.1964   4.3033   4.6352   4.7930
     4.9711   5.1227   5.3206   5.5394   5.9371   5.9553   5.9802   6.1133
     6.1907   6.2425   6.3462   6.4104   6.9069   7.0151   7.1044   7.2187
     7.7014   7.7594   7.8930   7.9424   8.0181   8.1331   8.2214   8.3197
     8.3832   8.4625   8.5748   8.7017   8.7264   8.7635   8.8248

     occupation numbers 
     1.0000   1.0000   1.0000   1.0000   1.0000   1.0000   1.0000   1.0000
     1.0000   1.0000   1.0000   1.0000   1.0000   1.0000   1.0000   1.0000
     1.0000   1.0000   1.0000   1.0000   1.0000   1.0000   1.0000   1.0000
     1.0000   1.0000   1.0000   1.0000   1.0000   1.0000   1.0000   1.0000
     1.0000   1.0000   1.0000   1.0000   1.0000   1.0000   1.0000   1.0000
     1.0000   1.0000   1.0000   1.0000   1.0000   1.0000   1.0000   1.0000
     1.0000   1.0000   1.0000   1.0000   1.0000   1.0000   1.0000   1.0000
     1.0000   1.0000   1.0000   1.0000   1.0000   1.0000   1.0000   1.0000
     1.0000   1.0000   1.0000   1.0000   1.0000   1.0000   1.0000   1.0000
     1.0000   1.0000   1.0000   1.0000   1.0000   1.0000   1.0000   1.0000
     1.0000   1.0000   1.0000   1.0000   1.0000   1.0000   1.0000   1.0000
     1.0000   1.0000   1.0000   1.0000   1.0000   1.0000   1.0000   1.0000
     1.0000   1.0000   1.0000   1.0000   1.0000   1.0000   1.0000   1.0000
     1.0000   1.0000   1.0000   1.0000   1.0000   1.0000   1.0000   1.0000
     1.0000   1.0000   1.0000   1.0000   1.0000   1.0000   1.0000   1.0000
     1.0000   1.0000   1.0000   1.0000   1.0000   1.0000   1.0000   1.0000
     1.0000   1.0000   1.0000   1.0000   1.0000   1.0000   1.0000   1.0000
     1.0000   1.0000   1.0000   1.0000   1.0000   1.0000   1.0000   1.0000
     1.0000   1.0000   1.0000   1.0000   1.0000   1.0000   1.0000   1.0000
     1.0000   1.0000   1.0000   1.0000   1.0000   1.0000   1.0000   1.0000
     1.0000   1.0000   1.0000   0.9999   0.9999   0.9999   0.9999   0.9993
     0.9991   0.9986   0.9985   0.9981   0.9978   0.9973   0.9969   0.9966
     0.9962   0.9954   0.9952   0.9949   0.9939   0.9928   0.9915   0.9895
     0.9881   0.9874   0.9861   0.9837   0.9806   0.9784   0.9663   0.9575
     0.9520   0.9479   0.9383   0.9248   0.9179   0.9090   0.9029   0.9002
     0.8682   0.8558   0.8314   0.8287   0.8217   0.7491   0.7409   0.7377
     0.7298   0.7231   0.7166   0.7101   0.7061   0.7012   0.6942   0.6883
     0.6777   0.6743   0.6684   0.6576   0.6496   0.6441   0.6272   0.4507
     0.3976   0.3763   0.3389   0.3321   0.2208   0.1767   0.0777   0.0489
     0.0274   0.0160   0.0074   0.0029   0.0004   0.0004   0.0003   0.0001
     0.0001   0.0001   0.0000   0.0000   0.0000   0.0000   0.0000   0.0000
     0.0000   0.0000   0.0000   0.0000   0.0000   0.0000   0.0000   0.0000
     0.0000   0.0000   0.0000   0.0000   0.0000   0.0000   0.0000

          k = 0.2500-0.5000 0.0000 ( 65138 PWs)   bands (ev):

   -92.3481 -92.2934 -92.2020 -92.1537 -92.0957 -92.0545 -92.0370 -91.9139
   -55.7012 -55.6797 -55.5599 -55.5492 -55.5416 -55.5359 -55.4981 -55.4716
   -55.4551 -55.4535 -55.4449 -55.4039 -55.3851 -55.3471 -55.3280 -55.2954
   -55.2890 -55.2432 -55.2416 -55.2402 -55.2317 -55.1881 -55.1678 -55.0805
   -30.9331 -30.9174 -30.8438 -30.7748 -30.7225 -30.6889 -30.6099 -30.2756
   -29.4979 -29.4558 -29.4306 -29.3221 -22.2573 -14.6310 -14.5871 -14.5165
   -14.4080 -14.3719 -14.2540 -14.1645 -14.0408 -13.7912 -13.7268 -13.6797
   -13.6500 -13.6283 -13.6131 -13.5965 -13.5619 -13.5482 -13.5151 -13.4756
   -13.4629 -13.4230 -13.3198 -13.2723 -13.2319 -13.1923 -13.1414 -13.1233
   -13.0527 -13.0202 -12.8644 -12.8008 -12.7928 -12.7489 -12.6908 -12.6881
   -12.6459 -12.6249 -12.6007 -12.5820 -12.5695 -12.5343 -12.5173 -12.4416
   -12.4203 -12.3135 -12.2826 -12.2225 -12.1791 -12.0754 -11.9795 -11.9659
   -11.8252 -11.7931 -11.4264 -11.4144 -11.4032 -11.3761 -11.3448 -11.3159
   -11.2756 -11.2467 -11.2254 -11.1792 -11.1536 -11.1426  -5.9903  -3.1569
    -3.1548  -2.1011  -2.0361  -1.9057  -1.8287  -1.7001  -1.6167  -1.4916
    -1.3415  -1.2876  -1.2658  -1.2037  -1.1901  -1.0920  -1.0268  -0.9409
    -0.8923  -0.8830  -0.8186  -0.7767  -0.7426  -0.6954  -0.6588  -0.6234
    -0.5826  -0.5711  -0.5270  -0.4986  -0.4573  -0.4263  -0.3588  -0.2582
    -0.2199  -0.1412  -0.0764  -0.0277   0.0149   0.0358   0.0891   0.2491
     0.2560   0.3584   0.3961   0.4056   0.4517   0.4834   0.5194   0.5528
     0.6239   0.8873   0.9825   1.0391   1.1028   1.3761   1.3954   1.4858
     1.5148   1.6825   1.7144   1.7575   1.7821   1.7988   1.8187   1.8792
     1.9242   1.9606   2.0334   2.1262   2.1639   2.1836   2.1961   2.2317
     2.2487   2.2513   2.2955   2.3097   2.3275   2.3531   2.3775   2.4066
     2.4361   2.4953   2.5345   2.6121   2.7511   2.9044   2.9197   2.9376
     2.9653   2.9894   3.0116   3.0338   3.0394   3.0460   3.0576   3.0821
     3.1757   3.2234   3.2451   3.2466   3.2628   3.2833   3.2971   3.3160
     3.3232   3.3546   3.3657   3.3821   3.3897   3.3982   3.4094   3.9198
     3.9374   4.0931   4.1440   4.4708   4.5218   4.5317   4.6487   5.0457
     5.1134   5.2717   5.3606   5.4894   5.6238   5.7214   5.8616   5.9353
     6.0656   6.1119   6.2873   6.5078   6.5546   6.6624   7.1103   7.2940
     7.5583   7.7475   7.9591   8.0678   8.1665   8.1925   8.3248   8.4076
     8.5621   8.6237   8.6873   8.8031   8.8249   8.9335   8.9568

     occupation numbers 
     1.0000   1.0000   1.0000   1.0000   1.0000   1.0000   1.0000   1.0000
     1.0000   1.0000   1.0000   1.0000   1.0000   1.0000   1.0000   1.0000
     1.0000   1.0000   1.0000   1.0000   1.0000   1.0000   1.0000   1.0000
     1.0000   1.0000   1.0000   1.0000   1.0000   1.0000   1.0000   1.0000
     1.0000   1.0000   1.0000   1.0000   1.0000   1.0000   1.0000   1.0000
     1.0000   1.0000   1.0000   1.0000   1.0000   1.0000   1.0000   1.0000
     1.0000   1.0000   1.0000   1.0000   1.0000   1.0000   1.0000   1.0000
     1.0000   1.0000   1.0000   1.0000   1.0000   1.0000   1.0000   1.0000
     1.0000   1.0000   1.0000   1.0000   1.0000   1.0000   1.0000   1.0000
     1.0000   1.0000   1.0000   1.0000   1.0000   1.0000   1.0000   1.0000
     1.0000   1.0000   1.0000   1.0000   1.0000   1.0000   1.0000   1.0000
     1.0000   1.0000   1.0000   1.0000   1.0000   1.0000   1.0000   1.0000
     1.0000   1.0000   1.0000   1.0000   1.0000   1.0000   1.0000   1.0000
     1.0000   1.0000   1.0000   1.0000   1.0000   1.0000   1.0000   1.0000
     1.0000   1.0000   1.0000   1.0000   1.0000   1.0000   1.0000   1.0000
     1.0000   1.0000   1.0000   1.0000   1.0000   1.0000   1.0000   1.0000
     1.0000   1.0000   1.0000   1.0000   1.0000   1.0000   1.0000   1.0000
     1.0000   1.0000   1.0000   1.0000   1.0000   1.0000   1.0000   1.0000
     1.0000   1.0000   1.0000   1.0000   1.0000   1.0000   1.0000   1.0000
     1.0000   1.0000   1.0000   1.0000   1.0000   1.0000   1.0000   1.0000
     1.0000   1.0000   1.0000   1.0000   0.9999   0.9997   0.9997   0.9994
     0.9993   0.9985   0.9982   0.9978   0.9976   0.9974   0.9971   0.9962
     0.9954   0.9946   0.9927   0.9894   0.9877   0.9868   0.9861   0.9841
     0.9831   0.9830   0.9800   0.9789   0.9776   0.9755   0.9733   0.9705
     0.9674   0.9605   0.9553   0.9433   0.9157   0.8747   0.8700   0.8643
     0.8552   0.8468   0.8389   0.8307   0.8286   0.8261   0.8217   0.8120
     0.7723   0.7503   0.7400   0.7393   0.7314   0.7213   0.7143   0.7047
     0.7010   0.6846   0.6787   0.6700   0.6659   0.6613   0.6551   0.3599
     0.3502   0.2690   0.2446   0.1197   0.1052   0.1025   0.0748   0.0212
     0.0165   0.0090   0.0062   0.0036   0.0019   0.0012   0.0006   0.0004
     0.0002   0.0002   0.0001   0.0000   0.0000   0.0000   0.0000   0.0000
     0.0000   0.0000   0.0000   0.0000   0.0000   0.0000   0.0000   0.0000
     0.0000   0.0000   0.0000   0.0000   0.0000   0.0000   0.0000

          k =-0.5000-0.5000 0.0000 ( 65132 PWs)   bands (ev):

   -92.3481 -92.2934 -92.2020 -92.1537 -92.0957 -92.0545 -92.0370 -91.9139
   -55.7012 -55.6797 -55.5599 -55.5492 -55.5416 -55.5359 -55.4981 -55.4716
   -55.4551 -55.4535 -55.4449 -55.4039 -55.3851 -55.3471 -55.3280 -55.2954
   -55.2890 -55.2432 -55.2416 -55.2402 -55.2317 -55.1881 -55.1678 -55.0805
   -30.9309 -30.9196 -30.8436 -30.7744 -30.7224 -30.6893 -30.6100 -30.2757
   -29.4969 -29.4568 -29.4302 -29.3225 -22.2573 -14.5838 -14.5596 -14.4432
   -14.4291 -14.3383 -14.2993 -14.2728 -14.1388 -13.7910 -13.6390 -13.6290
   -13.5908 -13.5765 -13.5567 -13.5412 -13.5134 -13.5041 -13.4901 -13.4853
   -13.4699 -13.3896 -13.3829 -13.3621 -13.3242 -13.3197 -13.2180 -13.2142
   -13.0968 -13.0727 -12.8162 -12.7881 -12.7234 -12.7094 -12.6833 -12.6642
   -12.6419 -12.6352 -12.6285 -12.6111 -12.5535 -12.5343 -12.5030 -12.4781
   -12.4543 -12.2651 -12.2568 -12.2254 -12.1956 -12.0497 -11.9759 -11.9361
   -11.8157 -11.8004 -11.4221 -11.4109 -11.3932 -11.3757 -11.3417 -11.3231
   -11.2883 -11.2264 -11.2075 -11.2016 -11.1517 -11.1485  -5.9903  -3.1571
    -3.1548  -1.8774  -1.8015  -1.7926  -1.7196  -1.6801  -1.6020  -1.5338
    -1.4090  -1.2916  -1.2621  -1.2222  -1.1648  -1.0938  -1.0787  -1.0082
    -0.9659  -0.8502  -0.8212  -0.7744  -0.7418  -0.6777  -0.6333  -0.6146
    -0.6031  -0.5504  -0.5029  -0.4907  -0.3763  -0.3186  -0.2699  -0.2230
    -0.1993  -0.1869  -0.1504  -0.1102  -0.0746  -0.0629   0.0239   0.0914
     0.1390   0.1614   0.2361   0.2894   0.2984   0.3596   0.3787   0.3939
     0.4019   0.8540   0.9048   0.9843   1.0089   1.4058   1.4186   1.4511
     1.4898   1.7651   1.7832   1.7918   1.8295   1.9647   2.0600   2.0862
     2.1224   2.1383   2.1592   2.1716   2.2020   2.2099   2.2261   2.2332
     2.2899   2.2965   2.3205   2.3319   2.3533   2.3626   2.4061   2.4321
     2.4440   2.4806   2.5028   2.5787   2.6450   2.9153   2.9487   2.9657
     2.9880   2.9973   3.0189   3.0285   3.0346   3.0381   3.0539   3.0675
     3.0824   3.1006   3.1145   3.1769   3.1802   3.2015   3.2153   3.2254
     3.2450   3.2519   3.2599   3.3613   3.3671   3.3930   3.4039   4.3384
     4.3714   4.3941   4.4149   4.6695   4.7391   4.7698   5.0096   5.1292
     5.1521   5.2154   5.3343   5.4017   5.4332   5.5544   5.5931   5.7258
     5.9834   6.0110   6.1139   6.2717   6.5038   6.6975   6.7558   7.3744
     7.5236   7.5475   7.6543   8.2730   8.2939   8.3662   8.5211   8.5734
     8.6276   8.7920   8.8820   8.8958   8.9110   8.9510   8.9667

     occupation numbers 
     1.0000   1.0000   1.0000   1.0000   1.0000   1.0000   1.0000   1.0000
     1.0000   1.0000   1.0000   1.0000   1.0000   1.0000   1.0000   1.0000
     1.0000   1.0000   1.0000   1.0000   1.0000   1.0000   1.0000   1.0000
     1.0000   1.0000   1.0000   1.0000   1.0000   1.0000   1.0000   1.0000
     1.0000   1.0000   1.0000   1.0000   1.0000   1.0000   1.0000   1.0000
     1.0000   1.0000   1.0000   1.0000   1.0000   1.0000   1.0000   1.0000
[...]
     0.0000   0.0000   0.0000   0.0000   0.0000   0.0000   0.0000   0.0000
     0.0000   0.0000   0.0000   0.0000   0.0000   0.0000   0.0000

          k =-0.5000 0.0000 0.0000 ( 65180 PWs)   bands (ev):

   -92.3481 -92.2934 -92.2020 -92.1537 -92.0957 -92.0545 -92.0370 -91.9139
   -55.7012 -55.6797 -55.5599 -55.5492 -55.5416 -55.5359 -55.4981 -55.4716
   -55.4551 -55.4535 -55.4449 -55.4039 -55.3851 -55.3471 -55.3280 -55.2954
   -55.2890 -55.2432 -55.2416 -55.2402 -55.2317 -55.1881 -55.1678 -55.0805
   -30.9313 -30.9199 -30.8441 -30.7740 -30.7219 -30.6890 -30.6102 -30.2755
   -29.4981 -29.4574 -29.4290 -29.3219 -22.2573 -14.6668 -14.6154 -14.5544
   -14.4511 -14.3408 -14.1985 -14.0541 -13.9232 -13.7966 -13.7840 -13.7783
   -13.7598 -13.7091 -13.6478 -13.6129 -13.5670 -13.5646 -13.5478 -13.4939
   -13.4898 -13.3882 -13.2077 -13.1867 -13.1486 -13.1403 -13.0997 -13.0190
   -12.9945 -12.9269 -12.9104 -12.9033 -12.8169 -12.7119 -12.7092 -12.7003
   -12.6850 -12.6691 -12.6218 -12.6090 -12.5979 -12.5745 -12.5125 -12.3543
   -12.3277 -12.2975 -12.2887 -12.2211 -12.1985 -12.1413 -12.0329 -11.9857
   -11.8229 -11.7790 -11.4300 -11.4085 -11.4019 -11.3860 -11.3683 -11.3274
   -11.2641 -11.2470 -11.2151 -11.1684 -11.1593 -11.1437  -5.9903  -3.1571
    -3.1545  -2.2328  -2.1943  -2.0293  -1.9906  -1.6784  -1.6032  -1.4535
    -1.3364  -1.2976  -1.2522  -1.2033  -1.1780  -1.0563  -1.0110  -0.9969
    -0.9135  -0.8790  -0.8640  -0.8313  -0.7753  -0.7058  -0.6760  -0.6490
    -0.5555  -0.5055  -0.4569  -0.4251  -0.4031  -0.3746  -0.3260  -0.3013
    -0.2623  -0.1676  -0.0963  -0.0318   0.0300   0.1907   0.2249   0.2915
     0.3172   0.3819   0.4003   0.5313   0.5671   0.6056   0.7894   0.8874
     0.9340   1.0017   1.0731   1.2046   1.2144   1.3484   1.3768   1.4294
     1.4533   1.4923   1.5094   1.5511   1.5798   1.6438   1.6883   1.7363
     1.7440   2.0410   2.0463   2.0694   2.0800   2.2006   2.2108   2.2168
     2.2320   2.2627   2.2753   2.3111   2.3408   2.3590   2.4263   2.4312
     2.4890   2.5029   2.5670   2.6658   2.7726   2.8494   2.8639   2.9461
     2.9775   3.0028   3.0348   3.0367   3.0714   3.0823   3.0893   3.1175
     3.1854   3.2305   3.2742   3.3047   3.3488   3.3535   3.3546   3.3671
     3.3808   3.3930   3.4080   3.4113   3.4328   3.4381   3.4593   3.4802
     3.4850   3.6132   3.6170   4.4012   4.4613   4.5247   4.6410   4.9692
     5.1244   5.2540   5.3138   5.4374   5.6748   5.8611   5.9206   5.9832
     6.1548   6.3757   6.3842   6.5072   6.9648   7.0521   7.1936   7.4495
     7.5159   7.6341   7.7196   7.9214   8.0805   8.1857   8.3338   8.3996
     8.4256   8.6020   8.6740   8.7317   8.8168   8.8489   8.9541

     occupation numbers 
     1.0000   1.0000   1.0000   1.0000   1.0000   1.0000   1.0000   1.0000
     1.0000   1.0000   1.0000   1.0000   1.0000   1.0000   1.0000   1.0000
     1.0000   1.0000   1.0000   1.0000   1.0000   1.0000   1.0000   1.0000
     1.0000   1.0000   1.0000   1.0000   1.0000   1.0000   1.0000   1.0000
     1.0000   1.0000   1.0000   1.0000   1.0000   1.0000   1.0000   1.0000
     1.0000   1.0000   1.0000   1.0000   1.0000   1.0000   1.0000   1.0000
     1.0000   1.0000   1.0000   1.0000   1.0000   1.0000   1.0000   1.0000
     1.0000   1.0000   1.0000   1.0000   1.0000   1.0000   1.0000   1.0000
     1.0000   1.0000   1.0000   1.0000   1.0000   1.0000   1.0000   1.0000
     1.0000   1.0000   1.0000   1.0000   1.0000   1.0000   1.0000   1.0000
     1.0000   1.0000   1.0000   1.0000   1.0000   1.0000   1.0000   1.0000
     1.0000   1.0000   1.0000   1.0000   1.0000   1.0000   1.0000   1.0000
     1.0000   1.0000   1.0000   1.0000   1.0000   1.0000   1.0000   1.0000
     1.0000   1.0000   1.0000   1.0000   1.0000   1.0000   1.0000   1.0000
     1.0000   1.0000   1.0000   1.0000   1.0000   1.0000   1.0000   1.0000
     1.0000   1.0000   1.0000   1.0000   1.0000   1.0000   1.0000   1.0000
     1.0000   1.0000   1.0000   1.0000   1.0000   1.0000   1.0000   1.0000
     1.0000   1.0000   1.0000   1.0000   1.0000   1.0000   1.0000   1.0000
     1.0000   1.0000   1.0000   1.0000   1.0000   1.0000   1.0000   1.0000
     1.0000   1.0000   1.0000   1.0000   1.0000   1.0000   1.0000   1.0000
     1.0000   1.0000   0.9999   0.9999   0.9999   0.9997   0.9997   0.9996
     0.9995   0.9994   0.9994   0.9992   0.9991   0.9987   0.9984   0.9980
     0.9980   0.9925   0.9923   0.9916   0.9912   0.9859   0.9853   0.9850
     0.9841   0.9822   0.9814   0.9788   0.9765   0.9749   0.9685   0.9680
     0.9613   0.9595   0.9505   0.9336   0.9107   0.8908   0.8867   0.8615
     0.8510   0.8421   0.8304   0.8296   0.8162   0.8119   0.8091   0.7975
     0.7679   0.7470   0.7258   0.7105   0.6877   0.6852   0.6846   0.6780
     0.6707   0.6641   0.6559   0.6541   0.6423   0.6393   0.6275   0.6157
     0.6130   0.5385   0.5363   0.1415   0.1225   0.1044   0.0764   0.0276
     0.0159   0.0097   0.0076   0.0045   0.0015   0.0006   0.0004   0.0003
     0.0001   0.0000   0.0000   0.0000   0.0000   0.0000   0.0000   0.0000
     0.0000   0.0000   0.0000   0.0000   0.0000   0.0000   0.0000   0.0000
     0.0000   0.0000   0.0000   0.0000   0.0000   0.0000   0.0000

          k =-0.2500 0.2500 0.0000 ( 65198 PWs)   bands (ev):

   -92.3481 -92.2934 -92.2020 -92.1537 -92.0957 -92.0545 -92.0370 -91.9139
   -55.7012 -55.6797 -55.5599 -55.5492 -55.5416 -55.5359 -55.4981 -55.4716
   -55.4551 -55.4535 -55.4449 -55.4039 -55.3851 -55.3471 -55.3280 -55.2954
   -55.2890 -55.2432 -55.2416 -55.2402 -55.2317 -55.1881 -55.1678 -55.0805
   -30.9333 -30.9175 -30.8440 -30.7746 -30.7222 -30.6888 -30.6100 -30.2755
   -29.4985 -29.4561 -29.4300 -29.3218 -22.2573 -14.6689 -14.6292 -14.5562
   -14.4382 -14.3319 -14.2052 -14.1157 -13.9151 -13.7920 -13.7705 -13.7407
   -13.7297 -13.6817 -13.6562 -13.6400 -13.6277 -13.5937 -13.4915 -13.4805
   -13.3286 -13.3020 -13.2730 -13.2524 -13.2160 -13.1514 -13.1107 -13.0929
   -13.0024 -12.9717 -12.8819 -12.8070 -12.7799 -12.7534 -12.7006 -12.6801
   -12.6569 -12.6328 -12.6220 -12.5929 -12.5843 -12.5479 -12.5301 -12.4678
   -12.4279 -12.3501 -12.3362 -12.2208 -12.1490 -12.1056 -12.0997 -11.9414
   -11.7847 -11.7167 -11.4500 -11.4286 -11.4008 -11.3889 -11.3481 -11.3127
   -11.2901 -11.2688 -11.2464 -11.1609 -11.1156 -11.1062  -5.9903  -3.1570
    -3.1547  -2.3179  -2.1085  -1.9881  -1.9002  -1.7806  -1.7138  -1.5131
    -1.3652  -1.3465  -1.3188  -1.2267  -1.1915  -1.0987  -1.0659  -1.0390
    -0.8954  -0.8405  -0.7728  -0.7432  -0.6844  -0.6621  -0.6218  -0.5928
    -0.5526  -0.4908  -0.4435  -0.3824  -0.3134  -0.2883  -0.2349  -0.2076
    -0.1623  -0.1053  -0.0622  -0.0199   0.0782   0.1133   0.1208   0.1690
     0.2329   0.3059   0.3463   0.3734   0.4423   0.4713   0.7355   0.9010
     0.9466   0.9820   1.0396   1.0811   1.1424   1.2109   1.2376   1.5214
     1.6370   1.6762   1.7078   1.7150   1.7582   1.7752   1.8197   1.8502
     1.8661   1.8923   1.9325   1.9468   1.9901   2.0068   2.0506   2.1346
     2.1500   2.1713   2.2024   2.2353   2.2731   2.3186   2.4358   2.5495
     2.5805   2.6221   2.6442   2.7096   2.7536   2.7819   2.8040   2.8247
     2.9254   2.9622   3.0352   3.0410   3.0539   3.2330   3.2413   3.2551
     3.2650   3.2758   3.2895   3.2953   3.3132   3.3208   3.3377   3.3468
     3.3597   3.3690   3.3752   3.4071   3.4187   3.4285   3.4619   3.7549
     3.8357   3.8933   3.9581   3.9841   4.1800   4.3120   4.6327   4.7953
     4.9644   5.1286   5.3304   5.5429   5.9069   5.9467   6.0102   6.1257
     6.1882   6.2350   6.3456   6.4181   6.9314   6.9672   7.1022   7.2394
     7.6973   7.8013   7.8520   7.9470   7.9811   8.1699   8.2185   8.3225
     8.4139   8.4391   8.5483   8.7142   8.7221   8.7795   8.8300

     occupation numbers 
     1.0000   1.0000   1.0000   1.0000   1.0000   1.0000   1.0000   1.0000
     1.0000   1.0000   1.0000   1.0000   1.0000   1.0000   1.0000   1.0000
     1.0000   1.0000   1.0000   1.0000   1.0000   1.0000   1.0000   1.0000
     1.0000   1.0000   1.0000   1.0000   1.0000   1.0000   1.0000   1.0000
     1.0000   1.0000   1.0000   1.0000   1.0000   1.0000   1.0000   1.0000
     1.0000   1.0000   1.0000   1.0000   1.0000   1.0000   1.0000   1.0000
     1.0000   1.0000   1.0000   1.0000   1.0000   1.0000   1.0000   1.0000
     1.0000   1.0000   1.0000   1.0000   1.0000   1.0000   1.0000   1.0000
     1.0000   1.0000   1.0000   1.0000   1.0000   1.0000   1.0000   1.0000
     1.0000   1.0000   1.0000   1.0000   1.0000   1.0000   1.0000   1.0000
     1.0000   1.0000   1.0000   1.0000   1.0000   1.0000   1.0000   1.0000
     1.0000   1.0000   1.0000   1.0000   1.0000   1.0000   1.0000   1.0000
     1.0000   1.0000   1.0000   1.0000   1.0000   1.0000   1.0000   1.0000
     1.0000   1.0000   1.0000   1.0000   1.0000   1.0000   1.0000   1.0000
     1.0000   1.0000   1.0000   1.0000   1.0000   1.0000   1.0000   1.0000
     1.0000   1.0000   1.0000   1.0000   1.0000   1.0000   1.0000   1.0000
     1.0000   1.0000   1.0000   1.0000   1.0000   1.0000   1.0000   1.0000
     1.0000   1.0000   1.0000   1.0000   1.0000   1.0000   1.0000   1.0000
     1.0000   1.0000   1.0000   1.0000   1.0000   1.0000   1.0000   1.0000
     1.0000   1.0000   1.0000   1.0000   1.0000   1.0000   1.0000   1.0000
     1.0000   1.0000   1.0000   0.9999   0.9999   0.9999   0.9999   0.9993
     0.9988   0.9985   0.9983   0.9982   0.9978   0.9976   0.9971   0.9967
     0.9964   0.9960   0.9952   0.9949   0.9939   0.9935   0.9922   0.9891
     0.9884   0.9874   0.9858   0.9839   0.9815   0.9783   0.9675   0.9532
     0.9485   0.9416   0.9377   0.9248   0.9151   0.9084   0.9029   0.8975
     0.8682   0.8562   0.8302   0.8280   0.8231   0.7458   0.7418   0.7351
     0.7303   0.7250   0.7182   0.7152   0.7062   0.7022   0.6935   0.6887
     0.6819   0.6770   0.6737   0.6564   0.6501   0.6447   0.6260   0.4547
     0.4076   0.3748   0.3389   0.3249   0.2281   0.1733   0.0782   0.0486
     0.0281   0.0156   0.0071   0.0028   0.0005   0.0004   0.0003   0.0001
     0.0001   0.0001   0.0000   0.0000   0.0000   0.0000   0.0000   0.0000
     0.0000   0.0000   0.0000   0.0000   0.0000   0.0000   0.0000   0.0000
     0.0000   0.0000   0.0000   0.0000   0.0000   0.0000   0.0000

          k =-0.5000 0.2500 0.0000 ( 65138 PWs)   bands (ev):

   -92.3481 -92.2934 -92.2020 -92.1537 -92.0957 -92.0545 -92.0370 -91.9139
   -55.7012 -55.6797 -55.5599 -55.5492 -55.5416 -55.5359 -55.4981 -55.4716
   -55.4551 -55.4535 -55.4449 -55.4039 -55.3851 -55.3471 -55.3280 -55.2954
   -55.2890 -55.2432 -55.2416 -55.2402 -55.2317 -55.1881 -55.1678 -55.0805
   -30.9311 -30.9198 -30.8439 -30.7742 -30.7222 -30.6892 -30.6101 -30.2756
   -29.4975 -29.4571 -29.4296 -29.3222 -22.2573 -14.6339 -14.5890 -14.5112
   -14.4164 -14.3712 -14.2449 -14.1594 -14.0359 -13.7914 -13.7205 -13.6912
   -13.6788 -13.6333 -13.6167 -13.5863 -13.5542 -13.5499 -13.5239 -13.4904
   -13.4739 -13.3770 -13.2922 -13.2474 -13.2415 -13.2310 -13.1575 -13.1255
   -13.0437 -13.0003 -12.8584 -12.8239 -12.7700 -12.7251 -12.6878 -12.6741
   -12.6681 -12.6385 -12.6246 -12.6022 -12.5919 -12.5525 -12.5208 -12.4108
   -12.3882 -12.2803 -12.2732 -12.2217 -12.1968 -12.0904 -11.9829 -11.9805
   -11.8189 -11.7884 -11.4227 -11.4097 -11.3958 -11.3841 -11.3622 -11.3321
   -11.2517 -11.2422 -11.2200 -11.1829 -11.1552 -11.1462  -5.9903  -3.1571
    -3.1546  -2.0908  -2.0487  -1.8991  -1.8575  -1.6979  -1.6220  -1.4778
    -1.3428  -1.2860  -1.2592  -1.2195  -1.1804  -1.1003  -0.9857  -0.9289
    -0.9058  -0.8806  -0.8037  -0.7752  -0.7380  -0.7190  -0.6583  -0.6304
    -0.5907  -0.5553  -0.5266  -0.4693  -0.4432  -0.4014  -0.3674  -0.2633
    -0.2362  -0.1504  -0.0901  -0.0557  -0.0001   0.0851   0.1168   0.2201
     0.2540   0.3111   0.3598   0.3853   0.4646   0.4889   0.5201   0.5799
     0.6179   0.9188   0.9841   1.0384   1.0577   1.3566   1.4120   1.4879
     1.5152   1.6943   1.7309   1.7681   1.7827   1.8007   1.8183   1.8880
     1.9293   1.9686   1.9955   2.1137   2.1512   2.1833   2.1931   2.2297
     2.2595   2.2720   2.2846   2.3077   2.3309   2.3725   2.3981   2.4284
     2.4519   2.4799   2.5438   2.6600   2.7656   2.7951   2.8633   2.9040
     2.9622   2.9998   3.0080   3.0337   3.0362   3.0475   3.0824   3.1020
     3.1850   3.2266   3.2413   3.2474   3.2682   3.2910   3.3038   3.3186
     3.3309   3.3510   3.3638   3.3753   3.3824   3.3921   3.4043   3.9258
     3.9690   4.1233   4.1455   4.4112   4.4864   4.5336   4.7344   5.0391
     5.1265   5.2581   5.3504   5.4361   5.7125   5.7597   5.8152   5.8895
     6.0571   6.1112   6.2667   6.5349   6.5880   6.6651   7.1050   7.2637
     7.5693   7.7438   7.9713   8.0564   8.1846   8.1911   8.3130   8.3693
     8.5773   8.6172   8.6971   8.8232   8.8506   8.9157   8.9402

     occupation numbers 
     1.0000   1.0000   1.0000   1.0000   1.0000   1.0000   1.0000   1.0000
     1.0000   1.0000   1.0000   1.0000   1.0000   1.0000   1.0000   1.0000
     1.0000   1.0000   1.0000   1.0000   1.0000   1.0000   1.0000   1.0000
     1.0000   1.0000   1.0000   1.0000   1.0000   1.0000   1.0000   1.0000
     1.0000   1.0000   1.0000   1.0000   1.0000   1.0000   1.0000   1.0000
     1.0000   1.0000   1.0000   1.0000   1.0000   1.0000   1.0000   1.0000
     1.0000   1.0000   1.0000   1.0000   1.0000   1.0000   1.0000   1.0000
     1.0000   1.0000   1.0000   1.0000   1.0000   1.0000   1.0000   1.0000
     1.0000   1.0000   1.0000   1.0000   1.0000   1.0000   1.0000   1.0000
     1.0000   1.0000   1.0000   1.0000   1.0000   1.0000   1.0000   1.0000
     1.0000   1.0000   1.0000   1.0000   1.0000   1.0000   1.0000   1.0000
     1.0000   1.0000   1.0000   1.0000   1.0000   1.0000   1.0000   1.0000
     1.0000   1.0000   1.0000   1.0000   1.0000   1.0000   1.0000   1.0000
     1.0000   1.0000   1.0000   1.0000   1.0000   1.0000   1.0000   1.0000
     1.0000   1.0000   1.0000   1.0000   1.0000   1.0000   1.0000   1.0000
     1.0000   1.0000   1.0000   1.0000   1.0000   1.0000   1.0000   1.0000
     1.0000   1.0000   1.0000   1.0000   1.0000   1.0000   1.0000   1.0000
     1.0000   1.0000   1.0000   1.0000   1.0000   1.0000   1.0000   1.0000
     1.0000   1.0000   1.0000   1.0000   1.0000   1.0000   1.0000   1.0000
     1.0000   1.0000   1.0000   1.0000   1.0000   1.0000   1.0000   1.0000
     1.0000   1.0000   1.0000   1.0000   1.0000   0.9997   0.9996   0.9994
     0.9993   0.9984   0.9981   0.9977   0.9976   0.9973   0.9971   0.9961
     0.9953   0.9944   0.9938   0.9899   0.9883   0.9868   0.9863   0.9843
     0.9824   0.9816   0.9807   0.9791   0.9773   0.9737   0.9713   0.9683
     0.9657   0.9624   0.9540   0.9347   0.9123   0.9051   0.8869   0.8749
     0.8562   0.8431   0.8402   0.8308   0.8298   0.8255   0.8119   0.8039
     0.7681   0.7488   0.7418   0.7389   0.7287   0.7174   0.7109   0.7034
     0.6971   0.6865   0.6798   0.6736   0.6698   0.6646   0.6580   0.3566
     0.3330   0.2544   0.2439   0.1382   0.1151   0.1020   0.0584   0.0217
     0.0158   0.0095   0.0065   0.0045   0.0013   0.0010   0.0008   0.0005
     0.0002   0.0002   0.0001   0.0000   0.0000   0.0000   0.0000   0.0000
     0.0000   0.0000   0.0000   0.0000   0.0000   0.0000   0.0000   0.0000
     0.0000   0.0000   0.0000   0.0000   0.0000   0.0000   0.0000

     the Fermi energy is     3.6783 ev

!    total energy              =   -4482.97754196 Ry
     estimated scf accuracy    <          6.6E-09 Ry
     smearing contrib. (-TS)   =      -1.17227578 Ry
     internal energy E=F+TS    =   -4481.80526618 Ry

     The total energy is F=E-TS. E is the sum of the following terms:
     one-electron contribution =  -20253.81056296 Ry
     hartree contribution      =   10266.43943867 Ry
     xc contribution           =    -701.58883035 Ry
     ewald contribution        =    6492.80761544 Ry
     one-center paw contrib.   =    -285.65292698 Ry
      -> PAW hartree energy AE =      25.16161504 Ry
      -> PAW hartree energy PS =     -25.04556204 Ry
      -> PAW xc energy AE      =     -16.51723326 Ry
      -> PAW xc energy PS      =       6.87671143 Ry
      -> total E_H with PAW    =   10266.55549168 Ry
      -> total E_XC with PAW   =    -711.22935218 Ry

     convergence has been achieved in  51 iterations

     Writing all to output data dir /bsuhome/zayahcortright/scratch/pwscf.save/
 
     init_run     :      8.14s CPU      8.72s WALL (       1 calls)
     electrons    :    770.02s CPU    802.83s WALL (       1 calls)

     Called by init_run:
     wfcinit      :      6.28s CPU      6.49s WALL (       1 calls)
     wfcinit:atom :      0.04s CPU      0.06s WALL (       5 calls)
     wfcinit:wfcr :      5.97s CPU      6.10s WALL (       5 calls)
     potinit      :      0.18s CPU      0.20s WALL (       1 calls)
     hinit0       :      0.61s CPU      0.78s WALL (       1 calls)

     Called by electrons:
     c_bands      :    615.64s CPU    622.61s WALL (      51 calls)
     sum_band     :    116.65s CPU    131.12s WALL (      51 calls)
     v_of_rho     :      5.56s CPU      5.96s WALL (      52 calls)
     v_h          :      0.48s CPU      0.49s WALL (      52 calls)
     v_xc         :      5.08s CPU      5.48s WALL (      52 calls)
     newd         :     17.27s CPU     27.64s WALL (      52 calls)
     PAW_pot      :      1.69s CPU      1.72s WALL (      52 calls)
     mix_rho      :     12.85s CPU     13.21s WALL (      51 calls)

     Called by c_bands:
     init_us_2    :      7.61s CPU      7.70s WALL (     515 calls)
     init_us_2:cp :      7.60s CPU      7.70s WALL (     515 calls)
     cegterg      :    578.71s CPU    585.33s WALL (     255 calls)

     Called by sum_band:
     sum_band:wei :      0.36s CPU      0.36s WALL (      51 calls)
     sum_band:loo :     97.63s CPU     98.33s WALL (      51 calls)
     sum_band:buf :      1.57s CPU      1.60s WALL (     255 calls)
     sum_band:ini :      3.53s CPU      3.54s WALL (     255 calls)
     sum_band:cal :     21.35s CPU     21.42s WALL (     255 calls)
     sum_band:bec :      0.65s CPU      0.68s WALL (     255 calls)
     addusdens    :     16.67s CPU     30.38s WALL (      51 calls)
                                        0.00s GPU  (      51 calls)
     addusd:skk   :      0.33s CPU      1.02s WALL (     204 calls)
                                        0.00s GPU  (     204 calls)

     Called by *egterg:
     cdiaghg      :     59.63s CPU     59.89s WALL (    1453 calls)
     cegterg:over :     43.32s CPU     43.50s WALL (    1198 calls)
     cegterg:upda :     31.71s CPU     32.31s WALL (    1198 calls)
     cegterg:last :     67.33s CPU     67.59s WALL (     474 calls)
     cdiaghg:chol :      3.52s CPU      3.55s WALL (    1453 calls)
     cdiaghg:inve :      3.70s CPU      3.72s WALL (    1453 calls)
     cdiaghg:para :      7.28s CPU      7.33s WALL (    2906 calls)
     h_psi        :    316.12s CPU    319.31s WALL (    1458 calls)
     s_psi        :     43.66s CPU     43.81s WALL (    1458 calls)
     g_psi        :      1.10s CPU      1.11s WALL (    1198 calls)

     Called by h_psi:
     h_psi:calbec :     49.75s CPU     49.93s WALL (    1458 calls)
     vloc_psi     :    219.91s CPU    221.98s WALL (    1458 calls)
     add_vuspsi   :     43.39s CPU     43.59s WALL (    1458 calls)

     General routines
     calbec       :     71.10s CPU     71.34s WALL (    1713 calls)
     fft          :      3.96s CPU      4.02s WALL (     674 calls)
     ffts         :      4.78s CPU      4.82s WALL (    5337 calls)
     fftw         :    184.20s CPU    185.71s WALL (  350281 calls)
     interpolate  :      0.42s CPU      0.43s WALL (      52 calls)
 
     Parallel routines

     PAW routines
     PAW_pot      :      1.69s CPU      1.72s WALL (      52 calls)
 
     PWSCF        :  12m59.98s CPU  13m38.20s WALL

 
   This run was terminated on:  21:55:44  18Jun2024            

=------------------------------------------------------------------------------=
   JOB DONE.
=------------------------------------------------------------------------------=
