
     Program PWSCF v.7.2 starts on 21Jun2024 at 21:27:20 

     This program is part of the open-source Quantum ESPRESSO suite
     for quantum simulation of materials; please cite
         "P. Giannozzi et al., J. Phys.:Condens. Matter 21 395502 (2009);
         "P. Giannozzi et al., J. Phys.:Condens. Matter 29 465901 (2017);
         "P. Giannozzi et al., J. Chem. Phys. 152 154105 (2020);
          URL http://www.quantum-espresso.org", 
     in publications or presentations arising from this work. More details at
     http://www.quantum-espresso.org/quote

     Parallel version (MPI & OpenMP), running on      48 processor cores
     Number of MPI processes:                48
     Threads/MPI process:                     1

     MPI processes distributed on     1 nodes
     60582 MiB available memory on the printing compute node when the environment starts
 
     Reading input from espresso.pwi
Warning: card &CELL ignored
Warning: card / ignored
Warning: card &FCP ignored
Warning: card / ignored
Warning: card &RISM ignored
Warning: card / ignored

     Current dimensions of program PWSCF are:
     Max number of different atomic species (ntypx) = 10
     Max number of k-points (npk) =  40000
     Max angular momentum in pseudopotentials (lmaxx) =  4
     file O.pbe-n-kjpaw_psl.0.1.UPF: wavefunction(s)  2P renormalized
     signal trapping enabled: kill the code with -SIGUSR1 to stop cleanly the simulation 
 
     K-points division:     npool     =       2
     R & G space division:  proc/nbgrp/npool/nimage =      24
     Subspace diagonalization in iterative solution of the eigenvalue problem:
     one sub-group per band group will be used
     scalapack distributed-memory algorithm (size of sub-group:  3*  3 procs)

 
     Parallelization info
     --------------------
     sticks:   dense  smooth     PW     G-vecs:    dense   smooth      PW
     Min         350     175     47                61430    21716    3036
     Max         351     177     48                61449    21727    3041
     Sum        8421    4205   1137              1474595   521381   72913
 
     Using Slab Decomposition
 


     bravais-lattice index     =            0
     lattice parameter (alat)  =      14.8599  a.u.
     unit-cell volume          =    8305.1283 (a.u.)^3
     number of atoms/cell      =           49
     number of atomic types    =            3
     number of electrons       =       430.00
     number of Kohn-Sham states=          258
     kinetic-energy cutoff     =      60.0000  Ry
     charge density cutoff     =     480.0000  Ry
     scf convergence threshold =      1.0E-08
     mixing beta               =       0.1500
     number of iterations used =            8  local-TF  mixing
     Exchange-correlation= SLA  PW   PBE  PBE
                           (   1   4   3   4   0   0   0)

     celldm(1)=  14.859904  celldm(2)=   0.000000  celldm(3)=   0.000000
     celldm(4)=   0.000000  celldm(5)=   0.000000  celldm(6)=   0.000000

     crystal axes: (cart. coord. in units of alat)
               a(1) = (   1.000000   0.000000   0.000000 )  
               a(2) = (   0.000000   1.000000   0.000000 )  
               a(3) = (   0.000000   0.000000   2.531036 )  

     reciprocal axes: (cart. coord. in units 2 pi/alat)
               b(1) = (  1.000000  0.000000  0.000000 )  
               b(2) = (  0.000000  1.000000  0.000000 )  
               b(3) = (  0.000000  0.000000  0.395095 )  


     PseudoPot. # 1 for Sr read from file:
     /bsuhome/zayahcortright/q-e/pseudo/Sr_pbe_v1.uspp.F.UPF
     MD5 check sum: 6b418c05fbe9db5448babca5e47b7a5b
     Pseudo is Ultrasoft + core correction, Zval = 10.0
     Generated by new atomic code, or converted to UPF format
     Using radial grid of  883 points,  6 beta functions with: 
                l(1) =   0
                l(2) =   0
                l(3) =   1
                l(4) =   1
                l(5) =   2
                l(6) =   2
     Q(r) pseudized with  6 coefficients,  rinner =    1.400   1.400   1.400
                                                       1.400   1.400

     PseudoPot. # 2 for O  read from file:
     /bsuhome/zayahcortright/q-e/pseudo/O.pbe-n-kjpaw_psl.0.1.UPF
     MD5 check sum: 0234752ac141de4415c5fc33072bef88
     Pseudo is Projector augmented-wave + core cor, Zval =  6.0
     Generated using "atomic" code by A. Dal Corso  v.5.0.99 svn rev. 10869
     Shape of augmentation charge: BESSEL
     Using radial grid of 1095 points,  4 beta functions with: 
                l(1) =   0
                l(2) =   0
                l(3) =   1
                l(4) =   1
     Q(r) pseudized with 0 coefficients 


     PseudoPot. # 3 for Co read from file:
     /bsuhome/zayahcortright/q-e/pseudo/Co_pbe_v1.2.uspp.F.UPF
     MD5 check sum: 5f91765df6ddd3222702df6e7b74a16d
     Pseudo is Ultrasoft + core correction, Zval = 17.0
     Generated by new atomic code, or converted to UPF format
     Using radial grid of  863 points,  6 beta functions with: 
                l(1) =   0
                l(2) =   0
                l(3) =   1
                l(4) =   1
                l(5) =   2
                l(6) =   2
     Q(r) pseudized with  8 coefficients,  rinner =    1.200   1.200   1.200
                                                       1.200   1.200

     atomic species   valence    mass     pseudopotential
        Sr            10.00    87.62000     Sr( 1.00)
        O              6.00    15.99900     O ( 1.00)
        Co            17.00    58.93319     Co( 1.00)

     No symmetry found


                                    s                        frac. trans.

      isym =  1     identity                                     

 cryst.   s( 1) = (     1          0          0      )
                  (     0          1          0      )
                  (     0          0          1      )

 cart.    s( 1) = (  1.0000000  0.0000000  0.0000000 )
                  (  0.0000000  1.0000000  0.0000000 )
                  (  0.0000000  0.0000000  1.0000000 )


   Cartesian axes

     site n.     atom                  positions (alat units)
         1           Sr  tau(   1) = (   0.2508693   0.7491307   1.7574407  )
         2           O   tau(   2) = (   0.4985141   0.5014859   1.7715967  )
         3           Sr  tau(   3) = (   0.7482398   0.7454518   1.7648669  )
         4           Sr  tau(   4) = (   0.7441748   0.2558252   1.7667843  )
         5           Sr  tau(   5) = (   0.2508693   0.7491307   1.2696799  )
         6           Sr  tau(   6) = (   0.2508693   0.7491307   0.7632319  )
         7           Co  tau(   7) = (   0.4998914   0.5001086   1.0164559  )
         8           Co  tau(   8) = (   0.4936915   0.5063085   1.5135603  )
         9           O   tau(   9) = (   0.4988895   0.7610401   1.0164559  )
        10           O   tau(  10) = (   0.2389599   0.5011105   1.0164559  )
        11           O   tau(  11) = (   0.0070918   0.7374880   1.0164559  )
        12           O   tau(  12) = (   0.0088340   0.7405089   1.5135603  )
        13           O   tau(  13) = (   0.5066944   0.7415376   1.5135603  )
        14           O   tau(  14) = (   0.2584624   0.4933056   1.5135603  )
        15           O   tau(  15) = (   0.4985141   0.5014859   0.7773880  )
        16           O   tau(  16) = (   0.4985141   0.5014859   1.2555238  )
        17           Sr  tau(  17) = (   0.7482398   0.7454518   0.7706582  )
        18           Sr  tau(  18) = (   0.7482398   0.7454518   1.2622536  )
        19           Sr  tau(  19) = (   0.7441748   0.2558252   0.7725755  )
        20           Sr  tau(  20) = (   0.7441748   0.2558252   1.2603363  )
        21           O   tau(  21) = (   0.7322655   0.0078049   1.5135603  )
        22           O   tau(  22) = (   0.7558175   0.4996027   1.5135603  )
        23           O   tau(  23) = (   0.5003973   0.2441825   1.5135603  )
        24           O   tau(  24) = (   0.7527966   0.4978604   1.0164559  )
        25           O   tau(  25) = (   0.5021396   0.2472034   1.0164559  )
        26           O   tau(  26) = (   0.7517679   0.0000000   1.0164559  )
        27           O   tau(  27) = (   0.0114961   0.4948124   1.7455321  )
        28           O   tau(  28) = (   0.0048226   0.0077944   1.7715967  )
        29           Sr  tau(  29) = (   0.2545482   0.2517602   1.7648669  )
        30           O   tau(  30) = (   0.5048017   0.0015068   1.7786929  )
        31           Co  tau(  31) = (   0.0056869   0.5006215   1.0164559  )
        32           Co  tau(  32) = (   0.0065315   0.4997770   1.5135603  )
        33           Co  tau(  33) = (   0.0061999   0.0064171   1.0164559  )
        34           Co  tau(  34) = (   0.0000000   0.0126169   1.5135603  )
        35           O   tau(  35) = (   0.0114961   0.4948124   1.2815885  )
        36           O   tau(  36) = (   0.0114961   0.4948124   0.7513233  )
        37           O   tau(  37) = (   0.0051979   0.2673486   1.0164559  )
        38           O   tau(  38) = (   0.0130029   0.2478461   1.5135603  )
        39           O   tau(  39) = (   0.0048226   0.0077944   0.7773880  )
        40           O   tau(  40) = (   0.0048226   0.0077944   1.2555238  )
        41           Sr  tau(  41) = (   0.2545482   0.2517602   0.7706582  )
        42           Sr  tau(  42) = (   0.2545482   0.2517602   1.2622536  )
        43           Co  tau(  43) = (   0.4989925   0.0073160   1.5135603  )
        44           Co  tau(  44) = (   0.4998370   0.0064714   1.0164559  )
        45           O   tau(  45) = (   0.5048017   0.0015068   0.7844841  )
        46           O   tau(  46) = (   0.5048017   0.0015068   1.2484277  )
        47           O   tau(  47) = (   0.2621260   0.0059111   1.5135603  )
        48           O   tau(  48) = (   0.2591051   0.0041689   1.0164559  )
        49           O   tau(  49) = (   0.5686583   0.2843291   2.1602013  )

   Crystallographic axes

     site n.     atom                  positions (cryst. coord.)
         1           Sr  tau(   1) = (  0.2508693  0.7491307  0.6943562  )
         2           O   tau(   2) = (  0.4985141  0.5014859  0.6999492  )
         3           Sr  tau(   3) = (  0.7482398  0.7454518  0.6972903  )
         4           Sr  tau(   4) = (  0.7441748  0.2558252  0.6980478  )
         5           Sr  tau(   5) = (  0.2508693  0.7491307  0.5016443  )
         6           Sr  tau(   6) = (  0.2508693  0.7491307  0.3015492  )
         7           Co  tau(   7) = (  0.4998914  0.5001086  0.4015968  )
         8           Co  tau(   8) = (  0.4936915  0.5063085  0.5980003  )
         9           O   tau(   9) = (  0.4988895  0.7610401  0.4015968  )
        10           O   tau(  10) = (  0.2389599  0.5011105  0.4015968  )
        11           O   tau(  11) = (  0.0070918  0.7374880  0.4015968  )
        12           O   tau(  12) = (  0.0088340  0.7405089  0.5980003  )
        13           O   tau(  13) = (  0.5066944  0.7415376  0.5980003  )
        14           O   tau(  14) = (  0.2584624  0.4933056  0.5980003  )
        15           O   tau(  15) = (  0.4985141  0.5014859  0.3071422  )
        16           O   tau(  16) = (  0.4985141  0.5014859  0.4960513  )
        17           Sr  tau(  17) = (  0.7482398  0.7454518  0.3044833  )
        18           Sr  tau(  18) = (  0.7482398  0.7454518  0.4987103  )
        19           Sr  tau(  19) = (  0.7441748  0.2558252  0.3052408  )
        20           Sr  tau(  20) = (  0.7441748  0.2558252  0.4979527  )
        21           O   tau(  21) = (  0.7322655  0.0078049  0.5980003  )
        22           O   tau(  22) = (  0.7558175  0.4996027  0.5980003  )
        23           O   tau(  23) = (  0.5003973  0.2441825  0.5980003  )
        24           O   tau(  24) = (  0.7527966  0.4978604  0.4015968  )
        25           O   tau(  25) = (  0.5021396  0.2472034  0.4015968  )
        26           O   tau(  26) = (  0.7517679  0.0000000  0.4015968  )
        27           O   tau(  27) = (  0.0114961  0.4948124  0.6896512  )
        28           O   tau(  28) = (  0.0048226  0.0077944  0.6999492  )
        29           Sr  tau(  29) = (  0.2545482  0.2517602  0.6972903  )
        30           O   tau(  30) = (  0.5048017  0.0015068  0.7027529  )
        31           Co  tau(  31) = (  0.0056869  0.5006215  0.4015968  )
        32           Co  tau(  32) = (  0.0065315  0.4997770  0.5980003  )
        33           Co  tau(  33) = (  0.0061999  0.0064171  0.4015968  )
        34           Co  tau(  34) = (  0.0000000  0.0126169  0.5980003  )
        35           O   tau(  35) = (  0.0114961  0.4948124  0.5063494  )
        36           O   tau(  36) = (  0.0114961  0.4948124  0.2968442  )
        37           O   tau(  37) = (  0.0051979  0.2673486  0.4015968  )
        38           O   tau(  38) = (  0.0130029  0.2478461  0.5980003  )
        39           O   tau(  39) = (  0.0048226  0.0077944  0.3071422  )
        40           O   tau(  40) = (  0.0048226  0.0077944  0.4960513  )
        41           Sr  tau(  41) = (  0.2545482  0.2517602  0.3044833  )
        42           Sr  tau(  42) = (  0.2545482  0.2517602  0.4987103  )
        43           Co  tau(  43) = (  0.4989925  0.0073160  0.5980003  )
        44           Co  tau(  44) = (  0.4998370  0.0064714  0.4015968  )
        45           O   tau(  45) = (  0.5048017  0.0015068  0.3099459  )
        46           O   tau(  46) = (  0.5048017  0.0015068  0.4932477  )
        47           O   tau(  47) = (  0.2621260  0.0059111  0.5980003  )
        48           O   tau(  48) = (  0.2591051  0.0041689  0.4015968  )
        49           O   tau(  49) = (  0.5686583  0.2843291  0.8534850  )

     number of k points=    10  Gaussian smearing, width (Ry)=  0.0700
                       cart. coord. in units 2pi/alat
        k(    1) = (   0.0000000   0.0000000   0.0000000), wk =   0.1250000
        k(    2) = (   0.0000000   0.2500000   0.0000000), wk =   0.2500000
        k(    3) = (   0.0000000  -0.5000000   0.0000000), wk =   0.1250000
        k(    4) = (   0.2500000   0.2500000   0.0000000), wk =   0.2500000
        k(    5) = (   0.2500000  -0.5000000   0.0000000), wk =   0.2500000
        k(    6) = (  -0.5000000  -0.5000000   0.0000000), wk =   0.1250000
        k(    7) = (   0.2500000   0.0000000   0.0000000), wk =   0.2500000
        k(    8) = (  -0.5000000   0.0000000   0.0000000), wk =   0.1250000
        k(    9) = (  -0.2500000   0.2500000   0.0000000), wk =   0.2500000
        k(   10) = (  -0.5000000   0.2500000   0.0000000), wk =   0.2500000

                       cryst. coord.
        k(    1) = (   0.0000000   0.0000000   0.0000000), wk =   0.1250000
        k(    2) = (   0.0000000   0.2500000   0.0000000), wk =   0.2500000
        k(    3) = (   0.0000000  -0.5000000   0.0000000), wk =   0.1250000
        k(    4) = (   0.2500000   0.2500000   0.0000000), wk =   0.2500000
        k(    5) = (   0.2500000  -0.5000000   0.0000000), wk =   0.2500000
        k(    6) = (  -0.5000000  -0.5000000   0.0000000), wk =   0.1250000
        k(    7) = (   0.2500000   0.0000000   0.0000000), wk =   0.2500000
        k(    8) = (  -0.5000000   0.0000000   0.0000000), wk =   0.1250000
        k(    9) = (  -0.2500000   0.2500000   0.0000000), wk =   0.2500000
        k(   10) = (  -0.5000000   0.2500000   0.0000000), wk =   0.2500000

     Dense  grid:  1474595 G-vectors     FFT dimensions: ( 108, 108, 270)

     Smooth grid:   521381 G-vectors     FFT dimensions: (  75,  75, 192)

     Dynamical RAM for                 wfc:      10.69 MB

     Dynamical RAM for     wfc (w. buffer):      64.13 MB

     Dynamical RAM for           str. fact:       2.81 MB

     Dynamical RAM for           local pot:       0.00 MB

     Dynamical RAM for          nlocal pot:      24.53 MB

     Dynamical RAM for                qrad:       5.27 MB

     Dynamical RAM for          rho,v,vnew:       6.02 MB

     Dynamical RAM for               rhoin:       2.01 MB

     Dynamical RAM for            rho*nmix:      15.00 MB

     Dynamical RAM for           G-vectors:       3.68 MB

     Dynamical RAM for          h,s,v(r/c):       1.35 MB

     Dynamical RAM for          <psi|beta>:       2.33 MB

     Dynamical RAM for                 psi:      21.38 MB

     Dynamical RAM for                hpsi:      21.38 MB

     Dynamical RAM for                spsi:      21.38 MB

     Dynamical RAM for      wfcinit/wfcrot:      34.39 MB

     Dynamical RAM for           addusdens:     101.26 MB

     Estimated static dynamical RAM per process >     117.53 MB

     Estimated max dynamical RAM per process >     233.79 MB

     Estimated total dynamical RAM >      10.61 GB

     Check: negative core charge=   -0.000004

     Initial potential from superposition of free atoms

     starting charge     421.5961, renormalised to     430.0000

     negative rho (up, down):  7.826E-01 0.000E+00
     Starting wfcs are  376 randomized atomic wfcs
     Checking if some PAW data can be deallocated... 
       PAW data deallocated on   19 nodes for type:  2

     total cpu time spent up to now is        9.1 secs

     Self-consistent Calculation

     iteration #  1     ecut=    60.00 Ry     beta= 0.15
     Davidson diagonalization with overlap

---- Real-time Memory Report at c_bands before calling an iterative solver
             0 MiB given to the printing process from OS
             0 MiB allocation reported by mallinfo(arena+hblkhd)
         51480 MiB available memory on the node where the printing process lives
------------------
     ethr =  1.00E-02,  avg # of iterations =  2.0

     negative rho (up, down):  7.719E-01 0.000E+00

     total cpu time spent up to now is       24.1 secs

     total energy              =   -4445.27724797 Ry
     estimated scf accuracy    <      53.90188016 Ry

     iteration #  2     ecut=    60.00 Ry     beta= 0.15
     Davidson diagonalization with overlap

---- Real-time Memory Report at c_bands before calling an iterative solver
             0 MiB given to the printing process from OS
             0 MiB allocation reported by mallinfo(arena+hblkhd)
         51852 MiB available memory on the node where the printing process lives
------------------
     ethr =  1.00E-02,  avg # of iterations =  1.0

     negative rho (up, down):  7.590E-01 0.000E+00

     total cpu time spent up to now is       36.6 secs

     total energy              =   -4441.87576412 Ry
     estimated scf accuracy    <      28.64258004 Ry

     iteration #  3     ecut=    60.00 Ry     beta= 0.15
     Davidson diagonalization with overlap

---- Real-time Memory Report at c_bands before calling an iterative solver
             0 MiB given to the printing process from OS
             0 MiB allocation reported by mallinfo(arena+hblkhd)
         51091 MiB available memory on the node where the printing process lives
------------------
     ethr =  6.66E-03,  avg # of iterations =  1.0

     negative rho (up, down):  7.532E-01 0.000E+00

     total cpu time spent up to now is       49.9 secs

     total energy              =   -4442.62925113 Ry
     estimated scf accuracy    <      29.57037331 Ry

     iteration #  4     ecut=    60.00 Ry     beta= 0.15
     Davidson diagonalization with overlap

---- Real-time Memory Report at c_bands before calling an iterative solver
             0 MiB given to the printing process from OS
             0 MiB allocation reported by mallinfo(arena+hblkhd)
         51041 MiB available memory on the node where the printing process lives
------------------
     ethr =  6.66E-03,  avg # of iterations =  1.0

     negative rho (up, down):  7.541E-01 0.000E+00

     total cpu time spent up to now is       63.1 secs

     total energy              =   -4442.52195808 Ry
     estimated scf accuracy    <      27.39287131 Ry

     iteration #  5     ecut=    60.00 Ry     beta= 0.15
     Davidson diagonalization with overlap

---- Real-time Memory Report at c_bands before calling an iterative solver
             0 MiB given to the printing process from OS
             0 MiB allocation reported by mallinfo(arena+hblkhd)
         51017 MiB available memory on the node where the printing process lives
------------------
     ethr =  6.37E-03,  avg # of iterations =  1.0

     negative rho (up, down):  7.376E-01 0.000E+00

     total cpu time spent up to now is       76.2 secs

     total energy              =   -4441.45049169 Ry
     estimated scf accuracy    <      19.84046059 Ry

     iteration #  6     ecut=    60.00 Ry     beta= 0.15
     Davidson diagonalization with overlap

---- Real-time Memory Report at c_bands before calling an iterative solver
             0 MiB given to the printing process from OS
             0 MiB allocation reported by mallinfo(arena+hblkhd)
         51001 MiB available memory on the node where the printing process lives
------------------
     ethr =  4.61E-03,  avg # of iterations =  1.1

     negative rho (up, down):  7.404E-01 0.000E+00

     total cpu time spent up to now is       89.2 secs

     total energy              =   -4443.82258868 Ry
     estimated scf accuracy    <      63.97505635 Ry

     iteration #  7     ecut=    60.00 Ry     beta= 0.15
     Davidson diagonalization with overlap

---- Real-time Memory Report at c_bands before calling an iterative solver
             0 MiB given to the printing process from OS
             0 MiB allocation reported by mallinfo(arena+hblkhd)
         50983 MiB available memory on the node where the printing process lives
------------------
     ethr =  4.61E-03,  avg # of iterations =  1.0

     negative rho (up, down):  7.469E-01 0.000E+00

     total cpu time spent up to now is      101.8 secs

     total energy              =   -4439.95036883 Ry
     estimated scf accuracy    <      59.24277451 Ry

     iteration #  8     ecut=    60.00 Ry     beta= 0.15
     Davidson diagonalization with overlap

---- Real-time Memory Report at c_bands before calling an iterative solver
             0 MiB given to the printing process from OS
             0 MiB allocation reported by mallinfo(arena+hblkhd)
         50968 MiB available memory on the node where the printing process lives
------------------
     ethr =  4.61E-03,  avg # of iterations =  1.0

     negative rho (up, down):  7.477E-01 0.000E+00

     total cpu time spent up to now is      114.5 secs

     total energy              =   -4441.55058887 Ry
     estimated scf accuracy    <       6.71306708 Ry

     iteration #  9     ecut=    60.00 Ry     beta= 0.15
     Davidson diagonalization with overlap

---- Real-time Memory Report at c_bands before calling an iterative solver
             0 MiB given to the printing process from OS
             0 MiB allocation reported by mallinfo(arena+hblkhd)
         50954 MiB available memory on the node where the printing process lives
------------------
     ethr =  1.56E-03,  avg # of iterations =  1.5

     negative rho (up, down):  7.605E-01 0.000E+00

     total cpu time spent up to now is      127.9 secs

     total energy              =   -4440.53422949 Ry
     estimated scf accuracy    <       5.91453302 Ry

     iteration # 10     ecut=    60.00 Ry     beta= 0.15
     Davidson diagonalization with overlap

---- Real-time Memory Report at c_bands before calling an iterative solver
             0 MiB given to the printing process from OS
             0 MiB allocation reported by mallinfo(arena+hblkhd)
         50921 MiB available memory on the node where the printing process lives
------------------
     ethr =  1.38E-03,  avg # of iterations =  2.6

     negative rho (up, down):  7.698E-01 0.000E+00

     total cpu time spent up to now is      142.2 secs

     total energy              =   -4440.62237371 Ry
     estimated scf accuracy    <      11.00569032 Ry

     iteration # 11     ecut=    60.00 Ry     beta= 0.15
     Davidson diagonalization with overlap

---- Real-time Memory Report at c_bands before calling an iterative solver
             0 MiB given to the printing process from OS
             0 MiB allocation reported by mallinfo(arena+hblkhd)
         50909 MiB available memory on the node where the printing process lives
------------------
     ethr =  1.38E-03,  avg # of iterations =  6.5

     negative rho (up, down):  7.793E-01 0.000E+00

     total cpu time spent up to now is      158.3 secs

     total energy              =   -4440.02165527 Ry
     estimated scf accuracy    <      17.09618720 Ry

     iteration # 12     ecut=    60.00 Ry     beta= 0.15
     Davidson diagonalization with overlap

---- Real-time Memory Report at c_bands before calling an iterative solver
             0 MiB given to the printing process from OS
             0 MiB allocation reported by mallinfo(arena+hblkhd)
         50716 MiB available memory on the node where the printing process lives
------------------
     ethr =  1.38E-03,  avg # of iterations =  1.8

     negative rho (up, down):  7.809E-01 0.000E+00

     total cpu time spent up to now is      172.2 secs

     total energy              =   -4440.55012933 Ry
     estimated scf accuracy    <       2.40574018 Ry

     iteration # 13     ecut=    60.00 Ry     beta= 0.15
     Davidson diagonalization with overlap

---- Real-time Memory Report at c_bands before calling an iterative solver
             0 MiB given to the printing process from OS
             0 MiB allocation reported by mallinfo(arena+hblkhd)
         50727 MiB available memory on the node where the printing process lives
------------------
     ethr =  5.59E-04,  avg # of iterations = 10.4

     negative rho (up, down):  7.879E-01 0.000E+00

     total cpu time spent up to now is      189.9 secs

     total energy              =   -4440.48392776 Ry
     estimated scf accuracy    <       2.05793439 Ry

     iteration # 14     ecut=    60.00 Ry     beta= 0.15
     Davidson diagonalization with overlap

---- Real-time Memory Report at c_bands before calling an iterative solver
             0 MiB given to the printing process from OS
             0 MiB allocation reported by mallinfo(arena+hblkhd)
         50625 MiB available memory on the node where the printing process lives
------------------
     ethr =  4.79E-04,  avg # of iterations =  1.3

     negative rho (up, down):  8.041E-01 0.000E+00

     total cpu time spent up to now is      203.0 secs

     total energy              =   -4440.42794607 Ry
     estimated scf accuracy    <       0.87535598 Ry

     iteration # 15     ecut=    60.00 Ry     beta= 0.15
     Davidson diagonalization with overlap

---- Real-time Memory Report at c_bands before calling an iterative solver
             0 MiB given to the printing process from OS
             0 MiB allocation reported by mallinfo(arena+hblkhd)
         50602 MiB available memory on the node where the printing process lives
------------------
     ethr =  2.04E-04,  avg # of iterations =  6.9

     negative rho (up, down):  8.155E-01 0.000E+00

     total cpu time spent up to now is      219.6 secs

     total energy              =   -4440.39981367 Ry
     estimated scf accuracy    <       0.74652856 Ry

     iteration # 16     ecut=    60.00 Ry     beta= 0.15
     Davidson diagonalization with overlap

---- Real-time Memory Report at c_bands before calling an iterative solver
             0 MiB given to the printing process from OS
             0 MiB allocation reported by mallinfo(arena+hblkhd)
         50550 MiB available memory on the node where the printing process lives
------------------
     ethr =  1.74E-04,  avg # of iterations =  7.2

     negative rho (up, down):  8.236E-01 0.000E+00

     total cpu time spent up to now is      235.7 secs

     total energy              =   -4440.38132462 Ry
     estimated scf accuracy    <       0.25647730 Ry

     iteration # 17     ecut=    60.00 Ry     beta= 0.15
     Davidson diagonalization with overlap

---- Real-time Memory Report at c_bands before calling an iterative solver
             0 MiB given to the printing process from OS
             0 MiB allocation reported by mallinfo(arena+hblkhd)
         50543 MiB available memory on the node where the printing process lives
------------------
     c_bands:  2 eigenvalues not converged
     ethr =  5.96E-05,  avg # of iterations = 14.2

     negative rho (up, down):  8.246E-01 0.000E+00

     total cpu time spent up to now is      255.6 secs

     total energy              =   -4440.35771176 Ry
     estimated scf accuracy    <       0.17652149 Ry

     iteration # 18     ecut=    60.00 Ry     beta= 0.15
     Davidson diagonalization with overlap

---- Real-time Memory Report at c_bands before calling an iterative solver
             0 MiB given to the printing process from OS
             0 MiB allocation reported by mallinfo(arena+hblkhd)
         50583 MiB available memory on the node where the printing process lives
------------------
     ethr =  4.11E-05,  avg # of iterations =  6.9

     negative rho (up, down):  8.187E-01 0.000E+00

     total cpu time spent up to now is      272.1 secs

     total energy              =   -4440.34699223 Ry
     estimated scf accuracy    <       0.86449657 Ry

     iteration # 19     ecut=    60.00 Ry     beta= 0.15
     Davidson diagonalization with overlap

---- Real-time Memory Report at c_bands before calling an iterative solver
             0 MiB given to the printing process from OS
             0 MiB allocation reported by mallinfo(arena+hblkhd)
         50515 MiB available memory on the node where the printing process lives
------------------
     ethr =  4.11E-05,  avg # of iterations =  1.4

     negative rho (up, down):  8.217E-01 0.000E+00

     total cpu time spent up to now is      285.6 secs

     total energy              =   -4440.33943483 Ry
     estimated scf accuracy    <       0.12795271 Ry

     iteration # 20     ecut=    60.00 Ry     beta= 0.15
     Davidson diagonalization with overlap

---- Real-time Memory Report at c_bands before calling an iterative solver
             0 MiB given to the printing process from OS
             0 MiB allocation reported by mallinfo(arena+hblkhd)
         50525 MiB available memory on the node where the printing process lives
------------------
     c_bands:  1 eigenvalues not converged
     ethr =  2.98E-05,  avg # of iterations =  9.3

     negative rho (up, down):  8.110E-01 0.000E+00

     total cpu time spent up to now is      303.1 secs

     total energy              =   -4440.31938892 Ry
     estimated scf accuracy    <       1.26122854 Ry

     iteration # 21     ecut=    60.00 Ry     beta= 0.15
     Davidson diagonalization with overlap

---- Real-time Memory Report at c_bands before calling an iterative solver
             0 MiB given to the printing process from OS
             0 MiB allocation reported by mallinfo(arena+hblkhd)
         50552 MiB available memory on the node where the printing process lives
------------------
     ethr =  2.98E-05,  avg # of iterations = 10.2

     negative rho (up, down):  8.090E-01 0.000E+00

     total cpu time spent up to now is      320.7 secs

     total energy              =   -4440.30882723 Ry
     estimated scf accuracy    <       0.17414769 Ry

     iteration # 22     ecut=    60.00 Ry     beta= 0.15
     Davidson diagonalization with overlap

---- Real-time Memory Report at c_bands before calling an iterative solver
             0 MiB given to the printing process from OS
             0 MiB allocation reported by mallinfo(arena+hblkhd)
         50474 MiB available memory on the node where the printing process lives
------------------
     ethr =  2.98E-05,  avg # of iterations =  6.4

     negative rho (up, down):  8.192E-01 0.000E+00

     total cpu time spent up to now is      336.7 secs

     total energy              =   -4440.31303907 Ry
     estimated scf accuracy    <       0.30509636 Ry

     iteration # 23     ecut=    60.00 Ry     beta= 0.15
     Davidson diagonalization with overlap

---- Real-time Memory Report at c_bands before calling an iterative solver
             0 MiB given to the printing process from OS
             0 MiB allocation reported by mallinfo(arena+hblkhd)
         50490 MiB available memory on the node where the printing process lives
------------------
     ethr =  2.98E-05,  avg # of iterations =  2.7

     negative rho (up, down):  8.202E-01 0.000E+00

     total cpu time spent up to now is      351.1 secs

     total energy              =   -4440.30985623 Ry
     estimated scf accuracy    <       0.08877306 Ry

     iteration # 24     ecut=    60.00 Ry     beta= 0.15
     Davidson diagonalization with overlap

---- Real-time Memory Report at c_bands before calling an iterative solver
             0 MiB given to the printing process from OS
             0 MiB allocation reported by mallinfo(arena+hblkhd)
         50521 MiB available memory on the node where the printing process lives
------------------
     ethr =  2.06E-05,  avg # of iterations =  6.5

     negative rho (up, down):  8.166E-01 0.000E+00

     total cpu time spent up to now is      367.2 secs

     total energy              =   -4440.30950736 Ry
     estimated scf accuracy    <       0.03885568 Ry

     iteration # 25     ecut=    60.00 Ry     beta= 0.15
     Davidson diagonalization with overlap

---- Real-time Memory Report at c_bands before calling an iterative solver
             0 MiB given to the printing process from OS
             0 MiB allocation reported by mallinfo(arena+hblkhd)
         50539 MiB available memory on the node where the printing process lives
------------------
     ethr =  9.04E-06,  avg # of iterations =  4.2

     negative rho (up, down):  7.998E-01 0.000E+00

     total cpu time spent up to now is      382.3 secs

     total energy              =   -4440.30834869 Ry
     estimated scf accuracy    <       0.01275927 Ry

     iteration # 26     ecut=    60.00 Ry     beta= 0.15
     Davidson diagonalization with overlap

---- Real-time Memory Report at c_bands before calling an iterative solver
             0 MiB given to the printing process from OS
             0 MiB allocation reported by mallinfo(arena+hblkhd)
         50531 MiB available memory on the node where the printing process lives
------------------
     ethr =  2.97E-06,  avg # of iterations =  9.7

     negative rho (up, down):  7.920E-01 0.000E+00

     total cpu time spent up to now is      400.2 secs

     total energy              =   -4440.30562607 Ry
     estimated scf accuracy    <       0.00978506 Ry

     iteration # 27     ecut=    60.00 Ry     beta= 0.15
     Davidson diagonalization with overlap

---- Real-time Memory Report at c_bands before calling an iterative solver
             0 MiB given to the printing process from OS
             0 MiB allocation reported by mallinfo(arena+hblkhd)
         50566 MiB available memory on the node where the printing process lives
------------------
     c_bands:  1 eigenvalues not converged
     ethr =  2.28E-06,  avg # of iterations =  9.4

     negative rho (up, down):  7.972E-01 0.000E+00

     total cpu time spent up to now is      418.8 secs

     total energy              =   -4440.30572929 Ry
     estimated scf accuracy    <       0.00590017 Ry

     iteration # 28     ecut=    60.00 Ry     beta= 0.15
     Davidson diagonalization with overlap

---- Real-time Memory Report at c_bands before calling an iterative solver
             0 MiB given to the printing process from OS
             0 MiB allocation reported by mallinfo(arena+hblkhd)
         50403 MiB available memory on the node where the printing process lives
------------------
     c_bands:  1 eigenvalues not converged
     ethr =  1.37E-06,  avg # of iterations =  9.7

     negative rho (up, down):  8.001E-01 0.000E+00

     total cpu time spent up to now is      437.1 secs

     total energy              =   -4440.30593536 Ry
     estimated scf accuracy    <       0.00106677 Ry

     iteration # 29     ecut=    60.00 Ry     beta= 0.15
     Davidson diagonalization with overlap

---- Real-time Memory Report at c_bands before calling an iterative solver
             0 MiB given to the printing process from OS
             0 MiB allocation reported by mallinfo(arena+hblkhd)
         50403 MiB available memory on the node where the printing process lives
------------------
     c_bands:  1 eigenvalues not converged
     c_bands:  2 eigenvalues not converged
     ethr =  2.48E-07,  avg # of iterations =  7.7

     negative rho (up, down):  7.997E-01 0.000E+00

     total cpu time spent up to now is      453.9 secs

     total energy              =   -4440.30594974 Ry
     estimated scf accuracy    <       0.00095046 Ry

     iteration # 30     ecut=    60.00 Ry     beta= 0.15
     Davidson diagonalization with overlap

---- Real-time Memory Report at c_bands before calling an iterative solver
             0 MiB given to the printing process from OS
             0 MiB allocation reported by mallinfo(arena+hblkhd)
         50374 MiB available memory on the node where the printing process lives
------------------
     ethr =  2.21E-07,  avg # of iterations =  3.0

     negative rho (up, down):  8.006E-01 0.000E+00

     total cpu time spent up to now is      468.5 secs

     total energy              =   -4440.30600221 Ry
     estimated scf accuracy    <       0.00045181 Ry

     iteration # 31     ecut=    60.00 Ry     beta= 0.15
     Davidson diagonalization with overlap

---- Real-time Memory Report at c_bands before calling an iterative solver
             0 MiB given to the printing process from OS
             0 MiB allocation reported by mallinfo(arena+hblkhd)
         50415 MiB available memory on the node where the printing process lives
------------------
     ethr =  1.05E-07,  avg # of iterations =  4.9

     negative rho (up, down):  7.960E-01 0.000E+00

     total cpu time spent up to now is      483.7 secs

     total energy              =   -4440.30591563 Ry
     estimated scf accuracy    <       0.00027195 Ry

     iteration # 32     ecut=    60.00 Ry     beta= 0.15
     Davidson diagonalization with overlap

---- Real-time Memory Report at c_bands before calling an iterative solver
             0 MiB given to the printing process from OS
             0 MiB allocation reported by mallinfo(arena+hblkhd)
         50550 MiB available memory on the node where the printing process lives
------------------
     ethr =  6.32E-08,  avg # of iterations =  5.6

     negative rho (up, down):  7.927E-01 0.000E+00

     total cpu time spent up to now is      499.4 secs

     total energy              =   -4440.30590055 Ry
     estimated scf accuracy    <       0.00010631 Ry

     iteration # 33     ecut=    60.00 Ry     beta= 0.15
     Davidson diagonalization with overlap

---- Real-time Memory Report at c_bands before calling an iterative solver
             0 MiB given to the printing process from OS
             0 MiB allocation reported by mallinfo(arena+hblkhd)
         50523 MiB available memory on the node where the printing process lives
------------------
     ethr =  2.47E-08,  avg # of iterations =  4.8

     negative rho (up, down):  7.925E-01 0.000E+00

     total cpu time spent up to now is      515.0 secs

     total energy              =   -4440.30590863 Ry
     estimated scf accuracy    <       0.00002372 Ry

     iteration # 34     ecut=    60.00 Ry     beta= 0.15
     Davidson diagonalization with overlap

---- Real-time Memory Report at c_bands before calling an iterative solver
             0 MiB given to the printing process from OS
             0 MiB allocation reported by mallinfo(arena+hblkhd)
         50506 MiB available memory on the node where the printing process lives
------------------
     ethr =  5.52E-09,  avg # of iterations =  2.0

     negative rho (up, down):  7.924E-01 0.000E+00

     total cpu time spent up to now is      529.4 secs

     total energy              =   -4440.30591148 Ry
     estimated scf accuracy    <       0.00001526 Ry

     iteration # 35     ecut=    60.00 Ry     beta= 0.15
     Davidson diagonalization with overlap

---- Real-time Memory Report at c_bands before calling an iterative solver
             0 MiB given to the printing process from OS
             0 MiB allocation reported by mallinfo(arena+hblkhd)
         50516 MiB available memory on the node where the printing process lives
------------------
     ethr =  3.55E-09,  avg # of iterations =  2.0

     negative rho (up, down):  7.924E-01 0.000E+00

     total cpu time spent up to now is      543.4 secs

     total energy              =   -4440.30591455 Ry
     estimated scf accuracy    <       0.00001109 Ry

     iteration # 36     ecut=    60.00 Ry     beta= 0.15
     Davidson diagonalization with overlap

---- Real-time Memory Report at c_bands before calling an iterative solver
             0 MiB given to the printing process from OS
             0 MiB allocation reported by mallinfo(arena+hblkhd)
         50526 MiB available memory on the node where the printing process lives
------------------
     ethr =  2.58E-09,  avg # of iterations =  2.0

     negative rho (up, down):  7.925E-01 0.000E+00

     total cpu time spent up to now is      558.1 secs

     total energy              =   -4440.30591616 Ry
     estimated scf accuracy    <       0.00000636 Ry

     iteration # 37     ecut=    60.00 Ry     beta= 0.15
     Davidson diagonalization with overlap

---- Real-time Memory Report at c_bands before calling an iterative solver
             0 MiB given to the printing process from OS
             0 MiB allocation reported by mallinfo(arena+hblkhd)
         50521 MiB available memory on the node where the printing process lives
------------------
     ethr =  1.48E-09,  avg # of iterations =  1.2

     negative rho (up, down):  7.926E-01 0.000E+00

     total cpu time spent up to now is      571.2 secs

     total energy              =   -4440.30591679 Ry
     estimated scf accuracy    <       0.00000567 Ry

     iteration # 38     ecut=    60.00 Ry     beta= 0.15
     Davidson diagonalization with overlap

---- Real-time Memory Report at c_bands before calling an iterative solver
             0 MiB given to the printing process from OS
             0 MiB allocation reported by mallinfo(arena+hblkhd)
         50524 MiB available memory on the node where the printing process lives
------------------
     ethr =  1.32E-09,  avg # of iterations =  2.0

     negative rho (up, down):  7.926E-01 0.000E+00

     total cpu time spent up to now is      585.4 secs

     total energy              =   -4440.30591660 Ry
     estimated scf accuracy    <       0.00000469 Ry

     iteration # 39     ecut=    60.00 Ry     beta= 0.15
     Davidson diagonalization with overlap

---- Real-time Memory Report at c_bands before calling an iterative solver
             0 MiB given to the printing process from OS
             0 MiB allocation reported by mallinfo(arena+hblkhd)
         50525 MiB available memory on the node where the printing process lives
------------------
     ethr =  1.09E-09,  avg # of iterations =  1.0

     negative rho (up, down):  7.926E-01 0.000E+00

     total cpu time spent up to now is      597.9 secs

     total energy              =   -4440.30591731 Ry
     estimated scf accuracy    <       0.00000317 Ry

     iteration # 40     ecut=    60.00 Ry     beta= 0.15
     Davidson diagonalization with overlap

---- Real-time Memory Report at c_bands before calling an iterative solver
             0 MiB given to the printing process from OS
             0 MiB allocation reported by mallinfo(arena+hblkhd)
         50532 MiB available memory on the node where the printing process lives
------------------
     ethr =  7.38E-10,  avg # of iterations =  2.0

     negative rho (up, down):  7.926E-01 0.000E+00

     total cpu time spent up to now is      611.9 secs

     total energy              =   -4440.30591716 Ry
     estimated scf accuracy    <       0.00000296 Ry

     iteration # 41     ecut=    60.00 Ry     beta= 0.15
     Davidson diagonalization with overlap

---- Real-time Memory Report at c_bands before calling an iterative solver
             0 MiB given to the printing process from OS
             0 MiB allocation reported by mallinfo(arena+hblkhd)
         50543 MiB available memory on the node where the printing process lives
------------------
     ethr =  6.87E-10,  avg # of iterations =  2.0

     negative rho (up, down):  7.926E-01 0.000E+00

     total cpu time spent up to now is      626.0 secs

     total energy              =   -4440.30591741 Ry
     estimated scf accuracy    <       0.00000054 Ry

     iteration # 42     ecut=    60.00 Ry     beta= 0.15
     Davidson diagonalization with overlap

---- Real-time Memory Report at c_bands before calling an iterative solver
             0 MiB given to the printing process from OS
             0 MiB allocation reported by mallinfo(arena+hblkhd)
         50545 MiB available memory on the node where the printing process lives
------------------
     ethr =  1.26E-10,  avg # of iterations =  2.0

     negative rho (up, down):  7.926E-01 0.000E+00

     total cpu time spent up to now is      640.1 secs

     total energy              =   -4440.30591747 Ry
     estimated scf accuracy    <       0.00000037 Ry

     iteration # 43     ecut=    60.00 Ry     beta= 0.15
     Davidson diagonalization with overlap

---- Real-time Memory Report at c_bands before calling an iterative solver
             0 MiB given to the printing process from OS
             0 MiB allocation reported by mallinfo(arena+hblkhd)
         50556 MiB available memory on the node where the printing process lives
------------------
     ethr =  8.65E-11,  avg # of iterations =  2.2

     negative rho (up, down):  7.926E-01 0.000E+00

     total cpu time spent up to now is      654.4 secs

     total energy              =   -4440.30591747 Ry
     estimated scf accuracy    <       0.00000019 Ry

     iteration # 44     ecut=    60.00 Ry     beta= 0.15
     Davidson diagonalization with overlap

---- Real-time Memory Report at c_bands before calling an iterative solver
             0 MiB given to the printing process from OS
             0 MiB allocation reported by mallinfo(arena+hblkhd)
         50550 MiB available memory on the node where the printing process lives
------------------
     ethr =  4.42E-11,  avg # of iterations =  2.0

     negative rho (up, down):  7.926E-01 0.000E+00

     total cpu time spent up to now is      668.5 secs

     total energy              =   -4440.30591744 Ry
     estimated scf accuracy    <       0.00000008 Ry

     iteration # 45     ecut=    60.00 Ry     beta= 0.15
     Davidson diagonalization with overlap

---- Real-time Memory Report at c_bands before calling an iterative solver
             0 MiB given to the printing process from OS
             0 MiB allocation reported by mallinfo(arena+hblkhd)
         50551 MiB available memory on the node where the printing process lives
------------------
     ethr =  1.86E-11,  avg # of iterations =  2.7

     negative rho (up, down):  7.926E-01 0.000E+00

     total cpu time spent up to now is      683.1 secs

     total energy              =   -4440.30591741 Ry
     estimated scf accuracy    <       0.00000004 Ry

     iteration # 46     ecut=    60.00 Ry     beta= 0.15
     Davidson diagonalization with overlap

---- Real-time Memory Report at c_bands before calling an iterative solver
             0 MiB given to the printing process from OS
             0 MiB allocation reported by mallinfo(arena+hblkhd)
         50541 MiB available memory on the node where the printing process lives
------------------
     ethr =  8.25E-12,  avg # of iterations =  3.0

     negative rho (up, down):  7.926E-01 0.000E+00

     total cpu time spent up to now is      697.5 secs

     total energy              =   -4440.30591740 Ry
     estimated scf accuracy    <       0.00000001 Ry

     iteration # 47     ecut=    60.00 Ry     beta= 0.15
     Davidson diagonalization with overlap

---- Real-time Memory Report at c_bands before calling an iterative solver
             0 MiB given to the printing process from OS
             0 MiB allocation reported by mallinfo(arena+hblkhd)
         50533 MiB available memory on the node where the printing process lives
------------------
     ethr =  3.42E-12,  avg # of iterations =  2.0

     negative rho (up, down):  7.926E-01 0.000E+00

     total cpu time spent up to now is      711.4 secs

     End of self-consistent calculation

          k = 0.0000 0.0000 0.0000 ( 65197 PWs)   bands (ev):

   -92.8799 -92.8279 -92.7336 -92.6884 -92.6287 -92.5869 -92.5686 -92.4475
   -56.2335 -56.2148 -56.0906 -56.0802 -56.0735 -56.0671 -56.0308 -56.0026
   -55.9874 -55.9870 -55.9789 -55.9354 -55.9206 -55.8798 -55.8603 -55.8278
   -55.8234 -55.7739 -55.7736 -55.7715 -55.7631 -55.7223 -55.6987 -55.6135
   -31.4436 -31.4240 -31.2811 -31.2582 -31.1946 -31.0888 -30.8582 -30.8382
   -30.0245 -29.9821 -29.9548 -29.8465 -15.2559 -15.2093 -15.1298 -14.9997
   -14.8018 -14.6783 -14.3918 -14.3728 -14.3438 -14.2951 -14.2463 -14.2326
   -14.2268 -14.2078 -14.1921 -14.1386 -14.1060 -13.9513 -13.7693 -13.7386
   -13.7091 -13.6762 -13.6607 -13.5964 -13.5616 -13.4860 -13.4184 -13.2824
   -13.2746 -13.2681 -13.2416 -13.2315 -13.2215 -13.1688 -13.1567 -13.1472
   -13.1149 -13.0886 -13.0683 -13.0407 -13.0224 -12.9980 -12.8885 -12.8767
   -12.8157 -12.7560 -12.7298 -12.6943 -12.5093 -12.3637 -12.1498 -12.0790
   -12.0374 -11.9797 -11.9641 -11.9525 -11.9297 -11.9118 -11.8484 -11.8306
   -11.7968 -11.7669 -11.6544 -11.5758 -11.5722  -3.1170  -2.8853  -2.6556
    -2.5085  -2.4459  -2.3044  -1.9965  -1.9823  -1.9637  -1.8785  -1.8578
    -1.7895  -1.7728  -1.7314  -1.6902  -1.5064  -1.2824  -1.2511  -1.1069
    -1.0920  -1.0454  -1.0240  -0.9789  -0.9619  -0.9105  -0.8825  -0.8039
    -0.7951  -0.7228  -0.5871  -0.5736  -0.5473  -0.4669  -0.4385  -0.4342
    -0.3716  -0.3033  -0.2340  -0.2035  -0.1694  -0.0959  -0.0408   0.0063
     0.0275   0.0452   0.3014   0.3173   0.4907   0.5548   0.6263   0.6692
     0.7553   0.7666   0.7817   0.8514   0.8771   0.9108   0.9693   1.0975
     1.1598   1.1800   1.2024   1.2191   1.2784   1.3443   1.4597   1.4708
     1.5393   1.5494   1.5941   1.6047   1.6167   1.6757   1.7341   1.7483
     1.7890   1.8237   1.8553   1.9874   2.0822   2.1150   2.1299   2.2867
     2.3002   2.3350   2.3455   2.4489   2.4836   2.5085   2.5270   2.5420
     2.5626   2.6169   2.6321   2.6613   2.7346   2.7642   2.7761   2.7811
     2.8492   2.8561   2.8773   2.8843   2.8941   2.9064   2.9135   2.9274
     2.9347   2.9460   2.9534   2.9631   2.9804   3.0014   3.0062   3.0186
     3.0566   3.1606   3.2523   3.9426   4.2657   4.6140   4.8303   4.8787
     5.7512   5.8171   5.8322   5.8582   6.1378   6.1842   6.4377   6.4453
     6.9407   6.9806   7.0842   7.1632   7.4574   7.5058   7.5481   7.5683
     7.6547   7.8366   7.8937   7.9969   8.0342   8.1405   8.2443   8.6685
     8.7922   8.9341

     occupation numbers 
     1.0000   1.0000   1.0000   1.0000   1.0000   1.0000   1.0000   1.0000
     1.0000   1.0000   1.0000   1.0000   1.0000   1.0000   1.0000   1.0000
     1.0000   1.0000   1.0000   1.0000   1.0000   1.0000   1.0000   1.0000
     1.0000   1.0000   1.0000   1.0000   1.0000   1.0000   1.0000   1.0000
     1.0000   1.0000   1.0000   1.0000   1.0000   1.0000   1.0000   1.0000
     1.0000   1.0000   1.0000   1.0000   1.0000   1.0000   1.0000   1.0000
     1.0000   1.0000   1.0000   1.0000   1.0000   1.0000   1.0000   1.0000
     1.0000   1.0000   1.0000   1.0000   1.0000   1.0000   1.0000   1.0000
     1.0000   1.0000   1.0000   1.0000   1.0000   1.0000   1.0000   1.0000
     1.0000   1.0000   1.0000   1.0000   1.0000   1.0000   1.0000   1.0000
     1.0000   1.0000   1.0000   1.0000   1.0000   1.0000   1.0000   1.0000
     1.0000   1.0000   1.0000   1.0000   1.0000   1.0000   1.0000   1.0000
     1.0000   1.0000   1.0000   1.0000   1.0000   1.0000   1.0000   1.0000
     1.0000   1.0000   1.0000   1.0000   1.0000   1.0000   1.0000   1.0000
     1.0000   1.0000   1.0000   1.0000   1.0000   1.0000   1.0000   1.0000
     1.0000   1.0000   1.0000   1.0000   1.0000   1.0000   1.0000   1.0000
     1.0000   1.0000   1.0000   1.0000   1.0000   1.0000   1.0000   1.0000
     1.0000   1.0000   1.0000   1.0000   1.0000   1.0000   1.0000   1.0000
     1.0000   1.0000   1.0000   1.0000   1.0000   1.0000   1.0000   1.0000
     1.0000   1.0000   1.0000   1.0000   1.0000   0.9999   0.9999   0.9999
     0.9998   0.9998   0.9998   0.9997   0.9996   0.9996   0.9994   0.9988
     0.9984   0.9983   0.9981   0.9979   0.9973   0.9963   0.9939   0.9936
     0.9916   0.9912   0.9895   0.9891   0.9886   0.9857   0.9822   0.9812
     0.9783   0.9755   0.9726   0.9577   0.9434   0.9377   0.9349   0.8998
     0.8962   0.8866   0.8836   0.8507   0.8384   0.8292   0.8221   0.8163
     0.8081   0.7853   0.7786   0.7655   0.7308   0.7161   0.7101   0.7076
     0.6719   0.6682   0.6567   0.6529   0.6475   0.6407   0.6367   0.6289
     0.6248   0.6185   0.6143   0.6087   0.5989   0.5867   0.5840   0.5767
     0.5546   0.4931   0.4390   0.1193   0.0486   0.0148   0.0063   0.0051
     0.0001   0.0000   0.0000   0.0000   0.0000   0.0000   0.0000   0.0000
     0.0000   0.0000   0.0000   0.0000   0.0000   0.0000   0.0000   0.0000
     0.0000   0.0000   0.0000   0.0000   0.0000   0.0000   0.0000   0.0000
     0.0000   0.0000

          k = 0.0000 0.2500 0.0000 ( 65257 PWs)   bands (ev):

   -92.8799 -92.8279 -92.7336 -92.6884 -92.6287 -92.5869 -92.5686 -92.4475
   -56.2335 -56.2148 -56.0906 -56.0802 -56.0735 -56.0671 -56.0308 -56.0026
   -55.9874 -55.9870 -55.9789 -55.9354 -55.9206 -55.8798 -55.8603 -55.8278
   -55.8234 -55.7739 -55.7736 -55.7715 -55.7631 -55.7223 -55.6987 -55.6135
   -31.4434 -31.4239 -31.2813 -31.2582 -31.1948 -31.0887 -30.8583 -30.8384
   -30.0239 -29.9818 -29.9554 -29.8468 -15.2195 -15.1831 -15.1044 -14.9705
   -14.8449 -14.6688 -14.5375 -14.3579 -14.3219 -14.3009 -14.2700 -14.2145
   -14.2028 -14.1893 -14.1726 -14.1079 -14.0240 -13.9831 -13.8184 -13.7931
   -13.7504 -13.7131 -13.6680 -13.6216 -13.5555 -13.5117 -13.4719 -13.3777
   -13.3261 -13.3129 -13.2754 -13.2625 -13.2180 -13.1502 -13.1238 -13.0993
   -13.0709 -13.0455 -13.0317 -13.0274 -13.0033 -12.9646 -12.8160 -12.7789
   -12.7510 -12.7223 -12.6994 -12.6507 -12.5706 -12.4149 -12.2022 -12.1409
   -12.0030 -11.9800 -11.9609 -11.9317 -11.9040 -11.8877 -11.8403 -11.8288
   -11.8058 -11.7727 -11.6687 -11.6172 -11.6069  -2.9815  -2.7610  -2.6230
    -2.4412  -2.3976  -2.2343  -2.0138  -1.9310  -1.9179  -1.8598  -1.7553
    -1.7400  -1.7080  -1.6788  -1.6350  -1.4375  -1.3086  -1.2975  -1.2208
    -1.2116  -1.1076  -1.0774  -1.0164  -0.9916  -0.9536  -0.8891  -0.8611
    -0.8302  -0.7942  -0.7782  -0.7470  -0.6709  -0.6236  -0.5558  -0.4368
    -0.4213  -0.3769  -0.2596  -0.2090  -0.1598  -0.1116  -0.0548  -0.0401
    -0.0113   0.0545   0.3509   0.4376   0.4728   0.5582   0.6061   0.6305
     0.7352   0.7546   0.8562   0.8790   0.9025   1.0153   1.1139   1.1356
     1.1605   1.1769   1.2005   1.2611   1.2884   1.3184   1.3630   1.4034
     1.4340   1.5245   1.5553   1.5952   1.6402   1.7035   1.7574   1.7711
     1.7897   1.8083   1.9052   2.0274   2.1002   2.1143   2.1848   2.2339
     2.2823   2.2893   2.3425   2.3786   2.4645   2.5030   2.5196   2.5635
     2.6252   2.6540   2.6897   2.7144   2.7470   2.7678   2.7828   2.7906
     2.7986   2.8087   2.8373   2.8390   2.8577   2.8625   2.8719   2.8918
     2.9044   2.9113   2.9315   2.9426   2.9476   2.9829   2.9990   3.0600
     3.4435   3.4784   3.7027   4.1339   4.2644   4.5532   4.8931   4.9922
     5.5198   5.6314   5.8077   5.9170   5.9558   6.0071   6.0692   6.5495
     7.0214   7.0885   7.2303   7.2492   7.3497   7.4094   7.5476   7.5814
     7.7130   7.8791   8.0724   8.1980   8.2680   8.3017   8.3463   8.3843
     8.7227   8.8229

     occupation numbers 
     1.0000   1.0000   1.0000   1.0000   1.0000   1.0000   1.0000   1.0000
     1.0000   1.0000   1.0000   1.0000   1.0000   1.0000   1.0000   1.0000
     1.0000   1.0000   1.0000   1.0000   1.0000   1.0000   1.0000   1.0000
     1.0000   1.0000   1.0000   1.0000   1.0000   1.0000   1.0000   1.0000
     1.0000   1.0000   1.0000   1.0000   1.0000   1.0000   1.0000   1.0000
     1.0000   1.0000   1.0000   1.0000   1.0000   1.0000   1.0000   1.0000
     1.0000   1.0000   1.0000   1.0000   1.0000   1.0000   1.0000   1.0000
     1.0000   1.0000   1.0000   1.0000   1.0000   1.0000   1.0000   1.0000
     1.0000   1.0000   1.0000   1.0000   1.0000   1.0000   1.0000   1.0000
     1.0000   1.0000   1.0000   1.0000   1.0000   1.0000   1.0000   1.0000
     1.0000   1.0000   1.0000   1.0000   1.0000   1.0000   1.0000   1.0000
     1.0000   1.0000   1.0000   1.0000   1.0000   1.0000   1.0000   1.0000
     1.0000   1.0000   1.0000   1.0000   1.0000   1.0000   1.0000   1.0000
     1.0000   1.0000   1.0000   1.0000   1.0000   1.0000   1.0000   1.0000
     1.0000   1.0000   1.0000   1.0000   1.0000   1.0000   1.0000   1.0000
     1.0000   1.0000   1.0000   1.0000   1.0000   1.0000   1.0000   1.0000
     1.0000   1.0000   1.0000   1.0000   1.0000   1.0000   1.0000   1.0000
     1.0000   1.0000   1.0000   1.0000   1.0000   1.0000   1.0000   1.0000
     1.0000   1.0000   1.0000   1.0000   1.0000   1.0000   1.0000   1.0000
     1.0000   1.0000   1.0000   1.0000   1.0000   0.9999   0.9999   0.9999
     0.9998   0.9998   0.9997   0.9996   0.9996   0.9992   0.9987   0.9986
     0.9984   0.9983   0.9981   0.9975   0.9971   0.9967   0.9960   0.9952
     0.9946   0.9921   0.9910   0.9895   0.9875   0.9841   0.9806   0.9796
     0.9782   0.9767   0.9676   0.9521   0.9403   0.9378   0.9239   0.9129
     0.9010   0.8991   0.8845   0.8737   0.8453   0.8313   0.8250   0.8077
     0.7817   0.7688   0.7524   0.7406   0.7247   0.7143   0.7067   0.7027
     0.6986   0.6934   0.6783   0.6774   0.6674   0.6647   0.6596   0.6487
     0.6418   0.6380   0.6266   0.6204   0.6176   0.5974   0.5881   0.5526
     0.3309   0.3124   0.2055   0.0718   0.0488   0.0185   0.0048   0.0031
     0.0002   0.0001   0.0000   0.0000   0.0000   0.0000   0.0000   0.0000
     0.0000   0.0000   0.0000   0.0000   0.0000   0.0000   0.0000   0.0000
     0.0000   0.0000   0.0000   0.0000   0.0000   0.0000   0.0000   0.0000
     0.0000   0.0000

          k = 0.0000-0.5000 0.0000 ( 65180 PWs)   bands (ev):

   -92.8799 -92.8279 -92.7336 -92.6884 -92.6287 -92.5869 -92.5686 -92.4475
   -56.2335 -56.2148 -56.0906 -56.0802 -56.0735 -56.0671 -56.0308 -56.0026
   -55.9874 -55.9870 -55.9789 -55.9354 -55.9206 -55.8798 -55.8603 -55.8278
   -55.8234 -55.7739 -55.7736 -55.7715 -55.7631 -55.7223 -55.6987 -55.6135
   -31.4432 -31.4238 -31.2815 -31.2581 -31.1949 -31.0886 -30.8584 -30.8385
   -30.0233 -29.9815 -29.9560 -29.8471 -15.1832 -15.1354 -15.0782 -14.9521
   -14.8665 -14.7351 -14.5661 -14.4569 -14.3311 -14.2511 -14.2142 -14.2064
   -14.1567 -14.1431 -14.0897 -14.0710 -14.0451 -14.0150 -13.9746 -13.9132
   -13.7563 -13.6979 -13.6727 -13.6294 -13.5327 -13.5271 -13.4583 -13.4481
   -13.4207 -13.3822 -13.2766 -13.2643 -13.2152 -13.1336 -13.1207 -13.0941
   -13.0691 -13.0492 -13.0298 -13.0004 -12.8732 -12.8194 -12.8095 -12.7675
   -12.7358 -12.7049 -12.6812 -12.5974 -12.4899 -12.4695 -12.2898 -12.2415
   -11.9803 -11.9579 -11.9544 -11.9263 -11.8897 -11.8551 -11.8439 -11.8030
   -11.7988 -11.7547 -11.6902 -11.6772 -11.6638  -2.7666  -2.7081  -2.5577
    -2.4864  -2.2032  -2.1196  -1.9920  -1.8569  -1.8183  -1.7985  -1.7216
    -1.6902  -1.6055  -1.5715  -1.4925  -1.4542  -1.4171  -1.3897  -1.3289
    -1.2919  -1.2467  -1.2106  -1.1764  -1.1447  -1.0331  -0.9898  -0.9516
    -0.9491  -0.8638  -0.8347  -0.8109  -0.7608  -0.6760  -0.5966  -0.5127
    -0.4855  -0.3641  -0.3359  -0.2049  -0.1631  -0.1308  -0.0828   0.0524
     0.1172   0.2164   0.2874   0.2964   0.4223   0.4865   0.5825   0.7066
     0.8088   0.8407   0.8831   0.8925   0.9245   0.9421   0.9770   0.9950
     1.0109   1.1184   1.1807   1.2048   1.2263   1.5008   1.5323   1.5589
     1.6514   1.6702   1.7053   1.7246   1.7393   1.7714   1.7836   1.8005
     1.8284   1.8621   1.8924   1.8942   1.9263   1.9796   2.0683   2.1131
     2.2774   2.4259   2.4335   2.4562   2.4837   2.4962   2.5035   2.5482
     2.5668   2.5809   2.6228   2.6302   2.6511   2.6567   2.7220   2.7382
     2.8068   2.8136   2.8348   2.8368   2.8534   2.8612   2.8618   2.8688
     2.8719   2.8878   2.9011   2.9056   2.9688   2.9711   2.9885   3.0459
     3.9541   3.9963   4.0395   4.0916   4.5610   4.7483   4.9086   5.0023
     5.2878   5.3665   5.4949   5.5835   5.8567   5.8799   6.2468   6.7209
     6.7905   6.8985   7.1387   7.3154   7.5643   7.6365   7.6495   7.7427
     7.7841   7.8827   8.0629   8.1856   8.2446   8.3482   8.5263   8.6913
     8.7284   8.7491

     occupation numbers 
     1.0000   1.0000   1.0000   1.0000   1.0000   1.0000   1.0000   1.0000
     1.0000   1.0000   1.0000   1.0000   1.0000   1.0000   1.0000   1.0000
     1.0000   1.0000   1.0000   1.0000   1.0000   1.0000   1.0000   1.0000
     1.0000   1.0000   1.0000   1.0000   1.0000   1.0000   1.0000   1.0000
     1.0000   1.0000   1.0000   1.0000   1.0000   1.0000   1.0000   1.0000
     1.0000   1.0000   1.0000   1.0000   1.0000   1.0000   1.0000   1.0000
     1.0000   1.0000   1.0000   1.0000   1.0000   1.0000   1.0000   1.0000
     1.0000   1.0000   1.0000   1.0000   1.0000   1.0000   1.0000   1.0000
     1.0000   1.0000   1.0000   1.0000   1.0000   1.0000   1.0000   1.0000
     1.0000   1.0000   1.0000   1.0000   1.0000   1.0000   1.0000   1.0000
     1.0000   1.0000   1.0000   1.0000   1.0000   1.0000   1.0000   1.0000
     1.0000   1.0000   1.0000   1.0000   1.0000   1.0000   1.0000   1.0000
     1.0000   1.0000   1.0000   1.0000   1.0000   1.0000   1.0000   1.0000
     1.0000   1.0000   1.0000   1.0000   1.0000   1.0000   1.0000   1.0000
     1.0000   1.0000   1.0000   1.0000   1.0000   1.0000   1.0000   1.0000
     1.0000   1.0000   1.0000   1.0000   1.0000   1.0000   1.0000   1.0000
     1.0000   1.0000   1.0000   1.0000   1.0000   1.0000   1.0000   1.0000
     1.0000   1.0000   1.0000   1.0000   1.0000   1.0000   1.0000   1.0000
     1.0000   1.0000   1.0000   1.0000   1.0000   1.0000   1.0000   1.0000
     1.0000   1.0000   1.0000   1.0000   1.0000   1.0000   0.9999   0.9999
     0.9997   0.9997   0.9996   0.9996   0.9995   0.9995   0.9994   0.9993
     0.9993   0.9987   0.9983   0.9981   0.9978   0.9928   0.9918   0.9909
     0.9869   0.9860   0.9840   0.9828   0.9818   0.9796   0.9787   0.9774
     0.9751   0.9720   0.9690   0.9688   0.9653   0.9588   0.9457   0.9380
     0.9022   0.8585   0.8560   0.8482   0.8384   0.8338   0.8311   0.8139
     0.8063   0.8006   0.7827   0.7794   0.7701   0.7676   0.7370   0.7291
     0.6943   0.6907   0.6796   0.6786   0.6697   0.6654   0.6651   0.6613
     0.6597   0.6510   0.6436   0.6411   0.6055   0.6042   0.5942   0.5608
     0.1159   0.1042   0.0930   0.0808   0.0180   0.0088   0.0045   0.0030
     0.0007   0.0005   0.0002   0.0002   0.0000   0.0000   0.0000   0.0000
     0.0000   0.0000   0.0000   0.0000   0.0000   0.0000   0.0000   0.0000
     0.0000   0.0000   0.0000   0.0000   0.0000   0.0000   0.0000   0.0000
     0.0000   0.0000

          k = 0.2500 0.2500 0.0000 ( 65198 PWs)   bands (ev):

   -92.8799 -92.8279 -92.7336 -92.6884 -92.6287 -92.5869 -92.5686 -92.4475
   -56.2335 -56.2148 -56.0906 -56.0802 -56.0735 -56.0671 -56.0308 -56.0026
   -55.9874 -55.9870 -55.9789 -55.9354 -55.9206 -55.8798 -55.8603 -55.8278
   -55.8234 -55.7739 -55.7736 -55.7715 -55.7631 -55.7223 -55.6987 -55.6135
   -31.4417 -31.4256 -31.2809 -31.2580 -31.1952 -31.0889 -30.8566 -30.8401
   -30.0229 -29.9828 -29.9550 -29.8472 -15.1905 -15.1489 -15.0762 -14.9601
   -14.8371 -14.7107 -14.6435 -14.4333 -14.2812 -14.2672 -14.2296 -14.2031
   -14.1760 -14.1480 -14.1184 -14.0707 -14.0131 -13.9966 -13.8331 -13.8196
   -13.7899 -13.7712 -13.7177 -13.6814 -13.5959 -13.5718 -13.4476 -13.4145
   -13.3907 -13.3089 -13.2679 -13.2217 -13.1929 -13.1835 -13.1372 -13.1126
   -13.0823 -13.0431 -13.0004 -12.9489 -12.9113 -12.8807 -12.8477 -12.8163
   -12.7858 -12.7574 -12.6190 -12.5996 -12.5157 -12.4440 -12.2388 -12.1840
   -11.9807 -11.9749 -11.9442 -11.9325 -11.9253 -11.8637 -11.8281 -11.8219
   -11.7863 -11.7779 -11.6856 -11.6455 -11.6282  -2.8431  -2.6352  -2.5165
    -2.4224  -2.3021  -2.2377  -2.0386  -1.8954  -1.8768  -1.8467  -1.7504
    -1.7184  -1.6227  -1.5947  -1.5440  -1.4141  -1.3652  -1.2923  -1.2478
    -1.2030  -1.1804  -1.1566  -1.1120  -1.0986  -1.0074  -0.9564  -0.8893
    -0.8406  -0.8082  -0.7625  -0.7447  -0.6826  -0.6351  -0.5760  -0.5428
    -0.4557  -0.4009  -0.3735  -0.3362  -0.2807  -0.1818  -0.1657  -0.1429
    -0.0550  -0.0297   0.2381   0.3883   0.4199   0.4845   0.5284   0.5880
     0.6376   0.7033   0.7339   1.0037   1.0673   1.1405   1.1666   1.2172
     1.2451   1.2809   1.3194   1.3357   1.3634   1.4136   1.4200   1.4328
     1.4766   1.5156   1.5561   1.6319   1.6648   1.6699   1.7194   1.7407
     1.7945   1.8256   1.9434   2.0089   2.0426   2.0589   2.1294   2.1980
     2.2236   2.2573   2.2881   2.3000   2.4075   2.4439   2.5312   2.5626
     2.6254   2.6592   2.7009   2.7186   2.7232   2.7413   2.7564   2.7696
     2.7811   2.7874   2.7989   2.8108   2.8233   2.8412   2.8483   2.8596
     2.8821   2.8935   2.9032   2.9340   3.2338   3.3287   3.3737   3.4501
     3.4903   3.6833   3.7781   4.1444   4.3522   4.5567   4.8170   5.1320
     5.5064   5.5628   5.5967   5.6636   5.7255   6.0888   6.1318   6.1631
     6.8381   7.1116   7.1870   7.3763   7.4566   7.4860   7.5956   7.7621
     7.8939   8.0166   8.2066   8.2358   8.3289   8.3404   8.4312   8.4686
     8.5512   8.7771

     occupation numbers 
     1.0000   1.0000   1.0000   1.0000   1.0000   1.0000   1.0000   1.0000
     1.0000   1.0000   1.0000   1.0000   1.0000   1.0000   1.0000   1.0000
     1.0000   1.0000   1.0000   1.0000   1.0000   1.0000   1.0000   1.0000
     1.0000   1.0000   1.0000   1.0000   1.0000   1.0000   1.0000   1.0000
     1.0000   1.0000   1.0000   1.0000   1.0000   1.0000   1.0000   1.0000
     1.0000   1.0000   1.0000   1.0000   1.0000   1.0000   1.0000   1.0000
     1.0000   1.0000   1.0000   1.0000   1.0000   1.0000   1.0000   1.0000
     1.0000   1.0000   1.0000   1.0000   1.0000   1.0000   1.0000   1.0000
     1.0000   1.0000   1.0000   1.0000   1.0000   1.0000   1.0000   1.0000
     1.0000   1.0000   1.0000   1.0000   1.0000   1.0000   1.0000   1.0000
     1.0000   1.0000   1.0000   1.0000   1.0000   1.0000   1.0000   1.0000
     1.0000   1.0000   1.0000   1.0000   1.0000   1.0000   1.0000   1.0000
     1.0000   1.0000   1.0000   1.0000   1.0000   1.0000   1.0000   1.0000
     1.0000   1.0000   1.0000   1.0000   1.0000   1.0000   1.0000   1.0000
     1.0000   1.0000   1.0000   1.0000   1.0000   1.0000   1.0000   1.0000
     1.0000   1.0000   1.0000   1.0000   1.0000   1.0000   1.0000   1.0000
     1.0000   1.0000   1.0000   1.0000   1.0000   1.0000   1.0000   1.0000
     1.0000   1.0000   1.0000   1.0000   1.0000   1.0000   1.0000   1.0000
     1.0000   1.0000   1.0000   1.0000   1.0000   1.0000   1.0000   1.0000
     1.0000   1.0000   1.0000   1.0000   1.0000   1.0000   1.0000   0.9999
     0.9999   0.9999   0.9998   0.9993   0.9990   0.9986   0.9984   0.9979
     0.9977   0.9972   0.9967   0.9965   0.9960   0.9950   0.9949   0.9946
     0.9935   0.9924   0.9910   0.9879   0.9862   0.9860   0.9831   0.9817
     0.9779   0.9753   0.9633   0.9548   0.9498   0.9472   0.9350   0.9210
     0.9153   0.9073   0.8994   0.8963   0.8646   0.8525   0.8205   0.8080
     0.7816   0.7665   0.7471   0.7386   0.7364   0.7275   0.7201   0.7134
     0.7076   0.7044   0.6984   0.6922   0.6857   0.6762   0.6724   0.6663
     0.6541   0.6478   0.6425   0.6252   0.4499   0.3948   0.3693   0.3274
     0.3061   0.2138   0.1751   0.0697   0.0370   0.0183   0.0066   0.0016
     0.0002   0.0002   0.0001   0.0001   0.0001   0.0000   0.0000   0.0000
     0.0000   0.0000   0.0000   0.0000   0.0000   0.0000   0.0000   0.0000
     0.0000   0.0000   0.0000   0.0000   0.0000   0.0000   0.0000   0.0000
     0.0000   0.0000

          k = 0.2500-0.5000 0.0000 ( 65138 PWs)   bands (ev):

   -92.8799 -92.8279 -92.7336 -92.6884 -92.6287 -92.5869 -92.5686 -92.4475
   -56.2335 -56.2148 -56.0906 -56.0802 -56.0735 -56.0671 -56.0308 -56.0026
   -55.9874 -55.9870 -55.9789 -55.9354 -55.9206 -55.8798 -55.8603 -55.8278
   -55.8234 -55.7739 -55.7736 -55.7715 -55.7631 -55.7223 -55.6987 -55.6135
   -31.4416 -31.4254 -31.2811 -31.2579 -31.1953 -31.0888 -30.8567 -30.8402
   -30.0223 -29.9825 -29.9556 -29.8476 -15.1525 -15.1086 -15.0354 -14.9239
   -14.8879 -14.7748 -14.6719 -14.5518 -14.2459 -14.1892 -14.1667 -14.1399
   -14.1271 -14.1144 -14.0733 -14.0587 -14.0296 -13.9909 -13.9676 -13.9038
   -13.8376 -13.7890 -13.7318 -13.7098 -13.6372 -13.5773 -13.4977 -13.4669
   -13.3736 -13.3078 -13.2891 -13.2059 -13.1813 -13.1548 -13.1387 -13.1096
   -13.0784 -13.0367 -13.0158 -12.9787 -12.8249 -12.8157 -12.8057 -12.7917
   -12.7844 -12.7526 -12.6876 -12.5328 -12.4873 -12.4053 -12.2864 -12.2553
   -11.9805 -11.9510 -11.9389 -11.9277 -11.9003 -11.8697 -11.8401 -11.8003
   -11.7724 -11.7508 -11.7035 -11.6784 -11.6680  -2.6244  -2.5595  -2.4314
    -2.3548  -2.2235  -2.1396  -2.0164  -1.8681  -1.8133  -1.7911  -1.7292
    -1.7163  -1.6160  -1.5517  -1.4669  -1.4149  -1.4061  -1.3447  -1.3000
    -1.2668  -1.2189  -1.1819  -1.1464  -1.1077  -1.0922  -1.0505  -1.0206
    -0.9782  -0.9464  -0.8808  -0.7785  -0.7367  -0.6581  -0.5910  -0.5407
    -0.4999  -0.4813  -0.4172  -0.2590  -0.2476  -0.1512  -0.1166  -0.1083
    -0.0668  -0.0241   0.0121   0.0435   0.1018   0.3910   0.4928   0.5493
     0.6071   0.8728   0.8907   0.9759   1.0061   1.1648   1.1993   1.2414
     1.2652   1.2766   1.2980   1.3616   1.4102   1.4437   1.5221   1.6342
     1.6670   1.6784   1.6895   1.7288   1.7359   1.7596   1.7957   1.8014
     1.8296   1.8517   1.8714   1.8877   1.9233   1.9798   2.0229   2.1070
     2.2395   2.3783   2.3960   2.4141   2.4422   2.4633   2.4860   2.5141
     2.5283   2.5398   2.5789   2.6357   2.6548   2.6601   2.7008   2.7201
     2.7253   2.7382   2.7575   2.7706   2.7914   2.7976   2.8323   2.8425
     2.8576   2.8650   2.8738   2.8840   3.4095   3.4301   3.5659   3.6242
     3.9690   4.0234   4.0408   4.1488   4.5806   4.7676   4.9268   4.9692
     5.1386   5.3054   5.5032   5.5303   5.6302   5.6779   6.3289   6.3528
     6.4530   6.8339   7.2108   7.5854   7.6687   7.7174   7.7637   7.8105
     7.8967   7.9703   8.2077   8.2747   8.4016   8.4139   8.5549   8.5928
     8.6405   8.7891

     occupation numbers 
     1.0000   1.0000   1.0000   1.0000   1.0000   1.0000   1.0000   1.0000
     1.0000   1.0000   1.0000   1.0000   1.0000   1.0000   1.0000   1.0000
     1.0000   1.0000   1.0000   1.0000   1.0000   1.0000   1.0000   1.0000
     1.0000   1.0000   1.0000   1.0000   1.0000   1.0000   1.0000   1.0000
     1.0000   1.0000   1.0000   1.0000   1.0000   1.0000   1.0000   1.0000
     1.0000   1.0000   1.0000   1.0000   1.0000   1.0000   1.0000   1.0000
     1.0000   1.0000   1.0000   1.0000   1.0000   1.0000   1.0000   1.0000
     1.0000   1.0000   1.0000   1.0000   1.0000   1.0000   1.0000   1.0000
     1.0000   1.0000   1.0000   1.0000   1.0000   1.0000   1.0000   1.0000
     1.0000   1.0000   1.0000   1.0000   1.0000   1.0000   1.0000   1.0000
     1.0000   1.0000   1.0000   1.0000   1.0000   1.0000   1.0000   1.0000
     1.0000   1.0000   1.0000   1.0000   1.0000   1.0000   1.0000   1.0000
     1.0000   1.0000   1.0000   1.0000   1.0000   1.0000   1.0000   1.0000
     1.0000   1.0000   1.0000   1.0000   1.0000   1.0000   1.0000   1.0000
     1.0000   1.0000   1.0000   1.0000   1.0000   1.0000   1.0000   1.0000
     1.0000   1.0000   1.0000   1.0000   1.0000   1.0000   1.0000   1.0000
     1.0000   1.0000   1.0000   1.0000   1.0000   1.0000   1.0000   1.0000
     1.0000   1.0000   1.0000   1.0000   1.0000   1.0000   1.0000   1.0000
     1.0000   1.0000   1.0000   1.0000   1.0000   1.0000   1.0000   1.0000
     1.0000   1.0000   1.0000   1.0000   1.0000   1.0000   1.0000   0.9999
     0.9999   0.9996   0.9996   0.9994   0.9993   0.9984   0.9981   0.9977
     0.9974   0.9973   0.9970   0.9960   0.9951   0.9943   0.9921   0.9878
     0.9861   0.9855   0.9849   0.9825   0.9821   0.9805   0.9778   0.9773
     0.9750   0.9730   0.9711   0.9695   0.9656   0.9587   0.9528   0.9391
     0.9116   0.8738   0.8682   0.8624   0.8530   0.8457   0.8376   0.8271
     0.8216   0.8172   0.8014   0.7770   0.7685   0.7661   0.7471   0.7379
     0.7354   0.7291   0.7195   0.7129   0.7023   0.6991   0.6809   0.6755
     0.6674   0.6634   0.6586   0.6530   0.3495   0.3382   0.2679   0.2402
     0.1117   0.0971   0.0927   0.0688   0.0168   0.0081   0.0041   0.0034
     0.0016   0.0007   0.0002   0.0002   0.0001   0.0001   0.0000   0.0000
     0.0000   0.0000   0.0000   0.0000   0.0000   0.0000   0.0000   0.0000
     0.0000   0.0000   0.0000   0.0000   0.0000   0.0000   0.0000   0.0000
     0.0000   0.0000

          k =-0.5000-0.5000 0.0000 ( 65132 PWs)   bands (ev):

   -92.8799 -92.8279 -92.7336 -92.6884 -92.6287 -92.5869 -92.5686 -92.4475
   -56.2335 -56.2148 -56.0906 -56.0802 -56.0735 -56.0671 -56.0308 -56.0026
   -55.9874 -55.9870 -55.9789 -55.9354 -55.9206 -55.8798 -55.8603 -55.8278
   -55.8234 -55.7739 -55.7736 -55.7715 -55.7631 -55.7223 -55.6987 -55.6135
   -31.4394 -31.4276 -31.2808 -31.2577 -31.1957 -31.0889 -30.8544 -30.8425
   -30.0213 -29.9835 -29.9552 -29.8480 -15.1057 -15.0813 -14.9642 -14.9489
   -14.8486 -14.8216 -14.7790 -14.6498 -14.1573 -14.1431 -14.1132 -14.0917
   -14.0729 -14.0539 -14.0350 -14.0224 -14.0001 -13.9968 -13.9820 -13.9037
   -13.8963 -13.8556 -13.8326 -13.8184 -13.7249 -13.6392 -13.5311 -13.5057
   -13.3247 -13.2867 -13.2152 -13.1919 -13.1603 -13.1519 -13.1504 -13.1407
   -13.1229 -13.0307 -12.9661 -12.9514 -12.8681 -12.8442 -12.8093 -12.7817
   -12.7638 -12.7623 -12.7034 -12.4892 -12.4821 -12.3406 -12.2907 -12.2755
   -11.9805 -11.9476 -11.9351 -11.9174 -11.9003 -11.8655 -11.8490 -11.8118
   -11.7524 -11.7328 -11.7265 -11.6764 -11.6738  -2.3997  -2.3243  -2.3139
    -2.2437  -2.2054  -2.1266  -2.0583  -1.9332  -1.8184  -1.7880  -1.7488
    -1.6915  -1.6200  -1.6028  -1.5344  -1.4915  -1.3734  -1.3433  -1.2955
    -1.2691  -1.2045  -1.1560  -1.1376  -1.1252  -1.0709  -1.0292  -1.0107
    -0.8994  -0.8430  -0.7952  -0.7447  -0.7162  -0.7057  -0.6691  -0.6233
    -0.5890  -0.5797  -0.4958  -0.4246  -0.3857  -0.3531  -0.2846  -0.2168
    -0.2018  -0.1454  -0.1252  -0.1157  -0.1068   0.3578   0.4313   0.4928
     0.5307   0.9008   0.9148   0.9476   0.9799   1.2515   1.2710   1.2777
     1.3136   1.4441   1.5355   1.5650   1.6013   1.6376   1.6497   1.6588
     1.6905   1.7097   1.7276   1.7456   1.7718   1.7791   1.8057   1.8429
     1.8502   1.8646   1.9047   1.9231   1.9367   1.9671   1.9973   2.0585
     2.1253   2.3910   2.4220   2.4422   2.4595   2.4681   2.4893   2.5007
     2.5204   2.5328   2.5521   2.5654   2.5826   2.5911   2.6374   2.6501
     2.6552   2.6632   2.6775   2.6921   2.7038   2.7236   2.7307   2.7391
     2.8387   2.8455   2.8709   2.8811   3.8289   3.8681   3.9179   3.9506
     4.1416   4.2152   4.2409   4.4826   4.6043   4.6865   4.8200   4.9231
     4.9443   5.0311   5.1753   5.2444   5.8155   5.8382   5.9031   6.0113
     6.5326   6.8582   7.0100   7.5751   7.8416   7.8541   7.9347   8.0688
     8.1312   8.1763   8.2451   8.2622   8.4104   8.4604   8.4806   8.4977
     8.5446   8.6237

     occupation numbers 
     1.0000   1.0000   1.0000   1.0000   1.0000   1.0000   1.0000   1.0000
     1.0000   1.0000   1.0000   1.0000   1.0000   1.0000   1.0000   1.0000
     1.0000   1.0000   1.0000   1.0000   1.0000   1.0000   1.0000   1.0000
     1.0000   1.0000   1.0000   1.0000   1.0000   1.0000   1.0000   1.0000
     1.0000   1.0000   1.0000   1.0000   1.0000   1.0000   1.0000   1.0000
     1.0000   1.0000   1.0000   1.0000   1.0000   1.0000   1.0000   1.0000
     1.0000   1.0000   1.0000   1.0000   1.0000   1.0000   1.0000   1.0000
     1.0000   1.0000   1.0000   1.0000   1.0000   1.0000   1.0000   1.0000
     1.0000   1.0000   1.0000   1.0000   1.0000   1.0000   1.0000   1.0000
     1.0000   1.0000   1.0000   1.0000   1.0000   1.0000   1.0000   1.0000
     1.0000   1.0000   1.0000   1.0000   1.0000   1.0000   1.0000   1.0000
     1.0000   1.0000   1.0000   1.0000   1.0000   1.0000   1.0000   1.0000
     1.0000   1.0000   1.0000   1.0000   1.0000   1.0000   1.0000   1.0000
     1.0000   1.0000   1.0000   1.0000   1.0000   1.0000   1.0000   1.0000
     1.0000   1.0000   1.0000   1.0000   1.0000   1.0000   1.0000   1.0000
     1.0000   1.0000   1.0000   1.0000   1.0000   1.0000   1.0000   1.0000
     1.0000   1.0000   1.0000   1.0000   1.0000   1.0000   1.0000   1.0000
     1.0000   1.0000   1.0000   1.0000   1.0000   1.0000   1.0000   1.0000
     1.0000   1.0000   1.0000   1.0000   1.0000   1.0000   1.0000   1.0000
     1.0000   1.0000   1.0000   1.0000   1.0000   1.0000   1.0000   1.0000
     0.9999   0.9996   0.9995   0.9995   0.9994   0.9976   0.9974   0.9973
     0.9968   0.9943   0.9917   0.9907   0.9892   0.9876   0.9870   0.9865
     0.9848   0.9837   0.9826   0.9814   0.9796   0.9790   0.9770   0.9738
     0.9731   0.9717   0.9677   0.9656   0.9641   0.9604   0.9564   0.9473
     0.9358   0.8698   0.8598   0.8530   0.8470   0.8440   0.8363   0.8321
     0.8247   0.8199   0.8123   0.8069   0.7998   0.7963   0.7763   0.7706
     0.7683   0.7647   0.7581   0.7513   0.7457   0.7362   0.7328   0.7286
     0.6775   0.6739   0.6602   0.6546   0.1563   0.1428   0.1268   0.1170
     0.0703   0.0567   0.0525   0.0238   0.0153   0.0112   0.0065   0.0042
     0.0038   0.0026   0.0013   0.0009   0.0000   0.0000   0.0000   0.0000
     0.0000   0.0000   0.0000   0.0000   0.0000   0.0000   0.0000   0.0000
     0.0000   0.0000   0.0000   0.0000   0.0000   0.0000   0.0000   0.0000
     0.0000   0.0000

          k = 0.2500 0.0000 0.0000 ( 65257 PWs)   bands (ev):

   -92.8799 -92.8279 -92.7336 -92.6884 -92.6287 -92.5869 -92.5686 -92.4475
   -56.2335 -56.2148 -56.0906 -56.0802 -56.0735 -56.0671 -56.0308 -56.0026
   -55.9874 -55.9870 -55.9789 -55.9354 -55.9206 -55.8798 -55.8603 -55.8278
   -55.8234 -55.7739 -55.7736 -55.7715 -55.7631 -55.7223 -55.6987 -55.6135
   -31.4419 -31.4257 -31.2807 -31.2581 -31.1950 -31.0890 -30.8565 -30.8400
   -30.0235 -29.9831 -29.9544 -29.8469 -15.2231 -15.1788 -15.1103 -14.9632
   -14.8524 -14.6583 -14.5277 -14.3489 -14.3310 -14.2999 -14.2667 -14.2451
   -14.2075 -14.1922 -14.1718 -14.1140 -14.0133 -13.9806 -13.8309 -13.7595
   -13.7518 -13.6899 -13.6654 -13.6498 -13.5677 -13.5142 -13.4766 -13.3770
   -13.3259 -13.3215 -13.2281 -13.2242 -13.2066 -13.1894 -13.1688 -13.1351
   -13.0989 -13.0485 -12.9865 -12.9677 -12.9562 -12.9373 -12.8675 -12.8513
   -12.8036 -12.7564 -12.6506 -12.5818 -12.5728 -12.4159 -12.2050 -12.1456
   -12.0025 -11.9799 -11.9504 -11.9336 -11.9204 -11.8934 -11.8425 -11.8195
   -11.8109 -11.7598 -11.6706 -11.6157 -11.6098  -2.9811  -2.7601  -2.6297
    -2.4573  -2.3935  -2.2244  -2.0152  -1.9399  -1.8964  -1.8605  -1.7581
    -1.7445  -1.7100  -1.6908  -1.6204  -1.4408  -1.3323  -1.2925  -1.1945
    -1.1820  -1.1055  -1.0787  -1.0265  -0.9853  -0.9337  -0.9021  -0.8550
    -0.8277  -0.8047  -0.7537  -0.7383  -0.6474  -0.6396  -0.5697  -0.4741
    -0.4226  -0.2979  -0.2890  -0.2224  -0.1728  -0.1275  -0.0907  -0.0574
    -0.0013   0.0395   0.3288   0.4590   0.4895   0.5799   0.6171   0.6394
     0.6633   0.7332   0.8461   0.8924   0.9190   0.9575   1.1054   1.1391
     1.1723   1.1796   1.2187   1.2659   1.3076   1.3397   1.3976   1.4444
[...]
     0.6335   0.6210   0.6183   0.6134   0.6104   0.6046   0.5992   0.5206
     0.3497   0.3191   0.2025   0.0750   0.0436   0.0207   0.0048   0.0030
     0.0002   0.0001   0.0000   0.0000   0.0000   0.0000   0.0000   0.0000
     0.0000   0.0000   0.0000   0.0000   0.0000   0.0000   0.0000   0.0000
     0.0000   0.0000   0.0000   0.0000   0.0000   0.0000   0.0000   0.0000
     0.0000   0.0000

          k =-0.5000 0.0000 0.0000 ( 65180 PWs)   bands (ev):

   -92.8799 -92.8279 -92.7336 -92.6884 -92.6287 -92.5869 -92.5686 -92.4475
   -56.2335 -56.2148 -56.0906 -56.0802 -56.0735 -56.0671 -56.0308 -56.0026
   -55.9874 -55.9870 -55.9789 -55.9354 -55.9206 -55.8798 -55.8603 -55.8278
   -55.8234 -55.7739 -55.7736 -55.7715 -55.7631 -55.7223 -55.6987 -55.6135
   -31.4398 -31.4278 -31.2804 -31.2579 -31.1954 -31.0892 -30.8543 -30.8422
   -30.0225 -29.9842 -29.9540 -29.8473 -15.1890 -15.1364 -15.0746 -14.9596
   -14.8618 -14.7179 -14.5702 -14.4177 -14.3062 -14.2910 -14.2824 -14.2199
   -14.1614 -14.1312 -14.0814 -14.0690 -14.0526 -14.0084 -13.9769 -13.8731
   -13.7281 -13.6991 -13.6677 -13.6609 -13.5568 -13.5356 -13.4708 -13.4322
   -13.4090 -13.3857 -13.2208 -13.2180 -13.2008 -13.1798 -13.1600 -13.1146
   -13.0981 -13.0780 -12.9506 -12.9390 -12.8630 -12.8420 -12.8074 -12.7991
   -12.7871 -12.7595 -12.7075 -12.5226 -12.4939 -12.3875 -12.3099 -12.2748
   -11.9805 -11.9544 -11.9329 -11.9259 -11.9124 -11.8941 -11.8526 -11.7891
   -11.7708 -11.7375 -11.6938 -11.6850 -11.6692  -2.7568  -2.7185  -2.5557
    -2.5161  -2.2014  -2.1272  -1.9797  -1.8618  -1.8227  -1.7778  -1.7296
    -1.7051  -1.5801  -1.5370  -1.5206  -1.4391  -1.4033  -1.3872  -1.3565
    -1.2958  -1.2294  -1.2017  -1.1685  -1.0722  -1.0293  -0.9807  -0.9466
    -0.9259  -0.8952  -0.8467  -0.8222  -0.7787  -0.6838  -0.6108  -0.5430
    -0.4826  -0.2993  -0.2816  -0.2294  -0.1900  -0.1218  -0.1045   0.0312
     0.0596   0.0943   0.2661   0.3655   0.4163   0.4977   0.5923   0.6865
     0.7079   0.8432   0.8600   0.9118   0.9411   0.9759   0.9945   1.0365
     1.0583   1.1313   1.1771   1.2228   1.2315   1.5381   1.5473   1.5636
     1.5985   1.6926   1.7052   1.7237   1.7291   1.7548   1.7694   1.8098
     1.8225   1.8579   1.9023   1.9241   1.9711   1.9979   2.0483   2.1547
     2.2743   2.3294   2.3435   2.4227   2.4493   2.4792   2.5459   2.5530
     2.5615   2.5653   2.5916   2.6271   2.6616   2.6664   2.7107   2.7541
     2.7871   2.8233   2.8284   2.8303   2.8413   2.8553   2.8671   2.8811
     2.8856   2.9103   2.9140   2.9336   2.9522   2.9590   3.0880   3.0993
     3.8883   3.9638   4.0387   4.1760   4.6221   4.7100   4.8823   4.9323
     5.3725   5.4123   5.4893   5.5184   5.8633   5.8710   6.2911   6.6233
     6.7416   6.9458   7.2066   7.2557   7.6079   7.6371   7.6777   7.7494
     7.7944   7.9721   8.0517   8.1952   8.2734   8.3737   8.4862   8.5771
     8.6415   8.7574

     occupation numbers 
     1.0000   1.0000   1.0000   1.0000   1.0000   1.0000   1.0000   1.0000
     1.0000   1.0000   1.0000   1.0000   1.0000   1.0000   1.0000   1.0000
     1.0000   1.0000   1.0000   1.0000   1.0000   1.0000   1.0000   1.0000
     1.0000   1.0000   1.0000   1.0000   1.0000   1.0000   1.0000   1.0000
     1.0000   1.0000   1.0000   1.0000   1.0000   1.0000   1.0000   1.0000
     1.0000   1.0000   1.0000   1.0000   1.0000   1.0000   1.0000   1.0000
     1.0000   1.0000   1.0000   1.0000   1.0000   1.0000   1.0000   1.0000
     1.0000   1.0000   1.0000   1.0000   1.0000   1.0000   1.0000   1.0000
     1.0000   1.0000   1.0000   1.0000   1.0000   1.0000   1.0000   1.0000
     1.0000   1.0000   1.0000   1.0000   1.0000   1.0000   1.0000   1.0000
     1.0000   1.0000   1.0000   1.0000   1.0000   1.0000   1.0000   1.0000
     1.0000   1.0000   1.0000   1.0000   1.0000   1.0000   1.0000   1.0000
     1.0000   1.0000   1.0000   1.0000   1.0000   1.0000   1.0000   1.0000
     1.0000   1.0000   1.0000   1.0000   1.0000   1.0000   1.0000   1.0000
     1.0000   1.0000   1.0000   1.0000   1.0000   1.0000   1.0000   1.0000
     1.0000   1.0000   1.0000   1.0000   1.0000   1.0000   1.0000   1.0000
     1.0000   1.0000   1.0000   1.0000   1.0000   1.0000   1.0000   1.0000
     1.0000   1.0000   1.0000   1.0000   1.0000   1.0000   1.0000   1.0000
     1.0000   1.0000   1.0000   1.0000   1.0000   1.0000   1.0000   1.0000
     1.0000   1.0000   1.0000   1.0000   1.0000   1.0000   0.9999   0.9999
     0.9999   0.9997   0.9997   0.9996   0.9995   0.9994   0.9993   0.9991
     0.9990   0.9986   0.9983   0.9979   0.9978   0.9916   0.9913   0.9907
     0.9893   0.9847   0.9840   0.9828   0.9825   0.9808   0.9798   0.9766
     0.9756   0.9724   0.9679   0.9655   0.9599   0.9563   0.9489   0.9301
     0.9030   0.8882   0.8842   0.8596   0.8506   0.8400   0.8147   0.8119
     0.8085   0.8069   0.7961   0.7808   0.7654   0.7632   0.7424   0.7212
     0.7045   0.6857   0.6830   0.6820   0.6761   0.6686   0.6622   0.6546
     0.6522   0.6385   0.6364   0.6255   0.6150   0.6111   0.5361   0.5294
     0.1361   0.1132   0.0932   0.0636   0.0144   0.0102   0.0050   0.0040
     0.0005   0.0004   0.0003   0.0002   0.0000   0.0000   0.0000   0.0000
     0.0000   0.0000   0.0000   0.0000   0.0000   0.0000   0.0000   0.0000
     0.0000   0.0000   0.0000   0.0000   0.0000   0.0000   0.0000   0.0000
     0.0000   0.0000

          k =-0.2500 0.2500 0.0000 ( 65198 PWs)   bands (ev):

   -92.8799 -92.8279 -92.7336 -92.6884 -92.6287 -92.5869 -92.5686 -92.4475
   -56.2335 -56.2148 -56.0906 -56.0802 -56.0735 -56.0671 -56.0308 -56.0026
   -55.9874 -55.9870 -55.9789 -55.9354 -55.9206 -55.8798 -55.8603 -55.8278
   -55.8234 -55.7739 -55.7736 -55.7715 -55.7631 -55.7223 -55.6987 -55.6135
   -31.4417 -31.4256 -31.2809 -31.2580 -31.1952 -31.0889 -30.8566 -30.8401
   -30.0229 -29.9828 -29.9550 -29.8472 -15.1918 -15.1476 -15.0752 -14.9583
   -14.8428 -14.7161 -14.6350 -14.4241 -14.2874 -14.2589 -14.2433 -14.1967
   -14.1729 -14.1479 -14.1294 -14.0776 -14.0080 -13.9972 -13.8422 -13.8167
   -13.7872 -13.7663 -13.7183 -13.6690 -13.6038 -13.5745 -13.4440 -13.4109
   -13.3869 -13.3129 -13.2699 -13.2080 -13.1916 -13.1668 -13.1478 -13.1103
   -13.0928 -13.0458 -13.0058 -12.9629 -12.9376 -12.8610 -12.8530 -12.8110
   -12.7898 -12.7471 -12.6089 -12.6031 -12.5066 -12.4497 -12.2316 -12.1934
   -11.9808 -11.9739 -11.9531 -11.9258 -11.9136 -11.8731 -11.8379 -11.8155
   -11.7928 -11.7707 -11.6853 -11.6411 -11.6313  -2.8415  -2.6341  -2.5125
    -2.4241  -2.3063  -2.2405  -2.0362  -1.8923  -1.8745  -1.8448  -1.7510
    -1.7174  -1.6221  -1.5880  -1.5617  -1.4196  -1.3633  -1.2955  -1.2670
    -1.2061  -1.1858  -1.1459  -1.1174  -1.0769  -1.0140  -0.9643  -0.9015
    -0.8318  -0.8037  -0.7559  -0.7273  -0.6800  -0.6246  -0.5787  -0.5381
    -0.4349  -0.4051  -0.3894  -0.3493  -0.2820  -0.1898  -0.1604  -0.1330
    -0.0508  -0.0326   0.2188   0.3895   0.4283   0.4714   0.5384   0.5881
     0.6420   0.7056   0.7339   1.0122   1.1166   1.1591   1.1916   1.1964
     1.2399   1.2561   1.3001   1.3329   1.3454   1.3705   1.4197   1.4377
     1.4739   1.4932   1.5393   1.6485   1.6550   1.6709   1.7163   1.7395
     1.7766   1.8348   1.9341   2.0402   2.0613   2.1077   2.1266   2.1962
     2.2349   2.2604   2.2898   2.3093   2.4071   2.4424   2.5311   2.5629
     2.6247   2.6586   2.7077   2.7169   2.7307   2.7388   2.7510   2.7676
     2.7713   2.7904   2.7969   2.8116   2.8204   2.8331   2.8421   2.8506
     2.8838   2.8939   2.9023   2.9359   3.2271   3.3094   3.3774   3.4568
     3.4957   3.6682   3.7870   4.1436   4.3503   4.5580   4.8264   5.1321
     5.5081   5.5588   5.5997   5.6600   5.7264   6.1067   6.1228   6.1531
     6.8388   7.0906   7.2133   7.3797   7.4673   7.4906   7.5716   7.7723
     7.8632   8.0499   8.2053   8.2387   8.3212   8.3309   8.4499   8.4670
     8.5387   8.7829

     occupation numbers 
     1.0000   1.0000   1.0000   1.0000   1.0000   1.0000   1.0000   1.0000
     1.0000   1.0000   1.0000   1.0000   1.0000   1.0000   1.0000   1.0000
     1.0000   1.0000   1.0000   1.0000   1.0000   1.0000   1.0000   1.0000
     1.0000   1.0000   1.0000   1.0000   1.0000   1.0000   1.0000   1.0000
     1.0000   1.0000   1.0000   1.0000   1.0000   1.0000   1.0000   1.0000
     1.0000   1.0000   1.0000   1.0000   1.0000   1.0000   1.0000   1.0000
     1.0000   1.0000   1.0000   1.0000   1.0000   1.0000   1.0000   1.0000
     1.0000   1.0000   1.0000   1.0000   1.0000   1.0000   1.0000   1.0000
     1.0000   1.0000   1.0000   1.0000   1.0000   1.0000   1.0000   1.0000
     1.0000   1.0000   1.0000   1.0000   1.0000   1.0000   1.0000   1.0000
     1.0000   1.0000   1.0000   1.0000   1.0000   1.0000   1.0000   1.0000
     1.0000   1.0000   1.0000   1.0000   1.0000   1.0000   1.0000   1.0000
     1.0000   1.0000   1.0000   1.0000   1.0000   1.0000   1.0000   1.0000
     1.0000   1.0000   1.0000   1.0000   1.0000   1.0000   1.0000   1.0000
     1.0000   1.0000   1.0000   1.0000   1.0000   1.0000   1.0000   1.0000
     1.0000   1.0000   1.0000   1.0000   1.0000   1.0000   1.0000   1.0000
     1.0000   1.0000   1.0000   1.0000   1.0000   1.0000   1.0000   1.0000
     1.0000   1.0000   1.0000   1.0000   1.0000   1.0000   1.0000   1.0000
     1.0000   1.0000   1.0000   1.0000   1.0000   1.0000   1.0000   1.0000
     1.0000   1.0000   1.0000   1.0000   1.0000   1.0000   0.9999   0.9999
     0.9999   0.9999   0.9998   0.9992   0.9987   0.9984   0.9982   0.9981
     0.9977   0.9975   0.9970   0.9965   0.9963   0.9959   0.9949   0.9945
     0.9936   0.9930   0.9916   0.9871   0.9867   0.9859   0.9833   0.9818
     0.9792   0.9745   0.9644   0.9502   0.9469   0.9390   0.9355   0.9214
     0.9127   0.9065   0.8990   0.8938   0.8647   0.8529   0.8206   0.8079
     0.7819   0.7668   0.7439   0.7394   0.7328   0.7288   0.7227   0.7144
     0.7125   0.7028   0.6995   0.6918   0.6872   0.6805   0.6757   0.6711
     0.6531   0.6476   0.6429   0.6241   0.4538   0.4059   0.3673   0.3238
     0.3033   0.2204   0.1717   0.0699   0.0372   0.0182   0.0064   0.0016
     0.0002   0.0002   0.0001   0.0001   0.0001   0.0000   0.0000   0.0000
     0.0000   0.0000   0.0000   0.0000   0.0000   0.0000   0.0000   0.0000
     0.0000   0.0000   0.0000   0.0000   0.0000   0.0000   0.0000   0.0000
     0.0000   0.0000

          k =-0.5000 0.2500 0.0000 ( 65138 PWs)   bands (ev):

   -92.8799 -92.8279 -92.7336 -92.6884 -92.6287 -92.5869 -92.5686 -92.4475
   -56.2335 -56.2148 -56.0906 -56.0802 -56.0735 -56.0671 -56.0308 -56.0026
   -55.9874 -55.9870 -55.9789 -55.9354 -55.9206 -55.8798 -55.8603 -55.8278
   -55.8234 -55.7739 -55.7736 -55.7715 -55.7631 -55.7223 -55.6987 -55.6135
   -31.4396 -31.4277 -31.2806 -31.2578 -31.1955 -31.0891 -30.8543 -30.8424
   -30.0219 -29.9838 -29.9546 -29.8476 -15.1560 -15.1101 -15.0316 -14.9284
   -14.8873 -14.7655 -14.6741 -14.5401 -14.2387 -14.2083 -14.1961 -14.1498
   -14.1271 -14.1027 -14.0680 -14.0546 -14.0334 -13.9945 -13.9775 -13.8700
   -13.8085 -13.7600 -13.7556 -13.7420 -13.6379 -13.5982 -13.5009 -13.4467
   -13.3663 -13.3313 -13.2343 -13.1961 -13.1836 -13.1769 -13.1446 -13.1129
   -13.1044 -13.0590 -12.9623 -12.9439 -12.8611 -12.8504 -12.7992 -12.7895
   -12.7792 -12.7625 -12.7053 -12.5049 -12.4890 -12.3648 -12.3000 -12.2749
   -11.9805 -11.9470 -11.9345 -11.9208 -11.9081 -11.8875 -11.8574 -11.7753
   -11.7676 -11.7440 -11.7080 -11.6807 -11.6715  -2.6140  -2.5726  -2.4251
    -2.3824  -2.2205  -2.1457  -2.0038  -1.8677  -1.8119  -1.7848  -1.7459
    -1.7074  -1.6262  -1.5103  -1.4530  -1.4298  -1.4047  -1.3270  -1.2990
    -1.2595  -1.2432  -1.1829  -1.1514  -1.1149  -1.0798  -1.0506  -0.9922
    -0.9633  -0.9209  -0.8869  -0.7834  -0.7530  -0.6656  -0.6032  -0.5741
    -0.5174  -0.4323  -0.3930  -0.2997  -0.2422  -0.1985  -0.1390  -0.1172
    -0.0472  -0.0249   0.0069   0.0565   0.0988   0.4134   0.5015   0.5416
     0.5751   0.8544   0.9043   0.9810   1.0031   1.1781   1.2148   1.2520
     1.2609   1.2799   1.2982   1.3677   1.4131   1.4600   1.4829   1.6262
     1.6561   1.6747   1.6860   1.7400   1.7550   1.7684   1.7812   1.8008
     1.8265   1.8710   1.8797   1.9161   1.9402   1.9755   2.0247   2.1468
     2.2469   2.2793   2.3452   2.3762   2.4394   2.4752   2.4812   2.5213
     2.5483   2.5610   2.5821   2.6268   2.6594   2.6650   2.7064   2.7178
     2.7243   2.7440   2.7650   2.7775   2.7930   2.8085   2.8282   2.8396
     2.8495   2.8567   2.8680   2.8793   3.4082   3.4747   3.5970   3.6225
     3.8961   3.9891   4.0399   4.2491   4.6145   4.7222   4.8764   4.9459
     5.2371   5.2715   5.5001   5.5663   5.6205   5.6407   6.3418   6.3795
     6.4561   6.7188   7.3238   7.6073   7.6742   7.7221   7.7477   7.7949
     7.9058   7.9241   8.2484   8.3287   8.4007   8.4267   8.5060   8.5663
     8.6958   8.7112

     occupation numbers 
     1.0000   1.0000   1.0000   1.0000   1.0000   1.0000   1.0000   1.0000
     1.0000   1.0000   1.0000   1.0000   1.0000   1.0000   1.0000   1.0000
     1.0000   1.0000   1.0000   1.0000   1.0000   1.0000   1.0000   1.0000
     1.0000   1.0000   1.0000   1.0000   1.0000   1.0000   1.0000   1.0000
     1.0000   1.0000   1.0000   1.0000   1.0000   1.0000   1.0000   1.0000
     1.0000   1.0000   1.0000   1.0000   1.0000   1.0000   1.0000   1.0000
     1.0000   1.0000   1.0000   1.0000   1.0000   1.0000   1.0000   1.0000
     1.0000   1.0000   1.0000   1.0000   1.0000   1.0000   1.0000   1.0000
     1.0000   1.0000   1.0000   1.0000   1.0000   1.0000   1.0000   1.0000
     1.0000   1.0000   1.0000   1.0000   1.0000   1.0000   1.0000   1.0000
     1.0000   1.0000   1.0000   1.0000   1.0000   1.0000   1.0000   1.0000
     1.0000   1.0000   1.0000   1.0000   1.0000   1.0000   1.0000   1.0000
     1.0000   1.0000   1.0000   1.0000   1.0000   1.0000   1.0000   1.0000
     1.0000   1.0000   1.0000   1.0000   1.0000   1.0000   1.0000   1.0000
     1.0000   1.0000   1.0000   1.0000   1.0000   1.0000   1.0000   1.0000
     1.0000   1.0000   1.0000   1.0000   1.0000   1.0000   1.0000   1.0000
     1.0000   1.0000   1.0000   1.0000   1.0000   1.0000   1.0000   1.0000
     1.0000   1.0000   1.0000   1.0000   1.0000   1.0000   1.0000   1.0000
     1.0000   1.0000   1.0000   1.0000   1.0000   1.0000   1.0000   1.0000
     1.0000   1.0000   1.0000   1.0000   1.0000   1.0000   1.0000   0.9999
     0.9999   0.9997   0.9996   0.9994   0.9993   0.9983   0.9980   0.9976
     0.9975   0.9972   0.9970   0.9959   0.9950   0.9939   0.9933   0.9881
     0.9867   0.9857   0.9851   0.9818   0.9808   0.9798   0.9789   0.9774
     0.9752   0.9711   0.9703   0.9664   0.9637   0.9593   0.9525   0.9317
     0.9098   0.9017   0.8837   0.8744   0.8540   0.8415   0.8393   0.8243
     0.8138   0.8087   0.8000   0.7809   0.7664   0.7638   0.7445   0.7390
     0.7359   0.7262   0.7157   0.7094   0.7015   0.6935   0.6831   0.6771
     0.6717   0.6679   0.6618   0.6556   0.3502   0.3143   0.2530   0.2410
     0.1336   0.1061   0.0929   0.0512   0.0148   0.0097   0.0052   0.0038
     0.0010   0.0008   0.0002   0.0002   0.0001   0.0001   0.0000   0.0000
     0.0000   0.0000   0.0000   0.0000   0.0000   0.0000   0.0000   0.0000
     0.0000   0.0000   0.0000   0.0000   0.0000   0.0000   0.0000   0.0000
     0.0000   0.0000

     the Fermi energy is     3.1490 ev

!    total energy              =   -4440.30591745 Ry
     estimated scf accuracy    <          8.0E-09 Ry
     smearing contrib. (-TS)   =      -1.20757537 Ry
     internal energy E=F+TS    =   -4439.09834208 Ry

     The total energy is F=E-TS. E is the sum of the following terms:
     one-electron contribution =  -20890.80463280 Ry
     hartree contribution      =   10574.47681178 Ry
     xc contribution           =    -693.24888334 Ry
     ewald contribution        =    6846.66959997 Ry
     one-center paw contrib.   =    -276.19123770 Ry
      -> PAW hartree energy AE =      25.08103844 Ry
      -> PAW hartree energy PS =     -24.96585130 Ry
      -> PAW xc energy AE      =     -16.50572691 Ry
      -> PAW xc energy PS      =       6.86466926 Ry
      -> total E_H with PAW    =   10574.59199892 Ry
      -> total E_XC with PAW   =    -702.88994099 Ry

     convergence has been achieved in  47 iterations

     Writing all to output data dir /bsuhome/zayahcortright/scratch/pwscf.save/
 
     init_run     :      7.66s CPU      8.36s WALL (       1 calls)
     electrons    :    669.96s CPU    702.55s WALL (       1 calls)

     Called by init_run:
     wfcinit      :      6.11s CPU      6.31s WALL (       1 calls)
     wfcinit:atom :      0.05s CPU      0.07s WALL (       5 calls)
     wfcinit:wfcr :      5.78s CPU      5.89s WALL (       5 calls)
     potinit      :      0.16s CPU      0.19s WALL (       1 calls)
     hinit0       :      0.52s CPU      0.71s WALL (       1 calls)

     Called by electrons:
     c_bands      :    532.21s CPU    538.91s WALL (      47 calls)
     sum_band     :    102.97s CPU    117.29s WALL (      47 calls)
     v_of_rho     :      5.16s CPU      5.52s WALL (      48 calls)
     v_h          :      0.44s CPU      0.45s WALL (      48 calls)
     v_xc         :      4.72s CPU      5.07s WALL (      48 calls)
     newd         :     15.76s CPU     26.66s WALL (      48 calls)
     PAW_pot      :      1.52s CPU      1.56s WALL (      48 calls)
     mix_rho      :     12.02s CPU     12.38s WALL (      47 calls)

     Called by c_bands:
     init_us_2    :      6.60s CPU      6.66s WALL (     475 calls)
     init_us_2:cp :      6.59s CPU      6.66s WALL (     475 calls)
     cegterg      :    499.52s CPU    505.95s WALL (     235 calls)

     Called by sum_band:
     sum_band:wei :      0.34s CPU      0.34s WALL (      47 calls)
     sum_band:loo :     86.41s CPU     87.15s WALL (      47 calls)
     sum_band:buf :      1.36s CPU      1.46s WALL (     235 calls)
     sum_band:ini :      3.08s CPU      3.10s WALL (     235 calls)
     sum_band:cal :     18.79s CPU     18.85s WALL (     235 calls)
     sum_band:bec :      0.52s CPU      0.53s WALL (     235 calls)
     addusdens    :     14.94s CPU     28.45s WALL (      47 calls)
                                        0.00s GPU  (      47 calls)
     addusd:skk   :      0.25s CPU      0.93s WALL (     141 calls)
                                        0.00s GPU  (     141 calls)

     Called by *egterg:
     cdiaghg      :     52.03s CPU     52.28s WALL (    1217 calls)
     cegterg:over :     36.85s CPU     37.01s WALL (     982 calls)
     cegterg:upda :     26.69s CPU     27.19s WALL (     982 calls)
     cegterg:last :     53.59s CPU     53.83s WALL (     413 calls)
     cdiaghg:chol :      2.92s CPU      2.94s WALL (    1217 calls)
     cdiaghg:inve :      2.69s CPU      2.70s WALL (    1217 calls)
     cdiaghg:para :      6.75s CPU      6.79s WALL (    2434 calls)
     h_psi        :    277.90s CPU    281.01s WALL (    1222 calls)
     s_psi        :     37.69s CPU     37.87s WALL (    1222 calls)
     g_psi        :      0.98s CPU      0.98s WALL (     982 calls)

     Called by h_psi:
     h_psi:calbec :     42.97s CPU     43.19s WALL (    1222 calls)
     vloc_psi     :    194.75s CPU    196.76s WALL (    1222 calls)
     add_vuspsi   :     37.51s CPU     37.69s WALL (    1222 calls)

     General routines
     calbec       :     61.75s CPU     62.04s WALL (    1457 calls)
     fft          :      3.61s CPU      3.66s WALL (     622 calls)
     ffts         :      4.45s CPU      4.49s WALL (    5049 calls)
     fftw         :    170.09s CPU    171.60s WALL (  315748 calls)
     interpolate  :      0.40s CPU      0.40s WALL (      48 calls)
 
     Parallel routines

     PAW routines
     PAW_pot      :      1.52s CPU      1.56s WALL (      48 calls)
 
     PWSCF        :  11m19.47s CPU  11m56.55s WALL

 
   This run was terminated on:  21:39:16  21Jun2024            

=------------------------------------------------------------------------------=
   JOB DONE.
=------------------------------------------------------------------------------=
