
     Program PWSCF v.7.2 starts on 21Jun2024 at 19:50:34 

     This program is part of the open-source Quantum ESPRESSO suite
     for quantum simulation of materials; please cite
         "P. Giannozzi et al., J. Phys.:Condens. Matter 21 395502 (2009);
         "P. Giannozzi et al., J. Phys.:Condens. Matter 29 465901 (2017);
         "P. Giannozzi et al., J. Chem. Phys. 152 154105 (2020);
          URL http://www.quantum-espresso.org", 
     in publications or presentations arising from this work. More details at
     http://www.quantum-espresso.org/quote

     Parallel version (MPI & OpenMP), running on      48 processor cores
     Number of MPI processes:                48
     Threads/MPI process:                     1

     MPI processes distributed on     1 nodes
     180144 MiB available memory on the printing compute node when the environment starts
 
     Reading input from espresso.pwi
Warning: card &CELL ignored
Warning: card / ignored
Warning: card &FCP ignored
Warning: card / ignored
Warning: card &RISM ignored
Warning: card / ignored

     Current dimensions of program PWSCF are:
     Max number of different atomic species (ntypx) = 10
     Max number of k-points (npk) =  40000
     Max angular momentum in pseudopotentials (lmaxx) =  4
     file O.pbe-n-kjpaw_psl.0.1.UPF: wavefunction(s)  2P renormalized
     signal trapping enabled: kill the code with -SIGUSR1 to stop cleanly the simulation 
 
     K-points division:     npool     =       2
     R & G space division:  proc/nbgrp/npool/nimage =      24
     Subspace diagonalization in iterative solution of the eigenvalue problem:
     one sub-group per band group will be used
     scalapack distributed-memory algorithm (size of sub-group:  3*  3 procs)

 
     Parallelization info
     --------------------
     sticks:   dense  smooth     PW     G-vecs:    dense   smooth      PW
     Min         350     175     47                61430    21716    3036
     Max         351     177     48                61449    21727    3041
     Sum        8421    4205   1137              1474595   521381   72913
 
     Using Slab Decomposition
 


     bravais-lattice index     =            0
     lattice parameter (alat)  =      14.8599  a.u.
     unit-cell volume          =    8305.1283 (a.u.)^3
     number of atoms/cell      =           49
     number of atomic types    =            4
     number of electrons       =       425.00
     number of Kohn-Sham states=          256
     kinetic-energy cutoff     =      60.0000  Ry
     charge density cutoff     =     480.0000  Ry
     scf convergence threshold =      1.0E-08
     mixing beta               =       0.1500
     number of iterations used =            8  local-TF  mixing
     Exchange-correlation= PBE
                           (   1   4   3   4   0   0   0)

     celldm(1)=  14.859904  celldm(2)=   0.000000  celldm(3)=   0.000000
     celldm(4)=   0.000000  celldm(5)=   0.000000  celldm(6)=   0.000000

     crystal axes: (cart. coord. in units of alat)
               a(1) = (   1.000000   0.000000   0.000000 )  
               a(2) = (   0.000000   1.000000   0.000000 )  
               a(3) = (   0.000000   0.000000   2.531036 )  

     reciprocal axes: (cart. coord. in units 2 pi/alat)
               b(1) = (  1.000000  0.000000  0.000000 )  
               b(2) = (  0.000000  1.000000  0.000000 )  
               b(3) = (  0.000000  0.000000  0.395095 )  


     PseudoPot. # 1 for Sr read from file:
     /bsuhome/zayahcortright/q-e/pseudo/Sr_pbe_v1.uspp.F.UPF
     MD5 check sum: 6b418c05fbe9db5448babca5e47b7a5b
     Pseudo is Ultrasoft + core correction, Zval = 10.0
     Generated by new atomic code, or converted to UPF format
     Using radial grid of  883 points,  6 beta functions with: 
                l(1) =   0
                l(2) =   0
                l(3) =   1
                l(4) =   1
                l(5) =   2
                l(6) =   2
     Q(r) pseudized with  6 coefficients,  rinner =    1.400   1.400   1.400
                                                       1.400   1.400

     PseudoPot. # 2 for O  read from file:
     /bsuhome/zayahcortright/q-e/pseudo/O.pbe-n-kjpaw_psl.0.1.UPF
     MD5 check sum: 0234752ac141de4415c5fc33072bef88
     Pseudo is Projector augmented-wave + core cor, Zval =  6.0
     Generated using "atomic" code by A. Dal Corso  v.5.0.99 svn rev. 10869
     Shape of augmentation charge: BESSEL
     Using radial grid of 1095 points,  4 beta functions with: 
                l(1) =   0
                l(2) =   0
                l(3) =   1
                l(4) =   1
     Q(r) pseudized with 0 coefficients 


     PseudoPot. # 3 for Co read from file:
     /bsuhome/zayahcortright/q-e/pseudo/Co_pbe_v1.2.uspp.F.UPF
     MD5 check sum: 5f91765df6ddd3222702df6e7b74a16d
     Pseudo is Ultrasoft + core correction, Zval = 17.0
     Generated by new atomic code, or converted to UPF format
     Using radial grid of  863 points,  6 beta functions with: 
                l(1) =   0
                l(2) =   0
                l(3) =   1
                l(4) =   1
                l(5) =   2
                l(6) =   2
     Q(r) pseudized with  8 coefficients,  rinner =    1.200   1.200   1.200
                                                       1.200   1.200

     PseudoPot. # 4 for H  read from file:
     /bsuhome/zayahcortright/q-e/pseudo/H.pbe-rrkjus_psl.1.0.0.UPF
     MD5 check sum: f52b6d4d1c606e5624b1dc7b2218f220
     Pseudo is Ultrasoft, Zval =  1.0
     Generated using "atomic" code by A. Dal Corso  v.5.1
     Using radial grid of  929 points,  2 beta functions with: 
                l(1) =   0
                l(2) =   0
     Q(r) pseudized with 0 coefficients 


     atomic species   valence    mass     pseudopotential
        Sr            10.00    87.62000     Sr( 1.00)
        O              6.00    15.99900     O ( 1.00)
        Co            17.00    58.93319     Co( 1.00)
        H              1.00     1.00800     H ( 1.00)

     No symmetry found


                                    s                        frac. trans.

      isym =  1     identity                                     

 cryst.   s( 1) = (     1          0          0      )
                  (     0          1          0      )
                  (     0          0          1      )

 cart.    s( 1) = (  1.0000000  0.0000000  0.0000000 )
                  (  0.0000000  1.0000000  0.0000000 )
                  (  0.0000000  0.0000000  1.0000000 )


   Cartesian axes

     site n.     atom                  positions (alat units)
         1           Sr  tau(   1) = (   0.2508693   0.7491307   1.7574407  )
         2           O   tau(   2) = (   0.4985141   0.5014859   1.7715967  )
         3           Sr  tau(   3) = (   0.7482398   0.7454518   1.7648669  )
         4           Sr  tau(   4) = (   0.7441748   0.2558252   1.7667843  )
         5           Sr  tau(   5) = (   0.2508693   0.7491307   1.2696799  )
         6           Sr  tau(   6) = (   0.2508693   0.7491307   0.7632319  )
         7           Co  tau(   7) = (   0.4998914   0.5001086   1.0164559  )
         8           Co  tau(   8) = (   0.4936915   0.5063085   1.5135603  )
         9           O   tau(   9) = (   0.4988895   0.7610401   1.0164559  )
        10           O   tau(  10) = (   0.2389599   0.5011105   1.0164559  )
        11           O   tau(  11) = (   0.0070918   0.7374880   1.0164559  )
        12           O   tau(  12) = (   0.0088340   0.7405089   1.5135603  )
        13           O   tau(  13) = (   0.5066944   0.7415376   1.5135603  )
        14           O   tau(  14) = (   0.2584624   0.4933056   1.5135603  )
        15           O   tau(  15) = (   0.4985141   0.5014859   0.7773880  )
        16           O   tau(  16) = (   0.4985141   0.5014859   1.2555238  )
        17           Sr  tau(  17) = (   0.7482398   0.7454518   0.7706582  )
        18           Sr  tau(  18) = (   0.7482398   0.7454518   1.2622536  )
        19           Sr  tau(  19) = (   0.7441748   0.2558252   0.7725755  )
        20           Sr  tau(  20) = (   0.7441748   0.2558252   1.2603363  )
        21           O   tau(  21) = (   0.7322655   0.0078049   1.5135603  )
        22           O   tau(  22) = (   0.7558175   0.4996027   1.5135603  )
        23           O   tau(  23) = (   0.5003973   0.2441825   1.5135603  )
        24           O   tau(  24) = (   0.7527966   0.4978604   1.0164559  )
        25           O   tau(  25) = (   0.5021396   0.2472034   1.0164559  )
        26           O   tau(  26) = (   0.7517679   0.0000000   1.0164559  )
        27           O   tau(  27) = (   0.0114961   0.4948124   1.7455321  )
        28           O   tau(  28) = (   0.0048226   0.0077944   1.7715967  )
        29           Sr  tau(  29) = (   0.2545482   0.2517602   1.7648669  )
        30           O   tau(  30) = (   0.5048017   0.0015068   1.7786929  )
        31           Co  tau(  31) = (   0.0056869   0.5006215   1.0164559  )
        32           Co  tau(  32) = (   0.0065315   0.4997770   1.5135603  )
        33           Co  tau(  33) = (   0.0061999   0.0064171   1.0164559  )
        34           Co  tau(  34) = (   0.0000000   0.0126169   1.5135603  )
        35           O   tau(  35) = (   0.0114961   0.4948124   1.2815885  )
        36           O   tau(  36) = (   0.0114961   0.4948124   0.7513233  )
        37           O   tau(  37) = (   0.0051979   0.2673486   1.0164559  )
        38           O   tau(  38) = (   0.0130029   0.2478461   1.5135603  )
        39           O   tau(  39) = (   0.0048226   0.0077944   0.7773880  )
        40           O   tau(  40) = (   0.0048226   0.0077944   1.2555238  )
        41           Sr  tau(  41) = (   0.2545482   0.2517602   0.7706582  )
        42           Sr  tau(  42) = (   0.2545482   0.2517602   1.2622536  )
        43           Co  tau(  43) = (   0.4989925   0.0073160   1.5135603  )
        44           Co  tau(  44) = (   0.4998370   0.0064714   1.0164559  )
        45           O   tau(  45) = (   0.5048017   0.0015068   0.7844841  )
        46           O   tau(  46) = (   0.5048017   0.0015068   1.2484277  )
        47           O   tau(  47) = (   0.2621260   0.0059111   1.5135603  )
        48           O   tau(  48) = (   0.2591051   0.0041689   1.0164559  )
        49           H   tau(  49) = (   0.5686583   0.9951520   2.1602013  )

   Crystallographic axes

     site n.     atom                  positions (cryst. coord.)
         1           Sr  tau(   1) = (  0.2508693  0.7491307  0.6943562  )
         2           O   tau(   2) = (  0.4985141  0.5014859  0.6999492  )
         3           Sr  tau(   3) = (  0.7482398  0.7454518  0.6972903  )
         4           Sr  tau(   4) = (  0.7441748  0.2558252  0.6980478  )
         5           Sr  tau(   5) = (  0.2508693  0.7491307  0.5016443  )
         6           Sr  tau(   6) = (  0.2508693  0.7491307  0.3015492  )
         7           Co  tau(   7) = (  0.4998914  0.5001086  0.4015968  )
         8           Co  tau(   8) = (  0.4936915  0.5063085  0.5980003  )
         9           O   tau(   9) = (  0.4988895  0.7610401  0.4015968  )
        10           O   tau(  10) = (  0.2389599  0.5011105  0.4015968  )
        11           O   tau(  11) = (  0.0070918  0.7374880  0.4015968  )
        12           O   tau(  12) = (  0.0088340  0.7405089  0.5980003  )
        13           O   tau(  13) = (  0.5066944  0.7415376  0.5980003  )
        14           O   tau(  14) = (  0.2584624  0.4933056  0.5980003  )
        15           O   tau(  15) = (  0.4985141  0.5014859  0.3071422  )
        16           O   tau(  16) = (  0.4985141  0.5014859  0.4960513  )
        17           Sr  tau(  17) = (  0.7482398  0.7454518  0.3044833  )
        18           Sr  tau(  18) = (  0.7482398  0.7454518  0.4987103  )
        19           Sr  tau(  19) = (  0.7441748  0.2558252  0.3052408  )
        20           Sr  tau(  20) = (  0.7441748  0.2558252  0.4979527  )
        21           O   tau(  21) = (  0.7322655  0.0078049  0.5980003  )
        22           O   tau(  22) = (  0.7558175  0.4996027  0.5980003  )
        23           O   tau(  23) = (  0.5003973  0.2441825  0.5980003  )
        24           O   tau(  24) = (  0.7527966  0.4978604  0.4015968  )
        25           O   tau(  25) = (  0.5021396  0.2472034  0.4015968  )
        26           O   tau(  26) = (  0.7517679  0.0000000  0.4015968  )
        27           O   tau(  27) = (  0.0114961  0.4948124  0.6896512  )
        28           O   tau(  28) = (  0.0048226  0.0077944  0.6999492  )
        29           Sr  tau(  29) = (  0.2545482  0.2517602  0.6972903  )
        30           O   tau(  30) = (  0.5048017  0.0015068  0.7027529  )
        31           Co  tau(  31) = (  0.0056869  0.5006215  0.4015968  )
        32           Co  tau(  32) = (  0.0065315  0.4997770  0.5980003  )
        33           Co  tau(  33) = (  0.0061999  0.0064171  0.4015968  )
        34           Co  tau(  34) = (  0.0000000  0.0126169  0.5980003  )
        35           O   tau(  35) = (  0.0114961  0.4948124  0.5063494  )
        36           O   tau(  36) = (  0.0114961  0.4948124  0.2968442  )
        37           O   tau(  37) = (  0.0051979  0.2673486  0.4015968  )
        38           O   tau(  38) = (  0.0130029  0.2478461  0.5980003  )
        39           O   tau(  39) = (  0.0048226  0.0077944  0.3071422  )
        40           O   tau(  40) = (  0.0048226  0.0077944  0.4960513  )
        41           Sr  tau(  41) = (  0.2545482  0.2517602  0.3044833  )
        42           Sr  tau(  42) = (  0.2545482  0.2517602  0.4987103  )
        43           Co  tau(  43) = (  0.4989925  0.0073160  0.5980003  )
        44           Co  tau(  44) = (  0.4998370  0.0064714  0.4015968  )
        45           O   tau(  45) = (  0.5048017  0.0015068  0.3099459  )
        46           O   tau(  46) = (  0.5048017  0.0015068  0.4932477  )
        47           O   tau(  47) = (  0.2621260  0.0059111  0.5980003  )
        48           O   tau(  48) = (  0.2591051  0.0041689  0.4015968  )
        49           H   tau(  49) = (  0.5686583  0.9951520  0.8534850  )

     number of k points=    10  Gaussian smearing, width (Ry)=  0.0700
                       cart. coord. in units 2pi/alat
        k(    1) = (   0.0000000   0.0000000   0.0000000), wk =   0.1250000
        k(    2) = (   0.0000000   0.2500000   0.0000000), wk =   0.2500000
        k(    3) = (   0.0000000  -0.5000000   0.0000000), wk =   0.1250000
        k(    4) = (   0.2500000   0.2500000   0.0000000), wk =   0.2500000
        k(    5) = (   0.2500000  -0.5000000   0.0000000), wk =   0.2500000
        k(    6) = (  -0.5000000  -0.5000000   0.0000000), wk =   0.1250000
        k(    7) = (   0.2500000   0.0000000   0.0000000), wk =   0.2500000
        k(    8) = (  -0.5000000   0.0000000   0.0000000), wk =   0.1250000
        k(    9) = (  -0.2500000   0.2500000   0.0000000), wk =   0.2500000
        k(   10) = (  -0.5000000   0.2500000   0.0000000), wk =   0.2500000

                       cryst. coord.
        k(    1) = (   0.0000000   0.0000000   0.0000000), wk =   0.1250000
        k(    2) = (   0.0000000   0.2500000   0.0000000), wk =   0.2500000
        k(    3) = (   0.0000000  -0.5000000   0.0000000), wk =   0.1250000
        k(    4) = (   0.2500000   0.2500000   0.0000000), wk =   0.2500000
        k(    5) = (   0.2500000  -0.5000000   0.0000000), wk =   0.2500000
        k(    6) = (  -0.5000000  -0.5000000   0.0000000), wk =   0.1250000
        k(    7) = (   0.2500000   0.0000000   0.0000000), wk =   0.2500000
        k(    8) = (  -0.5000000   0.0000000   0.0000000), wk =   0.1250000
        k(    9) = (  -0.2500000   0.2500000   0.0000000), wk =   0.2500000
        k(   10) = (  -0.5000000   0.2500000   0.0000000), wk =   0.2500000

     Dense  grid:  1474595 G-vectors     FFT dimensions: ( 108, 108, 270)

     Smooth grid:   521381 G-vectors     FFT dimensions: (  75,  75, 192)

     Dynamical RAM for                 wfc:      10.61 MB

     Dynamical RAM for     wfc (w. buffer):      63.63 MB

     Dynamical RAM for           str. fact:       3.75 MB

     Dynamical RAM for           local pot:       0.00 MB

     Dynamical RAM for          nlocal pot:      24.28 MB

     Dynamical RAM for                qrad:       7.03 MB

     Dynamical RAM for          rho,v,vnew:       6.02 MB

     Dynamical RAM for               rhoin:       2.01 MB

     Dynamical RAM for            rho*nmix:      15.00 MB

     Dynamical RAM for           G-vectors:       3.68 MB

     Dynamical RAM for          h,s,v(r/c):       1.32 MB

     Dynamical RAM for          <psi|beta>:       2.29 MB

     Dynamical RAM for                 psi:      21.21 MB

     Dynamical RAM for                hpsi:      21.21 MB

     Dynamical RAM for                spsi:      21.21 MB

     Dynamical RAM for      wfcinit/wfcrot:      34.09 MB

     Dynamical RAM for           addusdens:     100.79 MB

     Estimated static dynamical RAM per process >     120.42 MB

     Estimated max dynamical RAM per process >     236.21 MB

     Estimated total dynamical RAM >      10.72 GB

     Check: negative core charge=   -0.000004

     Initial potential from superposition of free atoms

     starting charge     416.5961, renormalised to     425.0000

     negative rho (up, down):  7.827E-01 0.000E+00
     Starting wfcs are  373 randomized atomic wfcs
     Checking if some PAW data can be deallocated... 
       PAW data deallocated on   20 nodes for type:  2

     total cpu time spent up to now is        8.8 secs

     Self-consistent Calculation

     iteration #  1     ecut=    60.00 Ry     beta= 0.15
     Davidson diagonalization with overlap

---- Real-time Memory Report at c_bands before calling an iterative solver
             0 MiB given to the printing process from OS
             0 MiB allocation reported by mallinfo(arena+hblkhd)
        170486 MiB available memory on the node where the printing process lives
------------------
     ethr =  1.00E-02,  avg # of iterations =  2.0

     negative rho (up, down):  7.717E-01 0.000E+00

     total cpu time spent up to now is       23.9 secs

     total energy              =   -4404.75545628 Ry
     estimated scf accuracy    <      42.15823929 Ry

     iteration #  2     ecut=    60.00 Ry     beta= 0.15
     Davidson diagonalization with overlap

---- Real-time Memory Report at c_bands before calling an iterative solver
             0 MiB given to the printing process from OS
             0 MiB allocation reported by mallinfo(arena+hblkhd)
        170685 MiB available memory on the node where the printing process lives
------------------
     ethr =  9.92E-03,  avg # of iterations =  1.0

     negative rho (up, down):  7.531E-01 0.000E+00

     total cpu time spent up to now is       36.2 secs

     total energy              =   -4400.02890114 Ry
     estimated scf accuracy    <      26.58691485 Ry

     iteration #  3     ecut=    60.00 Ry     beta= 0.15
     Davidson diagonalization with overlap

---- Real-time Memory Report at c_bands before calling an iterative solver
             0 MiB given to the printing process from OS
             0 MiB allocation reported by mallinfo(arena+hblkhd)
        169895 MiB available memory on the node where the printing process lives
------------------
     ethr =  6.26E-03,  avg # of iterations =  2.0

     negative rho (up, down):  7.544E-01 0.000E+00

     total cpu time spent up to now is       49.9 secs

     total energy              =   -4402.40194944 Ry
     estimated scf accuracy    <      49.45116827 Ry

     iteration #  4     ecut=    60.00 Ry     beta= 0.15
     Davidson diagonalization with overlap

---- Real-time Memory Report at c_bands before calling an iterative solver
             0 MiB given to the printing process from OS
             0 MiB allocation reported by mallinfo(arena+hblkhd)
        169825 MiB available memory on the node where the printing process lives
------------------
     ethr =  6.26E-03,  avg # of iterations =  1.0

     negative rho (up, down):  7.410E-01 0.000E+00

     total cpu time spent up to now is       61.8 secs

     total energy              =   -4401.67493534 Ry
     estimated scf accuracy    <      29.67929879 Ry

     iteration #  5     ecut=    60.00 Ry     beta= 0.15
     Davidson diagonalization with overlap

---- Real-time Memory Report at c_bands before calling an iterative solver
             0 MiB given to the printing process from OS
             0 MiB allocation reported by mallinfo(arena+hblkhd)
        169811 MiB available memory on the node where the printing process lives
------------------
     ethr =  6.26E-03,  avg # of iterations =  1.0

     negative rho (up, down):  7.468E-01 0.000E+00

     total cpu time spent up to now is       73.9 secs

     total energy              =   -4399.98453068 Ry
     estimated scf accuracy    <      44.47951942 Ry

     iteration #  6     ecut=    60.00 Ry     beta= 0.15
     Davidson diagonalization with overlap

---- Real-time Memory Report at c_bands before calling an iterative solver
             0 MiB given to the printing process from OS
             0 MiB allocation reported by mallinfo(arena+hblkhd)
        169793 MiB available memory on the node where the printing process lives
------------------
     ethr =  6.26E-03,  avg # of iterations =  1.0

     negative rho (up, down):  7.421E-01 0.000E+00

     total cpu time spent up to now is       86.2 secs

     total energy              =   -4400.68209924 Ry
     estimated scf accuracy    <      11.75078411 Ry

     iteration #  7     ecut=    60.00 Ry     beta= 0.15
     Davidson diagonalization with overlap

---- Real-time Memory Report at c_bands before calling an iterative solver
             0 MiB given to the printing process from OS
             0 MiB allocation reported by mallinfo(arena+hblkhd)
        169773 MiB available memory on the node where the printing process lives
------------------
     ethr =  2.76E-03,  avg # of iterations =  1.1

     negative rho (up, down):  7.444E-01 0.000E+00

     total cpu time spent up to now is       98.4 secs

     total energy              =   -4400.77898624 Ry
     estimated scf accuracy    <       4.35446719 Ry

     iteration #  8     ecut=    60.00 Ry     beta= 0.15
     Davidson diagonalization with overlap

---- Real-time Memory Report at c_bands before calling an iterative solver
             0 MiB given to the printing process from OS
             0 MiB allocation reported by mallinfo(arena+hblkhd)
        169756 MiB available memory on the node where the printing process lives
------------------
     ethr =  1.02E-03,  avg # of iterations =  1.5

     negative rho (up, down):  7.527E-01 0.000E+00

     total cpu time spent up to now is      110.9 secs

     total energy              =   -4400.39457667 Ry
     estimated scf accuracy    <       4.11210192 Ry

     iteration #  9     ecut=    60.00 Ry     beta= 0.15
     Davidson diagonalization with overlap

---- Real-time Memory Report at c_bands before calling an iterative solver
             0 MiB given to the printing process from OS
             0 MiB allocation reported by mallinfo(arena+hblkhd)
        169717 MiB available memory on the node where the printing process lives
------------------
     ethr =  9.68E-04,  avg # of iterations =  2.5

     negative rho (up, down):  7.767E-01 0.000E+00

     total cpu time spent up to now is      124.8 secs

     total energy              =   -4399.93766717 Ry
     estimated scf accuracy    <      35.51602225 Ry

     iteration # 10     ecut=    60.00 Ry     beta= 0.15
     Davidson diagonalization with overlap

---- Real-time Memory Report at c_bands before calling an iterative solver
             0 MiB given to the printing process from OS
             0 MiB allocation reported by mallinfo(arena+hblkhd)
        169660 MiB available memory on the node where the printing process lives
------------------
     ethr =  9.68E-04,  avg # of iterations =  9.4

     negative rho (up, down):  7.792E-01 0.000E+00

     total cpu time spent up to now is      142.6 secs

     total energy              =   -4399.78625319 Ry
     estimated scf accuracy    <      11.85078882 Ry

     iteration # 11     ecut=    60.00 Ry     beta= 0.15
     Davidson diagonalization with overlap

---- Real-time Memory Report at c_bands before calling an iterative solver
             0 MiB given to the printing process from OS
             0 MiB allocation reported by mallinfo(arena+hblkhd)
        169317 MiB available memory on the node where the printing process lives
------------------
     ethr =  9.68E-04,  avg # of iterations =  1.4

     negative rho (up, down):  7.812E-01 0.000E+00

     total cpu time spent up to now is      155.2 secs

     total energy              =   -4400.12737248 Ry
     estimated scf accuracy    <       0.99573085 Ry

     iteration # 12     ecut=    60.00 Ry     beta= 0.15
     Davidson diagonalization with overlap

---- Real-time Memory Report at c_bands before calling an iterative solver
             0 MiB given to the printing process from OS
             0 MiB allocation reported by mallinfo(arena+hblkhd)
        169315 MiB available memory on the node where the printing process lives
------------------
     ethr =  2.34E-04,  avg # of iterations =  6.6

     negative rho (up, down):  7.924E-01 0.000E+00

     total cpu time spent up to now is      170.9 secs

     total energy              =   -4400.05648056 Ry
     estimated scf accuracy    <       0.77328420 Ry

     iteration # 13     ecut=    60.00 Ry     beta= 0.15
     Davidson diagonalization with overlap

---- Real-time Memory Report at c_bands before calling an iterative solver
             0 MiB given to the printing process from OS
             0 MiB allocation reported by mallinfo(arena+hblkhd)
        169252 MiB available memory on the node where the printing process lives
------------------
     ethr =  1.82E-04,  avg # of iterations =  2.5

     negative rho (up, down):  8.000E-01 0.000E+00

     total cpu time spent up to now is      184.3 secs

     total energy              =   -4400.07458254 Ry
     estimated scf accuracy    <       1.07857471 Ry

     iteration # 14     ecut=    60.00 Ry     beta= 0.15
     Davidson diagonalization with overlap

---- Real-time Memory Report at c_bands before calling an iterative solver
             0 MiB given to the printing process from OS
             0 MiB allocation reported by mallinfo(arena+hblkhd)
        169259 MiB available memory on the node where the printing process lives
------------------
     c_bands:  1 eigenvalues not converged
     ethr =  1.82E-04,  avg # of iterations =  8.0

     negative rho (up, down):  8.047E-01 0.000E+00

     total cpu time spent up to now is      200.1 secs

     total energy              =   -4400.01945541 Ry
     estimated scf accuracy    <       1.33840375 Ry

     iteration # 15     ecut=    60.00 Ry     beta= 0.15
     Davidson diagonalization with overlap

---- Real-time Memory Report at c_bands before calling an iterative solver
             0 MiB given to the printing process from OS
             0 MiB allocation reported by mallinfo(arena+hblkhd)
        169292 MiB available memory on the node where the printing process lives
------------------
     ethr =  1.82E-04,  avg # of iterations =  4.7

     negative rho (up, down):  8.062E-01 0.000E+00

     total cpu time spent up to now is      214.8 secs

     total energy              =   -4400.04046626 Ry
     estimated scf accuracy    <       0.49966283 Ry

     iteration # 16     ecut=    60.00 Ry     beta= 0.15
     Davidson diagonalization with overlap

---- Real-time Memory Report at c_bands before calling an iterative solver
             0 MiB given to the printing process from OS
             0 MiB allocation reported by mallinfo(arena+hblkhd)
        169266 MiB available memory on the node where the printing process lives
------------------
     ethr =  1.18E-04,  avg # of iterations =  1.3

     negative rho (up, down):  8.086E-01 0.000E+00

     total cpu time spent up to now is      227.5 secs

     total energy              =   -4399.99436857 Ry
     estimated scf accuracy    <       0.31788456 Ry

     iteration # 17     ecut=    60.00 Ry     beta= 0.15
     Davidson diagonalization with overlap

---- Real-time Memory Report at c_bands before calling an iterative solver
             0 MiB given to the printing process from OS
             0 MiB allocation reported by mallinfo(arena+hblkhd)
        169270 MiB available memory on the node where the printing process lives
------------------
     ethr =  7.48E-05,  avg # of iterations =  5.8

     negative rho (up, down):  8.137E-01 0.000E+00

     total cpu time spent up to now is      242.4 secs

     total energy              =   -4399.95464900 Ry
     estimated scf accuracy    <       0.84777971 Ry

     iteration # 18     ecut=    60.00 Ry     beta= 0.15
     Davidson diagonalization with overlap

---- Real-time Memory Report at c_bands before calling an iterative solver
             0 MiB given to the printing process from OS
             0 MiB allocation reported by mallinfo(arena+hblkhd)
        169241 MiB available memory on the node where the printing process lives
------------------
     ethr =  7.48E-05,  avg # of iterations = 10.6

     negative rho (up, down):  8.247E-01 0.000E+00

     total cpu time spent up to now is      259.7 secs

     total energy              =   -4399.93734177 Ry
     estimated scf accuracy    <       0.22491082 Ry

     iteration # 19     ecut=    60.00 Ry     beta= 0.15
     Davidson diagonalization with overlap

---- Real-time Memory Report at c_bands before calling an iterative solver
             0 MiB given to the printing process from OS
             0 MiB allocation reported by mallinfo(arena+hblkhd)
        169212 MiB available memory on the node where the printing process lives
------------------
     ethr =  5.29E-05,  avg # of iterations =  7.9

     negative rho (up, down):  8.291E-01 0.000E+00

     total cpu time spent up to now is      276.4 secs

     total energy              =   -4399.93369404 Ry
     estimated scf accuracy    <       0.10692535 Ry

     iteration # 20     ecut=    60.00 Ry     beta= 0.15
     Davidson diagonalization with overlap

---- Real-time Memory Report at c_bands before calling an iterative solver
             0 MiB given to the printing process from OS
             0 MiB allocation reported by mallinfo(arena+hblkhd)
        169205 MiB available memory on the node where the printing process lives
------------------
     ethr =  2.52E-05,  avg # of iterations =  6.7

     negative rho (up, down):  8.294E-01 0.000E+00

     total cpu time spent up to now is      292.3 secs

     total energy              =   -4399.92426145 Ry
     estimated scf accuracy    <       0.08224879 Ry

     iteration # 21     ecut=    60.00 Ry     beta= 0.15
     Davidson diagonalization with overlap

---- Real-time Memory Report at c_bands before calling an iterative solver
             0 MiB given to the printing process from OS
             0 MiB allocation reported by mallinfo(arena+hblkhd)
        169180 MiB available memory on the node where the printing process lives
------------------
     ethr =  1.94E-05,  avg # of iterations =  7.7

     negative rho (up, down):  8.105E-01 0.000E+00

     total cpu time spent up to now is      308.4 secs

     total energy              =   -4399.92171842 Ry
     estimated scf accuracy    <       0.05840251 Ry

     iteration # 22     ecut=    60.00 Ry     beta= 0.15
     Davidson diagonalization with overlap

---- Real-time Memory Report at c_bands before calling an iterative solver
             0 MiB given to the printing process from OS
             0 MiB allocation reported by mallinfo(arena+hblkhd)
        169116 MiB available memory on the node where the printing process lives
------------------
     ethr =  1.37E-05,  avg # of iterations =  2.0

     negative rho (up, down):  7.979E-01 0.000E+00

     total cpu time spent up to now is      322.0 secs

     total energy              =   -4399.91187063 Ry
     estimated scf accuracy    <       0.04608950 Ry

     iteration # 23     ecut=    60.00 Ry     beta= 0.15
     Davidson diagonalization with overlap

---- Real-time Memory Report at c_bands before calling an iterative solver
             0 MiB given to the printing process from OS
             0 MiB allocation reported by mallinfo(arena+hblkhd)
        169138 MiB available memory on the node where the printing process lives
------------------
     ethr =  1.08E-05,  avg # of iterations = 10.6

     negative rho (up, down):  8.035E-01 0.000E+00

     total cpu time spent up to now is      340.1 secs

     total energy              =   -4399.91183923 Ry
     estimated scf accuracy    <       0.01936488 Ry

     iteration # 24     ecut=    60.00 Ry     beta= 0.15
     Davidson diagonalization with overlap

---- Real-time Memory Report at c_bands before calling an iterative solver
             0 MiB given to the printing process from OS
             0 MiB allocation reported by mallinfo(arena+hblkhd)
        169088 MiB available memory on the node where the printing process lives
------------------
     ethr =  4.56E-06,  avg # of iterations =  7.5

     negative rho (up, down):  7.998E-01 0.000E+00

     total cpu time spent up to now is      356.3 secs

     total energy              =   -4399.91163549 Ry
     estimated scf accuracy    <       0.01356875 Ry

     iteration # 25     ecut=    60.00 Ry     beta= 0.15
     Davidson diagonalization with overlap

---- Real-time Memory Report at c_bands before calling an iterative solver
             0 MiB given to the printing process from OS
             0 MiB allocation reported by mallinfo(arena+hblkhd)
        169089 MiB available memory on the node where the printing process lives
------------------
     ethr =  3.19E-06,  avg # of iterations =  3.8

     negative rho (up, down):  7.933E-01 0.000E+00

     total cpu time spent up to now is      370.8 secs

     total energy              =   -4399.91033454 Ry
     estimated scf accuracy    <       0.01118294 Ry

     iteration # 26     ecut=    60.00 Ry     beta= 0.15
     Davidson diagonalization with overlap

---- Real-time Memory Report at c_bands before calling an iterative solver
             0 MiB given to the printing process from OS
             0 MiB allocation reported by mallinfo(arena+hblkhd)
        169093 MiB available memory on the node where the printing process lives
------------------
     ethr =  2.63E-06,  avg # of iterations =  3.5

     negative rho (up, down):  7.948E-01 0.000E+00

     total cpu time spent up to now is      385.2 secs

     total energy              =   -4399.90957304 Ry
     estimated scf accuracy    <       0.00727286 Ry

     iteration # 27     ecut=    60.00 Ry     beta= 0.15
     Davidson diagonalization with overlap

---- Real-time Memory Report at c_bands before calling an iterative solver
             0 MiB given to the printing process from OS
             0 MiB allocation reported by mallinfo(arena+hblkhd)
        169140 MiB available memory on the node where the printing process lives
------------------
     ethr =  1.71E-06,  avg # of iterations = 14.1

     negative rho (up, down):  7.982E-01 0.000E+00

     total cpu time spent up to now is      405.0 secs

     total energy              =   -4399.90963085 Ry
     estimated scf accuracy    <       0.00317462 Ry

     iteration # 28     ecut=    60.00 Ry     beta= 0.15
     Davidson diagonalization with overlap

---- Real-time Memory Report at c_bands before calling an iterative solver
             0 MiB given to the printing process from OS
             0 MiB allocation reported by mallinfo(arena+hblkhd)
        169089 MiB available memory on the node where the printing process lives
------------------
     c_bands:  1 eigenvalues not converged
     c_bands:  1 eigenvalues not converged
     c_bands:  1 eigenvalues not converged
     ethr =  7.47E-07,  avg # of iterations = 13.5

     negative rho (up, down):  7.962E-01 0.000E+00

     total cpu time spent up to now is      424.5 secs

     total energy              =   -4399.90960616 Ry
     estimated scf accuracy    <       0.00082074 Ry

     iteration # 29     ecut=    60.00 Ry     beta= 0.15
     Davidson diagonalization with overlap

---- Real-time Memory Report at c_bands before calling an iterative solver
             0 MiB given to the printing process from OS
             0 MiB allocation reported by mallinfo(arena+hblkhd)
        168994 MiB available memory on the node where the printing process lives
------------------
     c_bands:  1 eigenvalues not converged
     ethr =  1.93E-07,  avg # of iterations = 10.1

     negative rho (up, down):  7.969E-01 0.000E+00

     total cpu time spent up to now is      442.0 secs

     total energy              =   -4399.90952697 Ry
     estimated scf accuracy    <       0.00041857 Ry

     iteration # 30     ecut=    60.00 Ry     beta= 0.15
     Davidson diagonalization with overlap

---- Real-time Memory Report at c_bands before calling an iterative solver
             0 MiB given to the printing process from OS
             0 MiB allocation reported by mallinfo(arena+hblkhd)
        168980 MiB available memory on the node where the printing process lives
------------------
     ethr =  9.85E-08,  avg # of iterations =  5.3

     negative rho (up, down):  7.956E-01 0.000E+00

     total cpu time spent up to now is      459.2 secs

     total energy              =   -4399.90952884 Ry
     estimated scf accuracy    <       0.00015622 Ry

     iteration # 31     ecut=    60.00 Ry     beta= 0.15
     Davidson diagonalization with overlap

---- Real-time Memory Report at c_bands before calling an iterative solver
             0 MiB given to the printing process from OS
             0 MiB allocation reported by mallinfo(arena+hblkhd)
        169015 MiB available memory on the node where the printing process lives
------------------
     ethr =  3.68E-08,  avg # of iterations =  2.1

     negative rho (up, down):  7.929E-01 0.000E+00

     total cpu time spent up to now is      473.5 secs

     total energy              =   -4399.90952631 Ry
     estimated scf accuracy    <       0.00008301 Ry

     iteration # 32     ecut=    60.00 Ry     beta= 0.15
     Davidson diagonalization with overlap

---- Real-time Memory Report at c_bands before calling an iterative solver
             0 MiB given to the printing process from OS
             0 MiB allocation reported by mallinfo(arena+hblkhd)
        169055 MiB available memory on the node where the printing process lives
------------------
     ethr =  1.95E-08,  avg # of iterations =  4.1

     negative rho (up, down):  7.930E-01 0.000E+00

     total cpu time spent up to now is      488.4 secs

     total energy              =   -4399.90953378 Ry
     estimated scf accuracy    <       0.00003776 Ry

     iteration # 33     ecut=    60.00 Ry     beta= 0.15
     Davidson diagonalization with overlap

---- Real-time Memory Report at c_bands before calling an iterative solver
             0 MiB given to the printing process from OS
             0 MiB allocation reported by mallinfo(arena+hblkhd)
        169060 MiB available memory on the node where the printing process lives
------------------
     ethr =  8.88E-09,  avg # of iterations =  2.1

     negative rho (up, down):  7.925E-01 0.000E+00

     total cpu time spent up to now is      502.4 secs

     total energy              =   -4399.90953971 Ry
     estimated scf accuracy    <       0.00001980 Ry

     iteration # 34     ecut=    60.00 Ry     beta= 0.15
     Davidson diagonalization with overlap

---- Real-time Memory Report at c_bands before calling an iterative solver
             0 MiB given to the printing process from OS
             0 MiB allocation reported by mallinfo(arena+hblkhd)
        169069 MiB available memory on the node where the printing process lives
------------------
     ethr =  4.66E-09,  avg # of iterations =  2.3

     negative rho (up, down):  7.923E-01 0.000E+00

     total cpu time spent up to now is      516.6 secs

     total energy              =   -4399.90954462 Ry
     estimated scf accuracy    <       0.00000985 Ry

     iteration # 35     ecut=    60.00 Ry     beta= 0.15
     Davidson diagonalization with overlap

---- Real-time Memory Report at c_bands before calling an iterative solver
             0 MiB given to the printing process from OS
             0 MiB allocation reported by mallinfo(arena+hblkhd)
        169064 MiB available memory on the node where the printing process lives
------------------
     ethr =  2.32E-09,  avg # of iterations =  3.2

     negative rho (up, down):  7.923E-01 0.000E+00

     total cpu time spent up to now is      531.3 secs

     total energy              =   -4399.90954591 Ry
     estimated scf accuracy    <       0.00000403 Ry

     iteration # 36     ecut=    60.00 Ry     beta= 0.15
     Davidson diagonalization with overlap

---- Real-time Memory Report at c_bands before calling an iterative solver
             0 MiB given to the printing process from OS
             0 MiB allocation reported by mallinfo(arena+hblkhd)
        169064 MiB available memory on the node where the printing process lives
------------------
     ethr =  9.49E-10,  avg # of iterations =  2.2

     negative rho (up, down):  7.923E-01 0.000E+00

     total cpu time spent up to now is      544.8 secs

     total energy              =   -4399.90954650 Ry
     estimated scf accuracy    <       0.00000318 Ry

     iteration # 37     ecut=    60.00 Ry     beta= 0.15
     Davidson diagonalization with overlap

---- Real-time Memory Report at c_bands before calling an iterative solver
             0 MiB given to the printing process from OS
             0 MiB allocation reported by mallinfo(arena+hblkhd)
        169073 MiB available memory on the node where the printing process lives
------------------
     ethr =  7.49E-10,  avg # of iterations =  3.5

     negative rho (up, down):  7.924E-01 0.000E+00

     total cpu time spent up to now is      558.9 secs

     total energy              =   -4399.90954650 Ry
     estimated scf accuracy    <       0.00000266 Ry

     iteration # 38     ecut=    60.00 Ry     beta= 0.15
     Davidson diagonalization with overlap

---- Real-time Memory Report at c_bands before calling an iterative solver
             0 MiB given to the printing process from OS
             0 MiB allocation reported by mallinfo(arena+hblkhd)
        169095 MiB available memory on the node where the printing process lives
------------------
     ethr =  6.25E-10,  avg # of iterations =  2.2

     negative rho (up, down):  7.925E-01 0.000E+00

     total cpu time spent up to now is      572.8 secs

     total energy              =   -4399.90954671 Ry
     estimated scf accuracy    <       0.00000159 Ry

     iteration # 39     ecut=    60.00 Ry     beta= 0.15
     Davidson diagonalization with overlap

---- Real-time Memory Report at c_bands before calling an iterative solver
             0 MiB given to the printing process from OS
             0 MiB allocation reported by mallinfo(arena+hblkhd)
        169109 MiB available memory on the node where the printing process lives
------------------
     ethr =  3.74E-10,  avg # of iterations =  2.1

     negative rho (up, down):  7.925E-01 0.000E+00

     total cpu time spent up to now is      586.2 secs

     total energy              =   -4399.90954680 Ry
     estimated scf accuracy    <       0.00000124 Ry

     iteration # 40     ecut=    60.00 Ry     beta= 0.15
     Davidson diagonalization with overlap

---- Real-time Memory Report at c_bands before calling an iterative solver
             0 MiB given to the printing process from OS
             0 MiB allocation reported by mallinfo(arena+hblkhd)
        169112 MiB available memory on the node where the printing process lives
------------------
     ethr =  2.91E-10,  avg # of iterations =  1.7

     negative rho (up, down):  7.924E-01 0.000E+00

     total cpu time spent up to now is      599.3 secs

     total energy              =   -4399.90954689 Ry
     estimated scf accuracy    <       0.00000099 Ry

     iteration # 41     ecut=    60.00 Ry     beta= 0.15
     Davidson diagonalization with overlap

---- Real-time Memory Report at c_bands before calling an iterative solver
             0 MiB given to the printing process from OS
             0 MiB allocation reported by mallinfo(arena+hblkhd)
        169113 MiB available memory on the node where the printing process lives
------------------
     ethr =  2.32E-10,  avg # of iterations =  1.1

     negative rho (up, down):  7.924E-01 0.000E+00

     total cpu time spent up to now is      611.7 secs

     total energy              =   -4399.90954693 Ry
     estimated scf accuracy    <       0.00000080 Ry

     iteration # 42     ecut=    60.00 Ry     beta= 0.15
     Davidson diagonalization with overlap

---- Real-time Memory Report at c_bands before calling an iterative solver
             0 MiB given to the printing process from OS
             0 MiB allocation reported by mallinfo(arena+hblkhd)
        169122 MiB available memory on the node where the printing process lives
------------------
     ethr =  1.89E-10,  avg # of iterations =  2.2

     negative rho (up, down):  7.924E-01 0.000E+00

     total cpu time spent up to now is      625.2 secs

     total energy              =   -4399.90954686 Ry
     estimated scf accuracy    <       0.00000050 Ry

     iteration # 43     ecut=    60.00 Ry     beta= 0.15
     Davidson diagonalization with overlap

---- Real-time Memory Report at c_bands before calling an iterative solver
             0 MiB given to the printing process from OS
             0 MiB allocation reported by mallinfo(arena+hblkhd)
        169121 MiB available memory on the node where the printing process lives
------------------
     ethr =  1.17E-10,  avg # of iterations =  2.8

     negative rho (up, down):  7.924E-01 0.000E+00

     total cpu time spent up to now is      639.5 secs

     total energy              =   -4399.90954679 Ry
     estimated scf accuracy    <       0.00000019 Ry

     iteration # 44     ecut=    60.00 Ry     beta= 0.15
     Davidson diagonalization with overlap

---- Real-time Memory Report at c_bands before calling an iterative solver
             0 MiB given to the printing process from OS
             0 MiB allocation reported by mallinfo(arena+hblkhd)
        169113 MiB available memory on the node where the printing process lives
------------------
     ethr =  4.54E-11,  avg # of iterations =  3.5

     negative rho (up, down):  7.924E-01 0.000E+00

     total cpu time spent up to now is      654.1 secs

     total energy              =   -4399.90954676 Ry
     estimated scf accuracy    <       0.00000007 Ry

     iteration # 45     ecut=    60.00 Ry     beta= 0.15
     Davidson diagonalization with overlap

---- Real-time Memory Report at c_bands before calling an iterative solver
             0 MiB given to the printing process from OS
             0 MiB allocation reported by mallinfo(arena+hblkhd)
        169105 MiB available memory on the node where the printing process lives
------------------
     ethr =  1.70E-11,  avg # of iterations =  2.8

     negative rho (up, down):  7.924E-01 0.000E+00

     total cpu time spent up to now is      668.1 secs

     total energy              =   -4399.90954680 Ry
     estimated scf accuracy    <       0.00000005 Ry

     iteration # 46     ecut=    60.00 Ry     beta= 0.15
     Davidson diagonalization with overlap

---- Real-time Memory Report at c_bands before calling an iterative solver
             0 MiB given to the printing process from OS
             0 MiB allocation reported by mallinfo(arena+hblkhd)
        169108 MiB available memory on the node where the printing process lives
------------------
     ethr =  1.13E-11,  avg # of iterations =  2.2

     negative rho (up, down):  7.924E-01 0.000E+00

     total cpu time spent up to now is      681.7 secs

     total energy              =   -4399.90954680 Ry
     estimated scf accuracy    <       0.00000004 Ry

     iteration # 47     ecut=    60.00 Ry     beta= 0.15
     Davidson diagonalization with overlap

---- Real-time Memory Report at c_bands before calling an iterative solver
             0 MiB given to the printing process from OS
             0 MiB allocation reported by mallinfo(arena+hblkhd)
        169118 MiB available memory on the node where the printing process lives
------------------
     ethr =  1.01E-11,  avg # of iterations =  2.2

     negative rho (up, down):  7.924E-01 0.000E+00

     total cpu time spent up to now is      695.5 secs

     total energy              =   -4399.90954684 Ry
     estimated scf accuracy    <       0.00000002 Ry

     iteration # 48     ecut=    60.00 Ry     beta= 0.15
     Davidson diagonalization with overlap

---- Real-time Memory Report at c_bands before calling an iterative solver
             0 MiB given to the printing process from OS
             0 MiB allocation reported by mallinfo(arena+hblkhd)
        169116 MiB available memory on the node where the printing process lives
------------------
     ethr =  5.67E-12,  avg # of iterations =  4.3

     negative rho (up, down):  7.924E-01 0.000E+00

     total cpu time spent up to now is      710.6 secs

     total energy              =   -4399.90954685 Ry
     estimated scf accuracy    <       0.00000001 Ry

     iteration # 49     ecut=    60.00 Ry     beta= 0.15
     Davidson diagonalization with overlap

---- Real-time Memory Report at c_bands before calling an iterative solver
             0 MiB given to the printing process from OS
             0 MiB allocation reported by mallinfo(arena+hblkhd)
        169110 MiB available memory on the node where the printing process lives
------------------
     ethr =  3.02E-12,  avg # of iterations =  2.2

     negative rho (up, down):  7.924E-01 0.000E+00

     total cpu time spent up to now is      723.9 secs

     End of self-consistent calculation

          k = 0.0000 0.0000 0.0000 ( 65197 PWs)   bands (ev):

   -92.6940 -92.6376 -92.5473 -92.4927 -92.4409 -92.4001 -92.3826 -92.2596
   -56.0474 -56.0240 -55.9048 -55.8946 -55.8817 -55.8815 -55.8426 -55.8167
   -55.8011 -55.7995 -55.7890 -55.7488 -55.7273 -55.6920 -55.6735 -55.6411
   -55.6238 -55.5884 -55.5854 -55.5854 -55.5769 -55.5345 -55.5130 -55.4270
   -31.2706 -31.2514 -31.1095 -31.0619 -31.0229 -30.9796 -30.9274 -30.8136
   -29.8426 -29.7995 -29.7735 -29.6654 -15.0749 -15.0383 -14.9527 -14.8222
   -14.6364 -14.5124 -14.2147 -14.1968 -14.1651 -14.1203 -14.0785 -14.0703
   -14.0571 -14.0398 -14.0195 -13.9789 -13.9249 -13.7749 -13.6047 -13.5639
   -13.5321 -13.5070 -13.4859 -13.4348 -13.3986 -13.3153 -13.2438 -13.1331
   -13.1035 -13.0954 -13.0804 -13.0684 -13.0504 -13.0206 -12.9968 -12.9863
   -12.9506 -12.9177 -12.9061 -12.8905 -12.8747 -12.8663 -12.8373 -12.8115
   -12.7831 -12.7488 -12.7066 -12.6966 -12.3355 -12.1899 -12.0574 -11.9899
   -11.8566 -11.7820 -11.7708 -11.7487 -11.7310 -11.6672 -11.6498 -11.6151
   -11.5859 -11.4750 -11.3944 -11.3909  -2.9367  -2.7035  -2.4740  -2.3279
    -2.2641  -2.1211  -1.8145  -1.8007  -1.7799  -1.6974  -1.6784  -1.6100
    -1.5939  -1.5521  -1.5080  -1.3270  -1.1045  -1.0747  -0.9243  -0.9106
    -0.8674  -0.8485  -0.8029  -0.7873  -0.7283  -0.7016  -0.6317  -0.6192
    -0.5407  -0.4099  -0.3960  -0.3695  -0.2919  -0.2869  -0.2656  -0.1973
    -0.1243  -0.0849  -0.0296  -0.0035   0.0530   0.1330   0.1853   0.2046
     0.2154   0.4722   0.4871   0.6569   0.7267   0.7919   0.8299   0.9260
     0.9399   0.9546   1.0258   1.0528   1.0867   1.1461   1.2792   1.3341
     1.3549   1.3722   1.3853   1.4534   1.5284   1.6272   1.6377   1.7041
     1.7208   1.7595   1.7781   1.7837   1.8414   1.8922   1.8962   1.9397
     1.9795   2.0289   2.1594   2.2427   2.2880   2.3002   2.4570   2.4728
     2.5136   2.5199   2.6236   2.6612   2.6864   2.7060   2.7187   2.7756
     2.8229   2.9239   2.9446   2.9575   2.9653   3.0328   3.0381   3.0599
     3.0678   3.0758   3.0928   3.0970   3.1075   3.1133   3.1274   3.1354
     3.1429   3.1631   3.1848   3.1897   3.2026   3.2624   3.3442   3.4434
     4.1138   4.4459   4.7833   4.8710   5.0412   5.7733   5.9523   6.0092
     6.0286   6.3211   6.3683   6.4904   6.4997   6.7249   7.0146   7.0952
     7.1078   7.1264   7.3197   7.5784   7.6680   7.6868   7.7291   7.9495
     8.0651   8.1208   8.1305   8.1478   8.2964   8.6329   8.7004   8.8418

     occupation numbers 
     1.0000   1.0000   1.0000   1.0000   1.0000   1.0000   1.0000   1.0000
     1.0000   1.0000   1.0000   1.0000   1.0000   1.0000   1.0000   1.0000
     1.0000   1.0000   1.0000   1.0000   1.0000   1.0000   1.0000   1.0000
     1.0000   1.0000   1.0000   1.0000   1.0000   1.0000   1.0000   1.0000
     1.0000   1.0000   1.0000   1.0000   1.0000   1.0000   1.0000   1.0000
     1.0000   1.0000   1.0000   1.0000   1.0000   1.0000   1.0000   1.0000
     1.0000   1.0000   1.0000   1.0000   1.0000   1.0000   1.0000   1.0000
     1.0000   1.0000   1.0000   1.0000   1.0000   1.0000   1.0000   1.0000
     1.0000   1.0000   1.0000   1.0000   1.0000   1.0000   1.0000   1.0000
     1.0000   1.0000   1.0000   1.0000   1.0000   1.0000   1.0000   1.0000
     1.0000   1.0000   1.0000   1.0000   1.0000   1.0000   1.0000   1.0000
     1.0000   1.0000   1.0000   1.0000   1.0000   1.0000   1.0000   1.0000
     1.0000   1.0000   1.0000   1.0000   1.0000   1.0000   1.0000   1.0000
     1.0000   1.0000   1.0000   1.0000   1.0000   1.0000   1.0000   1.0000
     1.0000   1.0000   1.0000   1.0000   1.0000   1.0000   1.0000   1.0000
     1.0000   1.0000   1.0000   1.0000   1.0000   1.0000   1.0000   1.0000
     1.0000   1.0000   1.0000   1.0000   1.0000   1.0000   1.0000   1.0000
     1.0000   1.0000   1.0000   1.0000   1.0000   1.0000   1.0000   1.0000
     1.0000   1.0000   1.0000   1.0000   1.0000   1.0000   1.0000   1.0000
     1.0000   1.0000   1.0000   1.0000   0.9999   0.9999   0.9999   0.9998
     0.9998   0.9998   0.9997   0.9996   0.9996   0.9994   0.9989   0.9985
     0.9984   0.9982   0.9981   0.9974   0.9963   0.9944   0.9941   0.9922
     0.9917   0.9903   0.9896   0.9893   0.9867   0.9838   0.9836   0.9808
     0.9778   0.9737   0.9594   0.9474   0.9398   0.9376   0.9036   0.8995
     0.8884   0.8866   0.8542   0.8411   0.8318   0.8244   0.8195   0.7964
     0.7760   0.7287   0.7184   0.7119   0.7079   0.6726   0.6697   0.6579
     0.6536   0.6492   0.6398   0.6375   0.6316   0.6284   0.6204   0.6159
     0.6116   0.6001   0.5876   0.5847   0.5773   0.5423   0.4939   0.4354
     0.1234   0.0494   0.0157   0.0112   0.0056   0.0001   0.0001   0.0000
     0.0000   0.0000   0.0000   0.0000   0.0000   0.0000   0.0000   0.0000
     0.0000   0.0000   0.0000   0.0000   0.0000   0.0000   0.0000   0.0000
     0.0000   0.0000   0.0000   0.0000   0.0000   0.0000   0.0000   0.0000

          k = 0.0000 0.2500 0.0000 ( 65257 PWs)   bands (ev):

   -92.6940 -92.6376 -92.5473 -92.4927 -92.4409 -92.4001 -92.3826 -92.2596
   -56.0474 -56.0240 -55.9048 -55.8946 -55.8817 -55.8815 -55.8426 -55.8167
   -55.8011 -55.7995 -55.7890 -55.7488 -55.7273 -55.6920 -55.6735 -55.6411
   -55.6238 -55.5884 -55.5854 -55.5854 -55.5769 -55.5345 -55.5130 -55.4270
   -31.2704 -31.2513 -31.1097 -31.0615 -31.0231 -30.9799 -30.9271 -30.8139
   -29.8420 -29.7992 -29.7741 -29.6658 -15.0379 -15.0122 -14.9277 -14.7930
   -14.6761 -14.5028 -14.3605 -14.1800 -14.1497 -14.1249 -14.0966 -14.0417
   -14.0344 -14.0207 -14.0032 -13.9589 -13.8449 -13.8060 -13.6422 -13.6291
   -13.5732 -13.5394 -13.4993 -13.4508 -13.4127 -13.3366 -13.3010 -13.2459
   -13.1945 -13.1408 -13.1019 -13.0877 -13.0666 -12.9843 -12.9608 -12.9355
   -12.9253 -12.8958 -12.8683 -12.8592 -12.8359 -12.8188 -12.7900 -12.7677
   -12.7621 -12.7335 -12.6132 -12.5387 -12.3968 -12.2411 -12.1135 -12.0571
   -11.8221 -11.7788 -11.7511 -11.7228 -11.7062 -11.6591 -11.6476 -11.6250
   -11.5909 -11.4893 -11.4361 -11.4255  -2.8015  -2.5791  -2.4420  -2.2598
    -2.2162  -2.0520  -1.8335  -1.7478  -1.7348  -1.6788  -1.5753  -1.5601
    -1.5261  -1.4995  -1.4560  -1.2582  -1.1300  -1.1181  -1.0425  -1.0313
    -0.9266  -0.8954  -0.8398  -0.8152  -0.7722  -0.7100  -0.6839  -0.6513
    -0.6193  -0.6029  -0.5700  -0.4949  -0.4447  -0.3876  -0.2704  -0.2540
    -0.2079  -0.0880  -0.0554   0.0067   0.0561   0.1122   0.1327   0.1645
     0.2222   0.5184   0.6072   0.6385   0.7247   0.7698   0.7878   0.9134
     0.9313   1.0258   1.0519   1.0801   1.1949   1.2836   1.3100   1.3322
     1.3489   1.3793   1.4395   1.4656   1.4932   1.5421   1.5744   1.6040
     1.6819   1.7146   1.7568   1.8062   1.8619   1.9037   1.9290   1.9540
     1.9793   2.0590   2.1961   2.2665   2.2838   2.3644   2.4131   2.4477
     2.4593   2.5188   2.5607   2.6411   2.6782   2.6951   2.7965   2.8728
     2.9064   2.9276   2.9479   2.9669   2.9738   2.9810   2.9975   3.0199
     3.0222   3.0414   3.0469   3.0562   3.0761   3.0878   3.0970   3.1159
     3.1253   3.1298   3.1653   3.1832   3.2444   3.6210   3.6678   3.8839
     4.2966   4.4519   4.7127   5.0281   5.0669   5.6356   5.7617   5.9023
     6.0078   6.0993   6.1191   6.1943   6.6072   6.8507   6.8941   7.1178
     7.2372   7.3388   7.4907   7.5056   7.6500   7.7518   7.8314   7.9422
     8.0619   8.0961   8.1750   8.3118   8.4094   8.4215   8.7649   8.8744

     occupation numbers 
     1.0000   1.0000   1.0000   1.0000   1.0000   1.0000   1.0000   1.0000
     1.0000   1.0000   1.0000   1.0000   1.0000   1.0000   1.0000   1.0000
     1.0000   1.0000   1.0000   1.0000   1.0000   1.0000   1.0000   1.0000
     1.0000   1.0000   1.0000   1.0000   1.0000   1.0000   1.0000   1.0000
     1.0000   1.0000   1.0000   1.0000   1.0000   1.0000   1.0000   1.0000
     1.0000   1.0000   1.0000   1.0000   1.0000   1.0000   1.0000   1.0000
     1.0000   1.0000   1.0000   1.0000   1.0000   1.0000   1.0000   1.0000
     1.0000   1.0000   1.0000   1.0000   1.0000   1.0000   1.0000   1.0000
     1.0000   1.0000   1.0000   1.0000   1.0000   1.0000   1.0000   1.0000
     1.0000   1.0000   1.0000   1.0000   1.0000   1.0000   1.0000   1.0000
     1.0000   1.0000   1.0000   1.0000   1.0000   1.0000   1.0000   1.0000
     1.0000   1.0000   1.0000   1.0000   1.0000   1.0000   1.0000   1.0000
     1.0000   1.0000   1.0000   1.0000   1.0000   1.0000   1.0000   1.0000
     1.0000   1.0000   1.0000   1.0000   1.0000   1.0000   1.0000   1.0000
     1.0000   1.0000   1.0000   1.0000   1.0000   1.0000   1.0000   1.0000
     1.0000   1.0000   1.0000   1.0000   1.0000   1.0000   1.0000   1.0000
     1.0000   1.0000   1.0000   1.0000   1.0000   1.0000   1.0000   1.0000
     1.0000   1.0000   1.0000   1.0000   1.0000   1.0000   1.0000   1.0000
     1.0000   1.0000   1.0000   1.0000   1.0000   1.0000   1.0000   1.0000
     1.0000   1.0000   1.0000   1.0000   0.9999   0.9999   0.9999   0.9998
     0.9998   0.9997   0.9996   0.9996   0.9993   0.9988   0.9987   0.9985
     0.9984   0.9981   0.9975   0.9972   0.9969   0.9961   0.9955   0.9949
     0.9929   0.9919   0.9904   0.9883   0.9856   0.9832   0.9815   0.9798
     0.9779   0.9708   0.9544   0.9435   0.9405   0.9250   0.9142   0.9059
     0.9030   0.8869   0.8745   0.8482   0.8349   0.8286   0.7876   0.7532
     0.7372   0.7268   0.7167   0.7071   0.7035   0.6998   0.6913   0.6795
     0.6782   0.6680   0.6650   0.6600   0.6491   0.6426   0.6375   0.6269
     0.6216   0.6190   0.5989   0.5885   0.5528   0.3349   0.3100   0.2070
     0.0764   0.0484   0.0203   0.0059   0.0050   0.0003   0.0002   0.0001
     0.0000   0.0000   0.0000   0.0000   0.0000   0.0000   0.0000   0.0000
     0.0000   0.0000   0.0000   0.0000   0.0000   0.0000   0.0000   0.0000
     0.0000   0.0000   0.0000   0.0000   0.0000   0.0000   0.0000   0.0000

          k = 0.0000-0.5000 0.0000 ( 65180 PWs)   bands (ev):

   -92.6940 -92.6376 -92.5473 -92.4927 -92.4409 -92.4001 -92.3826 -92.2596
   -56.0474 -56.0240 -55.9048 -55.8946 -55.8817 -55.8815 -55.8426 -55.8167
   -55.8011 -55.7995 -55.7890 -55.7488 -55.7273 -55.6920 -55.6735 -55.6411
   -55.6238 -55.5884 -55.5854 -55.5854 -55.5769 -55.5345 -55.5130 -55.4270
   -31.2702 -31.2511 -31.1099 -31.0612 -31.0232 -30.9803 -30.9269 -30.8142
   -29.8414 -29.7989 -29.7748 -29.6661 -15.0060 -14.9567 -14.9050 -14.7797
   -14.6916 -14.5547 -14.4057 -14.2823 -14.1506 -14.0839 -14.0425 -14.0316
   -13.9844 -13.9654 -13.9180 -13.9020 -13.8739 -13.8379 -13.8117 -13.7690
   -13.5766 -13.5215 -13.5079 -13.4499 -13.4114 -13.3523 -13.3235 -13.2761
   -13.2756 -13.2108 -13.1029 -13.0886 -13.0510 -12.9952 -12.9628 -12.9485
   -12.9219 -12.8758 -12.8660 -12.8314 -12.8150 -12.7561 -12.7501 -12.7362
   -12.6984 -12.6445 -12.5078 -12.4704 -12.3193 -12.3162 -12.2230 -12.1801
   -11.7758 -11.7737 -11.7462 -11.7085 -11.6743 -11.6631 -11.6208 -11.6169
   -11.5726 -11.5108 -11.4969 -11.4826  -2.5871  -2.5271  -2.3761  -2.3035
    -2.0238  -1.9381  -1.8121  -1.6736  -1.6394  -1.6172  -1.5389  -1.5079
    -1.4261  -1.3905  -1.3146  -1.2731  -1.2341  -1.2071  -1.1522  -1.1123
    -1.0678  -1.0308  -0.9969  -0.9633  -0.8527  -0.8075  -0.7748  -0.7738
    -0.6877  -0.6546  -0.6321  -0.5834  -0.5000  -0.4263  -0.3495  -0.3220
    -0.2089  -0.1655  -0.0233   0.0024   0.0381   0.0892   0.2088   0.2652
     0.3984   0.4639   0.4710   0.6007   0.6420   0.7397   0.8794   0.9865
     1.0166   1.0535   1.0583   1.0975   1.1156   1.1528   1.1680   1.1806
     1.2903   1.3512   1.3747   1.3996   1.6606   1.6973   1.7145   1.8126
     1.8380   1.8702   1.8866   1.9161   1.9275   1.9348   1.9711   2.0050
     2.0326   2.0576   2.0714   2.1030   2.1558   2.2355   2.2659   2.4508
     2.6092   2.6194   2.6334   2.6562   2.6724   2.6863   2.7320   2.7507
     2.8044   2.8241   2.8258   2.9104   2.9181   2.9827   3.0080   3.0157
     3.0166   3.0373   3.0436   3.0483   3.0508   3.0563   3.0788   3.0848
     3.1015   3.1504   3.1592   3.1729   3.2255   4.1292   4.1759   4.2152
     4.2592   4.7419   4.9035   5.0366   5.1503   5.4198   5.4699   5.6018
     5.6947   5.9810   6.0468   6.0577   6.7022   6.8639   6.9599   7.2308
     7.3116   7.3330   7.4056   7.4576   7.6389   7.7580   7.8236   7.9170
     8.0989   8.2576   8.3359   8.5041   8.6746   8.7184   8.7956   8.8287

     occupation numbers 
     1.0000   1.0000   1.0000   1.0000   1.0000   1.0000   1.0000   1.0000
     1.0000   1.0000   1.0000   1.0000   1.0000   1.0000   1.0000   1.0000
     1.0000   1.0000   1.0000   1.0000   1.0000   1.0000   1.0000   1.0000
     1.0000   1.0000   1.0000   1.0000   1.0000   1.0000   1.0000   1.0000
     1.0000   1.0000   1.0000   1.0000   1.0000   1.0000   1.0000   1.0000
     1.0000   1.0000   1.0000   1.0000   1.0000   1.0000   1.0000   1.0000
     1.0000   1.0000   1.0000   1.0000   1.0000   1.0000   1.0000   1.0000
     1.0000   1.0000   1.0000   1.0000   1.0000   1.0000   1.0000   1.0000
     1.0000   1.0000   1.0000   1.0000   1.0000   1.0000   1.0000   1.0000
     1.0000   1.0000   1.0000   1.0000   1.0000   1.0000   1.0000   1.0000
     1.0000   1.0000   1.0000   1.0000   1.0000   1.0000   1.0000   1.0000
     1.0000   1.0000   1.0000   1.0000   1.0000   1.0000   1.0000   1.0000
     1.0000   1.0000   1.0000   1.0000   1.0000   1.0000   1.0000   1.0000
     1.0000   1.0000   1.0000   1.0000   1.0000   1.0000   1.0000   1.0000
     1.0000   1.0000   1.0000   1.0000   1.0000   1.0000   1.0000   1.0000
     1.0000   1.0000   1.0000   1.0000   1.0000   1.0000   1.0000   1.0000
     1.0000   1.0000   1.0000   1.0000   1.0000   1.0000   1.0000   1.0000
     1.0000   1.0000   1.0000   1.0000   1.0000   1.0000   1.0000   1.0000
     1.0000   1.0000   1.0000   1.0000   1.0000   1.0000   1.0000   1.0000
     1.0000   1.0000   1.0000   1.0000   1.0000   0.9999   0.9999   0.9998
     0.9997   0.9996   0.9996   0.9996   0.9995   0.9994   0.9994   0.9993
     0.9988   0.9984   0.9982   0.9980   0.9935   0.9925   0.9919   0.9881
     0.9868   0.9851   0.9842   0.9824   0.9816   0.9811   0.9785   0.9758
     0.9733   0.9710   0.9696   0.9662   0.9599   0.9486   0.9436   0.9051
     0.8591   0.8557   0.8509   0.8429   0.8370   0.8319   0.8143   0.8067
     0.7841   0.7755   0.7747   0.7353   0.7315   0.6990   0.6858   0.6817
     0.6812   0.6702   0.6668   0.6643   0.6629   0.6599   0.6475   0.6442
     0.6350   0.6073   0.6023   0.5945   0.5639   0.1188   0.1056   0.0953
     0.0847   0.0183   0.0099   0.0057   0.0035   0.0010   0.0008   0.0004
     0.0002   0.0000   0.0000   0.0000   0.0000   0.0000   0.0000   0.0000
     0.0000   0.0000   0.0000   0.0000   0.0000   0.0000   0.0000   0.0000
     0.0000   0.0000   0.0000   0.0000   0.0000   0.0000   0.0000   0.0000

          k = 0.2500 0.2500 0.0000 ( 65198 PWs)   bands (ev):

   -92.6940 -92.6376 -92.5473 -92.4927 -92.4409 -92.4001 -92.3826 -92.2596
   -56.0474 -56.0240 -55.9048 -55.8946 -55.8817 -55.8815 -55.8426 -55.8167
   -55.8011 -55.7995 -55.7890 -55.7488 -55.7273 -55.6920 -55.6735 -55.6411
   -55.6238 -55.5884 -55.5854 -55.5854 -55.5769 -55.5345 -55.5130 -55.4270
   -31.2687 -31.2530 -31.1093 -31.0613 -31.0235 -30.9797 -30.9274 -30.8141
   -29.8410 -29.8002 -29.7737 -29.6662 -15.0099 -14.9768 -14.8999 -14.7826
   -14.6677 -14.5426 -14.4656 -14.2632 -14.1031 -14.0909 -14.0561 -14.0267
   -14.0053 -13.9817 -13.9501 -13.9198 -13.8361 -13.8205 -13.6576 -13.6452
   -13.6163 -13.5942 -13.5581 -13.5052 -13.4511 -13.4197 -13.3113 -13.2773
   -13.2228 -13.1355 -13.0950 -13.0461 -13.0228 -13.0123 -12.9745 -12.9406
   -12.9320 -12.9125 -12.8857 -12.8398 -12.8093 -12.7913 -12.7453 -12.7341
   -12.7300 -12.7063 -12.5470 -12.4454 -12.4304 -12.2703 -12.1443 -12.1065
   -11.7942 -11.7625 -11.7516 -11.7443 -11.6822 -11.6469 -11.6405 -11.6053
   -11.5971 -11.5059 -11.4645 -11.4469  -2.6634  -2.4534  -2.3361  -2.2422
    -2.1206  -2.0551  -1.8587  -1.7131  -1.6929  -1.6653  -1.5701  -1.5360
    -1.4425  -1.4155  -1.3651  -1.2332  -1.1861  -1.1140  -1.0684  -1.0245
    -1.0000  -0.9747  -0.9330  -0.9173  -0.8272  -0.7773  -0.7146  -0.6643
    -0.6337  -0.5821  -0.5700  -0.5071  -0.4579  -0.4061  -0.3664  -0.2842
    -0.2286  -0.2012  -0.1603  -0.1056  -0.0339   0.0051   0.0278   0.1008
     0.1375   0.4113   0.5573   0.5963   0.6493   0.6937   0.7432   0.8005
     0.8637   0.9013   1.1733   1.2429   1.3170   1.3443   1.3878   1.4234
     1.4572   1.4946   1.5123   1.5405   1.5819   1.5909   1.6079   1.6484
     1.6904   1.7303   1.7851   1.8262   1.8314   1.8672   1.9024   1.9515
     1.9855   2.1015   2.1757   2.2135   2.2407   2.2987   2.3732   2.4007
     2.4359   2.4588   2.4751   2.5820   2.6201   2.7085   2.8268   2.8888
     2.9008   2.9087   2.9219   2.9384   2.9498   2.9630   2.9705   2.9834
     2.9928   3.0063   3.0244   3.0300   3.0425   3.0639   3.0770   3.0856
     3.1170   3.4182   3.5145   3.5503   3.6177   3.6943   3.8565   3.9612
     4.3062   4.5388   4.7219   4.9808   5.1748   5.6498   5.6832   5.7495
     5.8442   5.9016   6.0024   6.1657   6.2357   6.7045   6.9041   7.0506
     7.1166   7.5603   7.6110   7.6683   7.7213   7.8743   7.9282   8.1070
     8.1390   8.2198   8.3106   8.3424   8.4353   8.4512   8.4964   8.8508

     occupation numbers 
     1.0000   1.0000   1.0000   1.0000   1.0000   1.0000   1.0000   1.0000
     1.0000   1.0000   1.0000   1.0000   1.0000   1.0000   1.0000   1.0000
     1.0000   1.0000   1.0000   1.0000   1.0000   1.0000   1.0000   1.0000
     1.0000   1.0000   1.0000   1.0000   1.0000   1.0000   1.0000   1.0000
     1.0000   1.0000   1.0000   1.0000   1.0000   1.0000   1.0000   1.0000
     1.0000   1.0000   1.0000   1.0000   1.0000   1.0000   1.0000   1.0000
     1.0000   1.0000   1.0000   1.0000   1.0000   1.0000   1.0000   1.0000
     1.0000   1.0000   1.0000   1.0000   1.0000   1.0000   1.0000   1.0000
     1.0000   1.0000   1.0000   1.0000   1.0000   1.0000   1.0000   1.0000
     1.0000   1.0000   1.0000   1.0000   1.0000   1.0000   1.0000   1.0000
     1.0000   1.0000   1.0000   1.0000   1.0000   1.0000   1.0000   1.0000
     1.0000   1.0000   1.0000   1.0000   1.0000   1.0000   1.0000   1.0000
     1.0000   1.0000   1.0000   1.0000   1.0000   1.0000   1.0000   1.0000
     1.0000   1.0000   1.0000   1.0000   1.0000   1.0000   1.0000   1.0000
     1.0000   1.0000   1.0000   1.0000   1.0000   1.0000   1.0000   1.0000
     1.0000   1.0000   1.0000   1.0000   1.0000   1.0000   1.0000   1.0000
     1.0000   1.0000   1.0000   1.0000   1.0000   1.0000   1.0000   1.0000
     1.0000   1.0000   1.0000   1.0000   1.0000   1.0000   1.0000   1.0000
     1.0000   1.0000   1.0000   1.0000   1.0000   1.0000   1.0000   1.0000
     1.0000   1.0000   1.0000   1.0000   1.0000   1.0000   0.9999   0.9999
     0.9999   0.9998   0.9993   0.9990   0.9986   0.9984   0.9981   0.9977
     0.9973   0.9968   0.9966   0.9961   0.9954   0.9952   0.9948   0.9938
     0.9927   0.9914   0.9893   0.9874   0.9872   0.9853   0.9832   0.9799
     0.9774   0.9664   0.9573   0.9519   0.9477   0.9379   0.9231   0.9171
     0.9088   0.9031   0.8989   0.8679   0.8554   0.8234   0.7743   0.7456
     0.7399   0.7361   0.7297   0.7215   0.7157   0.7091   0.7053   0.6986
     0.6937   0.6867   0.6771   0.6741   0.6674   0.6557   0.6486   0.6438
     0.6263   0.4502   0.3943   0.3740   0.3367   0.2963   0.2189   0.1758
     0.0744   0.0368   0.0197   0.0072   0.0031   0.0003   0.0002   0.0002
     0.0001   0.0001   0.0000   0.0000   0.0000   0.0000   0.0000   0.0000
     0.0000   0.0000   0.0000   0.0000   0.0000   0.0000   0.0000   0.0000
     0.0000   0.0000   0.0000   0.0000   0.0000   0.0000   0.0000   0.0000

          k = 0.2500-0.5000 0.0000 ( 65138 PWs)   bands (ev):

   -92.6940 -92.6376 -92.5473 -92.4927 -92.4409 -92.4001 -92.3826 -92.2596
   -56.0474 -56.0240 -55.9048 -55.8946 -55.8817 -55.8815 -55.8426 -55.8167
   -55.8011 -55.7995 -55.7890 -55.7488 -55.7273 -55.6920 -55.6735 -55.6411
   -55.6238 -55.5884 -55.5854 -55.5854 -55.5769 -55.5345 -55.5130 -55.4270
   -31.2685 -31.2529 -31.1095 -31.0609 -31.0236 -30.9801 -30.9271 -30.8144
   -29.8404 -29.7999 -29.7744 -29.6665 -14.9758 -14.9297 -14.8621 -14.7487
   -14.7152 -14.5948 -14.5075 -14.3790 -14.0669 -14.0179 -13.9898 -13.9690
   -13.9521 -13.9373 -13.9037 -13.8902 -13.8551 -13.8134 -13.7970 -13.7597
   -13.6597 -13.6106 -13.5752 -13.5317 -13.4700 -13.4572 -13.3627 -13.3352
   -13.1999 -13.1352 -13.1143 -13.0294 -13.0057 -12.9862 -12.9726 -12.9500
   -12.9362 -12.9054 -12.8811 -12.8269 -12.8124 -12.7845 -12.7525 -12.7494
   -12.6486 -12.6168 -12.5145 -12.4463 -12.3139 -12.2913 -12.2152 -12.1826
   -11.7697 -11.7578 -11.7468 -11.7195 -11.6881 -11.6596 -11.6185 -11.5910
   -11.5688 -11.5240 -11.4979 -11.4867  -2.4456  -2.3790  -2.2500  -2.1723
    -2.0443  -1.9586  -1.8366  -1.6855  -1.6330  -1.6100  -1.5470  -1.5338
    -1.4368  -1.3698  -1.2843  -1.2362  -1.2265  -1.1624  -1.1217  -1.0852
    -1.0385  -1.0016  -0.9668  -0.9263  -0.9154  -0.8698  -0.8412  -0.8002
    -0.7692  -0.7015  -0.6024  -0.5602  -0.4834  -0.4189  -0.3727  -0.3269
    -0.3045  -0.2558  -0.0909  -0.0802   0.0150   0.0593   0.0667   0.1105
     0.1414   0.1809   0.2086   0.2808   0.5468   0.6392   0.7059   0.7661
     1.0318   1.0593   1.1468   1.1731   1.3401   1.3716   1.4165   1.4397
     1.4552   1.4758   1.5358   1.5805   1.6182   1.6966   1.7862   1.8288
     1.8480   1.8562   1.8966   1.9101   1.9124   1.9584   1.9715   1.9920
     2.0151   2.0371   2.0640   2.0960   2.1541   2.1912   2.2696   2.4125
     2.5617   2.5753   2.5955   2.6212   2.6485   2.6669   2.6981   2.7021
     2.7264   2.8315   2.8501   2.8923   2.9015   2.9122   2.9189   2.9411
     2.9541   2.9748   2.9811   3.0109   3.0241   3.0381   3.0470   3.0551
     3.0685   3.5948   3.6104   3.7502   3.7993   4.1518   4.1870   4.2315
     4.3192   4.7609   4.9266   5.0717   5.1285   5.3133   5.4380   5.6020
     5.6233   5.7734   5.7980   6.0972   6.4037   6.4932   6.6147   6.9500
     7.4405   7.5130   7.6746   7.7125   7.8191   7.8860   8.0465   8.1300
     8.2810   8.3876   8.4352   8.5247   8.5338   8.5674   8.7191   8.7742

     occupation numbers 
     1.0000   1.0000   1.0000   1.0000   1.0000   1.0000   1.0000   1.0000
     1.0000   1.0000   1.0000   1.0000   1.0000   1.0000   1.0000   1.0000
     1.0000   1.0000   1.0000   1.0000   1.0000   1.0000   1.0000   1.0000
     1.0000   1.0000   1.0000   1.0000   1.0000   1.0000   1.0000   1.0000
     1.0000   1.0000   1.0000   1.0000   1.0000   1.0000   1.0000   1.0000
     1.0000   1.0000   1.0000   1.0000   1.0000   1.0000   1.0000   1.0000
     1.0000   1.0000   1.0000   1.0000   1.0000   1.0000   1.0000   1.0000
     1.0000   1.0000   1.0000   1.0000   1.0000   1.0000   1.0000   1.0000
     1.0000   1.0000   1.0000   1.0000   1.0000   1.0000   1.0000   1.0000
     1.0000   1.0000   1.0000   1.0000   1.0000   1.0000   1.0000   1.0000
     1.0000   1.0000   1.0000   1.0000   1.0000   1.0000   1.0000   1.0000
     1.0000   1.0000   1.0000   1.0000   1.0000   1.0000   1.0000   1.0000
     1.0000   1.0000   1.0000   1.0000   1.0000   1.0000   1.0000   1.0000
     1.0000   1.0000   1.0000   1.0000   1.0000   1.0000   1.0000   1.0000
     1.0000   1.0000   1.0000   1.0000   1.0000   1.0000   1.0000   1.0000
     1.0000   1.0000   1.0000   1.0000   1.0000   1.0000   1.0000   1.0000
     1.0000   1.0000   1.0000   1.0000   1.0000   1.0000   1.0000   1.0000
     1.0000   1.0000   1.0000   1.0000   1.0000   1.0000   1.0000   1.0000
     1.0000   1.0000   1.0000   1.0000   1.0000   1.0000   1.0000   1.0000
     1.0000   1.0000   1.0000   1.0000   1.0000   1.0000   1.0000   0.9999
     0.9997   0.9996   0.9994   0.9993   0.9985   0.9982   0.9978   0.9975
     0.9974   0.9971   0.9962   0.9954   0.9946   0.9925   0.9892   0.9873
     0.9863   0.9859   0.9836   0.9827   0.9826   0.9794   0.9785   0.9768
     0.9749   0.9729   0.9703   0.9670   0.9601   0.9551   0.9430   0.9144
     0.8742   0.8700   0.8635   0.8550   0.8456   0.8390   0.8274   0.8259
     0.8165   0.7722   0.7637   0.7440   0.7396   0.7344   0.7311   0.7201
     0.7136   0.7031   0.6998   0.6842   0.6772   0.6698   0.6649   0.6605
     0.6532   0.3492   0.3407   0.2682   0.2447   0.1123   0.1026   0.0913
     0.0717   0.0170   0.0090   0.0049   0.0039   0.0016   0.0009   0.0004
     0.0003   0.0001   0.0001   0.0000   0.0000   0.0000   0.0000   0.0000
     0.0000   0.0000   0.0000   0.0000   0.0000   0.0000   0.0000   0.0000
     0.0000   0.0000   0.0000   0.0000   0.0000   0.0000   0.0000   0.0000

          k =-0.5000-0.5000 0.0000 ( 65132 PWs)   bands (ev):

   -92.6940 -92.6376 -92.5473 -92.4927 -92.4409 -92.4001 -92.3826 -92.2596
   -56.0474 -56.0240 -55.9048 -55.8946 -55.8817 -55.8815 -55.8426 -55.8167
   -55.8011 -55.7995 -55.7889 -55.7488 -55.7273 -55.6920 -55.6735 -55.6411
   -55.6238 -55.5884 -55.5854 -55.5854 -55.5769 -55.5345 -55.5130 -55.4269
   -31.2663 -31.2551 -31.1091 -31.0607 -31.0240 -30.9799 -30.9273 -30.8146
   -29.8394 -29.8009 -29.7740 -29.6669 -14.9305 -14.9021 -14.7855 -14.7741
   -14.6804 -14.6424 -14.6105 -14.4783 -13.9802 -13.9681 -13.9336 -13.9139
   -13.8961 -13.8889 -13.8548 -13.8465 -13.8304 -13.8228 -13.8061 -13.7280
   -13.7201 -13.6941 -13.6718 -13.6569 -13.5536 -13.5337 -13.4029 -13.3852
   -13.1514 -13.1111 -13.0429 -13.0186 -12.9859 -12.9783 -12.9735 -12.9684
   -12.9497 -12.9197 -12.8715 -12.8313 -12.8214 -12.7942 -12.7776 -12.7584
   -12.5979 -12.5905 -12.5309 -12.4247 -12.3104 -12.2602 -12.2120 -12.1844
   -11.7662 -11.7539 -11.7360 -11.7193 -11.6845 -11.6669 -11.6318 -11.5715
   -11.5510 -11.5461 -11.4957 -11.4926  -2.2226  -2.1458  -2.1334  -2.0634
    -2.0244  -1.9458  -1.8781  -1.7530  -1.6354  -1.6048  -1.5679  -1.5092
    -1.4374  -1.4230  -1.3519  -1.3093  -1.1928  -1.1652  -1.1167  -1.0854
    -1.0216  -0.9772  -0.9577  -0.9459  -0.8942  -0.8463  -0.8334  -0.7197
    -0.6630  -0.6163  -0.5655  -0.5414  -0.5309  -0.4927  -0.4504  -0.4180
    -0.4039  -0.3186  -0.2517  -0.2040  -0.1814  -0.1056  -0.0541  -0.0326
     0.0193   0.0344   0.0549   0.0642   0.5155   0.5585   0.6551   0.6736
     1.0663   1.0775   1.1106   1.1489   1.4236   1.4436   1.4505   1.4866
     1.6210   1.7166   1.7439   1.7794   1.7947   1.8208   1.8298   1.8629
     1.8728   1.8880   1.8957   1.9489   1.9548   1.9809   2.0069   2.0113
     2.0312   2.0681   2.0956   2.1051   2.1379   2.1617   2.2365   2.3039
     2.5628   2.6042   2.6215   2.6445   2.6488   2.6822   2.6870   2.7018
     2.7162   2.7335   2.7552   2.7666   2.8297   2.8375   2.8422   2.8602
     2.8802   2.8910   2.9067   2.9150   2.9322   3.0217   3.0244   3.0510
     3.0604   4.0010   4.0323   4.0729   4.1498   4.3258   4.3972   4.4256
     4.6664   4.7875   4.8711   5.0011   5.0836   5.0924   5.2108   5.3183
     5.3753   5.8625   5.8914   5.9774   6.0299   6.3674   6.4843   6.5344
     7.6782   7.8102   7.8621   7.8867   7.9293   7.9846   8.0215   8.0919
     8.2707   8.3072   8.4939   8.5889   8.5992   8.6310   8.6651   8.6693

     occupation numbers 
     1.0000   1.0000   1.0000   1.0000   1.0000   1.0000   1.0000   1.0000
     1.0000   1.0000   1.0000   1.0000   1.0000   1.0000   1.0000   1.0000
     1.0000   1.0000   1.0000   1.0000   1.0000   1.0000   1.0000   1.0000
     1.0000   1.0000   1.0000   1.0000   1.0000   1.0000   1.0000   1.0000
     1.0000   1.0000   1.0000   1.0000   1.0000   1.0000   1.0000   1.0000
     1.0000   1.0000   1.0000   1.0000   1.0000   1.0000   1.0000   1.0000
     1.0000   1.0000   1.0000   1.0000   1.0000   1.0000   1.0000   1.0000
     1.0000   1.0000   1.0000   1.0000   1.0000   1.0000   1.0000   1.0000
     1.0000   1.0000   1.0000   1.0000   1.0000   1.0000   1.0000   1.0000
     1.0000   1.0000   1.0000   1.0000   1.0000   1.0000   1.0000   1.0000
     1.0000   1.0000   1.0000   1.0000   1.0000   1.0000   1.0000   1.0000
     1.0000   1.0000   1.0000   1.0000   1.0000   1.0000   1.0000   1.0000
     1.0000   1.0000   1.0000   1.0000   1.0000   1.0000   1.0000   1.0000
     1.0000   1.0000   1.0000   1.0000   1.0000   1.0000   1.0000   1.0000
     1.0000   1.0000   1.0000   1.0000   1.0000   1.0000   1.0000   1.0000
     1.0000   1.0000   1.0000   1.0000   1.0000   1.0000   1.0000   1.0000
     1.0000   1.0000   1.0000   1.0000   1.0000   1.0000   1.0000   1.0000
     1.0000   1.0000   1.0000   1.0000   1.0000   1.0000   1.0000   1.0000
     1.0000   1.0000   1.0000   1.0000   1.0000   1.0000   1.0000   1.0000
     1.0000   1.0000   1.0000   1.0000   1.0000   1.0000   1.0000   1.0000
     0.9996   0.9996   0.9995   0.9994   0.9977   0.9975   0.9974   0.9970
     0.9945   0.9918   0.9909   0.9895   0.9889   0.9877   0.9872   0.9855
     0.9850   0.9841   0.9836   0.9801   0.9797   0.9777   0.9756   0.9752
     0.9735   0.9699   0.9670   0.9660   0.9621   0.9591   0.9484   0.9369
     0.8739   0.8607   0.8549   0.8470   0.8455   0.8334   0.8316   0.8260
     0.8205   0.8137   0.8049   0.8002   0.7730   0.7695   0.7673   0.7591
     0.7497   0.7446   0.7370   0.7330   0.7246   0.6785   0.6771   0.6628
     0.6576   0.1609   0.1498   0.1362   0.1129   0.0704   0.0572   0.0525
     0.0239   0.0154   0.0112   0.0066   0.0047   0.0045   0.0027   0.0016
     0.0012   0.0001   0.0001   0.0000   0.0000   0.0000   0.0000   0.0000
     0.0000   0.0000   0.0000   0.0000   0.0000   0.0000   0.0000   0.0000
     0.0000   0.0000   0.0000   0.0000   0.0000   0.0000   0.0000   0.0000

          k = 0.2500 0.0000 0.0000 ( 65257 PWs)   bands (ev):

   -92.6940 -92.6376 -92.5473 -92.4927 -92.4409 -92.4001 -92.3826 -92.2596
   -56.0474 -56.0240 -55.9048 -55.8946 -55.8817 -55.8815 -55.8426 -55.8167
[...]
     0.7440   0.7257   0.7189   0.7148   0.7049   0.6990   0.6918   0.6803
     0.6769   0.6643   0.6573   0.6540   0.6467   0.6333   0.6221   0.6193
     0.6144   0.6107   0.6051   0.5995   0.5178   0.3509   0.3210   0.2051
     0.0807   0.0433   0.0216   0.0059   0.0050   0.0003   0.0001   0.0001
     0.0000   0.0000   0.0000   0.0000   0.0000   0.0000   0.0000   0.0000
     0.0000   0.0000   0.0000   0.0000   0.0000   0.0000   0.0000   0.0000
     0.0000   0.0000   0.0000   0.0000   0.0000   0.0000   0.0000   0.0000

          k =-0.5000 0.0000 0.0000 ( 65180 PWs)   bands (ev):

   -92.6940 -92.6376 -92.5473 -92.4927 -92.4409 -92.4001 -92.3826 -92.2596
   -56.0474 -56.0240 -55.9048 -55.8946 -55.8817 -55.8815 -55.8426 -55.8167
   -55.8011 -55.7995 -55.7889 -55.7488 -55.7273 -55.6920 -55.6735 -55.6411
   -55.6238 -55.5884 -55.5854 -55.5854 -55.5769 -55.5345 -55.5130 -55.4269
   -31.2667 -31.2553 -31.1087 -31.0614 -31.0237 -30.9792 -30.9279 -30.8140
   -29.8406 -29.8016 -29.7727 -29.6663 -15.0095 -14.9614 -14.8988 -14.7906
   -14.6841 -14.5404 -14.4003 -14.2554 -14.1277 -14.1211 -14.1013 -14.0479
   -13.9865 -13.9553 -13.9106 -13.9015 -13.8858 -13.8325 -13.8191 -13.7204
   -13.5478 -13.5353 -13.4888 -13.4806 -13.4291 -13.3581 -13.3273 -13.2609
   -13.2375 -13.2359 -13.0564 -13.0472 -13.0353 -13.0112 -13.0018 -12.9966
   -12.9391 -12.9188 -12.8721 -12.8553 -12.8154 -12.7597 -12.7287 -12.7074
   -12.6331 -12.6239 -12.5340 -12.4816 -12.3352 -12.3202 -12.2140 -12.1791
   -11.7730 -11.7520 -11.7448 -11.7305 -11.7125 -11.6711 -11.6078 -11.5901
   -11.5573 -11.5134 -11.5040 -11.4880  -2.5768  -2.5378  -2.3736  -2.3344
    -2.0221  -1.9476  -1.7976  -1.6801  -1.6410  -1.5967  -1.5477  -1.5217
    -1.3995  -1.3545  -1.3408  -1.2577  -1.2216  -1.2094  -1.1747  -1.1183
    -1.0499  -1.0192  -0.9926  -0.8968  -0.8491  -0.8012  -0.7675  -0.7462
    -0.7178  -0.6679  -0.6436  -0.6054  -0.5127  -0.4354  -0.3756  -0.3107
    -0.1466  -0.1114  -0.0497  -0.0267   0.0429   0.0571   0.1932   0.2249
     0.2643   0.4468   0.5453   0.5919   0.6634   0.7366   0.8610   0.8728
     1.0110   1.0352   1.0874   1.1101   1.1524   1.1665   1.2101   1.2352
     1.3008   1.3494   1.3968   1.4031   1.6984   1.7076   1.7275   1.7463
     1.8595   1.8712   1.8827   1.8972   1.9231   1.9335   1.9726   2.0014
     2.0232   2.0837   2.0917   2.1453   2.1655   2.2247   2.3263   2.4353
     2.5036   2.5222   2.5897   2.6334   2.6591   2.7272   2.7342   2.7447
     2.7716   2.8228   2.8467   2.8979   2.9338   2.9762   3.0057   3.0105
     3.0116   3.0293   3.0369   3.0494   3.0649   3.0680   3.0931   3.1038
     3.1183   3.1361   3.1410   3.2714   3.2942   4.0625   4.1240   4.1900
     4.3839   4.7976   4.8691   5.0322   5.0650   5.4907   5.5268   5.5886
     5.6634   5.9637   6.0402   6.0758   6.6437   6.8096   7.0104   7.2915
     7.3028   7.3253   7.4099   7.4770   7.5423   7.7843   7.8517   7.8963
     8.1025   8.2543   8.3848   8.5325   8.6333   8.7123   8.7684   8.8283

     occupation numbers 
     1.0000   1.0000   1.0000   1.0000   1.0000   1.0000   1.0000   1.0000
     1.0000   1.0000   1.0000   1.0000   1.0000   1.0000   1.0000   1.0000
     1.0000   1.0000   1.0000   1.0000   1.0000   1.0000   1.0000   1.0000
     1.0000   1.0000   1.0000   1.0000   1.0000   1.0000   1.0000   1.0000
     1.0000   1.0000   1.0000   1.0000   1.0000   1.0000   1.0000   1.0000
     1.0000   1.0000   1.0000   1.0000   1.0000   1.0000   1.0000   1.0000
     1.0000   1.0000   1.0000   1.0000   1.0000   1.0000   1.0000   1.0000
     1.0000   1.0000   1.0000   1.0000   1.0000   1.0000   1.0000   1.0000
     1.0000   1.0000   1.0000   1.0000   1.0000   1.0000   1.0000   1.0000
     1.0000   1.0000   1.0000   1.0000   1.0000   1.0000   1.0000   1.0000
     1.0000   1.0000   1.0000   1.0000   1.0000   1.0000   1.0000   1.0000
     1.0000   1.0000   1.0000   1.0000   1.0000   1.0000   1.0000   1.0000
     1.0000   1.0000   1.0000   1.0000   1.0000   1.0000   1.0000   1.0000
     1.0000   1.0000   1.0000   1.0000   1.0000   1.0000   1.0000   1.0000
     1.0000   1.0000   1.0000   1.0000   1.0000   1.0000   1.0000   1.0000
     1.0000   1.0000   1.0000   1.0000   1.0000   1.0000   1.0000   1.0000
     1.0000   1.0000   1.0000   1.0000   1.0000   1.0000   1.0000   1.0000
     1.0000   1.0000   1.0000   1.0000   1.0000   1.0000   1.0000   1.0000
     1.0000   1.0000   1.0000   1.0000   1.0000   1.0000   1.0000   1.0000
     1.0000   1.0000   1.0000   1.0000   1.0000   0.9999   0.9999   0.9999
     0.9997   0.9997   0.9996   0.9995   0.9994   0.9994   0.9992   0.9991
     0.9987   0.9984   0.9980   0.9979   0.9924   0.9921   0.9915   0.9908
     0.9857   0.9851   0.9844   0.9835   0.9819   0.9812   0.9784   0.9761
     0.9742   0.9683   0.9674   0.9612   0.9586   0.9502   0.9327   0.9089
     0.8912   0.8859   0.8654   0.8509   0.8418   0.8162   0.8134   0.8092
     0.7981   0.7760   0.7653   0.7413   0.7238   0.7023   0.6870   0.6845
     0.6839   0.6745   0.6704   0.6636   0.6552   0.6535   0.6397   0.6337
     0.6255   0.6155   0.6127   0.5369   0.5235   0.1396   0.1203   0.1018
     0.0595   0.0149   0.0113   0.0058   0.0051   0.0007   0.0006   0.0004
     0.0003   0.0000   0.0000   0.0000   0.0000   0.0000   0.0000   0.0000
     0.0000   0.0000   0.0000   0.0000   0.0000   0.0000   0.0000   0.0000
     0.0000   0.0000   0.0000   0.0000   0.0000   0.0000   0.0000   0.0000

          k =-0.2500 0.2500 0.0000 ( 65198 PWs)   bands (ev):

   -92.6940 -92.6376 -92.5473 -92.4927 -92.4409 -92.4001 -92.3826 -92.2596
   -56.0474 -56.0240 -55.9048 -55.8946 -55.8817 -55.8815 -55.8426 -55.8167
   -55.8011 -55.7995 -55.7890 -55.7488 -55.7273 -55.6920 -55.6735 -55.6411
   -55.6238 -55.5884 -55.5854 -55.5854 -55.5769 -55.5345 -55.5130 -55.4270
   -31.2687 -31.2530 -31.1093 -31.0613 -31.0235 -30.9797 -30.9274 -30.8141
   -29.8410 -29.8002 -29.7737 -29.6662 -15.0114 -14.9756 -14.8984 -14.7806
   -14.6741 -14.5474 -14.4573 -14.2544 -14.1107 -14.0805 -14.0685 -14.0228
   -13.9973 -13.9802 -13.9698 -13.9213 -13.8323 -13.8207 -13.6661 -13.6413
   -13.6153 -13.5919 -13.5602 -13.4915 -13.4429 -13.4285 -13.3125 -13.2833
   -13.2167 -13.1396 -13.0966 -13.0339 -13.0209 -13.0016 -12.9805 -12.9453
   -12.9211 -12.9197 -12.9055 -12.8470 -12.8095 -12.7831 -12.7635 -12.7490
   -12.7218 -12.6844 -12.5301 -12.4466 -12.4351 -12.2760 -12.1465 -12.1032
   -11.7935 -11.7717 -11.7447 -11.7323 -11.6918 -11.6568 -11.6339 -11.6121
   -11.5896 -11.5056 -11.4597 -11.4503  -2.6617  -2.4524  -2.3318  -2.2441
    -2.1249  -2.0577  -1.8564  -1.7097  -1.6907  -1.6633  -1.5706  -1.5349
    -1.4424  -1.4087  -1.3827  -1.2390  -1.1839  -1.1169  -1.0882  -1.0283
    -1.0053  -0.9650  -0.9359  -0.8962  -0.8336  -0.7862  -0.7261  -0.6555
    -0.6297  -0.5776  -0.5489  -0.5040  -0.4485  -0.4085  -0.3610  -0.2651
    -0.2298  -0.2198  -0.1740  -0.1074  -0.0352   0.0076   0.0345   0.1030
     0.1358   0.3931   0.5587   0.6049   0.6411   0.6985   0.7429   0.8035
     0.8703   0.8991   1.1809   1.2941   1.3331   1.3652   1.3727   1.4150
     1.4339   1.4764   1.5077   1.5235   1.5496   1.5909   1.6046   1.6507
     1.6647   1.7116   1.7983   1.8163   1.8316   1.8720   1.8980   1.9341
     1.9914   2.0919   2.2050   2.2370   2.2804   2.3018   2.3724   2.4138
     2.4378   2.4588   2.4839   2.5837   2.6187   2.7086   2.8263   2.8896
     2.9019   2.9126   2.9236   2.9326   2.9473   2.9533   2.9715   2.9849
     2.9956   3.0039   3.0162   3.0260   3.0320   3.0643   3.0772   3.0847
     3.1183   3.4111   3.4943   3.5562   3.6369   3.6856   3.8420   3.9697
     4.3052   4.5387   4.7221   4.9904   5.1748   5.6509   5.6801   5.7520
     5.8410   5.9027   6.0014   6.1747   6.2256   6.7208   6.9027   7.0427
     7.1112   7.5741   7.6169   7.6703   7.6858   7.8845   7.9183   8.1170
     8.1364   8.2381   8.3015   8.3426   8.4276   8.4559   8.4967   8.8680

     occupation numbers 
     1.0000   1.0000   1.0000   1.0000   1.0000   1.0000   1.0000   1.0000
     1.0000   1.0000   1.0000   1.0000   1.0000   1.0000   1.0000   1.0000
     1.0000   1.0000   1.0000   1.0000   1.0000   1.0000   1.0000   1.0000
     1.0000   1.0000   1.0000   1.0000   1.0000   1.0000   1.0000   1.0000
     1.0000   1.0000   1.0000   1.0000   1.0000   1.0000   1.0000   1.0000
     1.0000   1.0000   1.0000   1.0000   1.0000   1.0000   1.0000   1.0000
     1.0000   1.0000   1.0000   1.0000   1.0000   1.0000   1.0000   1.0000
     1.0000   1.0000   1.0000   1.0000   1.0000   1.0000   1.0000   1.0000
     1.0000   1.0000   1.0000   1.0000   1.0000   1.0000   1.0000   1.0000
     1.0000   1.0000   1.0000   1.0000   1.0000   1.0000   1.0000   1.0000
     1.0000   1.0000   1.0000   1.0000   1.0000   1.0000   1.0000   1.0000
     1.0000   1.0000   1.0000   1.0000   1.0000   1.0000   1.0000   1.0000
     1.0000   1.0000   1.0000   1.0000   1.0000   1.0000   1.0000   1.0000
     1.0000   1.0000   1.0000   1.0000   1.0000   1.0000   1.0000   1.0000
     1.0000   1.0000   1.0000   1.0000   1.0000   1.0000   1.0000   1.0000
     1.0000   1.0000   1.0000   1.0000   1.0000   1.0000   1.0000   1.0000
     1.0000   1.0000   1.0000   1.0000   1.0000   1.0000   1.0000   1.0000
     1.0000   1.0000   1.0000   1.0000   1.0000   1.0000   1.0000   1.0000
     1.0000   1.0000   1.0000   1.0000   1.0000   1.0000   1.0000   1.0000
     1.0000   1.0000   1.0000   1.0000   1.0000   1.0000   0.9999   0.9999
     0.9999   0.9999   0.9993   0.9988   0.9985   0.9983   0.9982   0.9978
     0.9976   0.9971   0.9967   0.9964   0.9960   0.9952   0.9949   0.9938
     0.9934   0.9920   0.9887   0.9879   0.9872   0.9850   0.9835   0.9812
     0.9769   0.9674   0.9532   0.9483   0.9411   0.9373   0.9233   0.9141
     0.9083   0.9031   0.8965   0.8674   0.8559   0.8234   0.7745   0.7453
     0.7394   0.7342   0.7288   0.7244   0.7170   0.7140   0.7048   0.6978
     0.6922   0.6879   0.6814   0.6762   0.6730   0.6555   0.6484   0.6443
     0.6256   0.4543   0.4058   0.3707   0.3263   0.3007   0.2253   0.1725
     0.0746   0.0368   0.0196   0.0070   0.0031   0.0003   0.0002   0.0002
     0.0001   0.0001   0.0000   0.0000   0.0000   0.0000   0.0000   0.0000
     0.0000   0.0000   0.0000   0.0000   0.0000   0.0000   0.0000   0.0000
     0.0000   0.0000   0.0000   0.0000   0.0000   0.0000   0.0000   0.0000

          k =-0.5000 0.2500 0.0000 ( 65138 PWs)   bands (ev):

   -92.6940 -92.6376 -92.5473 -92.4927 -92.4409 -92.4001 -92.3826 -92.2596
   -56.0474 -56.0240 -55.9048 -55.8946 -55.8817 -55.8815 -55.8426 -55.8167
   -55.8011 -55.7995 -55.7889 -55.7488 -55.7273 -55.6920 -55.6735 -55.6411
   -55.6238 -55.5884 -55.5854 -55.5854 -55.5769 -55.5345 -55.5130 -55.4269
   -31.2665 -31.2552 -31.1089 -31.0611 -31.0239 -30.9796 -30.9276 -30.8143
   -29.8400 -29.8013 -29.7733 -29.6666 -14.9773 -14.9345 -14.8559 -14.7566
   -14.7130 -14.5870 -14.5035 -14.3724 -14.0616 -14.0313 -14.0194 -13.9753
   -13.9555 -13.9274 -13.8961 -13.8869 -13.8643 -13.8227 -13.8118 -13.7102
   -13.6308 -13.5940 -13.5810 -13.5701 -13.4831 -13.4622 -13.3664 -13.3110
   -13.1935 -13.1571 -13.0609 -13.0225 -13.0099 -13.0073 -12.9800 -12.9485
   -12.9415 -12.9332 -12.9020 -12.8290 -12.8140 -12.7840 -12.7450 -12.7340
   -12.6151 -12.6076 -12.5322 -12.4511 -12.3157 -12.3000 -12.2087 -12.1829
   -11.7659 -11.7533 -11.7392 -11.7271 -11.7062 -11.6758 -11.5949 -11.5865
   -11.5629 -11.5278 -11.4996 -11.4904  -2.4348  -2.3923  -2.2434  -2.2012
    -2.0411  -1.9664  -1.8220  -1.6862  -1.6304  -1.6030  -1.5637  -1.5243
    -1.4444  -1.3291  -1.2722  -1.2487  -1.2242  -1.1497  -1.1181  -1.0813
    -1.0624  -1.0022  -0.9742  -0.9339  -0.8986  -0.8699  -0.8126  -0.7857
    -0.7435  -0.7097  -0.6064  -0.5786  -0.4960  -0.4282  -0.3993  -0.3445
    -0.2558  -0.2225  -0.1235  -0.0843  -0.0284   0.0230   0.0403   0.1232
     0.1489   0.1800   0.2373   0.2750   0.5791   0.6411   0.7055   0.7206
     1.0191   1.0695   1.1488   1.1714   1.3520   1.3901   1.4264   1.4400
     1.4584   1.4760   1.5450   1.5873   1.6286   1.6529   1.7795   1.8105
     1.8441   1.8556   1.8969   1.9181   1.9325   1.9473   1.9699   1.9915
     2.0383   2.0572   2.0877   2.1113   2.1407   2.2026   2.3193   2.4267
     2.4486   2.5216   2.5600   2.6059   2.6579   2.6638   2.6998   2.7339
     2.7562   2.8318   2.8484   2.8920   2.9021   2.9105   2.9280   2.9504
     2.9618   2.9749   2.9904   3.0091   3.0216   3.0318   3.0406   3.0489
     3.0606   3.5862   3.6622   3.7796   3.8099   4.0711   4.1514   4.2018
     4.4465   4.7920   4.8862   5.0338   5.0915   5.4058   5.4388   5.5966
     5.6245   5.7595   5.7774   6.1203   6.3970   6.5002   6.5442   7.0073
     7.4317   7.5292   7.6237   7.7257   7.8039   7.8977   8.0314   8.1634
     8.2900   8.3747   8.4426   8.5201   8.5420   8.5969   8.6713   8.7527

     occupation numbers 
     1.0000   1.0000   1.0000   1.0000   1.0000   1.0000   1.0000   1.0000
     1.0000   1.0000   1.0000   1.0000   1.0000   1.0000   1.0000   1.0000
     1.0000   1.0000   1.0000   1.0000   1.0000   1.0000   1.0000   1.0000
     1.0000   1.0000   1.0000   1.0000   1.0000   1.0000   1.0000   1.0000
     1.0000   1.0000   1.0000   1.0000   1.0000   1.0000   1.0000   1.0000
     1.0000   1.0000   1.0000   1.0000   1.0000   1.0000   1.0000   1.0000
     1.0000   1.0000   1.0000   1.0000   1.0000   1.0000   1.0000   1.0000
     1.0000   1.0000   1.0000   1.0000   1.0000   1.0000   1.0000   1.0000
     1.0000   1.0000   1.0000   1.0000   1.0000   1.0000   1.0000   1.0000
     1.0000   1.0000   1.0000   1.0000   1.0000   1.0000   1.0000   1.0000
     1.0000   1.0000   1.0000   1.0000   1.0000   1.0000   1.0000   1.0000
     1.0000   1.0000   1.0000   1.0000   1.0000   1.0000   1.0000   1.0000
     1.0000   1.0000   1.0000   1.0000   1.0000   1.0000   1.0000   1.0000
     1.0000   1.0000   1.0000   1.0000   1.0000   1.0000   1.0000   1.0000
     1.0000   1.0000   1.0000   1.0000   1.0000   1.0000   1.0000   1.0000
     1.0000   1.0000   1.0000   1.0000   1.0000   1.0000   1.0000   1.0000
     1.0000   1.0000   1.0000   1.0000   1.0000   1.0000   1.0000   1.0000
     1.0000   1.0000   1.0000   1.0000   1.0000   1.0000   1.0000   1.0000
     1.0000   1.0000   1.0000   1.0000   1.0000   1.0000   1.0000   1.0000
     1.0000   1.0000   1.0000   1.0000   1.0000   1.0000   1.0000   0.9999
     0.9997   0.9996   0.9994   0.9993   0.9984   0.9981   0.9977   0.9975
     0.9973   0.9971   0.9960   0.9953   0.9943   0.9937   0.9895   0.9882
     0.9865   0.9859   0.9836   0.9822   0.9813   0.9802   0.9786   0.9769
     0.9728   0.9710   0.9679   0.9653   0.9618   0.9535   0.9340   0.9110
     0.9057   0.8861   0.8748   0.8601   0.8422   0.8401   0.8268   0.8135
     0.8045   0.7720   0.7645   0.7441   0.7393   0.7352   0.7266   0.7155
     0.7097   0.7030   0.6950   0.6852   0.6786   0.6731   0.6684   0.6639
     0.6576   0.3540   0.3130   0.2540   0.2398   0.1368   0.1124   0.0987
     0.0492   0.0152   0.0106   0.0058   0.0045   0.0010   0.0009   0.0004
     0.0003   0.0002   0.0001   0.0000   0.0000   0.0000   0.0000   0.0000
     0.0000   0.0000   0.0000   0.0000   0.0000   0.0000   0.0000   0.0000
     0.0000   0.0000   0.0000   0.0000   0.0000   0.0000   0.0000   0.0000

     the Fermi energy is     3.3339 ev

!    total energy              =   -4399.90954685 Ry
     estimated scf accuracy    <          5.9E-09 Ry
     smearing contrib. (-TS)   =      -1.14442774 Ry
     internal energy E=F+TS    =   -4398.76511911 Ry

     The total energy is F=E-TS. E is the sum of the following terms:
     one-electron contribution =  -21253.54982738 Ry
     hartree contribution      =   10754.95414428 Ry
     xc contribution           =    -686.72787884 Ry
     ewald contribution        =    7053.20385075 Ry
     one-center paw contrib.   =    -266.64540791 Ry
      -> PAW hartree energy AE =      25.17336156 Ry
      -> PAW hartree energy PS =     -25.05716128 Ry
      -> PAW xc energy AE      =     -16.51894559 Ry
      -> PAW xc energy PS      =       6.87849232 Ry
      -> total E_H with PAW    =   10755.07034456 Ry
      -> total E_XC with PAW   =    -696.36833211 Ry

     convergence has been achieved in  49 iterations

     Writing all to output data dir /bsuhome/zayahcortright/scratch/pwscf.save/
 
     init_run     :      7.78s CPU      8.20s WALL (       1 calls)
     electrons    :    702.65s CPU    715.26s WALL (       1 calls)

     Called by init_run:
     wfcinit      :      6.09s CPU      6.20s WALL (       1 calls)
     wfcinit:atom :      0.05s CPU      0.06s WALL (       5 calls)
     wfcinit:wfcr :      5.76s CPU      5.84s WALL (       5 calls)
     potinit      :      0.16s CPU      0.18s WALL (       1 calls)
     hinit0       :      0.55s CPU      0.77s WALL (       1 calls)

     Called by electrons:
     c_bands      :    553.81s CPU    558.99s WALL (      49 calls)
     sum_band     :    111.87s CPU    116.18s WALL (      49 calls)
     v_of_rho     :      5.43s CPU      5.69s WALL (      50 calls)
     v_h          :      0.48s CPU      0.48s WALL (      50 calls)
     v_xc         :      4.95s CPU      5.21s WALL (      50 calls)
     newd         :     16.81s CPU     19.26s WALL (      50 calls)
     PAW_pot      :      1.57s CPU      1.59s WALL (      50 calls)
     mix_rho      :     12.88s CPU     13.14s WALL (      49 calls)

     Called by c_bands:
     init_us_2    :      6.99s CPU      7.04s WALL (     495 calls)
     init_us_2:cp :      6.98s CPU      7.03s WALL (     495 calls)
     cegterg      :    523.16s CPU    528.00s WALL (     245 calls)

     Called by sum_band:
     sum_band:wei :      0.34s CPU      0.34s WALL (      49 calls)
     sum_band:loo :     91.95s CPU     92.60s WALL (      49 calls)
     sum_band:buf :      1.60s CPU      1.62s WALL (     245 calls)
     sum_band:ini :      3.32s CPU      3.33s WALL (     245 calls)
     sum_band:cal :     18.67s CPU     18.72s WALL (     245 calls)
     sum_band:bec :      0.57s CPU      0.57s WALL (     245 calls)
     addusdens    :     18.25s CPU     21.88s WALL (      49 calls)
                                        0.00s GPU  (      49 calls)
     addusd:skk   :      0.34s CPU      0.66s WALL (     196 calls)
                                        0.00s GPU  (     196 calls)

     Called by *egterg:
     cdiaghg      :     54.88s CPU     55.11s WALL (    1313 calls)
     cegterg:over :     38.21s CPU     38.33s WALL (    1068 calls)
     cegterg:upda :     28.17s CPU     28.51s WALL (    1068 calls)
     cegterg:last :     57.05s CPU     57.24s WALL (     447 calls)
     cdiaghg:chol :      3.22s CPU      3.24s WALL (    1313 calls)
     cdiaghg:inve :      3.45s CPU      3.46s WALL (    1313 calls)
     cdiaghg:para :      7.04s CPU      7.09s WALL (    2626 calls)
     h_psi        :    290.46s CPU    293.34s WALL (    1318 calls)
     s_psi        :     38.61s CPU     38.74s WALL (    1318 calls)
     g_psi        :      1.16s CPU      1.16s WALL (    1068 calls)

     Called by h_psi:
     h_psi:calbec :     42.87s CPU     43.03s WALL (    1318 calls)
     vloc_psi     :    205.73s CPU    207.90s WALL (    1318 calls)
     add_vuspsi   :     38.56s CPU     38.68s WALL (    1318 calls)

     General routines
     calbec       :     61.53s CPU     61.74s WALL (    1563 calls)
     fft          :      3.63s CPU      3.68s WALL (     648 calls)
     ffts         :      4.66s CPU      4.69s WALL (    5167 calls)
     fftw         :    176.22s CPU    177.81s WALL (  328308 calls)
     interpolate  :      0.41s CPU      0.41s WALL (      50 calls)
 
     Parallel routines

     PAW routines
     PAW_pot      :      1.57s CPU      1.59s WALL (      50 calls)
 
     PWSCF        :  11m54.85s CPU  12m10.99s WALL

 
   This run was terminated on:  20: 2:45  21Jun2024            

=------------------------------------------------------------------------------=
   JOB DONE.
=------------------------------------------------------------------------------=
