
     Program PWSCF v.7.2 starts on 21Jun2024 at 21:59:47 

     This program is part of the open-source Quantum ESPRESSO suite
     for quantum simulation of materials; please cite
         "P. Giannozzi et al., J. Phys.:Condens. Matter 21 395502 (2009);
         "P. Giannozzi et al., J. Phys.:Condens. Matter 29 465901 (2017);
         "P. Giannozzi et al., J. Chem. Phys. 152 154105 (2020);
          URL http://www.quantum-espresso.org", 
     in publications or presentations arising from this work. More details at
     http://www.quantum-espresso.org/quote

     Parallel version (MPI & OpenMP), running on      48 processor cores
     Number of MPI processes:                48
     Threads/MPI process:                     1

     MPI processes distributed on     1 nodes
     33225 MiB available memory on the printing compute node when the environment starts
 
     Reading input from espresso.pwi
Warning: card &CELL ignored
Warning: card / ignored
Warning: card &FCP ignored
Warning: card / ignored
Warning: card &RISM ignored
Warning: card / ignored

     Current dimensions of program PWSCF are:
     Max number of different atomic species (ntypx) = 10
     Max number of k-points (npk) =  40000
     Max angular momentum in pseudopotentials (lmaxx) =  4
     file O.pbe-n-kjpaw_psl.0.1.UPF: wavefunction(s)  2P renormalized
     signal trapping enabled: kill the code with -SIGUSR1 to stop cleanly the simulation 
 
     K-points division:     npool     =       2
     R & G space division:  proc/nbgrp/npool/nimage =      24
     Subspace diagonalization in iterative solution of the eigenvalue problem:
     one sub-group per band group will be used
     scalapack distributed-memory algorithm (size of sub-group:  3*  3 procs)

 
     Parallelization info
     --------------------
     sticks:   dense  smooth     PW     G-vecs:    dense   smooth      PW
     Min         350     175     47                61430    21716    3036
     Max         351     177     48                61449    21727    3041
     Sum        8421    4205   1137              1474595   521381   72913
 
     Using Slab Decomposition
 


     bravais-lattice index     =            0
     lattice parameter (alat)  =      14.8599  a.u.
     unit-cell volume          =    8305.1283 (a.u.)^3
     number of atoms/cell      =           50
     number of atomic types    =            4
     number of electrons       =       431.00
     number of Kohn-Sham states=          259
     kinetic-energy cutoff     =      60.0000  Ry
     charge density cutoff     =     480.0000  Ry
     scf convergence threshold =      1.0E-08
     mixing beta               =       0.1500
     number of iterations used =            8  local-TF  mixing
     Exchange-correlation= PBE
                           (   1   4   3   4   0   0   0)

     celldm(1)=  14.859904  celldm(2)=   0.000000  celldm(3)=   0.000000
     celldm(4)=   0.000000  celldm(5)=   0.000000  celldm(6)=   0.000000

     crystal axes: (cart. coord. in units of alat)
               a(1) = (   1.000000   0.000000   0.000000 )  
               a(2) = (   0.000000   1.000000   0.000000 )  
               a(3) = (   0.000000   0.000000   2.531036 )  

     reciprocal axes: (cart. coord. in units 2 pi/alat)
               b(1) = (  1.000000  0.000000  0.000000 )  
               b(2) = (  0.000000  1.000000  0.000000 )  
               b(3) = (  0.000000  0.000000  0.395095 )  


     PseudoPot. # 1 for Sr read from file:
     /bsuhome/zayahcortright/q-e/pseudo/Sr_pbe_v1.uspp.F.UPF
     MD5 check sum: 6b418c05fbe9db5448babca5e47b7a5b
     Pseudo is Ultrasoft + core correction, Zval = 10.0
     Generated by new atomic code, or converted to UPF format
     Using radial grid of  883 points,  6 beta functions with: 
                l(1) =   0
                l(2) =   0
                l(3) =   1
                l(4) =   1
                l(5) =   2
                l(6) =   2
     Q(r) pseudized with  6 coefficients,  rinner =    1.400   1.400   1.400
                                                       1.400   1.400

     PseudoPot. # 2 for O  read from file:
     /bsuhome/zayahcortright/q-e/pseudo/O.pbe-n-kjpaw_psl.0.1.UPF
     MD5 check sum: 0234752ac141de4415c5fc33072bef88
     Pseudo is Projector augmented-wave + core cor, Zval =  6.0
     Generated using "atomic" code by A. Dal Corso  v.5.0.99 svn rev. 10869
     Shape of augmentation charge: BESSEL
     Using radial grid of 1095 points,  4 beta functions with: 
                l(1) =   0
                l(2) =   0
                l(3) =   1
                l(4) =   1
     Q(r) pseudized with 0 coefficients 


     PseudoPot. # 3 for Co read from file:
     /bsuhome/zayahcortright/q-e/pseudo/Co_pbe_v1.2.uspp.F.UPF
     MD5 check sum: 5f91765df6ddd3222702df6e7b74a16d
     Pseudo is Ultrasoft + core correction, Zval = 17.0
     Generated by new atomic code, or converted to UPF format
     Using radial grid of  863 points,  6 beta functions with: 
                l(1) =   0
                l(2) =   0
                l(3) =   1
                l(4) =   1
                l(5) =   2
                l(6) =   2
     Q(r) pseudized with  8 coefficients,  rinner =    1.200   1.200   1.200
                                                       1.200   1.200

     PseudoPot. # 4 for H  read from file:
     /bsuhome/zayahcortright/q-e/pseudo/H.pbe-rrkjus_psl.1.0.0.UPF
     MD5 check sum: f52b6d4d1c606e5624b1dc7b2218f220
     Pseudo is Ultrasoft, Zval =  1.0
     Generated using "atomic" code by A. Dal Corso  v.5.1
     Using radial grid of  929 points,  2 beta functions with: 
                l(1) =   0
                l(2) =   0
     Q(r) pseudized with 0 coefficients 


     atomic species   valence    mass     pseudopotential
        Sr            10.00    87.62000     Sr( 1.00)
        O              6.00    15.99900     O ( 1.00)
        Co            17.00    58.93319     Co( 1.00)
        H              1.00     1.00800     H ( 1.00)

     No symmetry found


                                    s                        frac. trans.

      isym =  1     identity                                     

 cryst.   s( 1) = (     1          0          0      )
                  (     0          1          0      )
                  (     0          0          1      )

 cart.    s( 1) = (  1.0000000  0.0000000  0.0000000 )
                  (  0.0000000  1.0000000  0.0000000 )
                  (  0.0000000  0.0000000  1.0000000 )


   Cartesian axes

     site n.     atom                  positions (alat units)
         1           Sr  tau(   1) = (   0.2508693   0.7491307   1.7574407  )
         2           O   tau(   2) = (   0.4985141   0.5014859   1.7715967  )
         3           Sr  tau(   3) = (   0.7482398   0.7454518   1.7648669  )
         4           Sr  tau(   4) = (   0.7441748   0.2558252   1.7667843  )
         5           Sr  tau(   5) = (   0.2508693   0.7491307   1.2696799  )
         6           Sr  tau(   6) = (   0.2508693   0.7491307   0.7632319  )
         7           Co  tau(   7) = (   0.4998914   0.5001086   1.0164559  )
         8           Co  tau(   8) = (   0.4936915   0.5063085   1.5135603  )
         9           O   tau(   9) = (   0.4988895   0.7610401   1.0164559  )
        10           O   tau(  10) = (   0.2389599   0.5011105   1.0164559  )
        11           O   tau(  11) = (   0.0070918   0.7374880   1.0164559  )
        12           O   tau(  12) = (   0.0088340   0.7405089   1.5135603  )
        13           O   tau(  13) = (   0.5066944   0.7415376   1.5135603  )
        14           O   tau(  14) = (   0.2584624   0.4933056   1.5135603  )
        15           O   tau(  15) = (   0.4985141   0.5014859   0.7773880  )
        16           O   tau(  16) = (   0.4985141   0.5014859   1.2555238  )
        17           Sr  tau(  17) = (   0.7482398   0.7454518   0.7706582  )
        18           Sr  tau(  18) = (   0.7482398   0.7454518   1.2622536  )
        19           Sr  tau(  19) = (   0.7441748   0.2558252   0.7725755  )
        20           Sr  tau(  20) = (   0.7441748   0.2558252   1.2603363  )
        21           O   tau(  21) = (   0.7322655   0.0078049   1.5135603  )
        22           O   tau(  22) = (   0.7558175   0.4996027   1.5135603  )
        23           O   tau(  23) = (   0.5003973   0.2441825   1.5135603  )
        24           O   tau(  24) = (   0.7527966   0.4978604   1.0164559  )
        25           O   tau(  25) = (   0.5021396   0.2472034   1.0164559  )
        26           O   tau(  26) = (   0.7517679   0.0000000   1.0164559  )
        27           O   tau(  27) = (   0.0114961   0.4948124   1.7455321  )
        28           O   tau(  28) = (   0.0048226   0.0077944   1.7715967  )
        29           Sr  tau(  29) = (   0.2545482   0.2517602   1.7648669  )
        30           O   tau(  30) = (   0.5048017   0.0015068   1.7786929  )
        31           Co  tau(  31) = (   0.0056869   0.5006215   1.0164559  )
        32           Co  tau(  32) = (   0.0065315   0.4997770   1.5135603  )
        33           Co  tau(  33) = (   0.0061999   0.0064171   1.0164559  )
        34           Co  tau(  34) = (   0.0000000   0.0126169   1.5135603  )
        35           O   tau(  35) = (   0.0114961   0.4948124   1.2815885  )
        36           O   tau(  36) = (   0.0114961   0.4948124   0.7513233  )
        37           O   tau(  37) = (   0.0051979   0.2673486   1.0164559  )
        38           O   tau(  38) = (   0.0130029   0.2478461   1.5135603  )
        39           O   tau(  39) = (   0.0048226   0.0077944   0.7773880  )
        40           O   tau(  40) = (   0.0048226   0.0077944   1.2555238  )
        41           Sr  tau(  41) = (   0.2545482   0.2517602   0.7706582  )
        42           Sr  tau(  42) = (   0.2545482   0.2517602   1.2622536  )
        43           Co  tau(  43) = (   0.4989925   0.0073160   1.5135603  )
        44           Co  tau(  44) = (   0.4998370   0.0064714   1.0164559  )
        45           O   tau(  45) = (   0.5048017   0.0015068   0.7844841  )
        46           O   tau(  46) = (   0.5048017   0.0015068   1.2484277  )
        47           O   tau(  47) = (   0.2621260   0.0059111   1.5135603  )
        48           O   tau(  48) = (   0.2591051   0.0041689   1.0164559  )
        49           O   tau(  49) = (   0.5686583   0.0000000   2.1602013  )
        50           H   tau(  50) = (   0.5686583   0.0000000   2.2847091  )

   Crystallographic axes

     site n.     atom                  positions (cryst. coord.)
         1           Sr  tau(   1) = (  0.2508693  0.7491307  0.6943562  )
         2           O   tau(   2) = (  0.4985141  0.5014859  0.6999492  )
         3           Sr  tau(   3) = (  0.7482398  0.7454518  0.6972903  )
         4           Sr  tau(   4) = (  0.7441748  0.2558252  0.6980478  )
         5           Sr  tau(   5) = (  0.2508693  0.7491307  0.5016443  )
         6           Sr  tau(   6) = (  0.2508693  0.7491307  0.3015492  )
         7           Co  tau(   7) = (  0.4998914  0.5001086  0.4015968  )
         8           Co  tau(   8) = (  0.4936915  0.5063085  0.5980003  )
         9           O   tau(   9) = (  0.4988895  0.7610401  0.4015968  )
        10           O   tau(  10) = (  0.2389599  0.5011105  0.4015968  )
        11           O   tau(  11) = (  0.0070918  0.7374880  0.4015968  )
        12           O   tau(  12) = (  0.0088340  0.7405089  0.5980003  )
        13           O   tau(  13) = (  0.5066944  0.7415376  0.5980003  )
        14           O   tau(  14) = (  0.2584624  0.4933056  0.5980003  )
        15           O   tau(  15) = (  0.4985141  0.5014859  0.3071422  )
        16           O   tau(  16) = (  0.4985141  0.5014859  0.4960513  )
        17           Sr  tau(  17) = (  0.7482398  0.7454518  0.3044833  )
        18           Sr  tau(  18) = (  0.7482398  0.7454518  0.4987103  )
        19           Sr  tau(  19) = (  0.7441748  0.2558252  0.3052408  )
        20           Sr  tau(  20) = (  0.7441748  0.2558252  0.4979527  )
        21           O   tau(  21) = (  0.7322655  0.0078049  0.5980003  )
        22           O   tau(  22) = (  0.7558175  0.4996027  0.5980003  )
        23           O   tau(  23) = (  0.5003973  0.2441825  0.5980003  )
        24           O   tau(  24) = (  0.7527966  0.4978604  0.4015968  )
        25           O   tau(  25) = (  0.5021396  0.2472034  0.4015968  )
        26           O   tau(  26) = (  0.7517679  0.0000000  0.4015968  )
        27           O   tau(  27) = (  0.0114961  0.4948124  0.6896512  )
        28           O   tau(  28) = (  0.0048226  0.0077944  0.6999492  )
        29           Sr  tau(  29) = (  0.2545482  0.2517602  0.6972903  )
        30           O   tau(  30) = (  0.5048017  0.0015068  0.7027529  )
        31           Co  tau(  31) = (  0.0056869  0.5006215  0.4015968  )
        32           Co  tau(  32) = (  0.0065315  0.4997770  0.5980003  )
        33           Co  tau(  33) = (  0.0061999  0.0064171  0.4015968  )
        34           Co  tau(  34) = (  0.0000000  0.0126169  0.5980003  )
        35           O   tau(  35) = (  0.0114961  0.4948124  0.5063494  )
        36           O   tau(  36) = (  0.0114961  0.4948124  0.2968442  )
        37           O   tau(  37) = (  0.0051979  0.2673486  0.4015968  )
        38           O   tau(  38) = (  0.0130029  0.2478461  0.5980003  )
        39           O   tau(  39) = (  0.0048226  0.0077944  0.3071422  )
        40           O   tau(  40) = (  0.0048226  0.0077944  0.4960513  )
        41           Sr  tau(  41) = (  0.2545482  0.2517602  0.3044833  )
        42           Sr  tau(  42) = (  0.2545482  0.2517602  0.4987103  )
        43           Co  tau(  43) = (  0.4989925  0.0073160  0.5980003  )
        44           Co  tau(  44) = (  0.4998370  0.0064714  0.4015968  )
        45           O   tau(  45) = (  0.5048017  0.0015068  0.3099459  )
        46           O   tau(  46) = (  0.5048017  0.0015068  0.4932477  )
        47           O   tau(  47) = (  0.2621260  0.0059111  0.5980003  )
        48           O   tau(  48) = (  0.2591051  0.0041689  0.4015968  )
        49           O   tau(  49) = (  0.5686583  0.0000000  0.8534850  )
        50           H   tau(  50) = (  0.5686583  0.0000000  0.9026774  )

     number of k points=    10  Gaussian smearing, width (Ry)=  0.0700
                       cart. coord. in units 2pi/alat
        k(    1) = (   0.0000000   0.0000000   0.0000000), wk =   0.1250000
        k(    2) = (   0.0000000   0.2500000   0.0000000), wk =   0.2500000
        k(    3) = (   0.0000000  -0.5000000   0.0000000), wk =   0.1250000
        k(    4) = (   0.2500000   0.2500000   0.0000000), wk =   0.2500000
        k(    5) = (   0.2500000  -0.5000000   0.0000000), wk =   0.2500000
        k(    6) = (  -0.5000000  -0.5000000   0.0000000), wk =   0.1250000
        k(    7) = (   0.2500000   0.0000000   0.0000000), wk =   0.2500000
        k(    8) = (  -0.5000000   0.0000000   0.0000000), wk =   0.1250000
        k(    9) = (  -0.2500000   0.2500000   0.0000000), wk =   0.2500000
        k(   10) = (  -0.5000000   0.2500000   0.0000000), wk =   0.2500000

                       cryst. coord.
        k(    1) = (   0.0000000   0.0000000   0.0000000), wk =   0.1250000
        k(    2) = (   0.0000000   0.2500000   0.0000000), wk =   0.2500000
        k(    3) = (   0.0000000  -0.5000000   0.0000000), wk =   0.1250000
        k(    4) = (   0.2500000   0.2500000   0.0000000), wk =   0.2500000
        k(    5) = (   0.2500000  -0.5000000   0.0000000), wk =   0.2500000
        k(    6) = (  -0.5000000  -0.5000000   0.0000000), wk =   0.1250000
        k(    7) = (   0.2500000   0.0000000   0.0000000), wk =   0.2500000
        k(    8) = (  -0.5000000   0.0000000   0.0000000), wk =   0.1250000
        k(    9) = (  -0.2500000   0.2500000   0.0000000), wk =   0.2500000
        k(   10) = (  -0.5000000   0.2500000   0.0000000), wk =   0.2500000

     Dense  grid:  1474595 G-vectors     FFT dimensions: ( 108, 108, 270)

     Smooth grid:   521381 G-vectors     FFT dimensions: (  75,  75, 192)

     Dynamical RAM for                 wfc:      10.73 MB

     Dynamical RAM for     wfc (w. buffer):      64.38 MB

     Dynamical RAM for           str. fact:       3.75 MB

     Dynamical RAM for           local pot:       0.00 MB

     Dynamical RAM for          nlocal pot:      24.61 MB

     Dynamical RAM for                qrad:       7.03 MB

     Dynamical RAM for          rho,v,vnew:       6.02 MB

     Dynamical RAM for               rhoin:       2.01 MB

     Dynamical RAM for            rho*nmix:      15.00 MB

     Dynamical RAM for           G-vectors:       3.68 MB

     Dynamical RAM for          h,s,v(r/c):       1.35 MB

     Dynamical RAM for          <psi|beta>:       2.35 MB

     Dynamical RAM for                 psi:      21.46 MB

     Dynamical RAM for                hpsi:      21.46 MB

     Dynamical RAM for                spsi:      21.46 MB

     Dynamical RAM for      wfcinit/wfcrot:      34.49 MB

     Dynamical RAM for           addusdens:     101.26 MB

     Estimated static dynamical RAM per process >     121.50 MB

     Estimated max dynamical RAM per process >     237.76 MB

     Estimated total dynamical RAM >      10.79 GB

     Check: negative core charge=   -0.000004

     Initial potential from superposition of free atoms

     starting charge     422.5961, renormalised to     431.0000

     negative rho (up, down):  7.820E-01 0.000E+00
     Starting wfcs are  377 randomized atomic wfcs
     Checking if some PAW data can be deallocated... 
       PAW data deallocated on   19 nodes for type:  2

     total cpu time spent up to now is        9.2 secs

     Self-consistent Calculation

     iteration #  1     ecut=    60.00 Ry     beta= 0.15
     Davidson diagonalization with overlap

---- Real-time Memory Report at c_bands before calling an iterative solver
             0 MiB given to the printing process from OS
             0 MiB allocation reported by mallinfo(arena+hblkhd)
         23980 MiB available memory on the node where the printing process lives
------------------
     ethr =  1.00E-02,  avg # of iterations =  2.0

     negative rho (up, down):  7.716E-01 0.000E+00

     total cpu time spent up to now is       25.5 secs

     total energy              =   -4446.64098559 Ry
     estimated scf accuracy    <      44.94996195 Ry

     iteration #  2     ecut=    60.00 Ry     beta= 0.15
     Davidson diagonalization with overlap

---- Real-time Memory Report at c_bands before calling an iterative solver
             0 MiB given to the printing process from OS
             0 MiB allocation reported by mallinfo(arena+hblkhd)
         24271 MiB available memory on the node where the printing process lives
------------------
     ethr =  1.00E-02,  avg # of iterations =  1.0

     negative rho (up, down):  7.579E-01 0.000E+00

     total cpu time spent up to now is       39.6 secs

     total energy              =   -4443.20849749 Ry
     estimated scf accuracy    <      29.67932803 Ry

     iteration #  3     ecut=    60.00 Ry     beta= 0.15
     Davidson diagonalization with overlap

---- Real-time Memory Report at c_bands before calling an iterative solver
             0 MiB given to the printing process from OS
             0 MiB allocation reported by mallinfo(arena+hblkhd)
         23417 MiB available memory on the node where the printing process lives
------------------
     ethr =  6.89E-03,  avg # of iterations =  1.0

     negative rho (up, down):  7.553E-01 0.000E+00

     total cpu time spent up to now is       54.0 secs

     total energy              =   -4444.26165463 Ry
     estimated scf accuracy    <      29.66585167 Ry

     iteration #  4     ecut=    60.00 Ry     beta= 0.15
     Davidson diagonalization with overlap

---- Real-time Memory Report at c_bands before calling an iterative solver
             0 MiB given to the printing process from OS
             0 MiB allocation reported by mallinfo(arena+hblkhd)
         23392 MiB available memory on the node where the printing process lives
------------------
     ethr =  6.88E-03,  avg # of iterations =  1.0

     negative rho (up, down):  7.492E-01 0.000E+00

     total cpu time spent up to now is       68.3 secs

     total energy              =   -4443.07154562 Ry
     estimated scf accuracy    <      21.38001698 Ry

     iteration #  5     ecut=    60.00 Ry     beta= 0.15
     Davidson diagonalization with overlap

---- Real-time Memory Report at c_bands before calling an iterative solver
             0 MiB given to the printing process from OS
             0 MiB allocation reported by mallinfo(arena+hblkhd)
         23373 MiB available memory on the node where the printing process lives
------------------
     ethr =  4.96E-03,  avg # of iterations =  1.0

     negative rho (up, down):  7.407E-01 0.000E+00

     total cpu time spent up to now is       82.9 secs

     total energy              =   -4442.58474000 Ry
     estimated scf accuracy    <       9.77649767 Ry

     iteration #  6     ecut=    60.00 Ry     beta= 0.15
     Davidson diagonalization with overlap

---- Real-time Memory Report at c_bands before calling an iterative solver
             0 MiB given to the printing process from OS
             0 MiB allocation reported by mallinfo(arena+hblkhd)
         23350 MiB available memory on the node where the printing process lives
------------------
     ethr =  2.27E-03,  avg # of iterations =  1.1

     negative rho (up, down):  7.431E-01 0.000E+00

     total cpu time spent up to now is       98.1 secs

     total energy              =   -4442.79852688 Ry
     estimated scf accuracy    <       4.89460718 Ry

     iteration #  7     ecut=    60.00 Ry     beta= 0.15
     Davidson diagonalization with overlap

---- Real-time Memory Report at c_bands before calling an iterative solver
             0 MiB given to the printing process from OS
             0 MiB allocation reported by mallinfo(arena+hblkhd)
         23336 MiB available memory on the node where the printing process lives
------------------
     ethr =  1.14E-03,  avg # of iterations =  1.7

     negative rho (up, down):  7.643E-01 0.000E+00

     total cpu time spent up to now is      113.5 secs

     total energy              =   -4441.65080910 Ry
     estimated scf accuracy    <       3.96422725 Ry

     iteration #  8     ecut=    60.00 Ry     beta= 0.15
     Davidson diagonalization with overlap

---- Real-time Memory Report at c_bands before calling an iterative solver
             0 MiB given to the printing process from OS
             0 MiB allocation reported by mallinfo(arena+hblkhd)
         23316 MiB available memory on the node where the printing process lives
------------------
     ethr =  9.20E-04,  avg # of iterations =  6.5

     negative rho (up, down):  7.714E-01 0.000E+00

     total cpu time spent up to now is      134.1 secs

     total energy              =   -4441.55893927 Ry
     estimated scf accuracy    <      12.96584232 Ry

     iteration #  9     ecut=    60.00 Ry     beta= 0.15
     Davidson diagonalization with overlap

---- Real-time Memory Report at c_bands before calling an iterative solver
             0 MiB given to the printing process from OS
             0 MiB allocation reported by mallinfo(arena+hblkhd)
         23038 MiB available memory on the node where the printing process lives
------------------
     ethr =  9.20E-04,  avg # of iterations =  9.6

     negative rho (up, down):  7.704E-01 0.000E+00

     total cpu time spent up to now is      155.1 secs

     total energy              =   -4441.81466577 Ry
     estimated scf accuracy    <       1.93280509 Ry

     iteration # 10     ecut=    60.00 Ry     beta= 0.15
     Davidson diagonalization with overlap

---- Real-time Memory Report at c_bands before calling an iterative solver
             0 MiB given to the printing process from OS
             0 MiB allocation reported by mallinfo(arena+hblkhd)
         22843 MiB available memory on the node where the printing process lives
------------------
     ethr =  4.48E-04,  avg # of iterations =  5.0

     negative rho (up, down):  7.814E-01 0.000E+00

     total cpu time spent up to now is      172.9 secs

     total energy              =   -4441.92025795 Ry
     estimated scf accuracy    <       1.03815164 Ry

     iteration # 11     ecut=    60.00 Ry     beta= 0.15
     Davidson diagonalization with overlap

---- Real-time Memory Report at c_bands before calling an iterative solver
             0 MiB given to the printing process from OS
             0 MiB allocation reported by mallinfo(arena+hblkhd)
         22799 MiB available memory on the node where the printing process lives
------------------
     ethr =  2.41E-04,  avg # of iterations =  5.0

     negative rho (up, down):  8.075E-01 0.000E+00

     total cpu time spent up to now is      191.3 secs

     total energy              =   -4441.73260513 Ry
     estimated scf accuracy    <       1.42602904 Ry

     iteration # 12     ecut=    60.00 Ry     beta= 0.15
     Davidson diagonalization with overlap

---- Real-time Memory Report at c_bands before calling an iterative solver
             0 MiB given to the printing process from OS
             0 MiB allocation reported by mallinfo(arena+hblkhd)
         22759 MiB available memory on the node where the printing process lives
------------------
     ethr =  2.41E-04,  avg # of iterations =  6.0

     negative rho (up, down):  8.121E-01 0.000E+00

     total cpu time spent up to now is      209.7 secs

     total energy              =   -4441.82734244 Ry
     estimated scf accuracy    <       0.71704608 Ry

     iteration # 13     ecut=    60.00 Ry     beta= 0.15
     Davidson diagonalization with overlap

---- Real-time Memory Report at c_bands before calling an iterative solver
             0 MiB given to the printing process from OS
             0 MiB allocation reported by mallinfo(arena+hblkhd)
         22741 MiB available memory on the node where the printing process lives
------------------
     ethr =  1.66E-04,  avg # of iterations =  4.0

     negative rho (up, down):  8.184E-01 0.000E+00

     total cpu time spent up to now is      227.3 secs

     total energy              =   -4441.78479156 Ry
     estimated scf accuracy    <       0.46591194 Ry

     iteration # 14     ecut=    60.00 Ry     beta= 0.15
     Davidson diagonalization with overlap

---- Real-time Memory Report at c_bands before calling an iterative solver
             0 MiB given to the printing process from OS
             0 MiB allocation reported by mallinfo(arena+hblkhd)
         22738 MiB available memory on the node where the printing process lives
------------------
     c_bands:  2 eigenvalues not converged
     ethr =  1.08E-04,  avg # of iterations =  8.3

     negative rho (up, down):  8.274E-01 0.000E+00

     total cpu time spent up to now is      246.9 secs

     total energy              =   -4441.69814792 Ry
     estimated scf accuracy    <       0.36228734 Ry

     iteration # 15     ecut=    60.00 Ry     beta= 0.15
     Davidson diagonalization with overlap

---- Real-time Memory Report at c_bands before calling an iterative solver
             0 MiB given to the printing process from OS
             0 MiB allocation reported by mallinfo(arena+hblkhd)
         22756 MiB available memory on the node where the printing process lives
------------------
     ethr =  8.41E-05,  avg # of iterations = 12.0

     negative rho (up, down):  8.308E-01 0.000E+00

     total cpu time spent up to now is      268.8 secs

     total energy              =   -4441.71677577 Ry
     estimated scf accuracy    <       0.32710742 Ry

     iteration # 16     ecut=    60.00 Ry     beta= 0.15
     Davidson diagonalization with overlap

---- Real-time Memory Report at c_bands before calling an iterative solver
             0 MiB given to the printing process from OS
             0 MiB allocation reported by mallinfo(arena+hblkhd)
         22778 MiB available memory on the node where the printing process lives
------------------
     ethr =  7.59E-05,  avg # of iterations =  1.1

     negative rho (up, down):  8.250E-01 0.000E+00

     total cpu time spent up to now is      283.5 secs

     total energy              =   -4441.69599244 Ry
     estimated scf accuracy    <       0.24306324 Ry

     iteration # 17     ecut=    60.00 Ry     beta= 0.15
     Davidson diagonalization with overlap

---- Real-time Memory Report at c_bands before calling an iterative solver
             0 MiB given to the printing process from OS
             0 MiB allocation reported by mallinfo(arena+hblkhd)
         22771 MiB available memory on the node where the printing process lives
------------------
     ethr =  5.64E-05,  avg # of iterations =  5.5

     negative rho (up, down):  8.069E-01 0.000E+00

     total cpu time spent up to now is      301.9 secs

     total energy              =   -4441.65899571 Ry
     estimated scf accuracy    <       0.16483984 Ry

     iteration # 18     ecut=    60.00 Ry     beta= 0.15
     Davidson diagonalization with overlap

---- Real-time Memory Report at c_bands before calling an iterative solver
             0 MiB given to the printing process from OS
             0 MiB allocation reported by mallinfo(arena+hblkhd)
         22769 MiB available memory on the node where the printing process lives
------------------
     ethr =  3.82E-05,  avg # of iterations = 10.5

     negative rho (up, down):  8.434E-01 0.000E+00

     total cpu time spent up to now is      323.4 secs

     total energy              =   -4441.65752741 Ry
     estimated scf accuracy    <       0.08077506 Ry

     iteration # 19     ecut=    60.00 Ry     beta= 0.15
     Davidson diagonalization with overlap

---- Real-time Memory Report at c_bands before calling an iterative solver
             0 MiB given to the printing process from OS
             0 MiB allocation reported by mallinfo(arena+hblkhd)
         22682 MiB available memory on the node where the printing process lives
------------------
     ethr =  1.87E-05,  avg # of iterations = 10.1

     negative rho (up, down):  8.414E-01 0.000E+00

     total cpu time spent up to now is      344.9 secs

     total energy              =   -4441.65873354 Ry
     estimated scf accuracy    <       0.04209444 Ry

     iteration # 20     ecut=    60.00 Ry     beta= 0.15
     Davidson diagonalization with overlap

---- Real-time Memory Report at c_bands before calling an iterative solver
             0 MiB given to the printing process from OS
             0 MiB allocation reported by mallinfo(arena+hblkhd)
         22682 MiB available memory on the node where the printing process lives
------------------
     c_bands:  1 eigenvalues not converged
     ethr =  9.77E-06,  avg # of iterations =  5.5

     negative rho (up, down):  8.177E-01 0.000E+00

     total cpu time spent up to now is      362.4 secs

     total energy              =   -4441.65320145 Ry
     estimated scf accuracy    <       0.03280612 Ry

     iteration # 21     ecut=    60.00 Ry     beta= 0.15
     Davidson diagonalization with overlap

---- Real-time Memory Report at c_bands before calling an iterative solver
             0 MiB given to the printing process from OS
             0 MiB allocation reported by mallinfo(arena+hblkhd)
         22688 MiB available memory on the node where the printing process lives
------------------
     ethr =  7.61E-06,  avg # of iterations =  4.9

     negative rho (up, down):  8.037E-01 0.000E+00

     total cpu time spent up to now is      380.5 secs

     total energy              =   -4441.65051148 Ry
     estimated scf accuracy    <       0.02124293 Ry

     iteration # 22     ecut=    60.00 Ry     beta= 0.15
     Davidson diagonalization with overlap

---- Real-time Memory Report at c_bands before calling an iterative solver
             0 MiB given to the printing process from OS
             0 MiB allocation reported by mallinfo(arena+hblkhd)
         22722 MiB available memory on the node where the printing process lives
------------------
     ethr =  4.93E-06,  avg # of iterations = 10.9

     negative rho (up, down):  7.948E-01 0.000E+00

     total cpu time spent up to now is      401.1 secs

     total energy              =   -4441.64908829 Ry
     estimated scf accuracy    <       0.01340274 Ry

     iteration # 23     ecut=    60.00 Ry     beta= 0.15
     Davidson diagonalization with overlap

---- Real-time Memory Report at c_bands before calling an iterative solver
             0 MiB given to the printing process from OS
             0 MiB allocation reported by mallinfo(arena+hblkhd)
         22733 MiB available memory on the node where the printing process lives
------------------
     c_bands:  1 eigenvalues not converged
     ethr =  3.11E-06,  avg # of iterations =  9.6

     negative rho (up, down):  7.922E-01 0.000E+00

     total cpu time spent up to now is      422.3 secs

     total energy              =   -4441.64844704 Ry
     estimated scf accuracy    <       0.00837048 Ry

     iteration # 24     ecut=    60.00 Ry     beta= 0.15
     Davidson diagonalization with overlap

---- Real-time Memory Report at c_bands before calling an iterative solver
             0 MiB given to the printing process from OS
             0 MiB allocation reported by mallinfo(arena+hblkhd)
         22703 MiB available memory on the node where the printing process lives
------------------
     ethr =  1.94E-06,  avg # of iterations =  6.1

     negative rho (up, down):  7.927E-01 0.000E+00

     total cpu time spent up to now is      441.3 secs

     total energy              =   -4441.64813599 Ry
     estimated scf accuracy    <       0.00610898 Ry

     iteration # 25     ecut=    60.00 Ry     beta= 0.15
     Davidson diagonalization with overlap

---- Real-time Memory Report at c_bands before calling an iterative solver
             0 MiB given to the printing process from OS
             0 MiB allocation reported by mallinfo(arena+hblkhd)
         22714 MiB available memory on the node where the printing process lives
------------------
     ethr =  1.42E-06,  avg # of iterations =  8.9

     negative rho (up, down):  7.941E-01 0.000E+00

     total cpu time spent up to now is      461.7 secs

     total energy              =   -4441.64803295 Ry
     estimated scf accuracy    <       0.00329695 Ry

     iteration # 26     ecut=    60.00 Ry     beta= 0.15
     Davidson diagonalization with overlap

---- Real-time Memory Report at c_bands before calling an iterative solver
             0 MiB given to the printing process from OS
             0 MiB allocation reported by mallinfo(arena+hblkhd)
         22700 MiB available memory on the node where the printing process lives
------------------
     ethr =  7.65E-07,  avg # of iterations =  8.4

     negative rho (up, down):  7.959E-01 0.000E+00

     total cpu time spent up to now is      481.4 secs

     total energy              =   -4441.64810140 Ry
     estimated scf accuracy    <       0.00181580 Ry

     iteration # 27     ecut=    60.00 Ry     beta= 0.15
     Davidson diagonalization with overlap

---- Real-time Memory Report at c_bands before calling an iterative solver
             0 MiB given to the printing process from OS
             0 MiB allocation reported by mallinfo(arena+hblkhd)
         22739 MiB available memory on the node where the printing process lives
------------------
     c_bands:  1 eigenvalues not converged
     ethr =  4.21E-07,  avg # of iterations =  9.2

     negative rho (up, down):  7.974E-01 0.000E+00

     total cpu time spent up to now is      502.3 secs

     total energy              =   -4441.64812976 Ry
     estimated scf accuracy    <       0.00102517 Ry

     iteration # 28     ecut=    60.00 Ry     beta= 0.15
     Davidson diagonalization with overlap

---- Real-time Memory Report at c_bands before calling an iterative solver
             0 MiB given to the printing process from OS
             0 MiB allocation reported by mallinfo(arena+hblkhd)
         22724 MiB available memory on the node where the printing process lives
------------------
     ethr =  2.38E-07,  avg # of iterations =  6.4

     negative rho (up, down):  7.956E-01 0.000E+00

     total cpu time spent up to now is      521.2 secs

     total energy              =   -4441.64813595 Ry
     estimated scf accuracy    <       0.00038191 Ry

     iteration # 29     ecut=    60.00 Ry     beta= 0.15
     Davidson diagonalization with overlap

---- Real-time Memory Report at c_bands before calling an iterative solver
             0 MiB given to the printing process from OS
             0 MiB allocation reported by mallinfo(arena+hblkhd)
         22723 MiB available memory on the node where the printing process lives
------------------
     ethr =  8.86E-08,  avg # of iterations =  2.2

     negative rho (up, down):  7.947E-01 0.000E+00

     total cpu time spent up to now is      537.9 secs

     total energy              =   -4441.64814708 Ry
     estimated scf accuracy    <       0.00015001 Ry

     iteration # 30     ecut=    60.00 Ry     beta= 0.15
     Davidson diagonalization with overlap

---- Real-time Memory Report at c_bands before calling an iterative solver
             0 MiB given to the printing process from OS
             0 MiB allocation reported by mallinfo(arena+hblkhd)
         22733 MiB available memory on the node where the printing process lives
------------------
     ethr =  3.48E-08,  avg # of iterations =  4.3

     negative rho (up, down):  7.935E-01 0.000E+00

     total cpu time spent up to now is      555.6 secs

     total energy              =   -4441.64815837 Ry
     estimated scf accuracy    <       0.00004492 Ry

     iteration # 31     ecut=    60.00 Ry     beta= 0.15
     Davidson diagonalization with overlap

---- Real-time Memory Report at c_bands before calling an iterative solver
             0 MiB given to the printing process from OS
             0 MiB allocation reported by mallinfo(arena+hblkhd)
         22758 MiB available memory on the node where the printing process lives
------------------
     ethr =  1.04E-08,  avg # of iterations =  3.3

     negative rho (up, down):  7.931E-01 0.000E+00

     total cpu time spent up to now is      572.8 secs

     total energy              =   -4441.64816291 Ry
     estimated scf accuracy    <       0.00002599 Ry

     iteration # 32     ecut=    60.00 Ry     beta= 0.15
     Davidson diagonalization with overlap

---- Real-time Memory Report at c_bands before calling an iterative solver
             0 MiB given to the printing process from OS
             0 MiB allocation reported by mallinfo(arena+hblkhd)
         22754 MiB available memory on the node where the printing process lives
------------------
     ethr =  6.03E-09,  avg # of iterations =  2.2

     negative rho (up, down):  7.925E-01 0.000E+00

     total cpu time spent up to now is      589.3 secs

     total energy              =   -4441.64816497 Ry
     estimated scf accuracy    <       0.00001899 Ry

     iteration # 33     ecut=    60.00 Ry     beta= 0.15
     Davidson diagonalization with overlap

---- Real-time Memory Report at c_bands before calling an iterative solver
             0 MiB given to the printing process from OS
             0 MiB allocation reported by mallinfo(arena+hblkhd)
         22769 MiB available memory on the node where the printing process lives
------------------
     ethr =  4.40E-09,  avg # of iterations =  3.7

     negative rho (up, down):  7.922E-01 0.000E+00

     total cpu time spent up to now is      606.9 secs

     total energy              =   -4441.64816481 Ry
     estimated scf accuracy    <       0.00000861 Ry

     iteration # 34     ecut=    60.00 Ry     beta= 0.15
     Davidson diagonalization with overlap

---- Real-time Memory Report at c_bands before calling an iterative solver
             0 MiB given to the printing process from OS
             0 MiB allocation reported by mallinfo(arena+hblkhd)
         22769 MiB available memory on the node where the printing process lives
------------------
     ethr =  2.00E-09,  avg # of iterations =  3.0

     negative rho (up, down):  7.922E-01 0.000E+00

     total cpu time spent up to now is      624.6 secs

     total energy              =   -4441.64816539 Ry
     estimated scf accuracy    <       0.00000439 Ry

     iteration # 35     ecut=    60.00 Ry     beta= 0.15
     Davidson diagonalization with overlap

---- Real-time Memory Report at c_bands before calling an iterative solver
             0 MiB given to the printing process from OS
             0 MiB allocation reported by mallinfo(arena+hblkhd)
         22777 MiB available memory on the node where the printing process lives
------------------
     ethr =  1.02E-09,  avg # of iterations =  2.0

     negative rho (up, down):  7.922E-01 0.000E+00

     total cpu time spent up to now is      641.5 secs

     total energy              =   -4441.64816599 Ry
     estimated scf accuracy    <       0.00000283 Ry

     iteration # 36     ecut=    60.00 Ry     beta= 0.15
     Davidson diagonalization with overlap

---- Real-time Memory Report at c_bands before calling an iterative solver
             0 MiB given to the printing process from OS
             0 MiB allocation reported by mallinfo(arena+hblkhd)
         22792 MiB available memory on the node where the printing process lives
------------------
     ethr =  6.56E-10,  avg # of iterations =  2.4

     negative rho (up, down):  7.923E-01 0.000E+00

     total cpu time spent up to now is      658.3 secs

     total energy              =   -4441.64816622 Ry
     estimated scf accuracy    <       0.00000153 Ry

     iteration # 37     ecut=    60.00 Ry     beta= 0.15
     Davidson diagonalization with overlap

---- Real-time Memory Report at c_bands before calling an iterative solver
             0 MiB given to the printing process from OS
             0 MiB allocation reported by mallinfo(arena+hblkhd)
         22789 MiB available memory on the node where the printing process lives
------------------
     ethr =  3.54E-10,  avg # of iterations =  2.8

     negative rho (up, down):  7.924E-01 0.000E+00

     total cpu time spent up to now is      675.3 secs

     total energy              =   -4441.64816627 Ry
     estimated scf accuracy    <       0.00000086 Ry

     iteration # 38     ecut=    60.00 Ry     beta= 0.15
     Davidson diagonalization with overlap

---- Real-time Memory Report at c_bands before calling an iterative solver
             0 MiB given to the printing process from OS
             0 MiB allocation reported by mallinfo(arena+hblkhd)
         22795 MiB available memory on the node where the printing process lives
------------------
     ethr =  1.99E-10,  avg # of iterations =  2.3

     negative rho (up, down):  7.925E-01 0.000E+00

     total cpu time spent up to now is      692.6 secs

     total energy              =   -4441.64816633 Ry
     estimated scf accuracy    <       0.00000043 Ry

     iteration # 39     ecut=    60.00 Ry     beta= 0.15
     Davidson diagonalization with overlap

---- Real-time Memory Report at c_bands before calling an iterative solver
             0 MiB given to the printing process from OS
             0 MiB allocation reported by mallinfo(arena+hblkhd)
         22796 MiB available memory on the node where the printing process lives
------------------
     ethr =  1.01E-10,  avg # of iterations =  2.2

     negative rho (up, down):  7.925E-01 0.000E+00

     total cpu time spent up to now is      709.1 secs

     total energy              =   -4441.64816639 Ry
     estimated scf accuracy    <       0.00000027 Ry

     iteration # 40     ecut=    60.00 Ry     beta= 0.15
     Davidson diagonalization with overlap

---- Real-time Memory Report at c_bands before calling an iterative solver
             0 MiB given to the printing process from OS
             0 MiB allocation reported by mallinfo(arena+hblkhd)
         22802 MiB available memory on the node where the printing process lives
------------------
     ethr =  6.25E-11,  avg # of iterations =  2.2

     negative rho (up, down):  7.925E-01 0.000E+00

     total cpu time spent up to now is      726.3 secs

     total energy              =   -4441.64816642 Ry
     estimated scf accuracy    <       0.00000012 Ry

     iteration # 41     ecut=    60.00 Ry     beta= 0.15
     Davidson diagonalization with overlap

---- Real-time Memory Report at c_bands before calling an iterative solver
             0 MiB given to the printing process from OS
             0 MiB allocation reported by mallinfo(arena+hblkhd)
         22797 MiB available memory on the node where the printing process lives
------------------
     ethr =  2.74E-11,  avg # of iterations =  2.0

     negative rho (up, down):  7.925E-01 0.000E+00

     total cpu time spent up to now is      742.9 secs

     total energy              =   -4441.64816645 Ry
     estimated scf accuracy    <       0.00000009 Ry

     iteration # 42     ecut=    60.00 Ry     beta= 0.15
     Davidson diagonalization with overlap

---- Real-time Memory Report at c_bands before calling an iterative solver
             0 MiB given to the printing process from OS
             0 MiB allocation reported by mallinfo(arena+hblkhd)
         22800 MiB available memory on the node where the printing process lives
------------------
     ethr =  2.05E-11,  avg # of iterations =  2.2

     negative rho (up, down):  7.925E-01 0.000E+00

     total cpu time spent up to now is      759.7 secs

     total energy              =   -4441.64816645 Ry
     estimated scf accuracy    <       0.00000005 Ry

     iteration # 43     ecut=    60.00 Ry     beta= 0.15
     Davidson diagonalization with overlap

---- Real-time Memory Report at c_bands before calling an iterative solver
             0 MiB given to the printing process from OS
             0 MiB allocation reported by mallinfo(arena+hblkhd)
         22802 MiB available memory on the node where the printing process lives
------------------
     ethr =  1.27E-11,  avg # of iterations =  2.2

     negative rho (up, down):  7.924E-01 0.000E+00

     total cpu time spent up to now is      776.4 secs

     total energy              =   -4441.64816645 Ry
     estimated scf accuracy    <       0.00000003 Ry

     iteration # 44     ecut=    60.00 Ry     beta= 0.15
     Davidson diagonalization with overlap

---- Real-time Memory Report at c_bands before calling an iterative solver
             0 MiB given to the printing process from OS
             0 MiB allocation reported by mallinfo(arena+hblkhd)
         22801 MiB available memory on the node where the printing process lives
------------------
     ethr =  7.41E-12,  avg # of iterations =  2.1

     negative rho (up, down):  7.924E-01 0.000E+00

     total cpu time spent up to now is      793.4 secs

     total energy              =   -4441.64816645 Ry
     estimated scf accuracy    <       0.00000002 Ry

     iteration # 45     ecut=    60.00 Ry     beta= 0.15
     Davidson diagonalization with overlap

---- Real-time Memory Report at c_bands before calling an iterative solver
             0 MiB given to the printing process from OS
             0 MiB allocation reported by mallinfo(arena+hblkhd)
         22805 MiB available memory on the node where the printing process lives
------------------
     ethr =  5.12E-12,  avg # of iterations =  1.5

     negative rho (up, down):  7.924E-01 0.000E+00

     total cpu time spent up to now is      809.5 secs

     total energy              =   -4441.64816646 Ry
     estimated scf accuracy    <       0.00000002 Ry

     iteration # 46     ecut=    60.00 Ry     beta= 0.15
     Davidson diagonalization with overlap

---- Real-time Memory Report at c_bands before calling an iterative solver
             0 MiB given to the printing process from OS
             0 MiB allocation reported by mallinfo(arena+hblkhd)
         22804 MiB available memory on the node where the printing process lives
------------------
     ethr =  3.78E-12,  avg # of iterations =  1.1

     negative rho (up, down):  7.924E-01 0.000E+00

     total cpu time spent up to now is      824.4 secs

     total energy              =   -4441.64816646 Ry
     estimated scf accuracy    <       0.00000001 Ry

     iteration # 47     ecut=    60.00 Ry     beta= 0.15
     Davidson diagonalization with overlap

---- Real-time Memory Report at c_bands before calling an iterative solver
             0 MiB given to the printing process from OS
             0 MiB allocation reported by mallinfo(arena+hblkhd)
         22801 MiB available memory on the node where the printing process lives
------------------
     ethr =  2.94E-12,  avg # of iterations =  2.1

     negative rho (up, down):  7.924E-01 0.000E+00

     total cpu time spent up to now is      840.8 secs

     End of self-consistent calculation

          k = 0.0000 0.0000 0.0000 ( 65197 PWs)   bands (ev):

   -92.6757 -92.6206 -92.5287 -92.4827 -92.4237 -92.3814 -92.3640 -92.2426
   -56.0292 -56.0070 -55.8862 -55.8761 -55.8674 -55.8630 -55.8253 -55.7980
   -55.7825 -55.7809 -55.7717 -55.7311 -55.7150 -55.6746 -55.6549 -55.6241
   -55.6175 -55.5697 -55.5679 -55.5667 -55.5583 -55.5177 -55.4944 -55.4094
   -31.2528 -31.2335 -31.0917 -31.0049 -30.9964 -30.9066 -30.8736 -30.7550
   -29.8225 -29.7794 -29.7535 -29.6454 -15.0557 -15.0142 -14.9312 -14.8018
   -14.6102 -14.4876 -14.1940 -14.1736 -14.1444 -14.0974 -14.0540 -14.0445
   -14.0337 -14.0146 -13.9937 -13.9517 -13.9260 -13.9040 -13.7527 -13.5797
   -13.5417 -13.5113 -13.4831 -13.4643 -13.4089 -13.3753 -13.2975 -13.2251
   -13.0871 -13.0753 -13.0676 -13.0488 -13.0315 -13.0120 -12.9794 -12.9759
   -12.9629 -12.9287 -12.8981 -12.8766 -12.8399 -12.8198 -12.8055 -12.7769
   -12.7543 -12.7248 -12.6923 -12.6488 -12.6401 -12.3174 -12.1717 -11.9931
   -11.9405 -11.8362 -11.7619 -11.7507 -11.7283 -11.7107 -11.6470 -11.6296
   -11.5949 -11.5655 -11.4545 -11.3743 -11.3709  -2.9163  -2.6837  -2.4544
    -2.3074  -2.2444  -2.1020  -1.7950  -1.7811  -1.7610  -1.6778  -1.6578
    -1.5898  -1.5733  -1.5322  -1.4885  -1.3064  -1.0836  -1.0576  -1.0420
    -0.9051  -0.8910  -0.8457  -0.8265  -0.7811  -0.7645  -0.7084  -0.6815
    -0.6085  -0.5951  -0.5212  -0.3886  -0.3756  -0.3485  -0.2672  -0.2619
    -0.2451  -0.1749  -0.1033  -0.0387  -0.0049   0.0383   0.0980   0.1629
     0.2083   0.2286   0.2435   0.4967   0.5115   0.6945   0.7556   0.8303
     0.8636   0.9507   0.9681   0.9795   1.0493   1.0750   1.1091   1.1686
     1.2991   1.3634   1.3779   1.3951   1.4094   1.4768   1.5476   1.6535
     1.6631   1.7326   1.7487   1.7873   1.8021   1.8075   1.8671   1.9206
     1.9666   1.9818   2.0202   2.0531   2.1843   2.2686   2.3100   2.3272
     2.4557   2.4795   2.5214   2.5345   2.5441   2.5500   2.6513   2.6833
     2.7089   2.7274   2.7410   2.8231   2.9334   2.9632   2.9766   2.9835
     3.0516   3.0555   3.0791   3.0868   3.0949   3.1089   3.1150   3.1281
     3.1332   3.1464   3.1545   3.1623   3.1824   3.2035   3.2085   3.2208
     3.2586   3.3621   3.4350   4.1306   4.4713   4.7983   4.8841   5.0656
     5.7239   5.9622   6.0178   6.0308   6.3400   6.3869   6.4988   6.5087
     6.7350   7.0262   7.1004   7.3396   7.4345   7.5224   7.6627   7.6831
     7.7061   7.9075   7.9485   8.0927   8.1322   8.2088   8.4292   8.4822
     8.7064   8.7562   8.8892

     occupation numbers 
     1.0000   1.0000   1.0000   1.0000   1.0000   1.0000   1.0000   1.0000
     1.0000   1.0000   1.0000   1.0000   1.0000   1.0000   1.0000   1.0000
     1.0000   1.0000   1.0000   1.0000   1.0000   1.0000   1.0000   1.0000
     1.0000   1.0000   1.0000   1.0000   1.0000   1.0000   1.0000   1.0000
     1.0000   1.0000   1.0000   1.0000   1.0000   1.0000   1.0000   1.0000
     1.0000   1.0000   1.0000   1.0000   1.0000   1.0000   1.0000   1.0000
     1.0000   1.0000   1.0000   1.0000   1.0000   1.0000   1.0000   1.0000
     1.0000   1.0000   1.0000   1.0000   1.0000   1.0000   1.0000   1.0000
     1.0000   1.0000   1.0000   1.0000   1.0000   1.0000   1.0000   1.0000
     1.0000   1.0000   1.0000   1.0000   1.0000   1.0000   1.0000   1.0000
     1.0000   1.0000   1.0000   1.0000   1.0000   1.0000   1.0000   1.0000
     1.0000   1.0000   1.0000   1.0000   1.0000   1.0000   1.0000   1.0000
     1.0000   1.0000   1.0000   1.0000   1.0000   1.0000   1.0000   1.0000
     1.0000   1.0000   1.0000   1.0000   1.0000   1.0000   1.0000   1.0000
     1.0000   1.0000   1.0000   1.0000   1.0000   1.0000   1.0000   1.0000
     1.0000   1.0000   1.0000   1.0000   1.0000   1.0000   1.0000   1.0000
     1.0000   1.0000   1.0000   1.0000   1.0000   1.0000   1.0000   1.0000
     1.0000   1.0000   1.0000   1.0000   1.0000   1.0000   1.0000   1.0000
     1.0000   1.0000   1.0000   1.0000   1.0000   1.0000   1.0000   1.0000
     1.0000   1.0000   1.0000   1.0000   1.0000   1.0000   0.9999   0.9999
     0.9999   0.9998   0.9998   0.9998   0.9997   0.9996   0.9996   0.9994
     0.9989   0.9984   0.9983   0.9982   0.9980   0.9973   0.9963   0.9942
     0.9939   0.9919   0.9914   0.9899   0.9893   0.9891   0.9863   0.9833
     0.9802   0.9791   0.9761   0.9732   0.9586   0.9463   0.9392   0.9361
     0.9085   0.9026   0.8914   0.8878   0.8850   0.8833   0.8511   0.8398
     0.8304   0.8234   0.8181   0.7841   0.7332   0.7184   0.7117   0.7082
     0.6725   0.6704   0.6577   0.6534   0.6490   0.6413   0.6379   0.6306
     0.6277   0.6203   0.6157   0.6112   0.5997   0.5876   0.5847   0.5776
     0.5555   0.4944   0.4513   0.1240   0.0483   0.0159   0.0115   0.0055
     0.0002   0.0001   0.0000   0.0000   0.0000   0.0000   0.0000   0.0000
     0.0000   0.0000   0.0000   0.0000   0.0000   0.0000   0.0000   0.0000
     0.0000   0.0000   0.0000   0.0000   0.0000   0.0000   0.0000   0.0000
     0.0000   0.0000   0.0000

          k = 0.0000 0.2500 0.0000 ( 65257 PWs)   bands (ev):

   -92.6757 -92.6206 -92.5287 -92.4827 -92.4237 -92.3814 -92.3640 -92.2426
   -56.0292 -56.0070 -55.8862 -55.8761 -55.8674 -55.8630 -55.8253 -55.7980
   -55.7825 -55.7809 -55.7717 -55.7311 -55.7150 -55.6746 -55.6549 -55.6241
   -55.6175 -55.5697 -55.5679 -55.5667 -55.5583 -55.5177 -55.4944 -55.4094
   -31.2526 -31.2334 -31.0919 -31.0051 -30.9961 -30.9070 -30.8734 -30.7553
   -29.8219 -29.7791 -29.7541 -29.6458 -15.0190 -14.9881 -14.9060 -14.7725
   -14.6510 -14.4777 -14.3394 -14.1598 -14.1258 -14.1030 -14.0738 -14.0181
   -14.0104 -13.9973 -13.9776 -13.9326 -13.9191 -13.8239 -13.7839 -13.6226
   -13.6036 -13.5522 -13.5178 -13.4757 -13.4275 -13.3812 -13.3170 -13.2825
   -13.1849 -13.1473 -13.1225 -13.0836 -13.0657 -13.0021 -12.9619 -12.9373
   -12.9096 -12.8791 -12.8702 -12.8418 -12.8096 -12.7814 -12.7724 -12.7565
   -12.7061 -12.7005 -12.6738 -12.5586 -12.4888 -12.3788 -12.2230 -12.0486
   -12.0068 -11.8017 -11.7587 -11.7307 -11.7027 -11.6860 -11.6389 -11.6274
   -11.6047 -11.5706 -11.4688 -11.4161 -11.4054  -2.7810  -2.5594  -2.4220
    -2.2398  -2.1963  -2.0325  -1.8136  -1.7285  -1.7156  -1.6592  -1.5557
    -1.5397  -1.5065  -1.4791  -1.4355  -1.2376  -1.1110  -1.0984  -1.0454
    -1.0210  -1.0097  -0.9057  -0.8760  -0.8184  -0.7934  -0.7526  -0.6895
    -0.6627  -0.6306  -0.5952  -0.5791  -0.5477  -0.4730  -0.4238  -0.3641
    -0.2472  -0.2319  -0.1819  -0.0617  -0.0239   0.0452   0.0906   0.1445
     0.1611   0.1908   0.2610   0.5489   0.6332   0.6641   0.7557   0.8028
     0.8325   0.9365   0.9545   1.0567   1.0777   1.1019   1.2160   1.3078
     1.3370   1.3561   1.3716   1.4014   1.4607   1.4875   1.5159   1.5631
     1.5993   1.6289   1.7154   1.7413   1.7883   1.8323   1.8937   1.9566
     1.9648   1.9859   2.0105   2.1043   2.2192   2.2910   2.3100   2.3847
     2.4219   2.4643   2.4741   2.5212   2.5355   2.5462   2.5801   2.6678
     2.7004   2.7168   2.8906   2.9137   2.9467   2.9663   2.9843   2.9924
     3.0000   3.0098   3.0385   3.0401   3.0598   3.0621   3.0739   3.0925
     3.1033   3.1116   3.1336   3.1441   3.1489   3.1840   3.2012   3.2617
     3.6420   3.6636   3.9043   4.3188   4.4715   4.7355   5.0346   5.0917
     5.6628   5.7976   5.9221   6.0153   6.1068   6.1292   6.2090   6.6158
     6.8349   7.0783   7.1271   7.3503   7.4989   7.5112   7.5229   7.6621
     7.8477   7.9812   8.0340   8.1928   8.3074   8.3676   8.4272   8.4386
     8.5362   8.7951   8.9207

     occupation numbers 
     1.0000   1.0000   1.0000   1.0000   1.0000   1.0000   1.0000   1.0000
     1.0000   1.0000   1.0000   1.0000   1.0000   1.0000   1.0000   1.0000
     1.0000   1.0000   1.0000   1.0000   1.0000   1.0000   1.0000   1.0000
     1.0000   1.0000   1.0000   1.0000   1.0000   1.0000   1.0000   1.0000
     1.0000   1.0000   1.0000   1.0000   1.0000   1.0000   1.0000   1.0000
     1.0000   1.0000   1.0000   1.0000   1.0000   1.0000   1.0000   1.0000
     1.0000   1.0000   1.0000   1.0000   1.0000   1.0000   1.0000   1.0000
     1.0000   1.0000   1.0000   1.0000   1.0000   1.0000   1.0000   1.0000
     1.0000   1.0000   1.0000   1.0000   1.0000   1.0000   1.0000   1.0000
     1.0000   1.0000   1.0000   1.0000   1.0000   1.0000   1.0000   1.0000
     1.0000   1.0000   1.0000   1.0000   1.0000   1.0000   1.0000   1.0000
     1.0000   1.0000   1.0000   1.0000   1.0000   1.0000   1.0000   1.0000
     1.0000   1.0000   1.0000   1.0000   1.0000   1.0000   1.0000   1.0000
     1.0000   1.0000   1.0000   1.0000   1.0000   1.0000   1.0000   1.0000
     1.0000   1.0000   1.0000   1.0000   1.0000   1.0000   1.0000   1.0000
     1.0000   1.0000   1.0000   1.0000   1.0000   1.0000   1.0000   1.0000
     1.0000   1.0000   1.0000   1.0000   1.0000   1.0000   1.0000   1.0000
     1.0000   1.0000   1.0000   1.0000   1.0000   1.0000   1.0000   1.0000
     1.0000   1.0000   1.0000   1.0000   1.0000   1.0000   1.0000   1.0000
     1.0000   1.0000   1.0000   1.0000   1.0000   1.0000   0.9999   0.9999
     0.9999   0.9998   0.9998   0.9997   0.9996   0.9996   0.9992   0.9988
     0.9986   0.9985   0.9984   0.9981   0.9975   0.9972   0.9968   0.9961
     0.9954   0.9948   0.9925   0.9916   0.9899   0.9880   0.9849   0.9809
     0.9803   0.9788   0.9769   0.9681   0.9538   0.9425   0.9392   0.9247
     0.9165   0.9064   0.9040   0.8915   0.8875   0.8844   0.8743   0.8454
     0.8336   0.8274   0.7536   0.7427   0.7266   0.7169   0.7078   0.7036
     0.6997   0.6946   0.6795   0.6787   0.6681   0.6669   0.6605   0.6503
     0.6444   0.6398   0.6275   0.6215   0.6188   0.5988   0.5889   0.5537
     0.3337   0.3221   0.2063   0.0757   0.0483   0.0200   0.0063   0.0049
     0.0003   0.0001   0.0001   0.0000   0.0000   0.0000   0.0000   0.0000
     0.0000   0.0000   0.0000   0.0000   0.0000   0.0000   0.0000   0.0000
     0.0000   0.0000   0.0000   0.0000   0.0000   0.0000   0.0000   0.0000
     0.0000   0.0000   0.0000

          k = 0.0000-0.5000 0.0000 ( 65180 PWs)   bands (ev):

   -92.6757 -92.6206 -92.5287 -92.4827 -92.4237 -92.3814 -92.3640 -92.2426
   -56.0292 -56.0070 -55.8862 -55.8761 -55.8674 -55.8630 -55.8253 -55.7980
   -55.7825 -55.7809 -55.7717 -55.7311 -55.7150 -55.6746 -55.6549 -55.6241
   -55.6175 -55.5697 -55.5679 -55.5667 -55.5583 -55.5177 -55.4944 -55.4094
   -31.2524 -31.2332 -31.0921 -31.0052 -30.9958 -30.9073 -30.8731 -30.7556
   -29.8213 -29.7788 -29.7547 -29.6461 -14.9849 -14.9360 -14.8831 -14.7546
   -14.6707 -14.5338 -14.3811 -14.2572 -14.1319 -14.0564 -14.0168 -14.0115
   -13.9629 -13.9455 -13.9284 -13.8953 -13.8775 -13.8507 -13.8169 -13.7794
   -13.7355 -13.5576 -13.5002 -13.4835 -13.4311 -13.3699 -13.3334 -13.2762
   -13.2582 -13.2229 -13.1929 -13.0845 -13.0667 -12.9894 -12.9453 -12.9363
   -12.9152 -12.9035 -12.8566 -12.8095 -12.7737 -12.7546 -12.6956 -12.6893
   -12.6803 -12.6756 -12.6264 -12.4897 -12.4187 -12.2982 -12.2716 -12.1664
   -12.1160 -11.7557 -11.7533 -11.7257 -11.6885 -11.6541 -11.6428 -11.6005
   -11.5967 -11.5522 -11.4905 -11.4768 -11.4626  -2.5669  -2.5064  -2.3565
    -2.2841  -2.0038  -1.9180  -1.7922  -1.6545  -1.6194  -1.5976  -1.5197
    -1.4877  -1.4064  -1.3705  -1.2939  -1.2533  -1.2148  -1.1876  -1.1310
    -1.0923  -1.0488  -1.0432  -1.0095  -0.9768  -0.9422  -0.8328  -0.7880
    -0.7531  -0.7517  -0.6660  -0.6342  -0.6104  -0.5598  -0.4794  -0.4017
    -0.3243  -0.2952  -0.1852  -0.1260  -0.0037   0.0262   0.0606   0.1200
     0.2744   0.3088   0.4177   0.4865   0.4936   0.6213   0.6686   0.8009
     0.9010   1.0110   1.0407   1.0781   1.0818   1.1227   1.1389   1.1762
     1.2022   1.2063   1.3138   1.3767   1.3982   1.4234   1.6848   1.7237
     1.7542   1.8502   1.8735   1.8952   1.9135   1.9385   1.9618   1.9742
     2.0026   2.0270   2.0613   2.0901   2.0928   2.1264   2.1811   2.2617
     2.2923   2.4663   2.4855   2.5341   2.6293   2.6419   2.6605   2.6925
     2.7007   2.7101   2.7611   2.7708   2.8246   2.8455   2.9243   2.9368
     3.0032   3.0155   3.0352   3.0365   3.0563   3.0628   3.0640   3.0686
     3.0721   3.0859   3.1040   3.1050   3.1693   3.1748   3.1908   3.2448
     4.1539   4.2016   4.2254   4.2779   4.7617   4.9284   5.0499   5.1780
     5.4359   5.4880   5.6057   5.7386   6.0420   6.0779   6.2739   6.4685
     6.8713   6.9712   7.2442   7.3165   7.3656   7.4840   7.5790   7.7775
     7.9307   8.0855   8.2181   8.2528   8.3153   8.4314   8.5125   8.6917
     8.8317   8.8352   8.8919

     occupation numbers 
     1.0000   1.0000   1.0000   1.0000   1.0000   1.0000   1.0000   1.0000
     1.0000   1.0000   1.0000   1.0000   1.0000   1.0000   1.0000   1.0000
     1.0000   1.0000   1.0000   1.0000   1.0000   1.0000   1.0000   1.0000
     1.0000   1.0000   1.0000   1.0000   1.0000   1.0000   1.0000   1.0000
     1.0000   1.0000   1.0000   1.0000   1.0000   1.0000   1.0000   1.0000
     1.0000   1.0000   1.0000   1.0000   1.0000   1.0000   1.0000   1.0000
     1.0000   1.0000   1.0000   1.0000   1.0000   1.0000   1.0000   1.0000
     1.0000   1.0000   1.0000   1.0000   1.0000   1.0000   1.0000   1.0000
     1.0000   1.0000   1.0000   1.0000   1.0000   1.0000   1.0000   1.0000
     1.0000   1.0000   1.0000   1.0000   1.0000   1.0000   1.0000   1.0000
     1.0000   1.0000   1.0000   1.0000   1.0000   1.0000   1.0000   1.0000
     1.0000   1.0000   1.0000   1.0000   1.0000   1.0000   1.0000   1.0000
     1.0000   1.0000   1.0000   1.0000   1.0000   1.0000   1.0000   1.0000
     1.0000   1.0000   1.0000   1.0000   1.0000   1.0000   1.0000   1.0000
     1.0000   1.0000   1.0000   1.0000   1.0000   1.0000   1.0000   1.0000
     1.0000   1.0000   1.0000   1.0000   1.0000   1.0000   1.0000   1.0000
     1.0000   1.0000   1.0000   1.0000   1.0000   1.0000   1.0000   1.0000
     1.0000   1.0000   1.0000   1.0000   1.0000   1.0000   1.0000   1.0000
     1.0000   1.0000   1.0000   1.0000   1.0000   1.0000   1.0000   1.0000
     1.0000   1.0000   1.0000   1.0000   1.0000   1.0000   1.0000   0.9999
     0.9999   0.9997   0.9997   0.9996   0.9996   0.9995   0.9995   0.9994
     0.9993   0.9993   0.9988   0.9983   0.9981   0.9979   0.9934   0.9922
     0.9912   0.9872   0.9860   0.9848   0.9837   0.9821   0.9805   0.9797
     0.9775   0.9755   0.9724   0.9696   0.9693   0.9657   0.9590   0.9474
     0.9423   0.9059   0.9010   0.8879   0.8586   0.8544   0.8479   0.8365
     0.8335   0.8300   0.8101   0.8062   0.7835   0.7742   0.7376   0.7315
     0.6980   0.6917   0.6813   0.6806   0.6700   0.6665   0.6659   0.6634
     0.6615   0.6539   0.6440   0.6434   0.6072   0.6041   0.5949   0.5636
     0.1170   0.1037   0.0975   0.0847   0.0182   0.0096   0.0059   0.0034
     0.0010   0.0008   0.0004   0.0002   0.0000   0.0000   0.0000   0.0000
     0.0000   0.0000   0.0000   0.0000   0.0000   0.0000   0.0000   0.0000
     0.0000   0.0000   0.0000   0.0000   0.0000   0.0000   0.0000   0.0000
     0.0000   0.0000   0.0000

          k = 0.2500 0.2500 0.0000 ( 65198 PWs)   bands (ev):

   -92.6757 -92.6206 -92.5287 -92.4827 -92.4237 -92.3814 -92.3640 -92.2426
   -56.0292 -56.0070 -55.8862 -55.8761 -55.8674 -55.8630 -55.8253 -55.7980
   -55.7825 -55.7809 -55.7717 -55.7311 -55.7150 -55.6746 -55.6549 -55.6241
   -55.6175 -55.5697 -55.5679 -55.5667 -55.5583 -55.5177 -55.4944 -55.4094
   -31.2509 -31.2351 -31.0915 -31.0055 -30.9959 -30.9067 -30.8736 -30.7555
   -29.8209 -29.7801 -29.7537 -29.6462 -14.9905 -14.9533 -14.8782 -14.7618
   -14.6431 -14.5177 -14.4448 -14.2385 -14.0831 -14.0699 -14.0333 -14.0046
   -13.9822 -13.9576 -13.9296 -13.9215 -13.8861 -13.8143 -13.7984 -13.6378
   -13.6235 -13.5946 -13.5743 -13.5297 -13.4852 -13.4118 -13.4006 -13.2572
   -13.2230 -13.2009 -13.1169 -13.0764 -13.0248 -12.9933 -12.9631 -12.9488
   -12.9215 -12.8922 -12.8664 -12.8312 -12.7811 -12.7496 -12.7336 -12.7186
   -12.6904 -12.6829 -12.6720 -12.4903 -12.4273 -12.3795 -12.2521 -12.0791
   -12.0555 -11.7739 -11.7423 -11.7313 -11.7240 -11.6619 -11.6267 -11.6203
   -11.5850 -11.5767 -11.4855 -11.4444 -11.4268  -2.6428  -2.4337  -2.3161
    -2.2218  -2.1009  -2.0357  -1.8387  -1.6935  -1.6741  -1.6457  -1.5507
    -1.5166  -1.4222  -1.3950  -1.3447  -1.2134  -1.1655  -1.0941  -1.0540
    -1.0392  -1.0039  -0.9784  -0.9550  -0.9118  -0.8969  -0.8071  -0.7562
    -0.6930  -0.6426  -0.6097  -0.5618  -0.5463  -0.4844  -0.4370  -0.3825
    -0.3454  -0.2615  -0.2052  -0.1766  -0.1383  -0.0837   0.0015   0.0366
     0.0584   0.1465   0.1756   0.4352   0.5809   0.6176   0.6778   0.7221
     0.7846   0.8601   0.9032   0.9284   1.1978   1.2651   1.3394   1.3656
     1.4113   1.4455   1.4791   1.5177   1.5339   1.5617   1.6072   1.6148
     1.6295   1.6717   1.7145   1.7531   1.8162   1.8547   1.8620   1.9105
     1.9334   1.9926   2.0261   2.1453   2.2027   2.2362   2.2606   2.3239
     2.3932   2.4184   2.4580   2.4681   2.4879   2.5185   2.5407   2.6098
     2.6417   2.7299   2.9023   2.9187   2.9253   2.9413   2.9560   2.9686
     2.9819   2.9891   2.9992   3.0122   3.0238   3.0434   3.0493   3.0613
     3.0837   3.0953   3.1045   3.1358   3.4370   3.5320   3.5709   3.6417
     3.6870   3.8785   3.9799   4.3324   4.5557   4.7430   5.0056   5.1821
     5.6696   5.7209   5.7742   5.8630   5.9204   6.0669   6.1787   6.2314
     6.9107   6.9189   7.0966   7.2271   7.5726   7.6202   7.7312   7.8395
     7.9034   8.0404   8.1758   8.2001   8.3141   8.3598   8.4668   8.4833
     8.5831   8.7228   8.8922

     occupation numbers 
     1.0000   1.0000   1.0000   1.0000   1.0000   1.0000   1.0000   1.0000
     1.0000   1.0000   1.0000   1.0000   1.0000   1.0000   1.0000   1.0000
     1.0000   1.0000   1.0000   1.0000   1.0000   1.0000   1.0000   1.0000
     1.0000   1.0000   1.0000   1.0000   1.0000   1.0000   1.0000   1.0000
     1.0000   1.0000   1.0000   1.0000   1.0000   1.0000   1.0000   1.0000
     1.0000   1.0000   1.0000   1.0000   1.0000   1.0000   1.0000   1.0000
     1.0000   1.0000   1.0000   1.0000   1.0000   1.0000   1.0000   1.0000
     1.0000   1.0000   1.0000   1.0000   1.0000   1.0000   1.0000   1.0000
     1.0000   1.0000   1.0000   1.0000   1.0000   1.0000   1.0000   1.0000
     1.0000   1.0000   1.0000   1.0000   1.0000   1.0000   1.0000   1.0000
     1.0000   1.0000   1.0000   1.0000   1.0000   1.0000   1.0000   1.0000
     1.0000   1.0000   1.0000   1.0000   1.0000   1.0000   1.0000   1.0000
     1.0000   1.0000   1.0000   1.0000   1.0000   1.0000   1.0000   1.0000
     1.0000   1.0000   1.0000   1.0000   1.0000   1.0000   1.0000   1.0000
     1.0000   1.0000   1.0000   1.0000   1.0000   1.0000   1.0000   1.0000
     1.0000   1.0000   1.0000   1.0000   1.0000   1.0000   1.0000   1.0000
     1.0000   1.0000   1.0000   1.0000   1.0000   1.0000   1.0000   1.0000
     1.0000   1.0000   1.0000   1.0000   1.0000   1.0000   1.0000   1.0000
     1.0000   1.0000   1.0000   1.0000   1.0000   1.0000   1.0000   1.0000
     1.0000   1.0000   1.0000   1.0000   1.0000   1.0000   1.0000   1.0000
     0.9999   0.9999   0.9999   0.9998   0.9993   0.9990   0.9986   0.9984
     0.9980   0.9977   0.9973   0.9968   0.9965   0.9961   0.9952   0.9951
     0.9947   0.9937   0.9925   0.9912   0.9887   0.9869   0.9866   0.9839
     0.9825   0.9783   0.9756   0.9635   0.9561   0.9513   0.9475   0.9367
     0.9229   0.9173   0.9080   0.9055   0.9004   0.8922   0.8860   0.8650
     0.8544   0.8224   0.7481   0.7403   0.7371   0.7293   0.7220   0.7157
     0.7090   0.7053   0.7001   0.6934   0.6873   0.6769   0.6738   0.6673
     0.6552   0.6488   0.6437   0.6262   0.4501   0.3949   0.3729   0.3339
     0.3097   0.2174   0.1758   0.0728   0.0370   0.0195   0.0071   0.0033
     0.0003   0.0002   0.0002   0.0001   0.0001   0.0000   0.0000   0.0000
     0.0000   0.0000   0.0000   0.0000   0.0000   0.0000   0.0000   0.0000
     0.0000   0.0000   0.0000   0.0000   0.0000   0.0000   0.0000   0.0000
     0.0000   0.0000   0.0000

          k = 0.2500-0.5000 0.0000 ( 65138 PWs)   bands (ev):

   -92.6757 -92.6206 -92.5287 -92.4827 -92.4237 -92.3814 -92.3640 -92.2426
   -56.0292 -56.0070 -55.8862 -55.8761 -55.8674 -55.8630 -55.8253 -55.7980
   -55.7825 -55.7809 -55.7717 -55.7311 -55.7150 -55.6746 -55.6549 -55.6241
   -55.6175 -55.5697 -55.5679 -55.5667 -55.5583 -55.5177 -55.4944 -55.4094
   -31.2507 -31.2350 -31.0917 -31.0056 -30.9955 -30.9071 -30.8734 -30.7558
   -29.8203 -29.7798 -29.7543 -29.6465 -14.9546 -14.9091 -14.8403 -14.7247
   -14.6930 -14.5742 -14.4831 -14.3540 -14.0471 -13.9935 -13.9680 -13.9466
   -13.9303 -13.9276 -13.9175 -13.8803 -13.8660 -13.8309 -13.7942 -13.7690
   -13.7261 -13.6405 -13.5916 -13.5460 -13.5130 -13.4445 -13.4209 -13.3124
   -13.2736 -13.1818 -13.1171 -13.0946 -13.0089 -12.9656 -12.9511 -12.9447
   -12.9189 -12.8880 -12.8831 -12.8260 -12.7689 -12.7526 -12.7250 -12.6938
   -12.6910 -12.6303 -12.5985 -12.4963 -12.3935 -12.2957 -12.2426 -12.1610
   -12.1160 -11.7495 -11.7375 -11.7265 -11.6992 -11.6679 -11.6394 -11.5981
   -11.5708 -11.5485 -11.5036 -11.4779 -11.4667  -2.4253  -2.3581  -2.2303
    -2.1529  -2.0242  -1.9384  -1.8166  -1.6662  -1.6132  -1.5904  -1.5272
    -1.5142  -1.4171  -1.3497  -1.2649  -1.2156  -1.2060  -1.1431  -1.1012
    -1.0667  -1.0435  -1.0183  -0.9811  -0.9463  -0.9061  -0.8944  -0.8492
    -0.8196  -0.7791  -0.7470  -0.6811  -0.5813  -0.5366  -0.4612  -0.3962
    -0.3480  -0.3023  -0.2810  -0.2303  -0.0669  -0.0464   0.0387   0.0849
     0.0952   0.1326   0.1680   0.2200   0.2483   0.3008   0.5723   0.6681
     0.7553   0.8442   1.0574   1.0885   1.1717   1.1989   1.3625   1.3945
     1.4388   1.4616   1.4788   1.4970   1.5585   1.6030   1.6404   1.7221
     1.8140   1.8587   1.8736   1.8884   1.9233   1.9372   1.9454   1.9915
     1.9974   2.0274   2.0464   2.0773   2.0858   2.1210   2.1804   2.2161
     2.2947   2.4339   2.4858   2.5244   2.5831   2.6001   2.6178   2.6436
     2.6710   2.6982   2.7175   2.7331   2.7600   2.8513   2.9021   2.9206
     2.9222   2.9385   2.9589   2.9725   2.9919   2.9988   3.0313   3.0430
     3.0573   3.0665   3.0747   3.0865   3.6155   3.6197   3.7688   3.8200
     4.1779   4.2133   4.2394   4.3395   4.7819   4.9505   5.0865   5.1539
     5.3330   5.4536   5.6224   5.6446   5.7932   5.8148   6.3564   6.4184
     6.5104   6.6042   7.2079   7.3532   7.5574   7.7198   7.7901   7.8398
     7.9031   8.0609   8.3030   8.4259   8.4711   8.5387   8.5738   8.5789
     8.7017   8.7392   8.7825

     occupation numbers 
     1.0000   1.0000   1.0000   1.0000   1.0000   1.0000   1.0000   1.0000
     1.0000   1.0000   1.0000   1.0000   1.0000   1.0000   1.0000   1.0000
     1.0000   1.0000   1.0000   1.0000   1.0000   1.0000   1.0000   1.0000
     1.0000   1.0000   1.0000   1.0000   1.0000   1.0000   1.0000   1.0000
     1.0000   1.0000   1.0000   1.0000   1.0000   1.0000   1.0000   1.0000
     1.0000   1.0000   1.0000   1.0000   1.0000   1.0000   1.0000   1.0000
     1.0000   1.0000   1.0000   1.0000   1.0000   1.0000   1.0000   1.0000
     1.0000   1.0000   1.0000   1.0000   1.0000   1.0000   1.0000   1.0000
     1.0000   1.0000   1.0000   1.0000   1.0000   1.0000   1.0000   1.0000
     1.0000   1.0000   1.0000   1.0000   1.0000   1.0000   1.0000   1.0000
     1.0000   1.0000   1.0000   1.0000   1.0000   1.0000   1.0000   1.0000
     1.0000   1.0000   1.0000   1.0000   1.0000   1.0000   1.0000   1.0000
     1.0000   1.0000   1.0000   1.0000   1.0000   1.0000   1.0000   1.0000
     1.0000   1.0000   1.0000   1.0000   1.0000   1.0000   1.0000   1.0000
     1.0000   1.0000   1.0000   1.0000   1.0000   1.0000   1.0000   1.0000
     1.0000   1.0000   1.0000   1.0000   1.0000   1.0000   1.0000   1.0000
     1.0000   1.0000   1.0000   1.0000   1.0000   1.0000   1.0000   1.0000
     1.0000   1.0000   1.0000   1.0000   1.0000   1.0000   1.0000   1.0000
     1.0000   1.0000   1.0000   1.0000   1.0000   1.0000   1.0000   1.0000
     1.0000   1.0000   1.0000   1.0000   1.0000   1.0000   1.0000   1.0000
     0.9999   0.9999   0.9997   0.9996   0.9994   0.9993   0.9984   0.9982
     0.9978   0.9975   0.9973   0.9971   0.9961   0.9953   0.9945   0.9923
     0.9888   0.9867   0.9860   0.9852   0.9831   0.9822   0.9817   0.9784
     0.9779   0.9755   0.9738   0.9709   0.9700   0.9663   0.9591   0.9543
     0.9419   0.9137   0.9010   0.8906   0.8734   0.8681   0.8624   0.8538
     0.8442   0.8344   0.8272   0.8212   0.8105   0.7716   0.7482   0.7394
     0.7386   0.7307   0.7206   0.7137   0.7039   0.7003   0.6833   0.6772
     0.6695   0.6645   0.6601   0.6536   0.3481   0.3458   0.2683   0.2438
     0.1102   0.1006   0.0939   0.0714   0.0169   0.0088   0.0050   0.0037
     0.0016   0.0009   0.0004   0.0003   0.0001   0.0001   0.0000   0.0000
     0.0000   0.0000   0.0000   0.0000   0.0000   0.0000   0.0000   0.0000
     0.0000   0.0000   0.0000   0.0000   0.0000   0.0000   0.0000   0.0000
     0.0000   0.0000   0.0000

          k =-0.5000-0.5000 0.0000 ( 65132 PWs)   bands (ev):

   -92.6757 -92.6206 -92.5287 -92.4827 -92.4237 -92.3814 -92.3640 -92.2426
   -56.0292 -56.0070 -55.8862 -55.8761 -55.8674 -55.8630 -55.8253 -55.7980
   -55.7825 -55.7809 -55.7717 -55.7311 -55.7150 -55.6746 -55.6549 -55.6241
   -55.6175 -55.5697 -55.5679 -55.5667 -55.5583 -55.5177 -55.4944 -55.4094
   -31.2485 -31.2372 -31.0913 -31.0060 -30.9953 -30.9069 -30.8736 -30.7560
   -29.8192 -29.7808 -29.7539 -29.6469 -14.9087 -14.8819 -14.7649 -14.7526
   -14.6552 -14.6220 -14.5856 -14.4535 -13.9586 -13.9471 -13.9281 -13.9124
   -13.8928 -13.8744 -13.8641 -13.8349 -13.8247 -13.8070 -13.8012 -13.7833
   -13.7072 -13.7001 -13.6672 -13.6401 -13.6366 -13.5342 -13.4862 -13.3500
   -13.3157 -13.1329 -13.0914 -13.0244 -13.0002 -12.9654 -12.9592 -12.9496
   -12.9307 -12.9124 -12.8531 -12.8188 -12.7733 -12.7642 -12.7345 -12.7199
   -12.7014 -12.5796 -12.5723 -12.5127 -12.3711 -12.2922 -12.2103 -12.1610
   -12.1145 -11.7461 -11.7337 -11.7157 -11.6990 -11.6640 -11.6466 -11.6114
   -11.5512 -11.5308 -11.5260 -11.4757 -11.4725  -2.2018  -2.1256  -2.1124
    -2.0430  -2.0046  -1.9259  -1.8581  -1.7327  -1.6163  -1.5855  -1.5482
    -1.4897  -1.4177  -1.4034  -1.3326  -1.2897  -1.1726  -1.1443  -1.0957
    -1.0666  -1.0453  -1.0022  -0.9570  -0.9359  -0.9239  -0.8727  -0.8270
    -0.8126  -0.6989  -0.6422  -0.5956  -0.5450  -0.5192  -0.5093  -0.4715
    -0.4248  -0.3949  -0.3791  -0.2962  -0.2290  -0.1846  -0.1566  -0.0852
    -0.0302   0.0070   0.0465   0.0593   0.0836   0.1002   0.5408   0.5911
     0.6932   0.7900   1.0931   1.1037   1.1389   1.1749   1.4466   1.4665
     1.4731   1.5097   1.6420   1.7373   1.7650   1.8009   1.8222   1.8491
     1.8567   1.8855   1.8982   1.9210   1.9261   1.9728   1.9756   2.0045
     2.0367   2.0528   2.0652   2.1012   2.1220   2.1328   2.1635   2.1887
     2.2580   2.3239   2.4874   2.5140   2.5986   2.6260   2.6466   2.6636
     2.6791   2.7049   2.7088   2.7287   2.7412   2.7561   2.7756   2.7876
     2.8527   2.8565   2.8771   2.8920   2.9037   2.9226   2.9267   2.9363
     3.0401   3.0450   3.0710   3.0808   4.0297   4.0553   4.1033   4.1515
     4.3451   4.4176   4.4443   4.6857   4.8071   4.8898   5.0183   5.1067
     5.1150   5.2308   5.3350   5.4093   5.8755   5.9049   5.9728   6.0458
     6.5508   6.8627   6.9219   7.0620   7.8873   7.9119   7.9246   7.9737
     7.9999   8.0465   8.1115   8.2919   8.4878   8.6088   8.6392   8.6648
     8.6831   8.7573   8.8570

     occupation numbers 
     1.0000   1.0000   1.0000   1.0000   1.0000   1.0000   1.0000   1.0000
     1.0000   1.0000   1.0000   1.0000   1.0000   1.0000   1.0000   1.0000
     1.0000   1.0000   1.0000   1.0000   1.0000   1.0000   1.0000   1.0000
     1.0000   1.0000   1.0000   1.0000   1.0000   1.0000   1.0000   1.0000
     1.0000   1.0000   1.0000   1.0000   1.0000   1.0000   1.0000   1.0000
     1.0000   1.0000   1.0000   1.0000   1.0000   1.0000   1.0000   1.0000
     1.0000   1.0000   1.0000   1.0000   1.0000   1.0000   1.0000   1.0000
     1.0000   1.0000   1.0000   1.0000   1.0000   1.0000   1.0000   1.0000
     1.0000   1.0000   1.0000   1.0000   1.0000   1.0000   1.0000   1.0000
     1.0000   1.0000   1.0000   1.0000   1.0000   1.0000   1.0000   1.0000
     1.0000   1.0000   1.0000   1.0000   1.0000   1.0000   1.0000   1.0000
     1.0000   1.0000   1.0000   1.0000   1.0000   1.0000   1.0000   1.0000
     1.0000   1.0000   1.0000   1.0000   1.0000   1.0000   1.0000   1.0000
     1.0000   1.0000   1.0000   1.0000   1.0000   1.0000   1.0000   1.0000
     1.0000   1.0000   1.0000   1.0000   1.0000   1.0000   1.0000   1.0000
     1.0000   1.0000   1.0000   1.0000   1.0000   1.0000   1.0000   1.0000
     1.0000   1.0000   1.0000   1.0000   1.0000   1.0000   1.0000   1.0000
     1.0000   1.0000   1.0000   1.0000   1.0000   1.0000   1.0000   1.0000
     1.0000   1.0000   1.0000   1.0000   1.0000   1.0000   1.0000   1.0000
     1.0000   1.0000   1.0000   1.0000   1.0000   1.0000   1.0000   1.0000
     1.0000   0.9999   0.9996   0.9996   0.9995   0.9994   0.9977   0.9974
     0.9974   0.9969   0.9945   0.9918   0.9908   0.9894   0.9885   0.9872
     0.9868   0.9853   0.9846   0.9832   0.9829   0.9798   0.9796   0.9773
     0.9746   0.9732   0.9720   0.9684   0.9662   0.9650   0.9613   0.9580
     0.9480   0.9367   0.9005   0.8935   0.8686   0.8597   0.8528   0.8468
     0.8414   0.8319   0.8305   0.8229   0.8180   0.8121   0.8042   0.7993
     0.7710   0.7693   0.7599   0.7530   0.7475   0.7384   0.7364   0.7317
     0.6787   0.6760   0.6621   0.6567   0.1574   0.1484   0.1325   0.1177
     0.0703   0.0569   0.0525   0.0239   0.0154   0.0112   0.0067   0.0046
     0.0044   0.0026   0.0016   0.0011   0.0001   0.0001   0.0000   0.0000
     0.0000   0.0000   0.0000   0.0000   0.0000   0.0000   0.0000   0.0000
     0.0000   0.0000   0.0000   0.0000   0.0000   0.0000   0.0000   0.0000
     0.0000   0.0000   0.0000

          k = 0.2500 0.0000 0.0000 ( 65257 PWs)   bands (ev):

   -92.6757 -92.6206 -92.5287 -92.4827 -92.4237 -92.3814 -92.3640 -92.2426
   -56.0292 -56.0070 -55.8862 -55.8761 -55.8674 -55.8630 -55.8253 -55.7980
   -55.7825 -55.7809 -55.7717 -55.7311 -55.7150 -55.6746 -55.6549 -55.6241
   -55.6175 -55.5697 -55.5679 -55.5667 -55.5583 -55.5177 -55.4944 -55.4094
   -31.2511 -31.2352 -31.0913 -31.0053 -30.9962 -30.9064 -30.8739 -30.7552
   -29.8215 -29.7804 -29.7531 -29.6458 -15.0226 -14.9839 -14.9117 -14.7651
   -14.6594 -14.4663 -14.3294 -14.1511 -14.1334 -14.1027 -14.0734 -14.0480
   -14.0151 -13.9981 -13.9773 -13.9352 -13.9217 -13.8144 -13.7828 -13.6341
   -13.5642 -13.5593 -13.4983 -13.4667 -13.4554 -13.3928 -13.3194 -13.2879
   -13.1794 -13.1348 -13.1301 -13.0357 -13.0197 -13.0079 -12.9998 -12.9833
   -12.9468 -12.9095 -12.8742 -12.8097 -12.7946 -12.7909 -12.7735 -12.7455
   -12.7025 -12.6788 -12.6586 -12.5670 -12.4973 -12.3809 -12.2240 -12.0472
   -12.0078 -11.8010 -11.7487 -11.7317 -11.7187 -11.6918 -11.6412 -11.6180
   -11.6098 -11.5588 -11.4704 -11.4144 -11.4084  -2.7805  -2.5585  -2.4287
[...]
     0.3503   0.3297   0.2050   0.0797   0.0432   0.0214   0.0062   0.0049
     0.0003   0.0001   0.0001   0.0000   0.0000   0.0000   0.0000   0.0000
     0.0000   0.0000   0.0000   0.0000   0.0000   0.0000   0.0000   0.0000
     0.0000   0.0000   0.0000   0.0000   0.0000   0.0000   0.0000   0.0000
     0.0000   0.0000   0.0000

          k =-0.5000 0.0000 0.0000 ( 65180 PWs)   bands (ev):

   -92.6757 -92.6206 -92.5287 -92.4827 -92.4237 -92.3814 -92.3640 -92.2426
   -56.0292 -56.0070 -55.8862 -55.8761 -55.8674 -55.8630 -55.8253 -55.7980
   -55.7825 -55.7809 -55.7717 -55.7311 -55.7150 -55.6746 -55.6549 -55.6241
   -55.6175 -55.5697 -55.5679 -55.5667 -55.5583 -55.5177 -55.4944 -55.4094
   -31.2489 -31.2374 -31.0909 -31.0057 -30.9960 -30.9062 -30.8741 -30.7555
   -29.8205 -29.7815 -29.7527 -29.6463 -14.9894 -14.9394 -14.8769 -14.7659
   -14.6633 -14.5196 -14.3760 -14.2291 -14.1068 -14.0958 -14.0827 -14.0213
   -13.9667 -13.9352 -13.9275 -13.8859 -13.8763 -13.8612 -13.8129 -13.7899
   -13.6829 -13.5289 -13.5098 -13.4699 -13.4615 -13.3895 -13.3393 -13.2784
   -13.2428 -13.2194 -13.1876 -13.0293 -13.0169 -12.9913 -12.9888 -12.9785
   -12.9351 -12.9184 -12.8975 -12.8077 -12.7893 -12.7601 -12.7015 -12.6738
   -12.6543 -12.6150 -12.6057 -12.5159 -12.4247 -12.3022 -12.2823 -12.1587
   -12.1182 -11.7528 -11.7316 -11.7245 -11.7103 -11.6922 -11.6507 -11.5878
   -11.5699 -11.5368 -11.4931 -11.4839 -11.4680  -2.5564  -2.5177  -2.3540
    -2.3146  -2.0016  -1.9275  -1.7781  -1.6603  -1.6216  -1.5770  -1.5283
    -1.5028  -1.3796  -1.3350  -1.3205  -1.2380  -1.2018  -1.1881  -1.1553
    -1.0972  -1.0467  -1.0279  -1.0001  -0.9708  -0.8738  -0.8286  -0.7803
    -0.7468  -0.7252  -0.6967  -0.6469  -0.6226  -0.5826  -0.4911  -0.4102
    -0.3532  -0.2883  -0.1020  -0.0802  -0.0293  -0.0023   0.0779   0.0878
     0.2308   0.2552   0.2905   0.4668   0.5653   0.6146   0.6928   0.8056
     0.8870   0.9190   1.0382   1.0571   1.1094   1.1334   1.1756   1.1908
     1.2346   1.2569   1.3236   1.3738   1.4211   1.4264   1.7308   1.7419
     1.7538   1.7843   1.8842   1.8941   1.9169   1.9294   1.9488   1.9595
     2.0027   2.0243   2.0628   2.1032   2.1245   2.1691   2.1945   2.2464
     2.3523   2.4421   2.5022   2.5208   2.5404   2.5525   2.6321   2.6523
     2.6820   2.7481   2.7551   2.7641   2.7927   2.8626   2.9096   2.9503
     2.9855   3.0257   3.0297   3.0311   3.0435   3.0568   3.0688   3.0832
     3.0868   3.1109   3.1124   3.1359   3.1550   3.1601   3.2904   3.2995
     4.0920   4.1468   4.2163   4.3895   4.8165   4.8887   5.0604   5.0814
     5.5064   5.5302   5.6159   5.6772   6.0442   6.0620   6.2825   6.4366
     6.8173   7.0219   7.2720   7.3142   7.3458   7.4577   7.6648   7.8008
     7.9101   8.0759   8.1775   8.2206   8.3736   8.4422   8.5429   8.6511
     8.7802   8.8365   8.9082

     occupation numbers 
     1.0000   1.0000   1.0000   1.0000   1.0000   1.0000   1.0000   1.0000
     1.0000   1.0000   1.0000   1.0000   1.0000   1.0000   1.0000   1.0000
     1.0000   1.0000   1.0000   1.0000   1.0000   1.0000   1.0000   1.0000
     1.0000   1.0000   1.0000   1.0000   1.0000   1.0000   1.0000   1.0000
     1.0000   1.0000   1.0000   1.0000   1.0000   1.0000   1.0000   1.0000
     1.0000   1.0000   1.0000   1.0000   1.0000   1.0000   1.0000   1.0000
     1.0000   1.0000   1.0000   1.0000   1.0000   1.0000   1.0000   1.0000
     1.0000   1.0000   1.0000   1.0000   1.0000   1.0000   1.0000   1.0000
     1.0000   1.0000   1.0000   1.0000   1.0000   1.0000   1.0000   1.0000
     1.0000   1.0000   1.0000   1.0000   1.0000   1.0000   1.0000   1.0000
     1.0000   1.0000   1.0000   1.0000   1.0000   1.0000   1.0000   1.0000
     1.0000   1.0000   1.0000   1.0000   1.0000   1.0000   1.0000   1.0000
     1.0000   1.0000   1.0000   1.0000   1.0000   1.0000   1.0000   1.0000
     1.0000   1.0000   1.0000   1.0000   1.0000   1.0000   1.0000   1.0000
     1.0000   1.0000   1.0000   1.0000   1.0000   1.0000   1.0000   1.0000
     1.0000   1.0000   1.0000   1.0000   1.0000   1.0000   1.0000   1.0000
     1.0000   1.0000   1.0000   1.0000   1.0000   1.0000   1.0000   1.0000
     1.0000   1.0000   1.0000   1.0000   1.0000   1.0000   1.0000   1.0000
     1.0000   1.0000   1.0000   1.0000   1.0000   1.0000   1.0000   1.0000
     1.0000   1.0000   1.0000   1.0000   1.0000   1.0000   1.0000   0.9999
     0.9999   0.9998   0.9997   0.9997   0.9996   0.9995   0.9994   0.9993
     0.9992   0.9991   0.9987   0.9984   0.9979   0.9979   0.9920   0.9916
     0.9912   0.9901   0.9854   0.9848   0.9835   0.9827   0.9814   0.9807
     0.9775   0.9757   0.9723   0.9682   0.9659   0.9606   0.9573   0.9498
     0.9313   0.9118   0.8966   0.8916   0.8861   0.8826   0.8577   0.8508
     0.8403   0.8153   0.8125   0.8089   0.7971   0.7666   0.7446   0.7248
     0.7071   0.6863   0.6842   0.6834   0.6769   0.6698   0.6632   0.6554
     0.6534   0.6401   0.6393   0.6262   0.6154   0.6125   0.5368   0.5314
     0.1361   0.1191   0.0998   0.0618   0.0149   0.0113   0.0056   0.0051
     0.0007   0.0006   0.0004   0.0003   0.0000   0.0000   0.0000   0.0000
     0.0000   0.0000   0.0000   0.0000   0.0000   0.0000   0.0000   0.0000
     0.0000   0.0000   0.0000   0.0000   0.0000   0.0000   0.0000   0.0000
     0.0000   0.0000   0.0000

          k =-0.2500 0.2500 0.0000 ( 65198 PWs)   bands (ev):

   -92.6757 -92.6206 -92.5287 -92.4827 -92.4237 -92.3814 -92.3640 -92.2426
   -56.0292 -56.0070 -55.8862 -55.8761 -55.8674 -55.8630 -55.8253 -55.7980
   -55.7825 -55.7809 -55.7717 -55.7311 -55.7150 -55.6746 -55.6549 -55.6241
   -55.6175 -55.5697 -55.5679 -55.5667 -55.5583 -55.5177 -55.4944 -55.4094
   -31.2509 -31.2351 -31.0915 -31.0055 -30.9959 -30.9067 -30.8736 -30.7555
   -29.8209 -29.7801 -29.7537 -29.6462 -14.9918 -14.9522 -14.8767 -14.7602
   -14.6490 -14.5229 -14.4366 -14.2295 -14.0897 -14.0605 -14.0464 -14.0004
   -13.9747 -13.9559 -13.9444 -13.9235 -13.8903 -13.8102 -13.7984 -13.6470
   -13.6197 -13.5928 -13.5707 -13.5329 -13.4714 -13.4111 -13.4034 -13.2542
   -13.2293 -13.1973 -13.1211 -13.0778 -13.0148 -12.9839 -12.9608 -12.9530
   -12.9224 -12.9014 -12.8594 -12.8468 -12.7914 -12.7491 -12.7423 -12.7249
   -12.6925 -12.6674 -12.6636 -12.4743 -12.4170 -12.3952 -12.2579 -12.0797
   -12.0536 -11.7731 -11.7515 -11.7244 -11.7121 -11.6715 -11.6366 -11.6136
   -11.5918 -11.5693 -11.4852 -11.4396 -11.4303  -2.6412  -2.4326  -2.3119
    -2.2234  -2.1051  -2.0384  -1.8364  -1.6902  -1.6718  -1.6438  -1.5512
    -1.5155  -1.4219  -1.3883  -1.3622  -1.2194  -1.1633  -1.0968  -1.0695
    -1.0444  -1.0069  -0.9832  -0.9448  -0.9160  -0.8760  -0.8130  -0.7647
    -0.7048  -0.6342  -0.6053  -0.5561  -0.5263  -0.4817  -0.4275  -0.3845
    -0.3403  -0.2433  -0.2073  -0.1926  -0.1528  -0.0848  -0.0030   0.0404
     0.0679   0.1446   0.1761   0.4169   0.5822   0.6263   0.6677   0.7266
     0.7873   0.8642   0.9064   0.9281   1.2056   1.3161   1.3570   1.3876
     1.3941   1.4373   1.4553   1.4991   1.5302   1.5446   1.5702   1.6140
     1.6305   1.6736   1.6883   1.7346   1.8281   1.8471   1.8615   1.9135
     1.9301   1.9757   2.0337   2.1356   2.2312   2.2590   2.3043   2.3251
     2.3893   2.4280   2.4574   2.4784   2.4973   2.5245   2.5327   2.6099
     2.6407   2.7300   2.9085   2.9172   2.9307   2.9413   2.9520   2.9653
     2.9714   2.9897   2.9978   3.0132   3.0224   3.0351   3.0444   3.0512
     3.0847   3.0955   3.1036   3.1376   3.4301   3.5126   3.5758   3.6595
     3.6809   3.8630   3.9886   4.3314   4.5554   4.7430   5.0153   5.1821
     5.6708   5.7178   5.7769   5.8602   5.9215   6.0684   6.1909   6.2177
     6.9052   6.9273   7.0976   7.2192   7.5866   7.6275   7.6890   7.8651
     7.9131   8.0152   8.1873   8.1964   8.3329   8.3687   8.4564   8.4737
     8.6035   8.7070   8.8905

     occupation numbers 
     1.0000   1.0000   1.0000   1.0000   1.0000   1.0000   1.0000   1.0000
     1.0000   1.0000   1.0000   1.0000   1.0000   1.0000   1.0000   1.0000
     1.0000   1.0000   1.0000   1.0000   1.0000   1.0000   1.0000   1.0000
     1.0000   1.0000   1.0000   1.0000   1.0000   1.0000   1.0000   1.0000
     1.0000   1.0000   1.0000   1.0000   1.0000   1.0000   1.0000   1.0000
     1.0000   1.0000   1.0000   1.0000   1.0000   1.0000   1.0000   1.0000
     1.0000   1.0000   1.0000   1.0000   1.0000   1.0000   1.0000   1.0000
     1.0000   1.0000   1.0000   1.0000   1.0000   1.0000   1.0000   1.0000
     1.0000   1.0000   1.0000   1.0000   1.0000   1.0000   1.0000   1.0000
     1.0000   1.0000   1.0000   1.0000   1.0000   1.0000   1.0000   1.0000
     1.0000   1.0000   1.0000   1.0000   1.0000   1.0000   1.0000   1.0000
     1.0000   1.0000   1.0000   1.0000   1.0000   1.0000   1.0000   1.0000
     1.0000   1.0000   1.0000   1.0000   1.0000   1.0000   1.0000   1.0000
     1.0000   1.0000   1.0000   1.0000   1.0000   1.0000   1.0000   1.0000
     1.0000   1.0000   1.0000   1.0000   1.0000   1.0000   1.0000   1.0000
     1.0000   1.0000   1.0000   1.0000   1.0000   1.0000   1.0000   1.0000
     1.0000   1.0000   1.0000   1.0000   1.0000   1.0000   1.0000   1.0000
     1.0000   1.0000   1.0000   1.0000   1.0000   1.0000   1.0000   1.0000
     1.0000   1.0000   1.0000   1.0000   1.0000   1.0000   1.0000   1.0000
     1.0000   1.0000   1.0000   1.0000   1.0000   1.0000   1.0000   1.0000
     0.9999   0.9999   0.9999   0.9998   0.9993   0.9988   0.9985   0.9982
     0.9982   0.9978   0.9976   0.9970   0.9966   0.9964   0.9959   0.9951
     0.9947   0.9937   0.9933   0.9919   0.9882   0.9873   0.9866   0.9837
     0.9827   0.9795   0.9749   0.9646   0.9521   0.9478   0.9402   0.9365
     0.9237   0.9151   0.9081   0.9029   0.8980   0.8906   0.8883   0.8649
     0.8547   0.8224   0.7452   0.7410   0.7345   0.7293   0.7240   0.7174
     0.7143   0.7050   0.7008   0.6928   0.6881   0.6813   0.6764   0.6727
     0.6546   0.6487   0.6442   0.6252   0.4542   0.4061   0.3701   0.3243
     0.3129   0.2242   0.1725   0.0730   0.0370   0.0195   0.0068   0.0033
     0.0003   0.0002   0.0002   0.0001   0.0001   0.0000   0.0000   0.0000
     0.0000   0.0000   0.0000   0.0000   0.0000   0.0000   0.0000   0.0000
     0.0000   0.0000   0.0000   0.0000   0.0000   0.0000   0.0000   0.0000
     0.0000   0.0000   0.0000

          k =-0.5000 0.2500 0.0000 ( 65138 PWs)   bands (ev):

   -92.6757 -92.6206 -92.5287 -92.4827 -92.4237 -92.3814 -92.3640 -92.2426
   -56.0292 -56.0070 -55.8862 -55.8761 -55.8674 -55.8630 -55.8253 -55.7980
   -55.7825 -55.7809 -55.7717 -55.7311 -55.7150 -55.6746 -55.6549 -55.6241
   -55.6175 -55.5697 -55.5679 -55.5667 -55.5583 -55.5177 -55.4944 -55.4094
   -31.2487 -31.2373 -31.0911 -31.0059 -30.9956 -30.9065 -30.8739 -30.7557
   -29.8199 -29.7811 -29.7533 -29.6466 -14.9568 -14.9129 -14.8340 -14.7325
   -14.6915 -14.5665 -14.4790 -14.3471 -14.0403 -14.0096 -13.9982 -13.9541
   -13.9319 -13.9277 -13.9065 -13.8717 -13.8617 -13.8406 -13.7995 -13.7875
   -13.6772 -13.6116 -13.5674 -13.5618 -13.5495 -13.4446 -13.4381 -13.3142
   -13.2534 -13.1753 -13.1388 -13.0418 -13.0020 -12.9906 -12.9630 -12.9413
   -12.9244 -12.9138 -12.8830 -12.8410 -12.7736 -12.7506 -12.7257 -12.6893
   -12.6795 -12.5968 -12.5894 -12.5141 -12.3960 -12.2975 -12.2484 -12.1559
   -12.1177 -11.7457 -11.7331 -11.7190 -11.7068 -11.6858 -11.6555 -11.5746
   -11.5663 -11.5426 -11.5075 -11.4795 -11.4704  -2.4141  -2.3721  -2.2238
    -2.1812  -2.0206  -1.9462  -1.8025  -1.6665  -1.6109  -1.5836  -1.5443
    -1.5053  -1.4247  -1.3093  -1.2525  -1.2290  -1.2042  -1.1282  -1.1002
    -1.0604  -1.0493  -1.0357  -0.9815  -0.9530  -0.9137  -0.8780  -0.8494
    -0.7922  -0.7644  -0.7220  -0.6879  -0.5853  -0.5559  -0.4728  -0.4049
    -0.3768  -0.3227  -0.2332  -0.1950  -0.1013  -0.0494  -0.0022   0.0555
     0.0830   0.1495   0.1738   0.2038   0.2570   0.2982   0.6032   0.6726
     0.7398   0.8258   1.0468   1.0945   1.1749   1.1961   1.3750   1.4125
     1.4491   1.4614   1.4799   1.4979   1.5665   1.6097   1.6533   1.6764
     1.8148   1.8390   1.8681   1.8818   1.9346   1.9476   1.9612   1.9789
     1.9968   2.0204   2.0744   2.0811   2.1174   2.1357   2.1708   2.2250
     2.3436   2.4319   2.4748   2.5065   2.5140   2.5573   2.5791   2.6485
     2.6785   2.6846   2.7216   2.7542   2.7774   2.8621   2.9056   2.9172
     2.9226   2.9439   2.9665   2.9792   2.9939   3.0075   3.0289   3.0410
     3.0509   3.0586   3.0689   3.0803   3.6069   3.6689   3.7998   3.8260
     4.0988   4.1755   4.2270   4.4574   4.8112   4.9069   5.0601   5.1085
     5.4269   5.4561   5.6086   5.6414   5.7751   5.8033   6.3663   6.4114
     6.5186   6.5689   7.2550   7.3294   7.5783   7.7320   7.7876   7.8200
     7.9139   8.0480   8.3019   8.4135   8.4668   8.5514   8.5885   8.5934
     8.6833   8.7053   8.7637

     occupation numbers 
     1.0000   1.0000   1.0000   1.0000   1.0000   1.0000   1.0000   1.0000
     1.0000   1.0000   1.0000   1.0000   1.0000   1.0000   1.0000   1.0000
     1.0000   1.0000   1.0000   1.0000   1.0000   1.0000   1.0000   1.0000
     1.0000   1.0000   1.0000   1.0000   1.0000   1.0000   1.0000   1.0000
     1.0000   1.0000   1.0000   1.0000   1.0000   1.0000   1.0000   1.0000
     1.0000   1.0000   1.0000   1.0000   1.0000   1.0000   1.0000   1.0000
     1.0000   1.0000   1.0000   1.0000   1.0000   1.0000   1.0000   1.0000
     1.0000   1.0000   1.0000   1.0000   1.0000   1.0000   1.0000   1.0000
     1.0000   1.0000   1.0000   1.0000   1.0000   1.0000   1.0000   1.0000
     1.0000   1.0000   1.0000   1.0000   1.0000   1.0000   1.0000   1.0000
     1.0000   1.0000   1.0000   1.0000   1.0000   1.0000   1.0000   1.0000
     1.0000   1.0000   1.0000   1.0000   1.0000   1.0000   1.0000   1.0000
     1.0000   1.0000   1.0000   1.0000   1.0000   1.0000   1.0000   1.0000
     1.0000   1.0000   1.0000   1.0000   1.0000   1.0000   1.0000   1.0000
     1.0000   1.0000   1.0000   1.0000   1.0000   1.0000   1.0000   1.0000
     1.0000   1.0000   1.0000   1.0000   1.0000   1.0000   1.0000   1.0000
     1.0000   1.0000   1.0000   1.0000   1.0000   1.0000   1.0000   1.0000
     1.0000   1.0000   1.0000   1.0000   1.0000   1.0000   1.0000   1.0000
     1.0000   1.0000   1.0000   1.0000   1.0000   1.0000   1.0000   1.0000
     1.0000   1.0000   1.0000   1.0000   1.0000   1.0000   1.0000   1.0000
     0.9999   0.9999   0.9997   0.9996   0.9994   0.9993   0.9983   0.9980
     0.9976   0.9975   0.9973   0.9971   0.9960   0.9952   0.9942   0.9936
     0.9888   0.9877   0.9862   0.9855   0.9824   0.9815   0.9806   0.9793
     0.9780   0.9760   0.9712   0.9705   0.9667   0.9646   0.9604   0.9530
     0.9330   0.9142   0.9038   0.8955   0.8935   0.8812   0.8746   0.8521
     0.8416   0.8394   0.8256   0.8129   0.8034   0.7668   0.7466   0.7410
     0.7384   0.7280   0.7168   0.7104   0.7028   0.6958   0.6846   0.6782
     0.6729   0.6688   0.6632   0.6570   0.3528   0.3193   0.2533   0.2411
     0.1339   0.1109   0.0971   0.0504   0.0152   0.0105   0.0056   0.0046
     0.0010   0.0009   0.0004   0.0003   0.0002   0.0001   0.0000   0.0000
     0.0000   0.0000   0.0000   0.0000   0.0000   0.0000   0.0000   0.0000
     0.0000   0.0000   0.0000   0.0000   0.0000   0.0000   0.0000   0.0000
     0.0000   0.0000   0.0000

     the Fermi energy is     3.3526 ev

!    total energy              =   -4441.64816645 Ry
     estimated scf accuracy    <          8.4E-09 Ry
     smearing contrib. (-TS)   =      -1.15485292 Ry
     internal energy E=F+TS    =   -4440.49331353 Ry

     The total energy is F=E-TS. E is the sum of the following terms:
     one-electron contribution =  -20805.32423037 Ry
     hartree contribution      =   10535.01664694 Ry
     xc contribution           =    -694.17924086 Ry
     ewald contribution        =    6800.16527760 Ry
     one-center paw contrib.   =    -276.17176684 Ry
      -> PAW hartree energy AE =      25.16534109 Ry
      -> PAW hartree energy PS =     -25.04921220 Ry
      -> PAW xc energy AE      =     -16.51785166 Ry
      -> PAW xc energy PS      =       6.87732752 Ry
      -> total E_H with PAW    =   10535.13277583 Ry
      -> total E_XC with PAW   =    -703.81976500 Ry

     convergence has been achieved in  47 iterations

     Writing all to output data dir /bsuhome/zayahcortright/scratch/pwscf.save/
 
     init_run     :      7.92s CPU      8.44s WALL (       1 calls)
     electrons    :    754.51s CPU    831.80s WALL (       1 calls)

     Called by init_run:
     wfcinit      :      6.14s CPU      6.33s WALL (       1 calls)
     wfcinit:atom :      0.04s CPU      0.06s WALL (       5 calls)
     wfcinit:wfcr :      5.82s CPU      5.93s WALL (       5 calls)
     potinit      :      0.17s CPU      0.19s WALL (       1 calls)
     hinit0       :      0.72s CPU      0.80s WALL (       1 calls)

     Called by electrons:
     c_bands      :    606.59s CPU    618.39s WALL (      47 calls)
     sum_band     :    109.82s CPU    145.64s WALL (      47 calls)
     v_of_rho     :      5.21s CPU      5.59s WALL (      48 calls)
     v_h          :      0.45s CPU      0.46s WALL (      48 calls)
     v_xc         :      4.76s CPU      5.13s WALL (      48 calls)
     newd         :     18.45s CPU     47.24s WALL (      48 calls)
     PAW_pot      :      1.60s CPU      1.63s WALL (      48 calls)
     mix_rho      :     12.55s CPU     12.94s WALL (      47 calls)

     Called by c_bands:
     init_us_2    :      6.51s CPU      6.58s WALL (     475 calls)
     init_us_2:cp :      6.50s CPU      6.58s WALL (     475 calls)
     cegterg      :    574.27s CPU    585.72s WALL (     235 calls)

     Called by sum_band:
     sum_band:wei :      0.34s CPU      0.34s WALL (      47 calls)
     sum_band:loo :     87.26s CPU     87.86s WALL (      47 calls)
     sum_band:buf :      1.34s CPU      1.40s WALL (     235 calls)
     sum_band:ini :      2.98s CPU      2.99s WALL (     235 calls)
     sum_band:cal :     18.64s CPU     18.69s WALL (     235 calls)
     sum_band:bec :      0.57s CPU      0.58s WALL (     235 calls)
     addusdens    :     18.67s CPU     53.80s WALL (      47 calls)
                                        0.00s GPU  (      47 calls)
     addusd:skk   :      0.29s CPU      1.87s WALL (     188 calls)
                                        0.00s GPU  (     188 calls)

     Called by *egterg:
     cdiaghg      :     58.79s CPU     59.14s WALL (    1333 calls)
     cegterg:over :     45.86s CPU     46.05s WALL (    1098 calls)
     cegterg:upda :     47.89s CPU     48.91s WALL (    1098 calls)
     cegterg:last :     67.68s CPU     67.95s WALL (     429 calls)
     cdiaghg:chol :      3.33s CPU      3.35s WALL (    1333 calls)
     cdiaghg:inve :      3.60s CPU      3.62s WALL (    1333 calls)
     cdiaghg:para :      7.53s CPU      7.60s WALL (    2666 calls)
     h_psi        :    290.87s CPU    295.44s WALL (    1338 calls)
     s_psi        :     38.35s CPU     38.47s WALL (    1338 calls)
     g_psi        :      2.50s CPU      2.51s WALL (    1098 calls)

     Called by h_psi:
     h_psi:calbec :     43.99s CPU     44.22s WALL (    1338 calls)
     vloc_psi     :    203.62s CPU    205.47s WALL (    1338 calls)
     add_vuspsi   :     37.75s CPU     37.96s WALL (    1338 calls)

     General routines
     calbec       :     62.63s CPU     62.91s WALL (    1573 calls)
     fft          :      5.15s CPU      5.21s WALL (     622 calls)
     ffts         :      4.75s CPU      4.81s WALL (    5125 calls)
     fftw         :    181.50s CPU    182.89s WALL (  318515 calls)
     interpolate  :      0.39s CPU      0.40s WALL (      48 calls)
 
     Parallel routines

     PAW routines
     PAW_pot      :      1.60s CPU      1.63s WALL (      48 calls)
 
     PWSCF        :  12m44.98s CPU  14m 6.20s WALL

 
   This run was terminated on:  22:13:53  21Jun2024            

=------------------------------------------------------------------------------=
   JOB DONE.
=------------------------------------------------------------------------------=
