
     Program PWSCF v.7.2 starts on 21Jun2024 at 23:11:51 

     This program is part of the open-source Quantum ESPRESSO suite
     for quantum simulation of materials; please cite
         "P. Giannozzi et al., J. Phys.:Condens. Matter 21 395502 (2009);
         "P. Giannozzi et al., J. Phys.:Condens. Matter 29 465901 (2017);
         "P. Giannozzi et al., J. Chem. Phys. 152 154105 (2020);
          URL http://www.quantum-espresso.org", 
     in publications or presentations arising from this work. More details at
     http://www.quantum-espresso.org/quote

     Parallel version (MPI & OpenMP), running on      48 processor cores
     Number of MPI processes:                48
     Threads/MPI process:                     1

     MPI processes distributed on     1 nodes
     33222 MiB available memory on the printing compute node when the environment starts
 
     Reading input from espresso.pwi
Warning: card &CELL ignored
Warning: card / ignored
Warning: card &FCP ignored
Warning: card / ignored
Warning: card &RISM ignored
Warning: card / ignored

     Current dimensions of program PWSCF are:
     Max number of different atomic species (ntypx) = 10
     Max number of k-points (npk) =  40000
     Max angular momentum in pseudopotentials (lmaxx) =  4
     file O.pbe-n-kjpaw_psl.0.1.UPF: wavefunction(s)  2P renormalized
     signal trapping enabled: kill the code with -SIGUSR1 to stop cleanly the simulation 
 
     K-points division:     npool     =       2
     R & G space division:  proc/nbgrp/npool/nimage =      24
     Subspace diagonalization in iterative solution of the eigenvalue problem:
     one sub-group per band group will be used
     scalapack distributed-memory algorithm (size of sub-group:  3*  3 procs)

 
     Parallelization info
     --------------------
     sticks:   dense  smooth     PW     G-vecs:    dense   smooth      PW
     Min         350     175     47                61430    21716    3036
     Max         351     177     48                61449    21727    3041
     Sum        8421    4205   1137              1474595   521381   72913
 
     Using Slab Decomposition
 


     bravais-lattice index     =            0
     lattice parameter (alat)  =      14.8599  a.u.
     unit-cell volume          =    8305.1283 (a.u.)^3
     number of atoms/cell      =           50
     number of atomic types    =            4
     number of electrons       =       431.00
     number of Kohn-Sham states=          259
     kinetic-energy cutoff     =      60.0000  Ry
     charge density cutoff     =     480.0000  Ry
     scf convergence threshold =      1.0E-08
     mixing beta               =       0.1500
     number of iterations used =            8  local-TF  mixing
     Exchange-correlation= PBE
                           (   1   4   3   4   0   0   0)

     celldm(1)=  14.859904  celldm(2)=   0.000000  celldm(3)=   0.000000
     celldm(4)=   0.000000  celldm(5)=   0.000000  celldm(6)=   0.000000

     crystal axes: (cart. coord. in units of alat)
               a(1) = (   1.000000   0.000000   0.000000 )  
               a(2) = (   0.000000   1.000000   0.000000 )  
               a(3) = (   0.000000   0.000000   2.531036 )  

     reciprocal axes: (cart. coord. in units 2 pi/alat)
               b(1) = (  1.000000  0.000000  0.000000 )  
               b(2) = (  0.000000  1.000000  0.000000 )  
               b(3) = (  0.000000  0.000000  0.395095 )  


     PseudoPot. # 1 for Sr read from file:
     /bsuhome/zayahcortright/q-e/pseudo/Sr_pbe_v1.uspp.F.UPF
     MD5 check sum: 6b418c05fbe9db5448babca5e47b7a5b
     Pseudo is Ultrasoft + core correction, Zval = 10.0
     Generated by new atomic code, or converted to UPF format
     Using radial grid of  883 points,  6 beta functions with: 
                l(1) =   0
                l(2) =   0
                l(3) =   1
                l(4) =   1
                l(5) =   2
                l(6) =   2
     Q(r) pseudized with  6 coefficients,  rinner =    1.400   1.400   1.400
                                                       1.400   1.400

     PseudoPot. # 2 for O  read from file:
     /bsuhome/zayahcortright/q-e/pseudo/O.pbe-n-kjpaw_psl.0.1.UPF
     MD5 check sum: 0234752ac141de4415c5fc33072bef88
     Pseudo is Projector augmented-wave + core cor, Zval =  6.0
     Generated using "atomic" code by A. Dal Corso  v.5.0.99 svn rev. 10869
     Shape of augmentation charge: BESSEL
     Using radial grid of 1095 points,  4 beta functions with: 
                l(1) =   0
                l(2) =   0
                l(3) =   1
                l(4) =   1
     Q(r) pseudized with 0 coefficients 


     PseudoPot. # 3 for Co read from file:
     /bsuhome/zayahcortright/q-e/pseudo/Co_pbe_v1.2.uspp.F.UPF
     MD5 check sum: 5f91765df6ddd3222702df6e7b74a16d
     Pseudo is Ultrasoft + core correction, Zval = 17.0
     Generated by new atomic code, or converted to UPF format
     Using radial grid of  863 points,  6 beta functions with: 
                l(1) =   0
                l(2) =   0
                l(3) =   1
                l(4) =   1
                l(5) =   2
                l(6) =   2
     Q(r) pseudized with  8 coefficients,  rinner =    1.200   1.200   1.200
                                                       1.200   1.200

     PseudoPot. # 4 for H  read from file:
     /bsuhome/zayahcortright/q-e/pseudo/H.pbe-rrkjus_psl.1.0.0.UPF
     MD5 check sum: f52b6d4d1c606e5624b1dc7b2218f220
     Pseudo is Ultrasoft, Zval =  1.0
     Generated using "atomic" code by A. Dal Corso  v.5.1
     Using radial grid of  929 points,  2 beta functions with: 
                l(1) =   0
                l(2) =   0
     Q(r) pseudized with 0 coefficients 


     atomic species   valence    mass     pseudopotential
        Sr            10.00    87.62000     Sr( 1.00)
        O              6.00    15.99900     O ( 1.00)
        Co            17.00    58.93319     Co( 1.00)
        H              1.00     1.00800     H ( 1.00)

     No symmetry found


                                    s                        frac. trans.

      isym =  1     identity                                     

 cryst.   s( 1) = (     1          0          0      )
                  (     0          1          0      )
                  (     0          0          1      )

 cart.    s( 1) = (  1.0000000  0.0000000  0.0000000 )
                  (  0.0000000  1.0000000  0.0000000 )
                  (  0.0000000  0.0000000  1.0000000 )


   Cartesian axes

     site n.     atom                  positions (alat units)
         1           Sr  tau(   1) = (   0.2508693   0.7491307   1.7574407  )
         2           O   tau(   2) = (   0.4985141   0.5014859   1.7715967  )
         3           Sr  tau(   3) = (   0.7482398   0.7454518   1.7648669  )
         4           Sr  tau(   4) = (   0.7441748   0.2558252   1.7667843  )
         5           Sr  tau(   5) = (   0.2508693   0.7491307   1.2696799  )
         6           Sr  tau(   6) = (   0.2508693   0.7491307   0.7632319  )
         7           Co  tau(   7) = (   0.4998914   0.5001086   1.0164559  )
         8           Co  tau(   8) = (   0.4936915   0.5063085   1.5135603  )
         9           O   tau(   9) = (   0.4988895   0.7610401   1.0164559  )
        10           O   tau(  10) = (   0.2389599   0.5011105   1.0164559  )
        11           O   tau(  11) = (   0.0070918   0.7374880   1.0164559  )
        12           O   tau(  12) = (   0.0088340   0.7405089   1.5135603  )
        13           O   tau(  13) = (   0.5066944   0.7415376   1.5135603  )
        14           O   tau(  14) = (   0.2584624   0.4933056   1.5135603  )
        15           O   tau(  15) = (   0.4985141   0.5014859   0.7773880  )
        16           O   tau(  16) = (   0.4985141   0.5014859   1.2555238  )
        17           Sr  tau(  17) = (   0.7482398   0.7454518   0.7706582  )
        18           Sr  tau(  18) = (   0.7482398   0.7454518   1.2622536  )
        19           Sr  tau(  19) = (   0.7441748   0.2558252   0.7725755  )
        20           Sr  tau(  20) = (   0.7441748   0.2558252   1.2603363  )
        21           O   tau(  21) = (   0.7322655   0.0078049   1.5135603  )
        22           O   tau(  22) = (   0.7558175   0.4996027   1.5135603  )
        23           O   tau(  23) = (   0.5003973   0.2441825   1.5135603  )
        24           O   tau(  24) = (   0.7527966   0.4978604   1.0164559  )
        25           O   tau(  25) = (   0.5021396   0.2472034   1.0164559  )
        26           O   tau(  26) = (   0.7517679   0.0000000   1.0164559  )
        27           O   tau(  27) = (   0.0114961   0.4948124   1.7455321  )
        28           O   tau(  28) = (   0.0048226   0.0077944   1.7715967  )
        29           Sr  tau(  29) = (   0.2545482   0.2517602   1.7648669  )
        30           O   tau(  30) = (   0.5048017   0.0015068   1.7786929  )
        31           Co  tau(  31) = (   0.0056869   0.5006215   1.0164559  )
        32           Co  tau(  32) = (   0.0065315   0.4997770   1.5135603  )
        33           Co  tau(  33) = (   0.0061999   0.0064171   1.0164559  )
        34           Co  tau(  34) = (   0.0000000   0.0126169   1.5135603  )
        35           O   tau(  35) = (   0.0114961   0.4948124   1.2815885  )
        36           O   tau(  36) = (   0.0114961   0.4948124   0.7513233  )
        37           O   tau(  37) = (   0.0051979   0.2673486   1.0164559  )
        38           O   tau(  38) = (   0.0130029   0.2478461   1.5135603  )
        39           O   tau(  39) = (   0.0048226   0.0077944   0.7773880  )
        40           O   tau(  40) = (   0.0048226   0.0077944   1.2555238  )
        41           Sr  tau(  41) = (   0.2545482   0.2517602   0.7706582  )
        42           Sr  tau(  42) = (   0.2545482   0.2517602   1.2622536  )
        43           Co  tau(  43) = (   0.4989925   0.0073160   1.5135603  )
        44           Co  tau(  44) = (   0.4998370   0.0064714   1.0164559  )
        45           O   tau(  45) = (   0.5048017   0.0015068   0.7844841  )
        46           O   tau(  46) = (   0.5048017   0.0015068   1.2484277  )
        47           O   tau(  47) = (   0.2621260   0.0059111   1.5135603  )
        48           O   tau(  48) = (   0.2591051   0.0041689   1.0164559  )
        49           O   tau(  49) = (   0.5686583   0.7108228   2.1602013  )
        50           H   tau(  50) = (   0.5686583   0.7108228   2.2847091  )

   Crystallographic axes

     site n.     atom                  positions (cryst. coord.)
         1           Sr  tau(   1) = (  0.2508693  0.7491307  0.6943562  )
         2           O   tau(   2) = (  0.4985141  0.5014859  0.6999492  )
         3           Sr  tau(   3) = (  0.7482398  0.7454518  0.6972903  )
         4           Sr  tau(   4) = (  0.7441748  0.2558252  0.6980478  )
         5           Sr  tau(   5) = (  0.2508693  0.7491307  0.5016443  )
         6           Sr  tau(   6) = (  0.2508693  0.7491307  0.3015492  )
         7           Co  tau(   7) = (  0.4998914  0.5001086  0.4015968  )
         8           Co  tau(   8) = (  0.4936915  0.5063085  0.5980003  )
         9           O   tau(   9) = (  0.4988895  0.7610401  0.4015968  )
        10           O   tau(  10) = (  0.2389599  0.5011105  0.4015968  )
        11           O   tau(  11) = (  0.0070918  0.7374880  0.4015968  )
        12           O   tau(  12) = (  0.0088340  0.7405089  0.5980003  )
        13           O   tau(  13) = (  0.5066944  0.7415376  0.5980003  )
        14           O   tau(  14) = (  0.2584624  0.4933056  0.5980003  )
        15           O   tau(  15) = (  0.4985141  0.5014859  0.3071422  )
        16           O   tau(  16) = (  0.4985141  0.5014859  0.4960513  )
        17           Sr  tau(  17) = (  0.7482398  0.7454518  0.3044833  )
        18           Sr  tau(  18) = (  0.7482398  0.7454518  0.4987103  )
        19           Sr  tau(  19) = (  0.7441748  0.2558252  0.3052408  )
        20           Sr  tau(  20) = (  0.7441748  0.2558252  0.4979527  )
        21           O   tau(  21) = (  0.7322655  0.0078049  0.5980003  )
        22           O   tau(  22) = (  0.7558175  0.4996027  0.5980003  )
        23           O   tau(  23) = (  0.5003973  0.2441825  0.5980003  )
        24           O   tau(  24) = (  0.7527966  0.4978604  0.4015968  )
        25           O   tau(  25) = (  0.5021396  0.2472034  0.4015968  )
        26           O   tau(  26) = (  0.7517679  0.0000000  0.4015968  )
        27           O   tau(  27) = (  0.0114961  0.4948124  0.6896512  )
        28           O   tau(  28) = (  0.0048226  0.0077944  0.6999492  )
        29           Sr  tau(  29) = (  0.2545482  0.2517602  0.6972903  )
        30           O   tau(  30) = (  0.5048017  0.0015068  0.7027529  )
        31           Co  tau(  31) = (  0.0056869  0.5006215  0.4015968  )
        32           Co  tau(  32) = (  0.0065315  0.4997770  0.5980003  )
        33           Co  tau(  33) = (  0.0061999  0.0064171  0.4015968  )
        34           Co  tau(  34) = (  0.0000000  0.0126169  0.5980003  )
        35           O   tau(  35) = (  0.0114961  0.4948124  0.5063494  )
        36           O   tau(  36) = (  0.0114961  0.4948124  0.2968442  )
        37           O   tau(  37) = (  0.0051979  0.2673486  0.4015968  )
        38           O   tau(  38) = (  0.0130029  0.2478461  0.5980003  )
        39           O   tau(  39) = (  0.0048226  0.0077944  0.3071422  )
        40           O   tau(  40) = (  0.0048226  0.0077944  0.4960513  )
        41           Sr  tau(  41) = (  0.2545482  0.2517602  0.3044833  )
        42           Sr  tau(  42) = (  0.2545482  0.2517602  0.4987103  )
        43           Co  tau(  43) = (  0.4989925  0.0073160  0.5980003  )
        44           Co  tau(  44) = (  0.4998370  0.0064714  0.4015968  )
        45           O   tau(  45) = (  0.5048017  0.0015068  0.3099459  )
        46           O   tau(  46) = (  0.5048017  0.0015068  0.4932477  )
        47           O   tau(  47) = (  0.2621260  0.0059111  0.5980003  )
        48           O   tau(  48) = (  0.2591051  0.0041689  0.4015968  )
        49           O   tau(  49) = (  0.5686583  0.7108228  0.8534850  )
        50           H   tau(  50) = (  0.5686583  0.7108228  0.9026774  )

     number of k points=    10  Gaussian smearing, width (Ry)=  0.0700
                       cart. coord. in units 2pi/alat
        k(    1) = (   0.0000000   0.0000000   0.0000000), wk =   0.1250000
        k(    2) = (   0.0000000   0.2500000   0.0000000), wk =   0.2500000
        k(    3) = (   0.0000000  -0.5000000   0.0000000), wk =   0.1250000
        k(    4) = (   0.2500000   0.2500000   0.0000000), wk =   0.2500000
        k(    5) = (   0.2500000  -0.5000000   0.0000000), wk =   0.2500000
        k(    6) = (  -0.5000000  -0.5000000   0.0000000), wk =   0.1250000
        k(    7) = (   0.2500000   0.0000000   0.0000000), wk =   0.2500000
        k(    8) = (  -0.5000000   0.0000000   0.0000000), wk =   0.1250000
        k(    9) = (  -0.2500000   0.2500000   0.0000000), wk =   0.2500000
        k(   10) = (  -0.5000000   0.2500000   0.0000000), wk =   0.2500000

                       cryst. coord.
        k(    1) = (   0.0000000   0.0000000   0.0000000), wk =   0.1250000
        k(    2) = (   0.0000000   0.2500000   0.0000000), wk =   0.2500000
        k(    3) = (   0.0000000  -0.5000000   0.0000000), wk =   0.1250000
        k(    4) = (   0.2500000   0.2500000   0.0000000), wk =   0.2500000
        k(    5) = (   0.2500000  -0.5000000   0.0000000), wk =   0.2500000
        k(    6) = (  -0.5000000  -0.5000000   0.0000000), wk =   0.1250000
        k(    7) = (   0.2500000   0.0000000   0.0000000), wk =   0.2500000
        k(    8) = (  -0.5000000   0.0000000   0.0000000), wk =   0.1250000
        k(    9) = (  -0.2500000   0.2500000   0.0000000), wk =   0.2500000
        k(   10) = (  -0.5000000   0.2500000   0.0000000), wk =   0.2500000

     Dense  grid:  1474595 G-vectors     FFT dimensions: ( 108, 108, 270)

     Smooth grid:   521381 G-vectors     FFT dimensions: (  75,  75, 192)

     Dynamical RAM for                 wfc:      10.73 MB

     Dynamical RAM for     wfc (w. buffer):      64.38 MB

     Dynamical RAM for           str. fact:       3.75 MB

     Dynamical RAM for           local pot:       0.00 MB

     Dynamical RAM for          nlocal pot:      24.61 MB

     Dynamical RAM for                qrad:       7.03 MB

     Dynamical RAM for          rho,v,vnew:       6.02 MB

     Dynamical RAM for               rhoin:       2.01 MB

     Dynamical RAM for            rho*nmix:      15.00 MB

     Dynamical RAM for           G-vectors:       3.68 MB

     Dynamical RAM for          h,s,v(r/c):       1.35 MB

     Dynamical RAM for          <psi|beta>:       2.35 MB

     Dynamical RAM for                 psi:      21.46 MB

     Dynamical RAM for                hpsi:      21.46 MB

     Dynamical RAM for                spsi:      21.46 MB

     Dynamical RAM for      wfcinit/wfcrot:      34.49 MB

     Dynamical RAM for           addusdens:     101.26 MB

     Estimated static dynamical RAM per process >     121.50 MB

     Estimated max dynamical RAM per process >     237.76 MB

     Estimated total dynamical RAM >      10.79 GB

     Check: negative core charge=   -0.000004

     Initial potential from superposition of free atoms

     starting charge     422.5961, renormalised to     431.0000

     negative rho (up, down):  7.820E-01 0.000E+00
     Starting wfcs are  377 randomized atomic wfcs
     Checking if some PAW data can be deallocated... 
       PAW data deallocated on   19 nodes for type:  2

     total cpu time spent up to now is        9.2 secs

     Self-consistent Calculation

     iteration #  1     ecut=    60.00 Ry     beta= 0.15
     Davidson diagonalization with overlap

---- Real-time Memory Report at c_bands before calling an iterative solver
             0 MiB given to the printing process from OS
             0 MiB allocation reported by mallinfo(arena+hblkhd)
         23978 MiB available memory on the node where the printing process lives
------------------
     ethr =  1.00E-02,  avg # of iterations =  2.0

     negative rho (up, down):  7.716E-01 0.000E+00

     total cpu time spent up to now is       26.0 secs

     total energy              =   -4446.63876183 Ry
     estimated scf accuracy    <      44.71776002 Ry

     iteration #  2     ecut=    60.00 Ry     beta= 0.15
     Davidson diagonalization with overlap

---- Real-time Memory Report at c_bands before calling an iterative solver
             0 MiB given to the printing process from OS
             0 MiB allocation reported by mallinfo(arena+hblkhd)
         24263 MiB available memory on the node where the printing process lives
------------------
     ethr =  1.00E-02,  avg # of iterations =  1.0

     negative rho (up, down):  7.583E-01 0.000E+00

     total cpu time spent up to now is       40.6 secs

     total energy              =   -4443.31232089 Ry
     estimated scf accuracy    <      29.75720323 Ry

     iteration #  3     ecut=    60.00 Ry     beta= 0.15
     Davidson diagonalization with overlap

---- Real-time Memory Report at c_bands before calling an iterative solver
             0 MiB given to the printing process from OS
             0 MiB allocation reported by mallinfo(arena+hblkhd)
         23433 MiB available memory on the node where the printing process lives
------------------
     ethr =  6.90E-03,  avg # of iterations =  1.0

     negative rho (up, down):  7.555E-01 0.000E+00

     total cpu time spent up to now is       55.5 secs

     total energy              =   -4444.26733790 Ry
     estimated scf accuracy    <      28.32857819 Ry

     iteration #  4     ecut=    60.00 Ry     beta= 0.15
     Davidson diagonalization with overlap

---- Real-time Memory Report at c_bands before calling an iterative solver
             0 MiB given to the printing process from OS
             0 MiB allocation reported by mallinfo(arena+hblkhd)
         23403 MiB available memory on the node where the printing process lives
------------------
     ethr =  6.57E-03,  avg # of iterations =  1.0

     negative rho (up, down):  7.498E-01 0.000E+00

     total cpu time spent up to now is       70.3 secs

     total energy              =   -4443.07121623 Ry
     estimated scf accuracy    <      20.62509358 Ry

     iteration #  5     ecut=    60.00 Ry     beta= 0.15
     Davidson diagonalization with overlap

---- Real-time Memory Report at c_bands before calling an iterative solver
             0 MiB given to the printing process from OS
             0 MiB allocation reported by mallinfo(arena+hblkhd)
         23387 MiB available memory on the node where the printing process lives
------------------
     ethr =  4.79E-03,  avg # of iterations =  1.0

     negative rho (up, down):  7.400E-01 0.000E+00

     total cpu time spent up to now is       85.0 secs

     total energy              =   -4442.51208102 Ry
     estimated scf accuracy    <      11.21223786 Ry

     iteration #  6     ecut=    60.00 Ry     beta= 0.15
     Davidson diagonalization with overlap

---- Real-time Memory Report at c_bands before calling an iterative solver
             0 MiB given to the printing process from OS
             0 MiB allocation reported by mallinfo(arena+hblkhd)
         23368 MiB available memory on the node where the printing process lives
------------------
     ethr =  2.60E-03,  avg # of iterations =  1.1

     negative rho (up, down):  7.428E-01 0.000E+00

     total cpu time spent up to now is      100.0 secs

     total energy              =   -4442.81830450 Ry
     estimated scf accuracy    <       4.99003244 Ry

     iteration #  7     ecut=    60.00 Ry     beta= 0.15
     Davidson diagonalization with overlap

---- Real-time Memory Report at c_bands before calling an iterative solver
             0 MiB given to the printing process from OS
             0 MiB allocation reported by mallinfo(arena+hblkhd)
         23343 MiB available memory on the node where the printing process lives
------------------
     ethr =  1.16E-03,  avg # of iterations =  1.7

     negative rho (up, down):  7.637E-01 0.000E+00

     total cpu time spent up to now is      115.2 secs

     total energy              =   -4441.66410427 Ry
     estimated scf accuracy    <       3.95705535 Ry

     iteration #  8     ecut=    60.00 Ry     beta= 0.15
     Davidson diagonalization with overlap

---- Real-time Memory Report at c_bands before calling an iterative solver
             0 MiB given to the printing process from OS
             0 MiB allocation reported by mallinfo(arena+hblkhd)
         23324 MiB available memory on the node where the printing process lives
------------------
     ethr =  9.18E-04,  avg # of iterations =  4.9

     negative rho (up, down):  7.725E-01 0.000E+00

     total cpu time spent up to now is      135.3 secs

     total energy              =   -4441.36939128 Ry
     estimated scf accuracy    <      18.03923993 Ry

     iteration #  9     ecut=    60.00 Ry     beta= 0.15
     Davidson diagonalization with overlap

---- Real-time Memory Report at c_bands before calling an iterative solver
             0 MiB given to the printing process from OS
             0 MiB allocation reported by mallinfo(arena+hblkhd)
         23163 MiB available memory on the node where the printing process lives
------------------
     ethr =  9.18E-04,  avg # of iterations =  9.7

     negative rho (up, down):  7.701E-01 0.000E+00

     total cpu time spent up to now is      157.2 secs

     total energy              =   -4441.75243576 Ry
     estimated scf accuracy    <       3.00694526 Ry

     iteration # 10     ecut=    60.00 Ry     beta= 0.15
     Davidson diagonalization with overlap

---- Real-time Memory Report at c_bands before calling an iterative solver
             0 MiB given to the printing process from OS
             0 MiB allocation reported by mallinfo(arena+hblkhd)
         22850 MiB available memory on the node where the printing process lives
------------------
     ethr =  6.98E-04,  avg # of iterations =  1.4

     negative rho (up, down):  7.767E-01 0.000E+00

     total cpu time spent up to now is      172.9 secs

     total energy              =   -4441.90740880 Ry
     estimated scf accuracy    <       1.34863730 Ry

     iteration # 11     ecut=    60.00 Ry     beta= 0.15
     Davidson diagonalization with overlap

---- Real-time Memory Report at c_bands before calling an iterative solver
             0 MiB given to the printing process from OS
             0 MiB allocation reported by mallinfo(arena+hblkhd)
         22835 MiB available memory on the node where the printing process lives
------------------
     ethr =  3.13E-04,  avg # of iterations =  3.5

     negative rho (up, down):  8.052E-01 0.000E+00

     total cpu time spent up to now is      190.8 secs

     total energy              =   -4441.73320235 Ry
     estimated scf accuracy    <       1.35250062 Ry

     iteration # 12     ecut=    60.00 Ry     beta= 0.15
     Davidson diagonalization with overlap

---- Real-time Memory Report at c_bands before calling an iterative solver
             0 MiB given to the printing process from OS
             0 MiB allocation reported by mallinfo(arena+hblkhd)
         22805 MiB available memory on the node where the printing process lives
------------------
     ethr =  3.13E-04,  avg # of iterations =  7.0

     negative rho (up, down):  8.135E-01 0.000E+00

     total cpu time spent up to now is      210.7 secs

     total energy              =   -4441.86125100 Ry
     estimated scf accuracy    <       1.14901557 Ry

     iteration # 13     ecut=    60.00 Ry     beta= 0.15
     Davidson diagonalization with overlap

---- Real-time Memory Report at c_bands before calling an iterative solver
             0 MiB given to the printing process from OS
             0 MiB allocation reported by mallinfo(arena+hblkhd)
         22757 MiB available memory on the node where the printing process lives
------------------
     ethr =  2.67E-04,  avg # of iterations =  3.5

     negative rho (up, down):  8.186E-01 0.000E+00

     total cpu time spent up to now is      228.0 secs

     total energy              =   -4441.79950541 Ry
     estimated scf accuracy    <       0.75537347 Ry

     iteration # 14     ecut=    60.00 Ry     beta= 0.15
     Davidson diagonalization with overlap

---- Real-time Memory Report at c_bands before calling an iterative solver
             0 MiB given to the printing process from OS
             0 MiB allocation reported by mallinfo(arena+hblkhd)
         22766 MiB available memory on the node where the printing process lives
------------------
     c_bands:  2 eigenvalues not converged
     ethr =  1.75E-04,  avg # of iterations =  8.5

     negative rho (up, down):  8.236E-01 0.000E+00

     total cpu time spent up to now is      248.5 secs

     total energy              =   -4441.74525027 Ry
     estimated scf accuracy    <       0.36649450 Ry

     iteration # 15     ecut=    60.00 Ry     beta= 0.15
     Davidson diagonalization with overlap

---- Real-time Memory Report at c_bands before calling an iterative solver
             0 MiB given to the printing process from OS
             0 MiB allocation reported by mallinfo(arena+hblkhd)
         22813 MiB available memory on the node where the printing process lives
------------------
     ethr =  8.50E-05,  avg # of iterations = 10.6

     negative rho (up, down):  8.318E-01 0.000E+00

     total cpu time spent up to now is      270.8 secs

     total energy              =   -4441.73041067 Ry
     estimated scf accuracy    <       0.33457959 Ry

     iteration # 16     ecut=    60.00 Ry     beta= 0.15
     Davidson diagonalization with overlap

---- Real-time Memory Report at c_bands before calling an iterative solver
             0 MiB given to the printing process from OS
             0 MiB allocation reported by mallinfo(arena+hblkhd)
         22718 MiB available memory on the node where the printing process lives
------------------
     ethr =  7.76E-05,  avg # of iterations =  3.9

     negative rho (up, down):  8.312E-01 0.000E+00

     total cpu time spent up to now is      288.9 secs

     total energy              =   -4441.71891686 Ry
     estimated scf accuracy    <       0.30143603 Ry

     iteration # 17     ecut=    60.00 Ry     beta= 0.15
     Davidson diagonalization with overlap

---- Real-time Memory Report at c_bands before calling an iterative solver
             0 MiB given to the printing process from OS
             0 MiB allocation reported by mallinfo(arena+hblkhd)
         22716 MiB available memory on the node where the printing process lives
------------------
     ethr =  6.99E-05,  avg # of iterations =  1.5

     negative rho (up, down):  8.117E-01 0.000E+00

     total cpu time spent up to now is      304.9 secs

     total energy              =   -4441.69347302 Ry
     estimated scf accuracy    <       0.18383784 Ry

     iteration # 18     ecut=    60.00 Ry     beta= 0.15
     Davidson diagonalization with overlap

---- Real-time Memory Report at c_bands before calling an iterative solver
             0 MiB given to the printing process from OS
             0 MiB allocation reported by mallinfo(arena+hblkhd)
         22722 MiB available memory on the node where the printing process lives
------------------
     ethr =  4.27E-05,  avg # of iterations = 10.4

     negative rho (up, down):  8.166E-01 0.000E+00

     total cpu time spent up to now is      326.7 secs

     total energy              =   -4441.66809028 Ry
     estimated scf accuracy    <       0.17634493 Ry

     iteration # 19     ecut=    60.00 Ry     beta= 0.15
     Davidson diagonalization with overlap

---- Real-time Memory Report at c_bands before calling an iterative solver
             0 MiB given to the printing process from OS
             0 MiB allocation reported by mallinfo(arena+hblkhd)
         22717 MiB available memory on the node where the printing process lives
------------------
     ethr =  4.09E-05,  avg # of iterations =  6.7

     negative rho (up, down):  8.326E-01 0.000E+00

     total cpu time spent up to now is      346.2 secs

     total energy              =   -4441.66895995 Ry
     estimated scf accuracy    <       0.06356570 Ry

     iteration # 20     ecut=    60.00 Ry     beta= 0.15
     Davidson diagonalization with overlap

---- Real-time Memory Report at c_bands before calling an iterative solver
             0 MiB given to the printing process from OS
             0 MiB allocation reported by mallinfo(arena+hblkhd)
         22715 MiB available memory on the node where the printing process lives
------------------
     ethr =  1.47E-05,  avg # of iterations = 11.3

     negative rho (up, down):  8.271E-01 0.000E+00

     total cpu time spent up to now is      370.2 secs

     total energy              =   -4441.67061138 Ry
     estimated scf accuracy    <       0.03152799 Ry

     iteration # 21     ecut=    60.00 Ry     beta= 0.15
     Davidson diagonalization with overlap

---- Real-time Memory Report at c_bands before calling an iterative solver
             0 MiB given to the printing process from OS
             0 MiB allocation reported by mallinfo(arena+hblkhd)
         22587 MiB available memory on the node where the printing process lives
------------------
     ethr =  7.32E-06,  avg # of iterations =  1.7

     negative rho (up, down):  8.204E-01 0.000E+00

     total cpu time spent up to now is      387.4 secs

     total energy              =   -4441.66878596 Ry
     estimated scf accuracy    <       0.02654753 Ry

     iteration # 22     ecut=    60.00 Ry     beta= 0.15
     Davidson diagonalization with overlap

---- Real-time Memory Report at c_bands before calling an iterative solver
             0 MiB given to the printing process from OS
             0 MiB allocation reported by mallinfo(arena+hblkhd)
         22598 MiB available memory on the node where the printing process lives
------------------
     ethr =  6.16E-06,  avg # of iterations =  1.9

     negative rho (up, down):  7.971E-01 0.000E+00

     total cpu time spent up to now is      403.5 secs

     total energy              =   -4441.66391437 Ry
     estimated scf accuracy    <       0.02111888 Ry

     iteration # 23     ecut=    60.00 Ry     beta= 0.15
     Davidson diagonalization with overlap

---- Real-time Memory Report at c_bands before calling an iterative solver
             0 MiB given to the printing process from OS
             0 MiB allocation reported by mallinfo(arena+hblkhd)
         22607 MiB available memory on the node where the printing process lives
------------------
     ethr =  4.90E-06,  avg # of iterations = 10.5

     negative rho (up, down):  8.021E-01 0.000E+00

     total cpu time spent up to now is      425.0 secs

     total energy              =   -4441.66354565 Ry
     estimated scf accuracy    <       0.01207136 Ry

     iteration # 24     ecut=    60.00 Ry     beta= 0.15
     Davidson diagonalization with overlap

---- Real-time Memory Report at c_bands before calling an iterative solver
             0 MiB given to the printing process from OS
             0 MiB allocation reported by mallinfo(arena+hblkhd)
         22607 MiB available memory on the node where the printing process lives
------------------
     c_bands:  1 eigenvalues not converged
     ethr =  2.80E-06,  avg # of iterations = 12.6

     negative rho (up, down):  8.000E-01 0.000E+00

     total cpu time spent up to now is      448.6 secs

     total energy              =   -4441.66343112 Ry
     estimated scf accuracy    <       0.00676007 Ry

     iteration # 25     ecut=    60.00 Ry     beta= 0.15
     Davidson diagonalization with overlap

---- Real-time Memory Report at c_bands before calling an iterative solver
             0 MiB given to the printing process from OS
             0 MiB allocation reported by mallinfo(arena+hblkhd)
         22603 MiB available memory on the node where the printing process lives
------------------
     ethr =  1.57E-06,  avg # of iterations =  2.5

     negative rho (up, down):  7.952E-01 0.000E+00

     total cpu time spent up to now is      465.7 secs

     total energy              =   -4441.66213717 Ry
     estimated scf accuracy    <       0.00472371 Ry

     iteration # 26     ecut=    60.00 Ry     beta= 0.15
     Davidson diagonalization with overlap

---- Real-time Memory Report at c_bands before calling an iterative solver
             0 MiB given to the printing process from OS
             0 MiB allocation reported by mallinfo(arena+hblkhd)
         22587 MiB available memory on the node where the printing process lives
------------------
     ethr =  1.10E-06,  avg # of iterations = 12.6

     negative rho (up, down):  7.975E-01 0.000E+00

     total cpu time spent up to now is      490.6 secs

     total energy              =   -4441.66247079 Ry
     estimated scf accuracy    <       0.00176548 Ry

     iteration # 27     ecut=    60.00 Ry     beta= 0.15
     Davidson diagonalization with overlap

---- Real-time Memory Report at c_bands before calling an iterative solver
             0 MiB given to the printing process from OS
             0 MiB allocation reported by mallinfo(arena+hblkhd)
         22582 MiB available memory on the node where the printing process lives
------------------
     c_bands:  1 eigenvalues not converged
     ethr =  4.10E-07,  avg # of iterations = 11.6

     negative rho (up, down):  7.970E-01 0.000E+00

     total cpu time spent up to now is      513.1 secs

     total energy              =   -4441.66256329 Ry
     estimated scf accuracy    <       0.00064853 Ry

     iteration # 28     ecut=    60.00 Ry     beta= 0.15
     Davidson diagonalization with overlap

---- Real-time Memory Report at c_bands before calling an iterative solver
             0 MiB given to the printing process from OS
             0 MiB allocation reported by mallinfo(arena+hblkhd)
         22566 MiB available memory on the node where the printing process lives
------------------
     ethr =  1.50E-07,  avg # of iterations =  2.5

     negative rho (up, down):  7.949E-01 0.000E+00

     total cpu time spent up to now is      530.0 secs

     total energy              =   -4441.66254679 Ry
     estimated scf accuracy    <       0.00045530 Ry

     iteration # 29     ecut=    60.00 Ry     beta= 0.15
     Davidson diagonalization with overlap

---- Real-time Memory Report at c_bands before calling an iterative solver
             0 MiB given to the printing process from OS
             0 MiB allocation reported by mallinfo(arena+hblkhd)
         22582 MiB available memory on the node where the printing process lives
------------------
     c_bands:  1 eigenvalues not converged
     ethr =  1.06E-07,  avg # of iterations =  6.9

     negative rho (up, down):  7.933E-01 0.000E+00

     total cpu time spent up to now is      549.2 secs

     total energy              =   -4441.66255405 Ry
     estimated scf accuracy    <       0.00023006 Ry

     iteration # 30     ecut=    60.00 Ry     beta= 0.15
     Davidson diagonalization with overlap

---- Real-time Memory Report at c_bands before calling an iterative solver
             0 MiB given to the printing process from OS
             0 MiB allocation reported by mallinfo(arena+hblkhd)
         22579 MiB available memory on the node where the printing process lives
------------------
     ethr =  5.34E-08,  avg # of iterations =  2.8

     negative rho (up, down):  7.920E-01 0.000E+00

     total cpu time spent up to now is      566.6 secs

     total energy              =   -4441.66256276 Ry
     estimated scf accuracy    <       0.00010671 Ry

     iteration # 31     ecut=    60.00 Ry     beta= 0.15
     Davidson diagonalization with overlap

---- Real-time Memory Report at c_bands before calling an iterative solver
             0 MiB given to the printing process from OS
             0 MiB allocation reported by mallinfo(arena+hblkhd)
         22680 MiB available memory on the node where the printing process lives
------------------
     ethr =  2.48E-08,  avg # of iterations =  3.3

     negative rho (up, down):  7.918E-01 0.000E+00

     total cpu time spent up to now is      584.0 secs

     total energy              =   -4441.66256285 Ry
     estimated scf accuracy    <       0.00004423 Ry

     iteration # 32     ecut=    60.00 Ry     beta= 0.15
     Davidson diagonalization with overlap

---- Real-time Memory Report at c_bands before calling an iterative solver
             0 MiB given to the printing process from OS
             0 MiB allocation reported by mallinfo(arena+hblkhd)
         22688 MiB available memory on the node where the printing process lives
------------------
     ethr =  1.03E-08,  avg # of iterations =  2.2

     negative rho (up, down):  7.920E-01 0.000E+00

     total cpu time spent up to now is      600.7 secs

     total energy              =   -4441.66255401 Ry
     estimated scf accuracy    <       0.00002609 Ry

     iteration # 33     ecut=    60.00 Ry     beta= 0.15
     Davidson diagonalization with overlap

---- Real-time Memory Report at c_bands before calling an iterative solver
             0 MiB given to the printing process from OS
             0 MiB allocation reported by mallinfo(arena+hblkhd)
         22671 MiB available memory on the node where the printing process lives
------------------
     ethr =  6.05E-09,  avg # of iterations =  3.2

     negative rho (up, down):  7.922E-01 0.000E+00

     total cpu time spent up to now is      618.2 secs

     total energy              =   -4441.66255336 Ry
     estimated scf accuracy    <       0.00001189 Ry

     iteration # 34     ecut=    60.00 Ry     beta= 0.15
     Davidson diagonalization with overlap

---- Real-time Memory Report at c_bands before calling an iterative solver
             0 MiB given to the printing process from OS
             0 MiB allocation reported by mallinfo(arena+hblkhd)
         22681 MiB available memory on the node where the printing process lives
------------------
     ethr =  2.76E-09,  avg # of iterations =  2.0

     negative rho (up, down):  7.922E-01 0.000E+00

     total cpu time spent up to now is      634.9 secs

     total energy              =   -4441.66255478 Ry
     estimated scf accuracy    <       0.00000872 Ry

     iteration # 35     ecut=    60.00 Ry     beta= 0.15
     Davidson diagonalization with overlap

---- Real-time Memory Report at c_bands before calling an iterative solver
             0 MiB given to the printing process from OS
             0 MiB allocation reported by mallinfo(arena+hblkhd)
         22687 MiB available memory on the node where the printing process lives
------------------
     ethr =  2.02E-09,  avg # of iterations =  1.1

     negative rho (up, down):  7.923E-01 0.000E+00

     total cpu time spent up to now is      649.9 secs

     total energy              =   -4441.66255561 Ry
     estimated scf accuracy    <       0.00000792 Ry

     iteration # 36     ecut=    60.00 Ry     beta= 0.15
     Davidson diagonalization with overlap

---- Real-time Memory Report at c_bands before calling an iterative solver
             0 MiB given to the printing process from OS
             0 MiB allocation reported by mallinfo(arena+hblkhd)
         22699 MiB available memory on the node where the printing process lives
------------------
     ethr =  1.84E-09,  avg # of iterations =  2.1

     negative rho (up, down):  7.923E-01 0.000E+00

     total cpu time spent up to now is      666.7 secs

     total energy              =   -4441.66255661 Ry
     estimated scf accuracy    <       0.00000639 Ry

     iteration # 37     ecut=    60.00 Ry     beta= 0.15
     Davidson diagonalization with overlap

---- Real-time Memory Report at c_bands before calling an iterative solver
             0 MiB given to the printing process from OS
             0 MiB allocation reported by mallinfo(arena+hblkhd)
         22714 MiB available memory on the node where the printing process lives
------------------
     ethr =  1.48E-09,  avg # of iterations =  2.2

     negative rho (up, down):  7.924E-01 0.000E+00

     total cpu time spent up to now is      683.5 secs

     total energy              =   -4441.66255520 Ry
     estimated scf accuracy    <       0.00000399 Ry

     iteration # 38     ecut=    60.00 Ry     beta= 0.15
     Davidson diagonalization with overlap

---- Real-time Memory Report at c_bands before calling an iterative solver
             0 MiB given to the printing process from OS
             0 MiB allocation reported by mallinfo(arena+hblkhd)
         22718 MiB available memory on the node where the printing process lives
------------------
     ethr =  9.25E-10,  avg # of iterations =  3.6

     negative rho (up, down):  7.924E-01 0.000E+00

     total cpu time spent up to now is      701.3 secs

     total energy              =   -4441.66255599 Ry
     estimated scf accuracy    <       0.00000146 Ry

     iteration # 39     ecut=    60.00 Ry     beta= 0.15
     Davidson diagonalization with overlap

---- Real-time Memory Report at c_bands before calling an iterative solver
             0 MiB given to the printing process from OS
             0 MiB allocation reported by mallinfo(arena+hblkhd)
         22721 MiB available memory on the node where the printing process lives
------------------
     ethr =  3.38E-10,  avg # of iterations =  2.2

     negative rho (up, down):  7.925E-01 0.000E+00

     total cpu time spent up to now is      718.0 secs

     total energy              =   -4441.66255669 Ry
     estimated scf accuracy    <       0.00000100 Ry

     iteration # 40     ecut=    60.00 Ry     beta= 0.15
     Davidson diagonalization with overlap

---- Real-time Memory Report at c_bands before calling an iterative solver
             0 MiB given to the printing process from OS
             0 MiB allocation reported by mallinfo(arena+hblkhd)
         22720 MiB available memory on the node where the printing process lives
------------------
     ethr =  2.31E-10,  avg # of iterations =  2.8

     negative rho (up, down):  7.925E-01 0.000E+00

     total cpu time spent up to now is      735.2 secs

     total energy              =   -4441.66255735 Ry
     estimated scf accuracy    <       0.00000070 Ry

     iteration # 41     ecut=    60.00 Ry     beta= 0.15
     Davidson diagonalization with overlap

---- Real-time Memory Report at c_bands before calling an iterative solver
             0 MiB given to the printing process from OS
             0 MiB allocation reported by mallinfo(arena+hblkhd)
         22721 MiB available memory on the node where the printing process lives
------------------
     ethr =  1.63E-10,  avg # of iterations =  3.0

     negative rho (up, down):  7.925E-01 0.000E+00

     total cpu time spent up to now is      752.4 secs

     total energy              =   -4441.66255776 Ry
     estimated scf accuracy    <       0.00000050 Ry

     iteration # 42     ecut=    60.00 Ry     beta= 0.15
     Davidson diagonalization with overlap

---- Real-time Memory Report at c_bands before calling an iterative solver
             0 MiB given to the printing process from OS
             0 MiB allocation reported by mallinfo(arena+hblkhd)
         22717 MiB available memory on the node where the printing process lives
------------------
     ethr =  1.15E-10,  avg # of iterations =  4.1

     negative rho (up, down):  7.925E-01 0.000E+00

     total cpu time spent up to now is      770.3 secs

     total energy              =   -4441.66255777 Ry
     estimated scf accuracy    <       0.00000024 Ry

     iteration # 43     ecut=    60.00 Ry     beta= 0.15
     Davidson diagonalization with overlap

---- Real-time Memory Report at c_bands before calling an iterative solver
             0 MiB given to the printing process from OS
             0 MiB allocation reported by mallinfo(arena+hblkhd)
         22703 MiB available memory on the node where the printing process lives
------------------
     ethr =  5.46E-11,  avg # of iterations =  2.9

     negative rho (up, down):  7.925E-01 0.000E+00

     total cpu time spent up to now is      787.5 secs

     total energy              =   -4441.66255779 Ry
     estimated scf accuracy    <       0.00000012 Ry

     iteration # 44     ecut=    60.00 Ry     beta= 0.15
     Davidson diagonalization with overlap

---- Real-time Memory Report at c_bands before calling an iterative solver
             0 MiB given to the printing process from OS
             0 MiB allocation reported by mallinfo(arena+hblkhd)
         22705 MiB available memory on the node where the printing process lives
------------------
     ethr =  2.83E-11,  avg # of iterations =  2.2

     negative rho (up, down):  7.925E-01 0.000E+00

     total cpu time spent up to now is      804.3 secs

     total energy              =   -4441.66255779 Ry
     estimated scf accuracy    <       0.00000007 Ry

     iteration # 45     ecut=    60.00 Ry     beta= 0.15
     Davidson diagonalization with overlap

---- Real-time Memory Report at c_bands before calling an iterative solver
             0 MiB given to the printing process from OS
             0 MiB allocation reported by mallinfo(arena+hblkhd)
         22705 MiB available memory on the node where the printing process lives
------------------
     ethr =  1.54E-11,  avg # of iterations =  2.2

     negative rho (up, down):  7.925E-01 0.000E+00

     total cpu time spent up to now is      821.1 secs

     total energy              =   -4441.66255780 Ry
     estimated scf accuracy    <       0.00000005 Ry

     iteration # 46     ecut=    60.00 Ry     beta= 0.15
     Davidson diagonalization with overlap

---- Real-time Memory Report at c_bands before calling an iterative solver
             0 MiB given to the printing process from OS
             0 MiB allocation reported by mallinfo(arena+hblkhd)
         22703 MiB available memory on the node where the printing process lives
------------------
     ethr =  1.11E-11,  avg # of iterations =  3.0

     negative rho (up, down):  7.925E-01 0.000E+00

     total cpu time spent up to now is      838.3 secs

     total energy              =   -4441.66255781 Ry
     estimated scf accuracy    <       0.00000003 Ry

     iteration # 47     ecut=    60.00 Ry     beta= 0.15
     Davidson diagonalization with overlap

---- Real-time Memory Report at c_bands before calling an iterative solver
             0 MiB given to the printing process from OS
             0 MiB allocation reported by mallinfo(arena+hblkhd)
         22705 MiB available memory on the node where the printing process lives
------------------
     ethr =  6.69E-12,  avg # of iterations =  3.0

     negative rho (up, down):  7.925E-01 0.000E+00

     total cpu time spent up to now is      855.6 secs

     total energy              =   -4441.66255782 Ry
     estimated scf accuracy    <       0.00000001 Ry

     iteration # 48     ecut=    60.00 Ry     beta= 0.15
     Davidson diagonalization with overlap

---- Real-time Memory Report at c_bands before calling an iterative solver
             0 MiB given to the printing process from OS
             0 MiB allocation reported by mallinfo(arena+hblkhd)
         22702 MiB available memory on the node where the printing process lives
------------------
     ethr =  3.21E-12,  avg # of iterations =  4.0

     negative rho (up, down):  7.925E-01 0.000E+00

     total cpu time spent up to now is      873.1 secs

     End of self-consistent calculation

          k = 0.0000 0.0000 0.0000 ( 65197 PWs)   bands (ev):

   -92.6930 -92.6410 -92.5466 -92.5007 -92.4444 -92.3997 -92.3816 -92.2594
   -56.0465 -56.0277 -55.9040 -55.8936 -55.8865 -55.8804 -55.8446 -55.8158
   -55.8001 -55.7994 -55.7920 -55.7511 -55.7320 -55.6948 -55.6729 -55.6440
   -55.6363 -55.5874 -55.5857 -55.5848 -55.5763 -55.5342 -55.5120 -55.4259
   -31.2700 -31.2506 -31.1092 -31.0225 -31.0069 -30.8364 -30.8181 -30.8023
   -29.8392 -29.7955 -29.7707 -29.6631 -15.0731 -15.0284 -14.9478 -14.8181
   -14.6241 -14.5004 -14.2104 -14.1852 -14.1595 -14.1132 -14.0692 -14.0618
   -14.0469 -14.0275 -13.9996 -13.9674 -13.9585 -13.9193 -13.7686 -13.5926
   -13.5554 -13.5278 -13.4953 -13.4795 -13.4214 -13.3862 -13.3146 -13.2425
   -13.1050 -13.0955 -13.0891 -13.0666 -13.0490 -13.0182 -12.9928 -12.9791
   -12.9563 -12.9416 -12.9151 -12.8923 -12.8249 -12.8143 -12.7908 -12.7445
   -12.7198 -12.7047 -12.6639 -12.6630 -12.6363 -12.3347 -12.1891 -12.0073
   -11.9335 -11.8526 -11.7784 -11.7676 -11.7448 -11.7271 -11.6637 -11.6467
   -11.6111 -11.5820 -11.4718 -11.3915 -11.3879  -2.9328  -2.7008  -2.4710
    -2.3243  -2.2612  -2.1195  -1.8121  -1.7980  -1.7786  -1.6947  -1.6741
    -1.6063  -1.5896  -1.5482  -1.5061  -1.3231  -1.1674  -1.0973  -1.0674
    -0.9225  -0.9080  -0.8605  -0.8422  -0.7965  -0.7787  -0.7251  -0.6986
    -0.6210  -0.6128  -0.5381  -0.4056  -0.3934  -0.3640  -0.2832  -0.2634
    -0.2569  -0.1938  -0.1186  -0.0513  -0.0204   0.0112   0.0862   0.1383
     0.1905   0.2086   0.2272   0.4859   0.4963   0.6718   0.7352   0.8078
     0.8516   0.9367   0.9493   0.9628   1.0330   1.0594   1.0932   1.1517
     1.2824   1.3445   1.3623   1.3804   1.3986   1.4628   1.5300   1.6436
     1.6501   1.7234   1.7294   1.7739   1.7847   1.7970   1.8565   1.9157
     1.9364   1.9670   1.9993   2.0372   2.1695   2.2618   2.2974   2.3085
     2.4296   2.4592   2.4825   2.5074   2.5210   2.5360   2.6313   2.6671
     2.6918   2.7109   2.7258   2.8082   2.9158   2.9477   2.9600   2.9661
     3.0337   3.0382   3.0618   3.0691   3.0781   3.0920   3.0979   3.1117
     3.1173   3.1293   3.1373   3.1466   3.1654   3.1865   3.1913   3.2037
     3.2340   3.3449   3.4197   4.1158   4.4465   4.7773   4.8699   5.0585
     5.7789   5.9521   5.9940   6.0114   6.3225   6.3692   6.4860   6.4954
     6.7424   7.0095   7.0987   7.3262   7.4568   7.6296   7.6602   7.6721
     7.7067   7.8893   8.0023   8.0490   8.1181   8.1805   8.3604   8.4622
     8.7320   8.8597   8.8889

     occupation numbers 
     1.0000   1.0000   1.0000   1.0000   1.0000   1.0000   1.0000   1.0000
     1.0000   1.0000   1.0000   1.0000   1.0000   1.0000   1.0000   1.0000
     1.0000   1.0000   1.0000   1.0000   1.0000   1.0000   1.0000   1.0000
     1.0000   1.0000   1.0000   1.0000   1.0000   1.0000   1.0000   1.0000
     1.0000   1.0000   1.0000   1.0000   1.0000   1.0000   1.0000   1.0000
     1.0000   1.0000   1.0000   1.0000   1.0000   1.0000   1.0000   1.0000
     1.0000   1.0000   1.0000   1.0000   1.0000   1.0000   1.0000   1.0000
     1.0000   1.0000   1.0000   1.0000   1.0000   1.0000   1.0000   1.0000
     1.0000   1.0000   1.0000   1.0000   1.0000   1.0000   1.0000   1.0000
     1.0000   1.0000   1.0000   1.0000   1.0000   1.0000   1.0000   1.0000
     1.0000   1.0000   1.0000   1.0000   1.0000   1.0000   1.0000   1.0000
     1.0000   1.0000   1.0000   1.0000   1.0000   1.0000   1.0000   1.0000
     1.0000   1.0000   1.0000   1.0000   1.0000   1.0000   1.0000   1.0000
     1.0000   1.0000   1.0000   1.0000   1.0000   1.0000   1.0000   1.0000
     1.0000   1.0000   1.0000   1.0000   1.0000   1.0000   1.0000   1.0000
     1.0000   1.0000   1.0000   1.0000   1.0000   1.0000   1.0000   1.0000
     1.0000   1.0000   1.0000   1.0000   1.0000   1.0000   1.0000   1.0000
     1.0000   1.0000   1.0000   1.0000   1.0000   1.0000   1.0000   1.0000
     1.0000   1.0000   1.0000   1.0000   1.0000   1.0000   1.0000   1.0000
     1.0000   1.0000   1.0000   1.0000   1.0000   1.0000   0.9999   0.9999
     0.9999   0.9998   0.9998   0.9998   0.9997   0.9996   0.9996   0.9994
     0.9988   0.9984   0.9983   0.9981   0.9980   0.9973   0.9963   0.9940
     0.9938   0.9916   0.9914   0.9898   0.9893   0.9888   0.9859   0.9825
     0.9811   0.9789   0.9763   0.9730   0.9582   0.9445   0.9383   0.9363
     0.9106   0.9032   0.8972   0.8904   0.8866   0.8822   0.8519   0.8393
     0.8302   0.8229   0.8171   0.7829   0.7331   0.7173   0.7111   0.7080
     0.6726   0.6702   0.6574   0.6535   0.6485   0.6408   0.6376   0.6298
     0.6267   0.6200   0.6154   0.6101   0.5993   0.5872   0.5844   0.5772
     0.5595   0.4940   0.4499   0.1231   0.0494   0.0161   0.0113   0.0052
     0.0001   0.0001   0.0000   0.0000   0.0000   0.0000   0.0000   0.0000
     0.0000   0.0000   0.0000   0.0000   0.0000   0.0000   0.0000   0.0000
     0.0000   0.0000   0.0000   0.0000   0.0000   0.0000   0.0000   0.0000
     0.0000   0.0000   0.0000

          k = 0.0000 0.2500 0.0000 ( 65257 PWs)   bands (ev):

   -92.6930 -92.6410 -92.5466 -92.5007 -92.4444 -92.3997 -92.3816 -92.2594
   -56.0465 -56.0277 -55.9040 -55.8936 -55.8865 -55.8804 -55.8446 -55.8158
   -55.8001 -55.7994 -55.7920 -55.7511 -55.7320 -55.6948 -55.6729 -55.6440
   -55.6363 -55.5874 -55.5857 -55.5848 -55.5763 -55.5342 -55.5120 -55.4259
   -31.2698 -31.2505 -31.1094 -31.0226 -31.0067 -30.8364 -30.8162 -30.8044
   -29.8386 -29.7952 -29.7713 -29.6635 -15.0365 -15.0027 -14.9227 -14.7885
   -14.6648 -14.4902 -14.3557 -14.1763 -14.1378 -14.1170 -14.0900 -14.0303
   -14.0259 -14.0130 -13.9883 -13.9649 -13.9308 -13.8392 -13.7979 -13.6396
   -13.6141 -13.5675 -13.5340 -13.4875 -13.4420 -13.3873 -13.3339 -13.2996
   -13.2054 -13.1460 -13.1385 -13.1005 -13.0797 -12.9991 -12.9767 -12.9497
   -12.9265 -12.8938 -12.8588 -12.8529 -12.7914 -12.7799 -12.7727 -12.7373
   -12.6965 -12.6719 -12.6591 -12.5570 -12.4772 -12.3960 -12.2403 -12.0639
   -12.0020 -11.8182 -11.7752 -11.7475 -11.7194 -11.7028 -11.6553 -11.6441
   -11.6214 -11.5863 -11.4863 -11.4332 -11.4226  -2.7975  -2.5766  -2.4386
    -2.2568  -2.2132  -2.0497  -1.8305  -1.7459  -1.7329  -1.6758  -1.5717
    -1.5560  -1.5241  -1.4958  -1.4523  -1.2545  -1.1671  -1.1217  -1.1134
    -1.0377  -1.0267  -0.9217  -0.8932  -0.8347  -0.8088  -0.7696  -0.7058
    -0.6772  -0.6462  -0.6109  -0.5961  -0.5626  -0.4896  -0.4399  -0.3761
    -0.2587  -0.2430  -0.1989  -0.0761  -0.0253   0.0191   0.0711   0.1223
     0.1424   0.1718   0.2360   0.5318   0.6174   0.6574   0.7438   0.7830
     0.8070   0.9186   0.9365   1.0385   1.0629   1.0864   1.1989   1.2944
     1.3194   1.3427   1.3574   1.3837   1.4446   1.4717   1.5009   1.5469
     1.5836   1.6162   1.7080   1.7321   1.7756   1.8187   1.8815   1.9344
     1.9513   1.9701   1.9880   2.0857   2.2108   2.2802   2.2945   2.3693
     2.4150   2.4311   2.4683   2.4728   2.5019   2.5262   2.5630   2.6468
     2.6859   2.7020   2.8737   2.8959   2.9299   2.9513   2.9669   2.9755
     2.9834   2.9916   3.0211   3.0231   3.0417   3.0455   3.0560   3.0756
     3.0868   3.0946   3.1158   3.1275   3.1320   3.1673   3.1843   3.2446
     3.6232   3.6451   3.8866   4.3069   4.4418   4.7220   5.0239   5.0770
     5.6533   5.8036   5.9386   6.0013   6.0924   6.1137   6.1923   6.6028
     6.8510   7.0914   7.1182   7.3358   7.4929   7.5056   7.6437   7.6530
     7.8650   7.9273   8.0277   8.1859   8.2780   8.3653   8.4027   8.4233
     8.6302   8.8581   8.9667

     occupation numbers 
     1.0000   1.0000   1.0000   1.0000   1.0000   1.0000   1.0000   1.0000
     1.0000   1.0000   1.0000   1.0000   1.0000   1.0000   1.0000   1.0000
     1.0000   1.0000   1.0000   1.0000   1.0000   1.0000   1.0000   1.0000
     1.0000   1.0000   1.0000   1.0000   1.0000   1.0000   1.0000   1.0000
     1.0000   1.0000   1.0000   1.0000   1.0000   1.0000   1.0000   1.0000
     1.0000   1.0000   1.0000   1.0000   1.0000   1.0000   1.0000   1.0000
     1.0000   1.0000   1.0000   1.0000   1.0000   1.0000   1.0000   1.0000
     1.0000   1.0000   1.0000   1.0000   1.0000   1.0000   1.0000   1.0000
     1.0000   1.0000   1.0000   1.0000   1.0000   1.0000   1.0000   1.0000
     1.0000   1.0000   1.0000   1.0000   1.0000   1.0000   1.0000   1.0000
     1.0000   1.0000   1.0000   1.0000   1.0000   1.0000   1.0000   1.0000
     1.0000   1.0000   1.0000   1.0000   1.0000   1.0000   1.0000   1.0000
     1.0000   1.0000   1.0000   1.0000   1.0000   1.0000   1.0000   1.0000
     1.0000   1.0000   1.0000   1.0000   1.0000   1.0000   1.0000   1.0000
     1.0000   1.0000   1.0000   1.0000   1.0000   1.0000   1.0000   1.0000
     1.0000   1.0000   1.0000   1.0000   1.0000   1.0000   1.0000   1.0000
     1.0000   1.0000   1.0000   1.0000   1.0000   1.0000   1.0000   1.0000
     1.0000   1.0000   1.0000   1.0000   1.0000   1.0000   1.0000   1.0000
     1.0000   1.0000   1.0000   1.0000   1.0000   1.0000   1.0000   1.0000
     1.0000   1.0000   1.0000   1.0000   1.0000   1.0000   0.9999   0.9999
     0.9999   0.9998   0.9998   0.9997   0.9996   0.9996   0.9992   0.9988
     0.9986   0.9985   0.9983   0.9981   0.9975   0.9972   0.9968   0.9960
     0.9953   0.9946   0.9922   0.9913   0.9897   0.9878   0.9845   0.9812
     0.9800   0.9786   0.9772   0.9682   0.9525   0.9413   0.9388   0.9242
     0.9140   0.9102   0.9009   0.8997   0.8919   0.8851   0.8741   0.8465
     0.8324   0.8263   0.7533   0.7427   0.7262   0.7155   0.7076   0.7032
     0.6992   0.6949   0.6793   0.6783   0.6683   0.6663   0.6606   0.6499
     0.6437   0.6394   0.6275   0.6209   0.6184   0.5983   0.5885   0.5533
     0.3343   0.3225   0.2063   0.0745   0.0501   0.0197   0.0061   0.0048
     0.0003   0.0001   0.0001   0.0000   0.0000   0.0000   0.0000   0.0000
     0.0000   0.0000   0.0000   0.0000   0.0000   0.0000   0.0000   0.0000
     0.0000   0.0000   0.0000   0.0000   0.0000   0.0000   0.0000   0.0000
     0.0000   0.0000   0.0000

          k = 0.0000-0.5000 0.0000 ( 65180 PWs)   bands (ev):

   -92.6930 -92.6410 -92.5466 -92.5007 -92.4444 -92.3997 -92.3816 -92.2594
   -56.0465 -56.0277 -55.9040 -55.8936 -55.8865 -55.8804 -55.8446 -55.8158
   -55.8001 -55.7994 -55.7920 -55.7511 -55.7320 -55.6948 -55.6729 -55.6440
   -55.6363 -55.5874 -55.5857 -55.5848 -55.5763 -55.5342 -55.5120 -55.4259
   -31.2696 -31.2504 -31.1096 -31.0227 -31.0065 -30.8364 -30.8130 -30.8078
   -29.8379 -29.7949 -29.7719 -29.6638 -15.0014 -14.9524 -14.9009 -14.7659
   -14.6879 -14.5472 -14.3995 -14.2646 -14.1493 -14.0712 -14.0322 -14.0239
   -13.9766 -13.9668 -13.9605 -13.9154 -13.8913 -13.8669 -13.8298 -13.7723
   -13.7511 -13.5750 -13.5167 -13.4933 -13.4487 -13.3689 -13.3505 -13.2934
   -13.2753 -13.2288 -13.2102 -13.1013 -13.0796 -12.9938 -12.9612 -12.9435
   -12.9215 -12.8937 -12.8723 -12.7861 -12.7650 -12.7157 -12.7035 -12.6946
   -12.6654 -12.6621 -12.6439 -12.5070 -12.4064 -12.3154 -12.2498 -12.1677
   -12.1424 -11.7721 -11.7698 -11.7424 -11.7058 -11.6710 -11.6596 -11.6165
   -11.6125 -11.5676 -11.5085 -11.4944 -11.4801  -2.5829  -2.5237  -2.3735
    -2.3014  -2.0197  -1.9360  -1.8094  -1.6716  -1.6353  -1.6147  -1.5374
    -1.5026  -1.4240  -1.3874  -1.3096  -1.2703  -1.2316  -1.2043  -1.1674
    -1.1459  -1.1087  -1.0607  -1.0226  -0.9944  -0.9575  -0.8498  -0.8052
    -0.7699  -0.7678  -0.6811  -0.6503  -0.6251  -0.5786  -0.4952  -0.4171
    -0.3327  -0.3059  -0.1846  -0.1578  -0.0214   0.0149   0.0529   0.0940
     0.2326   0.2969   0.4004   0.4722   0.4790   0.6067   0.6723   0.7548
     0.8905   0.9908   1.0243   1.0640   1.0714   1.1046   1.1225   1.1605
     1.1809   1.1974   1.3013   1.3579   1.3832   1.4086   1.6782   1.7110
     1.7494   1.8271   1.8451   1.8860   1.9047   1.9233   1.9524   1.9632
     1.9810   2.0136   2.0399   2.0720   2.0750   2.1086   2.1628   2.2499
     2.2923   2.4344   2.4586   2.4906   2.6130   2.6283   2.6382   2.6779
     2.6849   2.6924   2.7409   2.7529   2.8072   2.8292   2.9097   2.9181
     2.9905   2.9941   3.0183   3.0219   3.0386   3.0427   3.0457   3.0521
     3.0556   3.0687   3.0864   3.0879   3.1522   3.1575   3.1740   3.2298
     4.1320   4.1671   4.2170   4.2650   4.7413   4.9196   5.0333   5.1713
     5.4199   5.4713   5.5926   5.7284   6.0318   6.0570   6.2971   6.5096
     6.8577   6.9582   7.2323   7.3140   7.3692   7.4901   7.7296   7.7589
     7.9155   8.0032   8.1713   8.2752   8.3145   8.4840   8.5699   8.6770
     8.8216   8.8624   8.9000

     occupation numbers 
     1.0000   1.0000   1.0000   1.0000   1.0000   1.0000   1.0000   1.0000
     1.0000   1.0000   1.0000   1.0000   1.0000   1.0000   1.0000   1.0000
     1.0000   1.0000   1.0000   1.0000   1.0000   1.0000   1.0000   1.0000
     1.0000   1.0000   1.0000   1.0000   1.0000   1.0000   1.0000   1.0000
     1.0000   1.0000   1.0000   1.0000   1.0000   1.0000   1.0000   1.0000
     1.0000   1.0000   1.0000   1.0000   1.0000   1.0000   1.0000   1.0000
     1.0000   1.0000   1.0000   1.0000   1.0000   1.0000   1.0000   1.0000
     1.0000   1.0000   1.0000   1.0000   1.0000   1.0000   1.0000   1.0000
     1.0000   1.0000   1.0000   1.0000   1.0000   1.0000   1.0000   1.0000
     1.0000   1.0000   1.0000   1.0000   1.0000   1.0000   1.0000   1.0000
     1.0000   1.0000   1.0000   1.0000   1.0000   1.0000   1.0000   1.0000
     1.0000   1.0000   1.0000   1.0000   1.0000   1.0000   1.0000   1.0000
     1.0000   1.0000   1.0000   1.0000   1.0000   1.0000   1.0000   1.0000
     1.0000   1.0000   1.0000   1.0000   1.0000   1.0000   1.0000   1.0000
     1.0000   1.0000   1.0000   1.0000   1.0000   1.0000   1.0000   1.0000
     1.0000   1.0000   1.0000   1.0000   1.0000   1.0000   1.0000   1.0000
     1.0000   1.0000   1.0000   1.0000   1.0000   1.0000   1.0000   1.0000
     1.0000   1.0000   1.0000   1.0000   1.0000   1.0000   1.0000   1.0000
     1.0000   1.0000   1.0000   1.0000   1.0000   1.0000   1.0000   1.0000
     1.0000   1.0000   1.0000   1.0000   1.0000   1.0000   1.0000   0.9999
     0.9999   0.9997   0.9997   0.9996   0.9996   0.9995   0.9995   0.9994
     0.9993   0.9992   0.9987   0.9983   0.9981   0.9979   0.9931   0.9921
     0.9907   0.9874   0.9865   0.9843   0.9831   0.9820   0.9800   0.9792
     0.9778   0.9751   0.9728   0.9696   0.9693   0.9657   0.9591   0.9464
     0.9392   0.9094   0.9034   0.8950   0.8581   0.8529   0.8496   0.8354
     0.8328   0.8300   0.8111   0.8063   0.7834   0.7736   0.7361   0.7320
     0.6955   0.6936   0.6809   0.6789   0.6700   0.6678   0.6662   0.6627
     0.6608   0.6537   0.6439   0.6431   0.6069   0.6039   0.5944   0.5620
     0.1183   0.1083   0.0951   0.0836   0.0184   0.0093   0.0058   0.0032
     0.0010   0.0008   0.0004   0.0002   0.0000   0.0000   0.0000   0.0000
     0.0000   0.0000   0.0000   0.0000   0.0000   0.0000   0.0000   0.0000
     0.0000   0.0000   0.0000   0.0000   0.0000   0.0000   0.0000   0.0000
     0.0000   0.0000   0.0000

          k = 0.2500 0.2500 0.0000 ( 65198 PWs)   bands (ev):

   -92.6930 -92.6410 -92.5466 -92.5007 -92.4444 -92.3997 -92.3816 -92.2594
   -56.0465 -56.0277 -55.9040 -55.8936 -55.8865 -55.8804 -55.8446 -55.8158
   -55.8001 -55.7994 -55.7920 -55.7511 -55.7320 -55.6948 -55.6729 -55.6440
   -55.6363 -55.5874 -55.5857 -55.5848 -55.5763 -55.5342 -55.5120 -55.4259
   -31.2681 -31.2522 -31.1090 -31.0230 -31.0066 -30.8349 -30.8175 -30.8048
   -29.8376 -29.7962 -29.7709 -29.6639 -15.0077 -14.9683 -14.8948 -14.7776
   -14.6576 -14.5307 -14.4610 -14.2507 -14.0994 -14.0846 -14.0489 -14.0173
   -13.9980 -13.9740 -13.9676 -13.9292 -13.8939 -13.8303 -13.8120 -13.6545
   -13.6391 -13.6104 -13.5909 -13.5352 -13.5018 -13.4190 -13.4084 -13.2642
   -13.2344 -13.2178 -13.1333 -13.0932 -13.0407 -13.0101 -12.9775 -12.9523
   -12.9384 -12.9065 -12.8358 -12.8029 -12.7741 -12.7413 -12.7336 -12.7095
   -12.7035 -12.6826 -12.6383 -12.4962 -12.4445 -12.3647 -12.2694 -12.0913
   -12.0553 -11.7904 -11.7587 -11.7480 -11.7408 -11.6781 -11.6435 -11.6369
   -11.6015 -11.5932 -11.5030 -11.4614 -11.4442  -2.6592  -2.4507  -2.3324
    -2.2387  -2.1177  -2.0531  -1.8553  -1.7106  -1.6916  -1.6626  -1.5665
    -1.5343  -1.4389  -1.4118  -1.3613  -1.2304  -1.1844  -1.1611  -1.1096
    -1.0636  -1.0191  -0.9951  -0.9717  -0.9283  -0.9136  -0.8234  -0.7720
    -0.7073  -0.6571  -0.6252  -0.5794  -0.5638  -0.5003  -0.4519  -0.3950
    -0.3615  -0.2749  -0.2179  -0.1926  -0.1539  -0.0989   0.0009   0.0161
     0.0358   0.1243   0.1480   0.4194   0.5698   0.6031   0.6689   0.7147
     0.7590   0.8186   0.8826   0.9139   1.1843   1.2506   1.3235   1.3493
     1.3983   1.4292   1.4649   1.5028   1.5191   1.5471   1.5940   1.5993
     1.6152   1.6578   1.6969   1.7378   1.8134   1.8429   1.8520   1.8943
     1.9207   1.9735   2.0038   2.1253   2.1907   2.2263   2.2434   2.3089
     2.3788   2.4060   2.4303   2.4416   2.4730   2.4800   2.5078   2.5906
     2.6270   2.7152   2.8851   2.9018   2.9081   2.9242   2.9403   2.9518
     2.9654   2.9715   2.9820   2.9952   3.0075   3.0259   3.0318   3.0441
     3.0666   3.0779   3.0877   3.1188   3.4193   3.5131   3.5553   3.6305
     3.6584   3.8639   3.9625   4.3213   4.5249   4.7248   4.9965   5.1703
     5.6583   5.7105   5.7686   5.8447   5.9042   6.1005   6.1645   6.2191
     6.9029   6.9591   7.0946   7.2884   7.5574   7.6112   7.7190   7.8453
     7.9069   8.0342   8.1831   8.2569   8.3146   8.3636   8.4410   8.4553
     8.5402   8.8331   8.9378

     occupation numbers 
     1.0000   1.0000   1.0000   1.0000   1.0000   1.0000   1.0000   1.0000
     1.0000   1.0000   1.0000   1.0000   1.0000   1.0000   1.0000   1.0000
     1.0000   1.0000   1.0000   1.0000   1.0000   1.0000   1.0000   1.0000
     1.0000   1.0000   1.0000   1.0000   1.0000   1.0000   1.0000   1.0000
     1.0000   1.0000   1.0000   1.0000   1.0000   1.0000   1.0000   1.0000
     1.0000   1.0000   1.0000   1.0000   1.0000   1.0000   1.0000   1.0000
     1.0000   1.0000   1.0000   1.0000   1.0000   1.0000   1.0000   1.0000
     1.0000   1.0000   1.0000   1.0000   1.0000   1.0000   1.0000   1.0000
     1.0000   1.0000   1.0000   1.0000   1.0000   1.0000   1.0000   1.0000
     1.0000   1.0000   1.0000   1.0000   1.0000   1.0000   1.0000   1.0000
     1.0000   1.0000   1.0000   1.0000   1.0000   1.0000   1.0000   1.0000
     1.0000   1.0000   1.0000   1.0000   1.0000   1.0000   1.0000   1.0000
     1.0000   1.0000   1.0000   1.0000   1.0000   1.0000   1.0000   1.0000
     1.0000   1.0000   1.0000   1.0000   1.0000   1.0000   1.0000   1.0000
     1.0000   1.0000   1.0000   1.0000   1.0000   1.0000   1.0000   1.0000
     1.0000   1.0000   1.0000   1.0000   1.0000   1.0000   1.0000   1.0000
     1.0000   1.0000   1.0000   1.0000   1.0000   1.0000   1.0000   1.0000
     1.0000   1.0000   1.0000   1.0000   1.0000   1.0000   1.0000   1.0000
     1.0000   1.0000   1.0000   1.0000   1.0000   1.0000   1.0000   1.0000
     1.0000   1.0000   1.0000   1.0000   1.0000   1.0000   1.0000   1.0000
     0.9999   0.9999   0.9999   0.9998   0.9993   0.9990   0.9986   0.9984
     0.9980   0.9977   0.9973   0.9967   0.9965   0.9960   0.9951   0.9950
     0.9947   0.9936   0.9925   0.9911   0.9881   0.9866   0.9862   0.9838
     0.9821   0.9784   0.9760   0.9638   0.9553   0.9501   0.9475   0.9362
     0.9222   0.9161   0.9104   0.9077   0.8997   0.8979   0.8903   0.8655
     0.8534   0.8213   0.7479   0.7399   0.7369   0.7290   0.7210   0.7153
     0.7084   0.7053   0.6999   0.6930   0.6866   0.6768   0.6736   0.6671
     0.6548   0.6486   0.6432   0.6259   0.4502   0.3957   0.3717   0.3304
     0.3155   0.2161   0.1757   0.0715   0.0386   0.0195   0.0068   0.0032
     0.0003   0.0002   0.0002   0.0001   0.0001   0.0000   0.0000   0.0000
     0.0000   0.0000   0.0000   0.0000   0.0000   0.0000   0.0000   0.0000
     0.0000   0.0000   0.0000   0.0000   0.0000   0.0000   0.0000   0.0000
     0.0000   0.0000   0.0000

          k = 0.2500-0.5000 0.0000 ( 65138 PWs)   bands (ev):

   -92.6930 -92.6410 -92.5466 -92.5007 -92.4444 -92.3997 -92.3816 -92.2594
   -56.0465 -56.0277 -55.9040 -55.8936 -55.8865 -55.8804 -55.8446 -55.8158
   -55.8001 -55.7994 -55.7920 -55.7511 -55.7320 -55.6948 -55.6729 -55.6440
   -55.6363 -55.5874 -55.5856 -55.5848 -55.5763 -55.5342 -55.5120 -55.4259
   -31.2679 -31.2521 -31.1092 -31.0231 -31.0064 -30.8350 -30.8144 -30.8080
   -29.8370 -29.7959 -29.7715 -29.6642 -14.9711 -14.9256 -14.8580 -14.7361
   -14.7098 -14.5889 -14.4997 -14.3636 -14.0640 -14.0083 -13.9830 -13.9671
   -13.9614 -13.9417 -13.9342 -13.8996 -13.8801 -13.8423 -13.8104 -13.7745
   -13.7328 -13.6575 -13.6086 -13.5520 -13.5305 -13.4605 -13.4096 -13.3270
   -13.2885 -13.1990 -13.1344 -13.1092 -13.0245 -12.9881 -12.9736 -12.9512
   -12.9348 -12.9038 -12.8353 -12.7881 -12.7753 -12.7420 -12.7130 -12.6789
   -12.6546 -12.6472 -12.6160 -12.5135 -12.3897 -12.3129 -12.2358 -12.1546
   -12.1366 -11.7659 -11.7540 -11.7432 -11.7161 -11.6840 -11.6563 -11.6137
   -11.5876 -11.5645 -11.5215 -11.4955 -11.4841  -2.4409  -2.3755  -2.2473
    -2.1701  -2.0400  -1.9562  -1.8337  -1.6830  -1.6300  -1.6069  -1.5438
    -1.5310  -1.4348  -1.3656  -1.2817  -1.2319  -1.2220  -1.1649  -1.1594
    -1.1177  -1.0825  -1.0343  -0.9966  -0.9619  -0.9228  -0.9118  -0.8651
    -0.8359  -0.7934  -0.7629  -0.6966  -0.5952  -0.5555  -0.4769  -0.4099
    -0.3600  -0.3199  -0.2991  -0.2355  -0.0791  -0.0666   0.0274   0.0652
     0.0727   0.1142   0.1604   0.1937   0.2238   0.2858   0.5714   0.6810
     0.7192   0.7860   1.0508   1.0727   1.1612   1.1819   1.3470   1.3814
     1.4226   1.4487   1.4605   1.4815   1.5432   1.5906   1.6266   1.7009
     1.8134   1.8430   1.8629   1.8685   1.9111   1.9194   1.9404   1.9771
     1.9848   2.0093   2.0285   2.0508   2.0696   2.1045   2.1628   2.2050
     2.2871   2.4142   2.4384   2.4913   2.5653   2.5824   2.6007   2.6305
     2.6571   2.6789   2.7001   2.7144   2.7374   2.8347   2.8868   2.9034
     2.9061   2.9216   2.9417   2.9551   2.9744   2.9828   3.0165   3.0255
     3.0406   3.0492   3.0571   3.0692   3.5889   3.6089   3.7513   3.8081
     4.1468   4.2019   4.2144   4.3264   4.7617   4.9404   5.0700   5.1452
     5.3134   5.4380   5.6118   5.6390   5.7782   5.7978   6.3929   6.4051
     6.4981   6.6427   7.2553   7.3556   7.5748   7.7050   7.8150   7.8624
     7.9004   8.0467   8.3307   8.4231   8.4631   8.4894   8.5551   8.5747
     8.7202   8.7667   8.8007

     occupation numbers 
     1.0000   1.0000   1.0000   1.0000   1.0000   1.0000   1.0000   1.0000
     1.0000   1.0000   1.0000   1.0000   1.0000   1.0000   1.0000   1.0000
     1.0000   1.0000   1.0000   1.0000   1.0000   1.0000   1.0000   1.0000
     1.0000   1.0000   1.0000   1.0000   1.0000   1.0000   1.0000   1.0000
     1.0000   1.0000   1.0000   1.0000   1.0000   1.0000   1.0000   1.0000
     1.0000   1.0000   1.0000   1.0000   1.0000   1.0000   1.0000   1.0000
     1.0000   1.0000   1.0000   1.0000   1.0000   1.0000   1.0000   1.0000
     1.0000   1.0000   1.0000   1.0000   1.0000   1.0000   1.0000   1.0000
     1.0000   1.0000   1.0000   1.0000   1.0000   1.0000   1.0000   1.0000
     1.0000   1.0000   1.0000   1.0000   1.0000   1.0000   1.0000   1.0000
     1.0000   1.0000   1.0000   1.0000   1.0000   1.0000   1.0000   1.0000
     1.0000   1.0000   1.0000   1.0000   1.0000   1.0000   1.0000   1.0000
     1.0000   1.0000   1.0000   1.0000   1.0000   1.0000   1.0000   1.0000
     1.0000   1.0000   1.0000   1.0000   1.0000   1.0000   1.0000   1.0000
     1.0000   1.0000   1.0000   1.0000   1.0000   1.0000   1.0000   1.0000
     1.0000   1.0000   1.0000   1.0000   1.0000   1.0000   1.0000   1.0000
     1.0000   1.0000   1.0000   1.0000   1.0000   1.0000   1.0000   1.0000
     1.0000   1.0000   1.0000   1.0000   1.0000   1.0000   1.0000   1.0000
     1.0000   1.0000   1.0000   1.0000   1.0000   1.0000   1.0000   1.0000
     1.0000   1.0000   1.0000   1.0000   1.0000   1.0000   1.0000   1.0000
     0.9999   0.9999   0.9997   0.9996   0.9994   0.9993   0.9984   0.9981
     0.9977   0.9975   0.9973   0.9970   0.9961   0.9952   0.9944   0.9924
     0.9881   0.9866   0.9856   0.9853   0.9827   0.9822   0.9808   0.9781
     0.9775   0.9755   0.9738   0.9717   0.9699   0.9662   0.9591   0.9533
     0.9401   0.9142   0.9084   0.8948   0.8734   0.8681   0.8622   0.8522
     0.8429   0.8350   0.8270   0.8216   0.8125   0.7712   0.7471   0.7391
     0.7378   0.7303   0.7203   0.7136   0.7038   0.6994   0.6818   0.6770
     0.6689   0.6643   0.6600   0.6534   0.3530   0.3421   0.2682   0.2411
     0.1140   0.0990   0.0958   0.0705   0.0171   0.0086   0.0050   0.0036
     0.0017   0.0009   0.0004   0.0003   0.0001   0.0001   0.0000   0.0000
     0.0000   0.0000   0.0000   0.0000   0.0000   0.0000   0.0000   0.0000
     0.0000   0.0000   0.0000   0.0000   0.0000   0.0000   0.0000   0.0000
     0.0000   0.0000   0.0000

          k =-0.5000-0.5000 0.0000 ( 65132 PWs)   bands (ev):

   -92.6930 -92.6410 -92.5466 -92.5007 -92.4444 -92.3997 -92.3816 -92.2594
   -56.0465 -56.0277 -55.9040 -55.8936 -55.8865 -55.8804 -55.8446 -55.8158
   -55.8001 -55.7994 -55.7920 -55.7511 -55.7320 -55.6948 -55.6729 -55.6440
   -55.6363 -55.5874 -55.5856 -55.5848 -55.5763 -55.5342 -55.5120 -55.4259
   -31.2657 -31.2543 -31.1088 -31.0235 -31.0062 -30.8334 -30.8160 -30.8081
   -29.8360 -29.7969 -29.7711 -29.6646 -14.9252 -14.8989 -14.7801 -14.7692
   -14.6718 -14.6382 -14.5970 -14.4643 -13.9747 -13.9672 -13.9601 -13.9266
   -13.9091 -13.8930 -13.8792 -13.8506 -13.8410 -13.8264 -13.8118 -13.7924
   -13.7239 -13.7175 -13.6790 -13.6518 -13.6437 -13.5505 -13.4563 -13.3629
   -13.3398 -13.1494 -13.1059 -13.0427 -13.0177 -12.9859 -12.9764 -12.9667
   -12.9494 -12.9310 -12.7979 -12.7843 -12.7705 -12.7516 -12.7330 -12.6874
   -12.6714 -12.5973 -12.5894 -12.5298 -12.3741 -12.3093 -12.2214 -12.1409
   -12.1311 -11.7628 -11.7503 -11.7321 -11.7156 -11.6802 -11.6620 -11.6283
   -11.5683 -11.5472 -11.5434 -11.4931 -11.4900  -2.2166  -2.1408  -2.1306
    -2.0610  -2.0215  -1.9428  -1.8749  -1.7493  -1.6338  -1.6031  -1.5643
    -1.5068  -1.4341  -1.4204  -1.3488  -1.3068  -1.1890  -1.1634  -1.1599
    -1.1115  -1.0840  -1.0194  -0.9731  -0.9534  -0.9406  -0.8892  -0.8444
    -0.8268  -0.7145  -0.6576  -0.6124  -0.5602  -0.5351  -0.5233  -0.4874
    -0.4431  -0.4086  -0.3966  -0.3136  -0.2377  -0.2017  -0.1700  -0.1006
    -0.0347  -0.0234   0.0334   0.0517   0.0631   0.0719   0.5351   0.6193
     0.6639   0.7082   1.0863   1.0945   1.1230   1.1597   1.4310   1.4515
     1.4576   1.4950   1.6257   1.7219   1.7494   1.7863   1.8191   1.8307
     1.8416   1.8717   1.8874   1.9066   1.9213   1.9553   1.9615   1.9882
     2.0218   2.0315   2.0414   2.0864   2.1038   2.1174   2.1499   2.1781
     2.2431   2.3088   2.4272   2.4886   2.5830   2.6087   2.6316   2.6462
     2.6626   2.6886   2.6915   2.7103   2.7214   2.7373   2.7591   2.7704
     2.8350   2.8394   2.8593   2.8746   2.8884   2.9054   2.9109   2.9214
     3.0220   3.0292   3.0541   3.0643   4.0048   4.0449   4.0923   4.1198
     4.3268   4.4003   4.4265   4.6679   4.7896   4.8721   5.0014   5.0906
     5.1072   5.2148   5.3105   5.4137   5.8574   5.8936   5.9644   6.0352
     6.6295   6.8562   6.9334   7.1222   7.9096   7.9307   7.9666   7.9740
     7.9878   8.0382   8.0947   8.2799   8.5304   8.5969   8.6268   8.6652
     8.6711   8.6984   8.7496

     occupation numbers 
     1.0000   1.0000   1.0000   1.0000   1.0000   1.0000   1.0000   1.0000
     1.0000   1.0000   1.0000   1.0000   1.0000   1.0000   1.0000   1.0000
     1.0000   1.0000   1.0000   1.0000   1.0000   1.0000   1.0000   1.0000
     1.0000   1.0000   1.0000   1.0000   1.0000   1.0000   1.0000   1.0000
     1.0000   1.0000   1.0000   1.0000   1.0000   1.0000   1.0000   1.0000
     1.0000   1.0000   1.0000   1.0000   1.0000   1.0000   1.0000   1.0000
     1.0000   1.0000   1.0000   1.0000   1.0000   1.0000   1.0000   1.0000
     1.0000   1.0000   1.0000   1.0000   1.0000   1.0000   1.0000   1.0000
     1.0000   1.0000   1.0000   1.0000   1.0000   1.0000   1.0000   1.0000
     1.0000   1.0000   1.0000   1.0000   1.0000   1.0000   1.0000   1.0000
     1.0000   1.0000   1.0000   1.0000   1.0000   1.0000   1.0000   1.0000
     1.0000   1.0000   1.0000   1.0000   1.0000   1.0000   1.0000   1.0000
     1.0000   1.0000   1.0000   1.0000   1.0000   1.0000   1.0000   1.0000
     1.0000   1.0000   1.0000   1.0000   1.0000   1.0000   1.0000   1.0000
     1.0000   1.0000   1.0000   1.0000   1.0000   1.0000   1.0000   1.0000
     1.0000   1.0000   1.0000   1.0000   1.0000   1.0000   1.0000   1.0000
     1.0000   1.0000   1.0000   1.0000   1.0000   1.0000   1.0000   1.0000
     1.0000   1.0000   1.0000   1.0000   1.0000   1.0000   1.0000   1.0000
     1.0000   1.0000   1.0000   1.0000   1.0000   1.0000   1.0000   1.0000
     1.0000   1.0000   1.0000   1.0000   1.0000   1.0000   1.0000   1.0000
     1.0000   1.0000   0.9996   0.9996   0.9995   0.9994   0.9977   0.9974
     0.9973   0.9969   0.9944   0.9917   0.9907   0.9893   0.9878   0.9872
     0.9867   0.9851   0.9842   0.9830   0.9821   0.9797   0.9793   0.9772
     0.9744   0.9735   0.9726   0.9681   0.9662   0.9647   0.9608   0.9571
     0.9475   0.9362   0.9111   0.8956   0.8679   0.8596   0.8518   0.8467
     0.8409   0.8314   0.8303   0.8232   0.8189   0.8125   0.8037   0.7990
     0.7710   0.7691   0.7600   0.7529   0.7463   0.7382   0.7355   0.7304
     0.6789   0.6750   0.6616   0.6561   0.1599   0.1459   0.1304   0.1219
     0.0704   0.0568   0.0525   0.0239   0.0154   0.0112   0.0067   0.0046
     0.0042   0.0026   0.0017   0.0010   0.0001   0.0001   0.0000   0.0000
     0.0000   0.0000   0.0000   0.0000   0.0000   0.0000   0.0000   0.0000
     0.0000   0.0000   0.0000   0.0000   0.0000   0.0000   0.0000   0.0000
     0.0000   0.0000   0.0000

          k = 0.2500 0.0000 0.0000 ( 65257 PWs)   bands (ev):

   -92.6930 -92.6410 -92.5466 -92.5007 -92.4444 -92.3997 -92.3816 -92.2594
   -56.0465 -56.0277 -55.9040 -55.8936 -55.8865 -55.8804 -55.8446 -55.8158
   -55.8001 -55.7994 -55.7920 -55.7511 -55.7320 -55.6948 -55.6729 -55.6440
   -55.6363 -55.5874 -55.5857 -55.5848 -55.5763 -55.5342 -55.5120 -55.4259
   -31.2683 -31.2523 -31.1088 -31.0228 -31.0067 -30.8349 -30.8194 -30.8027
[...]
     0.3528   0.3276   0.2037   0.0776   0.0451   0.0219   0.0060   0.0047
     0.0003   0.0001   0.0001   0.0000   0.0000   0.0000   0.0000   0.0000
     0.0000   0.0000   0.0000   0.0000   0.0000   0.0000   0.0000   0.0000
     0.0000   0.0000   0.0000   0.0000   0.0000   0.0000   0.0000   0.0000
     0.0000   0.0000   0.0000

          k =-0.5000 0.0000 0.0000 ( 65180 PWs)   bands (ev):

   -92.6930 -92.6410 -92.5466 -92.5007 -92.4444 -92.3997 -92.3816 -92.2594
   -56.0465 -56.0277 -55.9040 -55.8936 -55.8865 -55.8804 -55.8446 -55.8158
   -55.8001 -55.7994 -55.7920 -55.7511 -55.7320 -55.6948 -55.6729 -55.6440
   -55.6363 -55.5874 -55.5857 -55.5848 -55.5763 -55.5342 -55.5120 -55.4259
   -31.2661 -31.2545 -31.1084 -31.0232 -31.0066 -30.8331 -30.8210 -30.8031
   -29.8372 -29.7976 -29.7699 -29.6640 -15.0063 -14.9553 -14.8924 -14.7799
   -14.6798 -14.5363 -14.3904 -14.2414 -14.1237 -14.1055 -14.0998 -14.0291
   -13.9825 -13.9671 -13.9502 -13.8992 -13.8886 -13.8764 -13.8292 -13.7971
   -13.6983 -13.5467 -13.5182 -13.4865 -13.4785 -13.3725 -13.3558 -13.2984
   -13.2602 -13.2367 -13.2096 -13.0466 -13.0351 -13.0151 -13.0027 -12.9681
   -12.9390 -12.9173 -12.9009 -12.7664 -12.7484 -12.7436 -12.7155 -12.6676
   -12.6325 -12.6233 -12.6232 -12.5331 -12.4231 -12.3194 -12.2746 -12.1651
   -12.1262 -11.7695 -11.7481 -11.7411 -11.7267 -11.7083 -11.6664 -11.6049
   -11.5869 -11.5534 -11.5105 -11.5011 -11.4854  -2.5727  -2.5343  -2.3712
    -2.3315  -2.0182  -1.9438  -1.7956  -1.6773  -1.6387  -1.5938  -1.5453
    -1.5202  -1.3966  -1.3522  -1.3369  -1.2552  -1.2189  -1.2040  -1.1748
    -1.1648  -1.1118  -1.0452  -1.0174  -0.9860  -0.8845  -0.8444  -0.7959
    -0.7634  -0.7419  -0.7122  -0.6639  -0.6380  -0.5951  -0.5035  -0.4298
    -0.3647  -0.3039  -0.1180  -0.1037  -0.0466  -0.0126   0.0609   0.0749
     0.2140   0.2431   0.2725   0.4503   0.5496   0.6003   0.6747   0.7708
     0.8661   0.8943   1.0215   1.0424   1.0938   1.1181   1.1604   1.1761
     1.2207   1.2422   1.3136   1.3568   1.4026   1.4125   1.7197   1.7296
     1.7414   1.7879   1.8780   1.8806   1.9025   1.9120   1.9314   1.9495
     1.9898   2.0061   2.0387   2.0866   2.1043   2.1527   2.1779   2.2305
     2.3327   2.4255   2.4447   2.5075   2.5188   2.5326   2.6114   2.6347
     2.6665   2.7329   2.7393   2.7474   2.7763   2.8443   2.8923   2.9360
     2.9680   3.0083   3.0127   3.0141   3.0261   3.0394   3.0522   3.0667
     3.0697   3.0920   3.0948   3.1195   3.1376   3.1431   3.2727   3.2799
     4.0674   4.1390   4.2154   4.3452   4.8009   4.8803   5.0502   5.0598
     5.4924   5.5155   5.6066   5.6631   6.0402   6.0483   6.3211   6.4799
     6.8027   7.0089   7.2790   7.3041   7.3327   7.4682   7.7621   7.7853
     7.8950   8.0536   8.1200   8.2975   8.3847   8.4703   8.5377   8.6358
     8.7712   8.8406   8.9412

     occupation numbers 
     1.0000   1.0000   1.0000   1.0000   1.0000   1.0000   1.0000   1.0000
     1.0000   1.0000   1.0000   1.0000   1.0000   1.0000   1.0000   1.0000
     1.0000   1.0000   1.0000   1.0000   1.0000   1.0000   1.0000   1.0000
     1.0000   1.0000   1.0000   1.0000   1.0000   1.0000   1.0000   1.0000
     1.0000   1.0000   1.0000   1.0000   1.0000   1.0000   1.0000   1.0000
     1.0000   1.0000   1.0000   1.0000   1.0000   1.0000   1.0000   1.0000
     1.0000   1.0000   1.0000   1.0000   1.0000   1.0000   1.0000   1.0000
     1.0000   1.0000   1.0000   1.0000   1.0000   1.0000   1.0000   1.0000
     1.0000   1.0000   1.0000   1.0000   1.0000   1.0000   1.0000   1.0000
     1.0000   1.0000   1.0000   1.0000   1.0000   1.0000   1.0000   1.0000
     1.0000   1.0000   1.0000   1.0000   1.0000   1.0000   1.0000   1.0000
     1.0000   1.0000   1.0000   1.0000   1.0000   1.0000   1.0000   1.0000
     1.0000   1.0000   1.0000   1.0000   1.0000   1.0000   1.0000   1.0000
     1.0000   1.0000   1.0000   1.0000   1.0000   1.0000   1.0000   1.0000
     1.0000   1.0000   1.0000   1.0000   1.0000   1.0000   1.0000   1.0000
     1.0000   1.0000   1.0000   1.0000   1.0000   1.0000   1.0000   1.0000
     1.0000   1.0000   1.0000   1.0000   1.0000   1.0000   1.0000   1.0000
     1.0000   1.0000   1.0000   1.0000   1.0000   1.0000   1.0000   1.0000
     1.0000   1.0000   1.0000   1.0000   1.0000   1.0000   1.0000   1.0000
     1.0000   1.0000   1.0000   1.0000   1.0000   1.0000   1.0000   0.9999
     0.9999   0.9999   0.9997   0.9997   0.9996   0.9995   0.9994   0.9993
     0.9992   0.9991   0.9987   0.9983   0.9979   0.9978   0.9918   0.9914
     0.9910   0.9892   0.9847   0.9846   0.9833   0.9827   0.9814   0.9802
     0.9771   0.9758   0.9729   0.9681   0.9662   0.9604   0.9571   0.9495
     0.9316   0.9115   0.9069   0.8904   0.8872   0.8832   0.8587   0.8508
     0.8395   0.8143   0.8118   0.8085   0.7966   0.7668   0.7445   0.7232
     0.7070   0.6862   0.6838   0.6831   0.6767   0.6696   0.6627   0.6548
     0.6531   0.6408   0.6393   0.6255   0.6152   0.6121   0.5368   0.5325
     0.1384   0.1162   0.0955   0.0668   0.0147   0.0109   0.0054   0.0052
     0.0007   0.0006   0.0004   0.0003   0.0000   0.0000   0.0000   0.0000
     0.0000   0.0000   0.0000   0.0000   0.0000   0.0000   0.0000   0.0000
     0.0000   0.0000   0.0000   0.0000   0.0000   0.0000   0.0000   0.0000
     0.0000   0.0000   0.0000

          k =-0.2500 0.2500 0.0000 ( 65198 PWs)   bands (ev):

   -92.6930 -92.6410 -92.5466 -92.5007 -92.4444 -92.3997 -92.3816 -92.2594
   -56.0465 -56.0277 -55.9040 -55.8936 -55.8865 -55.8804 -55.8446 -55.8158
   -55.8001 -55.7994 -55.7920 -55.7511 -55.7320 -55.6948 -55.6729 -55.6440
   -55.6363 -55.5874 -55.5857 -55.5848 -55.5763 -55.5342 -55.5120 -55.4259
   -31.2681 -31.2522 -31.1090 -31.0230 -31.0066 -30.8349 -30.8175 -30.8048
   -29.8376 -29.7962 -29.7709 -29.6639 -15.0091 -14.9674 -14.8929 -14.7766
   -14.6629 -14.5361 -14.4530 -14.2411 -14.1056 -14.0767 -14.0605 -14.0150
   -13.9891 -13.9735 -13.9671 -13.9492 -13.8941 -13.8264 -13.8118 -13.6635
   -13.6356 -13.6067 -13.5874 -13.5419 -13.4877 -13.4275 -13.3934 -13.2708
   -13.2425 -13.2144 -13.1376 -13.0941 -13.0317 -13.0007 -12.9834 -12.9613
   -12.9331 -12.9196 -12.8254 -12.8129 -12.7726 -12.7614 -12.7282 -12.7039
   -12.6847 -12.6787 -12.6473 -12.4696 -12.4343 -12.3963 -12.2751 -12.1010
   -12.0421 -11.7895 -11.7681 -11.7411 -11.7289 -11.6875 -11.6532 -11.6298
   -11.6086 -11.5859 -11.5027 -11.4569 -11.4474  -2.6576  -2.4497  -2.3283
    -2.2402  -2.1219  -2.0558  -1.8530  -1.7074  -1.6893  -1.6605  -1.5671
    -1.5332  -1.4385  -1.4051  -1.3788  -1.2367  -1.1793  -1.1649  -1.1113
    -1.0834  -1.0231  -1.0005  -0.9612  -0.9328  -0.8926  -0.8284  -0.7806
    -0.7182  -0.6495  -0.6213  -0.5721  -0.5435  -0.4980  -0.4423  -0.3968
    -0.3568  -0.2554  -0.2228  -0.2089  -0.1674  -0.1006  -0.0066   0.0208
     0.0454   0.1289   0.1449   0.4005   0.5714   0.6127   0.6578   0.7193
     0.7608   0.8210   0.8922   0.9107   1.1919   1.3020   1.3413   1.3746
     1.3777   1.4216   1.4386   1.4842   1.5159   1.5285   1.5547   1.6023
     1.6170   1.6563   1.6739   1.7191   1.8253   1.8342   1.8526   1.8959
     1.9204   1.9555   2.0110   2.1157   2.2219   2.2433   2.2899   2.3092
     2.3784   2.4128   2.4346   2.4474   2.4713   2.4881   2.5090   2.5908
     2.6258   2.7146   2.8915   2.9007   2.9136   2.9240   2.9344   2.9486
     2.9560   2.9734   2.9806   2.9963   3.0059   3.0182   3.0271   3.0334
     3.0675   3.0782   3.0865   3.1206   3.4124   3.4943   3.5590   3.6347
     3.6665   3.8484   3.9714   4.3204   4.5238   4.7255   5.0056   5.1702
     5.6594   5.7077   5.7718   5.8421   5.9052   6.1018   6.1761   6.2068
     6.9024   6.9534   7.1129   7.2657   7.5705   7.6188   7.6776   7.8690
     7.9272   8.0275   8.1930   8.2137   8.3311   8.3954   8.4279   8.4571
     8.5516   8.8002   8.9485

     occupation numbers 
     1.0000   1.0000   1.0000   1.0000   1.0000   1.0000   1.0000   1.0000
     1.0000   1.0000   1.0000   1.0000   1.0000   1.0000   1.0000   1.0000
     1.0000   1.0000   1.0000   1.0000   1.0000   1.0000   1.0000   1.0000
     1.0000   1.0000   1.0000   1.0000   1.0000   1.0000   1.0000   1.0000
     1.0000   1.0000   1.0000   1.0000   1.0000   1.0000   1.0000   1.0000
     1.0000   1.0000   1.0000   1.0000   1.0000   1.0000   1.0000   1.0000
     1.0000   1.0000   1.0000   1.0000   1.0000   1.0000   1.0000   1.0000
     1.0000   1.0000   1.0000   1.0000   1.0000   1.0000   1.0000   1.0000
     1.0000   1.0000   1.0000   1.0000   1.0000   1.0000   1.0000   1.0000
     1.0000   1.0000   1.0000   1.0000   1.0000   1.0000   1.0000   1.0000
     1.0000   1.0000   1.0000   1.0000   1.0000   1.0000   1.0000   1.0000
     1.0000   1.0000   1.0000   1.0000   1.0000   1.0000   1.0000   1.0000
     1.0000   1.0000   1.0000   1.0000   1.0000   1.0000   1.0000   1.0000
     1.0000   1.0000   1.0000   1.0000   1.0000   1.0000   1.0000   1.0000
     1.0000   1.0000   1.0000   1.0000   1.0000   1.0000   1.0000   1.0000
     1.0000   1.0000   1.0000   1.0000   1.0000   1.0000   1.0000   1.0000
     1.0000   1.0000   1.0000   1.0000   1.0000   1.0000   1.0000   1.0000
     1.0000   1.0000   1.0000   1.0000   1.0000   1.0000   1.0000   1.0000
     1.0000   1.0000   1.0000   1.0000   1.0000   1.0000   1.0000   1.0000
     1.0000   1.0000   1.0000   1.0000   1.0000   1.0000   1.0000   0.9999
     0.9999   0.9999   0.9999   0.9998   0.9993   0.9987   0.9985   0.9982
     0.9982   0.9978   0.9976   0.9970   0.9965   0.9963   0.9959   0.9950
     0.9946   0.9937   0.9932   0.9918   0.9875   0.9871   0.9861   0.9837
     0.9822   0.9797   0.9753   0.9649   0.9508   0.9475   0.9396   0.9361
     0.9222   0.9145   0.9094   0.9062   0.9001   0.8957   0.8900   0.8654
     0.8538   0.8215   0.7449   0.7404   0.7342   0.7291   0.7240   0.7169
     0.7132   0.7043   0.7006   0.6925   0.6874   0.6809   0.6762   0.6728
     0.6544   0.6485   0.6439   0.6248   0.4542   0.4065   0.3696   0.3281
     0.3112   0.2229   0.1723   0.0717   0.0387   0.0195   0.0066   0.0032
     0.0003   0.0002   0.0001   0.0001   0.0001   0.0000   0.0000   0.0000
     0.0000   0.0000   0.0000   0.0000   0.0000   0.0000   0.0000   0.0000
     0.0000   0.0000   0.0000   0.0000   0.0000   0.0000   0.0000   0.0000
     0.0000   0.0000   0.0000

          k =-0.5000 0.2500 0.0000 ( 65138 PWs)   bands (ev):

   -92.6930 -92.6410 -92.5466 -92.5007 -92.4444 -92.3997 -92.3816 -92.2594
   -56.0465 -56.0277 -55.9040 -55.8936 -55.8865 -55.8804 -55.8446 -55.8158
   -55.8001 -55.7994 -55.7920 -55.7511 -55.7320 -55.6948 -55.6729 -55.6440
   -55.6363 -55.5874 -55.5856 -55.5848 -55.5763 -55.5342 -55.5120 -55.4259
   -31.2659 -31.2544 -31.1086 -31.0234 -31.0064 -30.8332 -30.8190 -30.8052
   -29.8366 -29.7972 -29.7705 -29.6643 -14.9736 -14.9291 -14.8497 -14.7467
   -14.7079 -14.5830 -14.4924 -14.3588 -14.0562 -14.0239 -14.0122 -13.9690
   -13.9673 -13.9435 -13.9235 -13.8858 -13.8721 -13.8565 -13.8153 -13.7959
   -13.6924 -13.6291 -13.5806 -13.5765 -13.5611 -13.4612 -13.4148 -13.3300
   -13.2757 -13.1923 -13.1556 -13.0589 -13.0188 -13.0080 -12.9822 -12.9566
   -12.9357 -12.9289 -12.8577 -12.7731 -12.7679 -12.7463 -12.7135 -12.6793
   -12.6462 -12.6141 -12.6064 -12.5312 -12.3970 -12.3147 -12.2482 -12.1538
   -12.1275 -11.7624 -11.7498 -11.7353 -11.7233 -11.7019 -11.6713 -11.5913
   -11.5834 -11.5591 -11.5250 -11.4967 -11.4879  -2.4302  -2.3886  -2.2410
    -2.1981  -2.0373  -1.9624  -1.8198  -1.6835  -1.6276  -1.6006  -1.5614
    -1.5226  -1.4419  -1.3262  -1.2696  -1.2461  -1.2203  -1.1666  -1.1425
    -1.1144  -1.0754  -1.0587  -0.9983  -0.9684  -0.9299  -0.8946  -0.8660
    -0.8078  -0.7795  -0.7366  -0.7040  -0.6005  -0.5699  -0.4851  -0.4229
    -0.3929  -0.3363  -0.2505  -0.2121  -0.1158  -0.0603  -0.0196   0.0399
     0.0618   0.1364   0.1555   0.1868   0.2397   0.2831   0.5928   0.6887
     0.7158   0.7507   1.0366   1.0823   1.1608   1.1829   1.3593   1.3961
     1.4337   1.4454   1.4638   1.4817   1.5511   1.5953   1.6400   1.6635
     1.8095   1.8368   1.8541   1.8660   1.9151   1.9359   1.9511   1.9639
     1.9835   2.0076   2.0515   2.0619   2.0973   2.1196   2.1552   2.2068
     2.3274   2.4241   2.4335   2.4681   2.4925   2.5366   2.5618   2.6281
     2.6623   2.6678   2.7054   2.7389   2.7612   2.8439   2.8887   2.9009
     2.9059   2.9272   2.9493   2.9620   2.9777   2.9911   3.0119   3.0231
     3.0345   3.0416   3.0518   3.0630   3.5894   3.6489   3.7823   3.8065
     4.0757   4.1666   4.2168   4.4235   4.7952   4.8980   5.0459   5.0889
     5.4135   5.4399   5.5975   5.6335   5.7568   5.7954   6.3988   6.4169
     6.5074   6.6055   7.3000   7.3282   7.5830   7.7227   7.8023   7.8508
     7.9005   8.0322   8.3332   8.4299   8.4734   8.5150   8.5751   8.5853
     8.6692   8.7434   8.8069

     occupation numbers 
     1.0000   1.0000   1.0000   1.0000   1.0000   1.0000   1.0000   1.0000
     1.0000   1.0000   1.0000   1.0000   1.0000   1.0000   1.0000   1.0000
     1.0000   1.0000   1.0000   1.0000   1.0000   1.0000   1.0000   1.0000
     1.0000   1.0000   1.0000   1.0000   1.0000   1.0000   1.0000   1.0000
     1.0000   1.0000   1.0000   1.0000   1.0000   1.0000   1.0000   1.0000
     1.0000   1.0000   1.0000   1.0000   1.0000   1.0000   1.0000   1.0000
     1.0000   1.0000   1.0000   1.0000   1.0000   1.0000   1.0000   1.0000
     1.0000   1.0000   1.0000   1.0000   1.0000   1.0000   1.0000   1.0000
     1.0000   1.0000   1.0000   1.0000   1.0000   1.0000   1.0000   1.0000
     1.0000   1.0000   1.0000   1.0000   1.0000   1.0000   1.0000   1.0000
     1.0000   1.0000   1.0000   1.0000   1.0000   1.0000   1.0000   1.0000
     1.0000   1.0000   1.0000   1.0000   1.0000   1.0000   1.0000   1.0000
     1.0000   1.0000   1.0000   1.0000   1.0000   1.0000   1.0000   1.0000
     1.0000   1.0000   1.0000   1.0000   1.0000   1.0000   1.0000   1.0000
     1.0000   1.0000   1.0000   1.0000   1.0000   1.0000   1.0000   1.0000
     1.0000   1.0000   1.0000   1.0000   1.0000   1.0000   1.0000   1.0000
     1.0000   1.0000   1.0000   1.0000   1.0000   1.0000   1.0000   1.0000
     1.0000   1.0000   1.0000   1.0000   1.0000   1.0000   1.0000   1.0000
     1.0000   1.0000   1.0000   1.0000   1.0000   1.0000   1.0000   1.0000
     1.0000   1.0000   1.0000   1.0000   1.0000   1.0000   1.0000   1.0000
     0.9999   0.9999   0.9997   0.9996   0.9994   0.9993   0.9983   0.9980
     0.9976   0.9975   0.9973   0.9970   0.9960   0.9951   0.9941   0.9935
     0.9882   0.9869   0.9861   0.9854   0.9825   0.9811   0.9800   0.9791
     0.9776   0.9756   0.9717   0.9706   0.9669   0.9644   0.9601   0.9530
     0.9327   0.9119   0.9096   0.9010   0.8945   0.8821   0.8745   0.8530
     0.8410   0.8390   0.8250   0.8119   0.8028   0.7670   0.7462   0.7403
     0.7379   0.7276   0.7165   0.7101   0.7021   0.6951   0.6843   0.6783
     0.6722   0.6684   0.6629   0.6568   0.3527   0.3205   0.2532   0.2419
     0.1357   0.1084   0.0952   0.0530   0.0151   0.0101   0.0055   0.0046
     0.0010   0.0009   0.0004   0.0003   0.0002   0.0001   0.0000   0.0000
     0.0000   0.0000   0.0000   0.0000   0.0000   0.0000   0.0000   0.0000
     0.0000   0.0000   0.0000   0.0000   0.0000   0.0000   0.0000   0.0000
     0.0000   0.0000   0.0000

     the Fermi energy is     3.3349 ev

!    total energy              =   -4441.66255782 Ry
     estimated scf accuracy    <          7.7E-09 Ry
     smearing contrib. (-TS)   =      -1.15474365 Ry
     internal energy E=F+TS    =   -4440.50781417 Ry

     The total energy is F=E-TS. E is the sum of the following terms:
     one-electron contribution =  -20804.55933532 Ry
     hartree contribution      =   10534.39572179 Ry
     xc contribution           =    -694.18514646 Ry
     ewald contribution        =    6800.01023650 Ry
     one-center paw contrib.   =    -276.16929068 Ry
      -> PAW hartree energy AE =      25.10041331 Ry
      -> PAW hartree energy PS =     -24.98500000 Ry
      -> PAW xc energy AE      =     -16.50854198 Ry
      -> PAW xc energy PS      =       6.86759957 Ry
      -> total E_H with PAW    =   10534.51113510 Ry
      -> total E_XC with PAW   =    -703.82608887 Ry

     convergence has been achieved in  48 iterations

     Writing all to output data dir /bsuhome/zayahcortright/scratch/pwscf.save/
 
     init_run     :      7.87s CPU      8.72s WALL (       1 calls)
     electrons    :    777.59s CPU    864.16s WALL (       1 calls)

     Called by init_run:
     wfcinit      :      6.24s CPU      6.46s WALL (       1 calls)
     wfcinit:atom :      0.04s CPU      0.07s WALL (       5 calls)
     wfcinit:wfcr :      5.92s CPU      6.04s WALL (       5 calls)
     potinit      :      0.18s CPU      0.20s WALL (       1 calls)
     hinit0       :      0.38s CPU      0.80s WALL (       1 calls)

     Called by electrons:
     c_bands      :    628.22s CPU    641.13s WALL (      48 calls)
     sum_band     :    108.77s CPU    150.41s WALL (      48 calls)
     v_of_rho     :      5.48s CPU      5.93s WALL (      49 calls)
     v_h          :      0.46s CPU      0.47s WALL (      49 calls)
     v_xc         :      5.02s CPU      5.46s WALL (      49 calls)
     newd         :     19.54s CPU     50.52s WALL (      49 calls)
     PAW_pot      :      1.63s CPU      1.67s WALL (      49 calls)
     mix_rho      :     13.68s CPU     14.22s WALL (      48 calls)

     Called by c_bands:
     init_us_2    :      6.68s CPU      6.76s WALL (     485 calls)
     init_us_2:cp :      6.67s CPU      6.76s WALL (     485 calls)
     cegterg      :    595.01s CPU    607.58s WALL (     240 calls)

     Called by sum_band:
     sum_band:wei :      0.34s CPU      0.35s WALL (      48 calls)
     sum_band:loo :     88.54s CPU     89.18s WALL (      48 calls)
     sum_band:buf :      1.40s CPU      1.45s WALL (     240 calls)
     sum_band:ini :      3.07s CPU      3.08s WALL (     240 calls)
     sum_band:cal :     19.25s CPU     19.32s WALL (     240 calls)
     sum_band:bec :      0.56s CPU      0.59s WALL (     240 calls)
     addusdens    :     17.77s CPU     58.70s WALL (      48 calls)
                                        0.00s GPU  (      48 calls)
     addusd:skk   :      0.33s CPU      2.30s WALL (     192 calls)
                                        0.00s GPU  (     192 calls)

     Called by *egterg:
     cdiaghg      :     58.07s CPU     58.33s WALL (    1317 calls)
     cegterg:over :     49.15s CPU     49.34s WALL (    1077 calls)
     cegterg:upda :     52.46s CPU     53.65s WALL (    1077 calls)
     cegterg:last :     70.43s CPU     70.69s WALL (     436 calls)
     cdiaghg:chol :      3.37s CPU      3.39s WALL (    1317 calls)
     cdiaghg:inve :      3.63s CPU      3.65s WALL (    1317 calls)
     cdiaghg:para :      7.53s CPU      7.58s WALL (    2634 calls)
     h_psi        :    297.21s CPU    301.96s WALL (    1322 calls)
     s_psi        :     39.55s CPU     39.67s WALL (    1322 calls)
     g_psi        :      2.76s CPU      2.78s WALL (    1077 calls)

     Called by h_psi:
     h_psi:calbec :     45.17s CPU     45.41s WALL (    1322 calls)
     vloc_psi     :    206.15s CPU    208.07s WALL (    1322 calls)
     add_vuspsi   :     39.03s CPU     39.26s WALL (    1322 calls)

     General routines
     calbec       :     64.41s CPU     64.72s WALL (    1562 calls)
     fft          :      4.29s CPU      4.35s WALL (     635 calls)
     ffts         :      4.51s CPU      4.59s WALL (    5168 calls)
     fftw         :    169.03s CPU    170.40s WALL (  325410 calls)
     interpolate  :      0.41s CPU      0.42s WALL (      49 calls)
 
     Parallel routines

     PAW routines
     PAW_pot      :      1.63s CPU      1.67s WALL (      49 calls)
 
     PWSCF        :  13m 6.93s CPU  14m37.62s WALL

 
   This run was terminated on:  23:26:29  21Jun2024            

=------------------------------------------------------------------------------=
   JOB DONE.
=------------------------------------------------------------------------------=
