
     Program PWSCF v.7.2 starts on 21Jun2024 at 16:25:22 

     This program is part of the open-source Quantum ESPRESSO suite
     for quantum simulation of materials; please cite
         "P. Giannozzi et al., J. Phys.:Condens. Matter 21 395502 (2009);
         "P. Giannozzi et al., J. Phys.:Condens. Matter 29 465901 (2017);
         "P. Giannozzi et al., J. Chem. Phys. 152 154105 (2020);
          URL http://www.quantum-espresso.org", 
     in publications or presentations arising from this work. More details at
     http://www.quantum-espresso.org/quote

     Parallel version (MPI & OpenMP), running on      48 processor cores
     Number of MPI processes:                48
     Threads/MPI process:                     1

     MPI processes distributed on     1 nodes
     33234 MiB available memory on the printing compute node when the environment starts
 
     Reading input from espresso.pwi
Warning: card &CELL ignored
Warning: card / ignored
Warning: card &FCP ignored
Warning: card / ignored
Warning: card &RISM ignored
Warning: card / ignored

     Current dimensions of program PWSCF are:
     Max number of different atomic species (ntypx) = 10
     Max number of k-points (npk) =  40000
     Max angular momentum in pseudopotentials (lmaxx) =  4
     file O.pbe-n-kjpaw_psl.0.1.UPF: wavefunction(s)  2P renormalized
     signal trapping enabled: kill the code with -SIGUSR1 to stop cleanly the simulation 
 
     K-points division:     npool     =       2
     R & G space division:  proc/nbgrp/npool/nimage =      24
     Subspace diagonalization in iterative solution of the eigenvalue problem:
     one sub-group per band group will be used
     scalapack distributed-memory algorithm (size of sub-group:  3*  3 procs)

 
     Parallelization info
     --------------------
     sticks:   dense  smooth     PW     G-vecs:    dense   smooth      PW
     Min         350     175     47                61430    21716    3036
     Max         351     177     48                61449    21727    3041
     Sum        8421    4205   1137              1474595   521381   72913
 
     Using Slab Decomposition
 


     bravais-lattice index     =            0
     lattice parameter (alat)  =      14.8599  a.u.
     unit-cell volume          =    8305.1283 (a.u.)^3
     number of atoms/cell      =           50
     number of atomic types    =            4
     number of electrons       =       431.00
     number of Kohn-Sham states=          259
     kinetic-energy cutoff     =      60.0000  Ry
     charge density cutoff     =     480.0000  Ry
     scf convergence threshold =      1.0E-08
     mixing beta               =       0.1500
     number of iterations used =            8  local-TF  mixing
     Exchange-correlation= PBE
                           (   1   4   3   4   0   0   0)

     celldm(1)=  14.859904  celldm(2)=   0.000000  celldm(3)=   0.000000
     celldm(4)=   0.000000  celldm(5)=   0.000000  celldm(6)=   0.000000

     crystal axes: (cart. coord. in units of alat)
               a(1) = (   1.000000   0.000000   0.000000 )  
               a(2) = (   0.000000   1.000000   0.000000 )  
               a(3) = (   0.000000   0.000000   2.531036 )  

     reciprocal axes: (cart. coord. in units 2 pi/alat)
               b(1) = (  1.000000  0.000000  0.000000 )  
               b(2) = (  0.000000  1.000000  0.000000 )  
               b(3) = (  0.000000  0.000000  0.395095 )  


     PseudoPot. # 1 for Sr read from file:
     /bsuhome/zayahcortright/q-e/pseudo/Sr_pbe_v1.uspp.F.UPF
     MD5 check sum: 6b418c05fbe9db5448babca5e47b7a5b
     Pseudo is Ultrasoft + core correction, Zval = 10.0
     Generated by new atomic code, or converted to UPF format
     Using radial grid of  883 points,  6 beta functions with: 
                l(1) =   0
                l(2) =   0
                l(3) =   1
                l(4) =   1
                l(5) =   2
                l(6) =   2
     Q(r) pseudized with  6 coefficients,  rinner =    1.400   1.400   1.400
                                                       1.400   1.400

     PseudoPot. # 2 for O  read from file:
     /bsuhome/zayahcortright/q-e/pseudo/O.pbe-n-kjpaw_psl.0.1.UPF
     MD5 check sum: 0234752ac141de4415c5fc33072bef88
     Pseudo is Projector augmented-wave + core cor, Zval =  6.0
     Generated using "atomic" code by A. Dal Corso  v.5.0.99 svn rev. 10869
     Shape of augmentation charge: BESSEL
     Using radial grid of 1095 points,  4 beta functions with: 
                l(1) =   0
                l(2) =   0
                l(3) =   1
                l(4) =   1
     Q(r) pseudized with 0 coefficients 


     PseudoPot. # 3 for Co read from file:
     /bsuhome/zayahcortright/q-e/pseudo/Co_pbe_v1.2.uspp.F.UPF
     MD5 check sum: 5f91765df6ddd3222702df6e7b74a16d
     Pseudo is Ultrasoft + core correction, Zval = 17.0
     Generated by new atomic code, or converted to UPF format
     Using radial grid of  863 points,  6 beta functions with: 
                l(1) =   0
                l(2) =   0
                l(3) =   1
                l(4) =   1
                l(5) =   2
                l(6) =   2
     Q(r) pseudized with  8 coefficients,  rinner =    1.200   1.200   1.200
                                                       1.200   1.200

     PseudoPot. # 4 for H  read from file:
     /bsuhome/zayahcortright/q-e/pseudo/H.pbe-rrkjus_psl.1.0.0.UPF
     MD5 check sum: f52b6d4d1c606e5624b1dc7b2218f220
     Pseudo is Ultrasoft, Zval =  1.0
     Generated using "atomic" code by A. Dal Corso  v.5.1
     Using radial grid of  929 points,  2 beta functions with: 
                l(1) =   0
                l(2) =   0
     Q(r) pseudized with 0 coefficients 


     atomic species   valence    mass     pseudopotential
        Sr            10.00    87.62000     Sr( 1.00)
        O              6.00    15.99900     O ( 1.00)
        Co            17.00    58.93319     Co( 1.00)
        H              1.00     1.00800     H ( 1.00)

     No symmetry found


                                    s                        frac. trans.

      isym =  1     identity                                     

 cryst.   s( 1) = (     1          0          0      )
                  (     0          1          0      )
                  (     0          0          1      )

 cart.    s( 1) = (  1.0000000  0.0000000  0.0000000 )
                  (  0.0000000  1.0000000  0.0000000 )
                  (  0.0000000  0.0000000  1.0000000 )


   Cartesian axes

     site n.     atom                  positions (alat units)
         1           Sr  tau(   1) = (   0.2508693   0.7491307   1.7574407  )
         2           O   tau(   2) = (   0.4985141   0.5014859   1.7715967  )
         3           Sr  tau(   3) = (   0.7482398   0.7454518   1.7648669  )
         4           Sr  tau(   4) = (   0.7441748   0.2558252   1.7667843  )
         5           Sr  tau(   5) = (   0.2508693   0.7491307   1.2696799  )
         6           Sr  tau(   6) = (   0.2508693   0.7491307   0.7632319  )
         7           Co  tau(   7) = (   0.4998914   0.5001086   1.0164559  )
         8           Co  tau(   8) = (   0.4936915   0.5063085   1.5135603  )
         9           O   tau(   9) = (   0.4988895   0.7610401   1.0164559  )
        10           O   tau(  10) = (   0.2389599   0.5011105   1.0164559  )
        11           O   tau(  11) = (   0.0070918   0.7374880   1.0164559  )
        12           O   tau(  12) = (   0.0088340   0.7405089   1.5135603  )
        13           O   tau(  13) = (   0.5066944   0.7415376   1.5135603  )
        14           O   tau(  14) = (   0.2584624   0.4933056   1.5135603  )
        15           O   tau(  15) = (   0.4985141   0.5014859   0.7773880  )
        16           O   tau(  16) = (   0.4985141   0.5014859   1.2555238  )
        17           Sr  tau(  17) = (   0.7482398   0.7454518   0.7706582  )
        18           Sr  tau(  18) = (   0.7482398   0.7454518   1.2622536  )
        19           Sr  tau(  19) = (   0.7441748   0.2558252   0.7725755  )
        20           Sr  tau(  20) = (   0.7441748   0.2558252   1.2603363  )
        21           O   tau(  21) = (   0.7322655   0.0078049   1.5135603  )
        22           O   tau(  22) = (   0.7558175   0.4996027   1.5135603  )
        23           O   tau(  23) = (   0.5003973   0.2441825   1.5135603  )
        24           O   tau(  24) = (   0.7527966   0.4978604   1.0164559  )
        25           O   tau(  25) = (   0.5021396   0.2472034   1.0164559  )
        26           O   tau(  26) = (   0.7517679   0.0000000   1.0164559  )
        27           O   tau(  27) = (   0.0114961   0.4948124   1.7455321  )
        28           O   tau(  28) = (   0.0048226   0.0077944   1.7715967  )
        29           Sr  tau(  29) = (   0.2545482   0.2517602   1.7648669  )
        30           O   tau(  30) = (   0.5048017   0.0015068   1.7786929  )
        31           Co  tau(  31) = (   0.0056869   0.5006215   1.0164559  )
        32           Co  tau(  32) = (   0.0065315   0.4997770   1.5135603  )
        33           Co  tau(  33) = (   0.0061999   0.0064171   1.0164559  )
        34           Co  tau(  34) = (   0.0000000   0.0126169   1.5135603  )
        35           O   tau(  35) = (   0.0114961   0.4948124   1.2815885  )
        36           O   tau(  36) = (   0.0114961   0.4948124   0.7513233  )
        37           O   tau(  37) = (   0.0051979   0.2673486   1.0164559  )
        38           O   tau(  38) = (   0.0130029   0.2478461   1.5135603  )
        39           O   tau(  39) = (   0.0048226   0.0077944   0.7773880  )
        40           O   tau(  40) = (   0.0048226   0.0077944   1.2555238  )
        41           Sr  tau(  41) = (   0.2545482   0.2517602   0.7706582  )
        42           Sr  tau(  42) = (   0.2545482   0.2517602   1.2622536  )
        43           Co  tau(  43) = (   0.4989925   0.0073160   1.5135603  )
        44           Co  tau(  44) = (   0.4998370   0.0064714   1.0164559  )
        45           O   tau(  45) = (   0.5048017   0.0015068   0.7844841  )
        46           O   tau(  46) = (   0.5048017   0.0015068   1.2484277  )
        47           O   tau(  47) = (   0.2621260   0.0059111   1.5135603  )
        48           O   tau(  48) = (   0.2591051   0.0041689   1.0164559  )
        49           O   tau(  49) = (   0.1421646   0.1421646   2.1602013  )
        50           H   tau(  50) = (   0.1421646   0.1421646   2.2847091  )

   Crystallographic axes

     site n.     atom                  positions (cryst. coord.)
         1           Sr  tau(   1) = (  0.2508693  0.7491307  0.6943562  )
         2           O   tau(   2) = (  0.4985141  0.5014859  0.6999492  )
         3           Sr  tau(   3) = (  0.7482398  0.7454518  0.6972903  )
         4           Sr  tau(   4) = (  0.7441748  0.2558252  0.6980478  )
         5           Sr  tau(   5) = (  0.2508693  0.7491307  0.5016443  )
         6           Sr  tau(   6) = (  0.2508693  0.7491307  0.3015492  )
         7           Co  tau(   7) = (  0.4998914  0.5001086  0.4015968  )
         8           Co  tau(   8) = (  0.4936915  0.5063085  0.5980003  )
         9           O   tau(   9) = (  0.4988895  0.7610401  0.4015968  )
        10           O   tau(  10) = (  0.2389599  0.5011105  0.4015968  )
        11           O   tau(  11) = (  0.0070918  0.7374880  0.4015968  )
        12           O   tau(  12) = (  0.0088340  0.7405089  0.5980003  )
        13           O   tau(  13) = (  0.5066944  0.7415376  0.5980003  )
        14           O   tau(  14) = (  0.2584624  0.4933056  0.5980003  )
        15           O   tau(  15) = (  0.4985141  0.5014859  0.3071422  )
        16           O   tau(  16) = (  0.4985141  0.5014859  0.4960513  )
        17           Sr  tau(  17) = (  0.7482398  0.7454518  0.3044833  )
        18           Sr  tau(  18) = (  0.7482398  0.7454518  0.4987103  )
        19           Sr  tau(  19) = (  0.7441748  0.2558252  0.3052408  )
        20           Sr  tau(  20) = (  0.7441748  0.2558252  0.4979527  )
        21           O   tau(  21) = (  0.7322655  0.0078049  0.5980003  )
        22           O   tau(  22) = (  0.7558175  0.4996027  0.5980003  )
        23           O   tau(  23) = (  0.5003973  0.2441825  0.5980003  )
        24           O   tau(  24) = (  0.7527966  0.4978604  0.4015968  )
        25           O   tau(  25) = (  0.5021396  0.2472034  0.4015968  )
        26           O   tau(  26) = (  0.7517679  0.0000000  0.4015968  )
        27           O   tau(  27) = (  0.0114961  0.4948124  0.6896512  )
        28           O   tau(  28) = (  0.0048226  0.0077944  0.6999492  )
        29           Sr  tau(  29) = (  0.2545482  0.2517602  0.6972903  )
        30           O   tau(  30) = (  0.5048017  0.0015068  0.7027529  )
        31           Co  tau(  31) = (  0.0056869  0.5006215  0.4015968  )
        32           Co  tau(  32) = (  0.0065315  0.4997770  0.5980003  )
        33           Co  tau(  33) = (  0.0061999  0.0064171  0.4015968  )
        34           Co  tau(  34) = (  0.0000000  0.0126169  0.5980003  )
        35           O   tau(  35) = (  0.0114961  0.4948124  0.5063494  )
        36           O   tau(  36) = (  0.0114961  0.4948124  0.2968442  )
        37           O   tau(  37) = (  0.0051979  0.2673486  0.4015968  )
        38           O   tau(  38) = (  0.0130029  0.2478461  0.5980003  )
        39           O   tau(  39) = (  0.0048226  0.0077944  0.3071422  )
        40           O   tau(  40) = (  0.0048226  0.0077944  0.4960513  )
        41           Sr  tau(  41) = (  0.2545482  0.2517602  0.3044833  )
        42           Sr  tau(  42) = (  0.2545482  0.2517602  0.4987103  )
        43           Co  tau(  43) = (  0.4989925  0.0073160  0.5980003  )
        44           Co  tau(  44) = (  0.4998370  0.0064714  0.4015968  )
        45           O   tau(  45) = (  0.5048017  0.0015068  0.3099459  )
        46           O   tau(  46) = (  0.5048017  0.0015068  0.4932477  )
        47           O   tau(  47) = (  0.2621260  0.0059111  0.5980003  )
        48           O   tau(  48) = (  0.2591051  0.0041689  0.4015968  )
        49           O   tau(  49) = (  0.1421646  0.1421646  0.8534850  )
        50           H   tau(  50) = (  0.1421646  0.1421646  0.9026774  )

     number of k points=    10  Gaussian smearing, width (Ry)=  0.0700
                       cart. coord. in units 2pi/alat
        k(    1) = (   0.0000000   0.0000000   0.0000000), wk =   0.1250000
        k(    2) = (   0.0000000   0.2500000   0.0000000), wk =   0.2500000
        k(    3) = (   0.0000000  -0.5000000   0.0000000), wk =   0.1250000
        k(    4) = (   0.2500000   0.2500000   0.0000000), wk =   0.2500000
        k(    5) = (   0.2500000  -0.5000000   0.0000000), wk =   0.2500000
        k(    6) = (  -0.5000000  -0.5000000   0.0000000), wk =   0.1250000
        k(    7) = (   0.2500000   0.0000000   0.0000000), wk =   0.2500000
        k(    8) = (  -0.5000000   0.0000000   0.0000000), wk =   0.1250000
        k(    9) = (  -0.2500000   0.2500000   0.0000000), wk =   0.2500000
        k(   10) = (  -0.5000000   0.2500000   0.0000000), wk =   0.2500000

                       cryst. coord.
        k(    1) = (   0.0000000   0.0000000   0.0000000), wk =   0.1250000
        k(    2) = (   0.0000000   0.2500000   0.0000000), wk =   0.2500000
        k(    3) = (   0.0000000  -0.5000000   0.0000000), wk =   0.1250000
        k(    4) = (   0.2500000   0.2500000   0.0000000), wk =   0.2500000
        k(    5) = (   0.2500000  -0.5000000   0.0000000), wk =   0.2500000
        k(    6) = (  -0.5000000  -0.5000000   0.0000000), wk =   0.1250000
        k(    7) = (   0.2500000   0.0000000   0.0000000), wk =   0.2500000
        k(    8) = (  -0.5000000   0.0000000   0.0000000), wk =   0.1250000
        k(    9) = (  -0.2500000   0.2500000   0.0000000), wk =   0.2500000
        k(   10) = (  -0.5000000   0.2500000   0.0000000), wk =   0.2500000

     Dense  grid:  1474595 G-vectors     FFT dimensions: ( 108, 108, 270)

     Smooth grid:   521381 G-vectors     FFT dimensions: (  75,  75, 192)

     Dynamical RAM for                 wfc:      10.73 MB

     Dynamical RAM for     wfc (w. buffer):      64.38 MB

     Dynamical RAM for           str. fact:       3.75 MB

     Dynamical RAM for           local pot:       0.00 MB

     Dynamical RAM for          nlocal pot:      24.61 MB

     Dynamical RAM for                qrad:       7.03 MB

     Dynamical RAM for          rho,v,vnew:       6.02 MB

     Dynamical RAM for               rhoin:       2.01 MB

     Dynamical RAM for            rho*nmix:      15.00 MB

     Dynamical RAM for           G-vectors:       3.68 MB

     Dynamical RAM for          h,s,v(r/c):       1.35 MB

     Dynamical RAM for          <psi|beta>:       2.35 MB

     Dynamical RAM for                 psi:      21.46 MB

     Dynamical RAM for                hpsi:      21.46 MB

     Dynamical RAM for                spsi:      21.46 MB

     Dynamical RAM for      wfcinit/wfcrot:      34.49 MB

     Dynamical RAM for           addusdens:     101.26 MB

     Estimated static dynamical RAM per process >     121.50 MB

     Estimated max dynamical RAM per process >     237.76 MB

     Estimated total dynamical RAM >      10.79 GB

     Check: negative core charge=   -0.000004

     Initial potential from superposition of free atoms

     starting charge     422.5961, renormalised to     431.0000

     negative rho (up, down):  7.819E-01 0.000E+00
     Starting wfcs are  377 randomized atomic wfcs
     Checking if some PAW data can be deallocated... 
       PAW data deallocated on   19 nodes for type:  2

     total cpu time spent up to now is        9.1 secs

     Self-consistent Calculation

     iteration #  1     ecut=    60.00 Ry     beta= 0.15
     Davidson diagonalization with overlap

---- Real-time Memory Report at c_bands before calling an iterative solver
             0 MiB given to the printing process from OS
             0 MiB allocation reported by mallinfo(arena+hblkhd)
         23988 MiB available memory on the node where the printing process lives
------------------
     ethr =  1.00E-02,  avg # of iterations =  2.0

     negative rho (up, down):  7.715E-01 0.000E+00

     total cpu time spent up to now is       30.0 secs

     total energy              =   -4446.60478750 Ry
     estimated scf accuracy    <      44.61288416 Ry

     iteration #  2     ecut=    60.00 Ry     beta= 0.15
     Davidson diagonalization with overlap

---- Real-time Memory Report at c_bands before calling an iterative solver
             0 MiB given to the printing process from OS
             0 MiB allocation reported by mallinfo(arena+hblkhd)
         24255 MiB available memory on the node where the printing process lives
------------------
     ethr =  1.00E-02,  avg # of iterations =  1.0

     negative rho (up, down):  7.582E-01 0.000E+00

     total cpu time spent up to now is       45.1 secs

     total energy              =   -4443.31883939 Ry
     estimated scf accuracy    <      29.62138138 Ry

     iteration #  3     ecut=    60.00 Ry     beta= 0.15
     Davidson diagonalization with overlap

---- Real-time Memory Report at c_bands before calling an iterative solver
             0 MiB given to the printing process from OS
             0 MiB allocation reported by mallinfo(arena+hblkhd)
         23426 MiB available memory on the node where the printing process lives
------------------
     ethr =  6.87E-03,  avg # of iterations =  1.0

     negative rho (up, down):  7.554E-01 0.000E+00

     total cpu time spent up to now is       60.2 secs

     total energy              =   -4444.26520737 Ry
     estimated scf accuracy    <      28.17018338 Ry

     iteration #  4     ecut=    60.00 Ry     beta= 0.15
     Davidson diagonalization with overlap

---- Real-time Memory Report at c_bands before calling an iterative solver
             0 MiB given to the printing process from OS
             0 MiB allocation reported by mallinfo(arena+hblkhd)
         23397 MiB available memory on the node where the printing process lives
------------------
     ethr =  6.54E-03,  avg # of iterations =  1.0

     negative rho (up, down):  7.499E-01 0.000E+00

     total cpu time spent up to now is       75.2 secs

     total energy              =   -4443.08087178 Ry
     estimated scf accuracy    <      20.44169570 Ry

     iteration #  5     ecut=    60.00 Ry     beta= 0.15
     Davidson diagonalization with overlap

---- Real-time Memory Report at c_bands before calling an iterative solver
             0 MiB given to the printing process from OS
             0 MiB allocation reported by mallinfo(arena+hblkhd)
         23381 MiB available memory on the node where the printing process lives
------------------
     ethr =  4.74E-03,  avg # of iterations =  1.0

     negative rho (up, down):  7.404E-01 0.000E+00

     total cpu time spent up to now is       90.2 secs

     total energy              =   -4442.54131506 Ry
     estimated scf accuracy    <      11.27305535 Ry

     iteration #  6     ecut=    60.00 Ry     beta= 0.15
     Davidson diagonalization with overlap

---- Real-time Memory Report at c_bands before calling an iterative solver
             0 MiB given to the printing process from OS
             0 MiB allocation reported by mallinfo(arena+hblkhd)
         23364 MiB available memory on the node where the printing process lives
------------------
     ethr =  2.62E-03,  avg # of iterations =  1.1

     negative rho (up, down):  7.428E-01 0.000E+00

     total cpu time spent up to now is      105.5 secs

     total energy              =   -4442.82665293 Ry
     estimated scf accuracy    <       4.99355931 Ry

     iteration #  7     ecut=    60.00 Ry     beta= 0.15
     Davidson diagonalization with overlap

---- Real-time Memory Report at c_bands before calling an iterative solver
             0 MiB given to the printing process from OS
             0 MiB allocation reported by mallinfo(arena+hblkhd)
         23354 MiB available memory on the node where the printing process lives
------------------
     ethr =  1.16E-03,  avg # of iterations =  1.7

     negative rho (up, down):  7.652E-01 0.000E+00

     total cpu time spent up to now is      120.8 secs

     total energy              =   -4441.66356998 Ry
     estimated scf accuracy    <       3.97659237 Ry

     iteration #  8     ecut=    60.00 Ry     beta= 0.15
     Davidson diagonalization with overlap

---- Real-time Memory Report at c_bands before calling an iterative solver
             0 MiB given to the printing process from OS
             0 MiB allocation reported by mallinfo(arena+hblkhd)
         23325 MiB available memory on the node where the printing process lives
------------------
     ethr =  9.23E-04,  avg # of iterations =  4.1

     negative rho (up, down):  7.732E-01 0.000E+00

     total cpu time spent up to now is      140.0 secs

     total energy              =   -4441.44387302 Ry
     estimated scf accuracy    <      18.11495425 Ry

     iteration #  9     ecut=    60.00 Ry     beta= 0.15
     Davidson diagonalization with overlap

---- Real-time Memory Report at c_bands before calling an iterative solver
             0 MiB given to the printing process from OS
             0 MiB allocation reported by mallinfo(arena+hblkhd)
         23218 MiB available memory on the node where the printing process lives
------------------
     ethr =  9.23E-04,  avg # of iterations =  9.6

     negative rho (up, down):  7.707E-01 0.000E+00

     total cpu time spent up to now is      162.3 secs

     total energy              =   -4441.74010594 Ry
     estimated scf accuracy    <       3.21208267 Ry

     iteration # 10     ecut=    60.00 Ry     beta= 0.15
     Davidson diagonalization with overlap

---- Real-time Memory Report at c_bands before calling an iterative solver
             0 MiB given to the printing process from OS
             0 MiB allocation reported by mallinfo(arena+hblkhd)
         22872 MiB available memory on the node where the printing process lives
------------------
     ethr =  7.45E-04,  avg # of iterations =  1.4

     negative rho (up, down):  7.755E-01 0.000E+00

     total cpu time spent up to now is      178.1 secs

     total energy              =   -4441.90927907 Ry
     estimated scf accuracy    <       1.38450661 Ry

     iteration # 11     ecut=    60.00 Ry     beta= 0.15
     Davidson diagonalization with overlap

---- Real-time Memory Report at c_bands before calling an iterative solver
             0 MiB given to the printing process from OS
             0 MiB allocation reported by mallinfo(arena+hblkhd)
         22855 MiB available memory on the node where the printing process lives
------------------
     ethr =  3.21E-04,  avg # of iterations =  1.8

     negative rho (up, down):  8.068E-01 0.000E+00

     total cpu time spent up to now is      194.8 secs

     total energy              =   -4441.73502167 Ry
     estimated scf accuracy    <       1.12095002 Ry

     iteration # 12     ecut=    60.00 Ry     beta= 0.15
     Davidson diagonalization with overlap

---- Real-time Memory Report at c_bands before calling an iterative solver
             0 MiB given to the printing process from OS
             0 MiB allocation reported by mallinfo(arena+hblkhd)
         22868 MiB available memory on the node where the printing process lives
------------------
     ethr =  2.60E-04,  avg # of iterations =  6.1

     negative rho (up, down):  8.188E-01 0.000E+00

     total cpu time spent up to now is      213.8 secs

     total energy              =   -4441.86536637 Ry
     estimated scf accuracy    <       1.46767298 Ry

     iteration # 13     ecut=    60.00 Ry     beta= 0.15
     Davidson diagonalization with overlap

---- Real-time Memory Report at c_bands before calling an iterative solver
             0 MiB given to the printing process from OS
             0 MiB allocation reported by mallinfo(arena+hblkhd)
         22834 MiB available memory on the node where the printing process lives
------------------
     ethr =  2.60E-04,  avg # of iterations =  9.0

     negative rho (up, down):  8.192E-01 0.000E+00

     total cpu time spent up to now is      235.1 secs

     total energy              =   -4441.80401597 Ry
     estimated scf accuracy    <       0.99584619 Ry

     iteration # 14     ecut=    60.00 Ry     beta= 0.15
     Davidson diagonalization with overlap

---- Real-time Memory Report at c_bands before calling an iterative solver
             0 MiB given to the printing process from OS
             0 MiB allocation reported by mallinfo(arena+hblkhd)
         22806 MiB available memory on the node where the printing process lives
------------------
     ethr =  2.31E-04,  avg # of iterations =  2.5

     negative rho (up, down):  8.183E-01 0.000E+00

     total cpu time spent up to now is      251.7 secs

     total energy              =   -4441.75822355 Ry
     estimated scf accuracy    <       0.41840745 Ry

     iteration # 15     ecut=    60.00 Ry     beta= 0.15
     Davidson diagonalization with overlap

---- Real-time Memory Report at c_bands before calling an iterative solver
             0 MiB given to the printing process from OS
             0 MiB allocation reported by mallinfo(arena+hblkhd)
         22806 MiB available memory on the node where the printing process lives
------------------
     ethr =  9.71E-05,  avg # of iterations =  8.6

     negative rho (up, down):  8.275E-01 0.000E+00

     total cpu time spent up to now is      272.7 secs

     total energy              =   -4441.72566643 Ry
     estimated scf accuracy    <       0.28415923 Ry

     iteration # 16     ecut=    60.00 Ry     beta= 0.15
     Davidson diagonalization with overlap

---- Real-time Memory Report at c_bands before calling an iterative solver
             0 MiB given to the printing process from OS
             0 MiB allocation reported by mallinfo(arena+hblkhd)
         22803 MiB available memory on the node where the printing process lives
------------------
     c_bands:  1 eigenvalues not converged
     ethr =  6.59E-05,  avg # of iterations = 13.7

     negative rho (up, down):  8.304E-01 0.000E+00

     total cpu time spent up to now is      295.9 secs

     total energy              =   -4441.72575940 Ry
     estimated scf accuracy    <       0.27256203 Ry

     iteration # 17     ecut=    60.00 Ry     beta= 0.15
     Davidson diagonalization with overlap

---- Real-time Memory Report at c_bands before calling an iterative solver
             0 MiB given to the printing process from OS
             0 MiB allocation reported by mallinfo(arena+hblkhd)
         22790 MiB available memory on the node where the printing process lives
------------------
     ethr =  6.32E-05,  avg # of iterations =  1.2

     negative rho (up, down):  8.227E-01 0.000E+00

     total cpu time spent up to now is      311.5 secs

     total energy              =   -4441.70486182 Ry
     estimated scf accuracy    <       0.21971584 Ry

     iteration # 18     ecut=    60.00 Ry     beta= 0.15
     Davidson diagonalization with overlap

---- Real-time Memory Report at c_bands before calling an iterative solver
             0 MiB given to the printing process from OS
             0 MiB allocation reported by mallinfo(arena+hblkhd)
         22784 MiB available memory on the node where the printing process lives
------------------
     ethr =  5.10E-05,  avg # of iterations =  3.8

     negative rho (up, down):  8.196E-01 0.000E+00

     total cpu time spent up to now is      329.9 secs

     total energy              =   -4441.68137134 Ry
     estimated scf accuracy    <       0.14706360 Ry

     iteration # 19     ecut=    60.00 Ry     beta= 0.15
     Davidson diagonalization with overlap

---- Real-time Memory Report at c_bands before calling an iterative solver
             0 MiB given to the printing process from OS
             0 MiB allocation reported by mallinfo(arena+hblkhd)
         22781 MiB available memory on the node where the printing process lives
------------------
     ethr =  3.41E-05,  avg # of iterations =  9.8

     negative rho (up, down):  8.299E-01 0.000E+00

     total cpu time spent up to now is      351.5 secs

     total energy              =   -4441.67061749 Ry
     estimated scf accuracy    <       0.10255071 Ry

     iteration # 20     ecut=    60.00 Ry     beta= 0.15
     Davidson diagonalization with overlap

---- Real-time Memory Report at c_bands before calling an iterative solver
             0 MiB given to the printing process from OS
             0 MiB allocation reported by mallinfo(arena+hblkhd)
         22700 MiB available memory on the node where the printing process lives
------------------
     ethr =  2.38E-05,  avg # of iterations =  5.2

     negative rho (up, down):  8.187E-01 0.000E+00

     total cpu time spent up to now is      370.2 secs

     total energy              =   -4441.66799468 Ry
     estimated scf accuracy    <       0.05317923 Ry

     iteration # 21     ecut=    60.00 Ry     beta= 0.15
     Davidson diagonalization with overlap

---- Real-time Memory Report at c_bands before calling an iterative solver
             0 MiB given to the printing process from OS
             0 MiB allocation reported by mallinfo(arena+hblkhd)
         22695 MiB available memory on the node where the printing process lives
------------------
     ethr =  1.23E-05,  avg # of iterations = 11.4

     negative rho (up, down):  8.109E-01 0.000E+00

     total cpu time spent up to now is      392.7 secs

     total energy              =   -4441.66595247 Ry
     estimated scf accuracy    <       0.03258145 Ry

     iteration # 22     ecut=    60.00 Ry     beta= 0.15
     Davidson diagonalization with overlap

---- Real-time Memory Report at c_bands before calling an iterative solver
             0 MiB given to the printing process from OS
             0 MiB allocation reported by mallinfo(arena+hblkhd)
         22671 MiB available memory on the node where the printing process lives
------------------
     ethr =  7.56E-06,  avg # of iterations =  5.1

     negative rho (up, down):  8.017E-01 0.000E+00

     total cpu time spent up to now is      411.7 secs

     total energy              =   -4441.66419408 Ry
     estimated scf accuracy    <       0.01911019 Ry

     iteration # 23     ecut=    60.00 Ry     beta= 0.15
     Davidson diagonalization with overlap

---- Real-time Memory Report at c_bands before calling an iterative solver
             0 MiB given to the printing process from OS
             0 MiB allocation reported by mallinfo(arena+hblkhd)
         22711 MiB available memory on the node where the printing process lives
------------------
     c_bands:  2 eigenvalues not converged
     ethr =  4.43E-06,  avg # of iterations = 11.4

     negative rho (up, down):  7.937E-01 0.000E+00

     total cpu time spent up to now is      433.9 secs

     total energy              =   -4441.66216509 Ry
     estimated scf accuracy    <       0.01294890 Ry

     iteration # 24     ecut=    60.00 Ry     beta= 0.15
     Davidson diagonalization with overlap

---- Real-time Memory Report at c_bands before calling an iterative solver
             0 MiB given to the printing process from OS
             0 MiB allocation reported by mallinfo(arena+hblkhd)
         22710 MiB available memory on the node where the printing process lives
------------------
     c_bands:  1 eigenvalues not converged
     c_bands:  1 eigenvalues not converged
     ethr =  3.00E-06,  avg # of iterations = 13.4

     negative rho (up, down):  8.005E-01 0.000E+00

     total cpu time spent up to now is      457.4 secs

     total energy              =   -4441.66126061 Ry
     estimated scf accuracy    <       0.00763998 Ry

     iteration # 25     ecut=    60.00 Ry     beta= 0.15
     Davidson diagonalization with overlap

---- Real-time Memory Report at c_bands before calling an iterative solver
             0 MiB given to the printing process from OS
             0 MiB allocation reported by mallinfo(arena+hblkhd)
         22696 MiB available memory on the node where the printing process lives
------------------
     ethr =  1.77E-06,  avg # of iterations = 10.8

     negative rho (up, down):  7.991E-01 0.000E+00

     total cpu time spent up to now is      480.8 secs

     total energy              =   -4441.66155221 Ry
     estimated scf accuracy    <       0.00178363 Ry

     iteration # 26     ecut=    60.00 Ry     beta= 0.15
     Davidson diagonalization with overlap

---- Real-time Memory Report at c_bands before calling an iterative solver
             0 MiB given to the printing process from OS
             0 MiB allocation reported by mallinfo(arena+hblkhd)
         22635 MiB available memory on the node where the printing process lives
------------------
     ethr =  4.14E-07,  avg # of iterations =  6.1

     negative rho (up, down):  7.995E-01 0.000E+00

     total cpu time spent up to now is      500.3 secs

     total energy              =   -4441.66164115 Ry
     estimated scf accuracy    <       0.00118881 Ry

     iteration # 27     ecut=    60.00 Ry     beta= 0.15
     Davidson diagonalization with overlap

---- Real-time Memory Report at c_bands before calling an iterative solver
             0 MiB given to the printing process from OS
             0 MiB allocation reported by mallinfo(arena+hblkhd)
         22678 MiB available memory on the node where the printing process lives
------------------
     ethr =  2.76E-07,  avg # of iterations =  7.5

     negative rho (up, down):  7.985E-01 0.000E+00

     total cpu time spent up to now is      520.7 secs

     total energy              =   -4441.66162700 Ry
     estimated scf accuracy    <       0.00063162 Ry

     iteration # 28     ecut=    60.00 Ry     beta= 0.15
     Davidson diagonalization with overlap

---- Real-time Memory Report at c_bands before calling an iterative solver
             0 MiB given to the printing process from OS
             0 MiB allocation reported by mallinfo(arena+hblkhd)
         22742 MiB available memory on the node where the printing process lives
------------------
     ethr =  1.47E-07,  avg # of iterations =  3.9

     negative rho (up, down):  7.968E-01 0.000E+00

     total cpu time spent up to now is      540.1 secs

     total energy              =   -4441.66165474 Ry
     estimated scf accuracy    <       0.00022915 Ry

     iteration # 29     ecut=    60.00 Ry     beta= 0.15
     Davidson diagonalization with overlap

---- Real-time Memory Report at c_bands before calling an iterative solver
             0 MiB given to the printing process from OS
             0 MiB allocation reported by mallinfo(arena+hblkhd)
         22690 MiB available memory on the node where the printing process lives
------------------
     ethr =  5.32E-08,  avg # of iterations =  2.1

     negative rho (up, down):  7.944E-01 0.000E+00

     total cpu time spent up to now is      557.0 secs

     total energy              =   -4441.66161201 Ry
     estimated scf accuracy    <       0.00015958 Ry

     iteration # 30     ecut=    60.00 Ry     beta= 0.15
     Davidson diagonalization with overlap

---- Real-time Memory Report at c_bands before calling an iterative solver
             0 MiB given to the printing process from OS
             0 MiB allocation reported by mallinfo(arena+hblkhd)
         22700 MiB available memory on the node where the printing process lives
------------------
     c_bands:  1 eigenvalues not converged
     ethr =  3.70E-08,  avg # of iterations =  8.5

     negative rho (up, down):  7.923E-01 0.000E+00

     total cpu time spent up to now is      576.8 secs

     total energy              =   -4441.66159796 Ry
     estimated scf accuracy    <       0.00009905 Ry

     iteration # 31     ecut=    60.00 Ry     beta= 0.15
     Davidson diagonalization with overlap

---- Real-time Memory Report at c_bands before calling an iterative solver
             0 MiB given to the printing process from OS
             0 MiB allocation reported by mallinfo(arena+hblkhd)
         22718 MiB available memory on the node where the printing process lives
------------------
     ethr =  2.30E-08,  avg # of iterations =  4.5

     negative rho (up, down):  7.920E-01 0.000E+00

     total cpu time spent up to now is      595.2 secs

     total energy              =   -4441.66159276 Ry
     estimated scf accuracy    <       0.00003745 Ry

     iteration # 32     ecut=    60.00 Ry     beta= 0.15
     Davidson diagonalization with overlap

---- Real-time Memory Report at c_bands before calling an iterative solver
             0 MiB given to the printing process from OS
             0 MiB allocation reported by mallinfo(arena+hblkhd)
         22767 MiB available memory on the node where the printing process lives
------------------
     ethr =  8.69E-09,  avg # of iterations =  4.3

     negative rho (up, down):  7.920E-01 0.000E+00

     total cpu time spent up to now is      613.4 secs

     total energy              =   -4441.66158975 Ry
     estimated scf accuracy    <       0.00001647 Ry

     iteration # 33     ecut=    60.00 Ry     beta= 0.15
     Davidson diagonalization with overlap

---- Real-time Memory Report at c_bands before calling an iterative solver
             0 MiB given to the printing process from OS
             0 MiB allocation reported by mallinfo(arena+hblkhd)
         22761 MiB available memory on the node where the printing process lives
------------------
     ethr =  3.82E-09,  avg # of iterations =  4.2

     negative rho (up, down):  7.920E-01 0.000E+00

     total cpu time spent up to now is      631.3 secs

     total energy              =   -4441.66158716 Ry
     estimated scf accuracy    <       0.00001249 Ry

     iteration # 34     ecut=    60.00 Ry     beta= 0.15
     Davidson diagonalization with overlap

---- Real-time Memory Report at c_bands before calling an iterative solver
             0 MiB given to the printing process from OS
             0 MiB allocation reported by mallinfo(arena+hblkhd)
         22761 MiB available memory on the node where the printing process lives
------------------
     ethr =  2.90E-09,  avg # of iterations =  2.7

     negative rho (up, down):  7.921E-01 0.000E+00

     total cpu time spent up to now is      648.7 secs

     total energy              =   -4441.66158773 Ry
     estimated scf accuracy    <       0.00001035 Ry

     iteration # 35     ecut=    60.00 Ry     beta= 0.15
     Davidson diagonalization with overlap

---- Real-time Memory Report at c_bands before calling an iterative solver
             0 MiB given to the printing process from OS
             0 MiB allocation reported by mallinfo(arena+hblkhd)
         22764 MiB available memory on the node where the printing process lives
------------------
     ethr =  2.40E-09,  avg # of iterations =  2.2

     negative rho (up, down):  7.923E-01 0.000E+00

     total cpu time spent up to now is      666.1 secs

     total energy              =   -4441.66159863 Ry
     estimated scf accuracy    <       0.00000850 Ry

     iteration # 36     ecut=    60.00 Ry     beta= 0.15
     Davidson diagonalization with overlap

---- Real-time Memory Report at c_bands before calling an iterative solver
             0 MiB given to the printing process from OS
             0 MiB allocation reported by mallinfo(arena+hblkhd)
         22767 MiB available memory on the node where the printing process lives
------------------
     ethr =  1.97E-09,  avg # of iterations =  3.0

     negative rho (up, down):  7.924E-01 0.000E+00

     total cpu time spent up to now is      684.0 secs

     total energy              =   -4441.66160398 Ry
     estimated scf accuracy    <       0.00000561 Ry

     iteration # 37     ecut=    60.00 Ry     beta= 0.15
     Davidson diagonalization with overlap

---- Real-time Memory Report at c_bands before calling an iterative solver
             0 MiB given to the printing process from OS
             0 MiB allocation reported by mallinfo(arena+hblkhd)
         22774 MiB available memory on the node where the printing process lives
------------------
     ethr =  1.30E-09,  avg # of iterations =  3.7

     negative rho (up, down):  7.926E-01 0.000E+00

     total cpu time spent up to now is      702.2 secs

     total energy              =   -4441.66160569 Ry
     estimated scf accuracy    <       0.00000305 Ry

     iteration # 38     ecut=    60.00 Ry     beta= 0.15
     Davidson diagonalization with overlap

---- Real-time Memory Report at c_bands before calling an iterative solver
             0 MiB given to the printing process from OS
             0 MiB allocation reported by mallinfo(arena+hblkhd)
         22770 MiB available memory on the node where the printing process lives
------------------
     ethr =  7.08E-10,  avg # of iterations =  3.9

     negative rho (up, down):  7.927E-01 0.000E+00

     total cpu time spent up to now is      719.9 secs

     total energy              =   -4441.66160575 Ry
     estimated scf accuracy    <       0.00000170 Ry

     iteration # 39     ecut=    60.00 Ry     beta= 0.15
     Davidson diagonalization with overlap

---- Real-time Memory Report at c_bands before calling an iterative solver
             0 MiB given to the printing process from OS
             0 MiB allocation reported by mallinfo(arena+hblkhd)
         22783 MiB available memory on the node where the printing process lives
------------------
     ethr =  3.94E-10,  avg # of iterations =  3.1

     negative rho (up, down):  7.927E-01 0.000E+00

     total cpu time spent up to now is      737.3 secs

     total energy              =   -4441.66160563 Ry
     estimated scf accuracy    <       0.00000086 Ry

     iteration # 40     ecut=    60.00 Ry     beta= 0.15
     Davidson diagonalization with overlap

---- Real-time Memory Report at c_bands before calling an iterative solver
             0 MiB given to the printing process from OS
             0 MiB allocation reported by mallinfo(arena+hblkhd)
         22777 MiB available memory on the node where the printing process lives
------------------
     ethr =  1.98E-10,  avg # of iterations =  2.8

     negative rho (up, down):  7.927E-01 0.000E+00

     total cpu time spent up to now is      754.5 secs

     total energy              =   -4441.66160561 Ry
     estimated scf accuracy    <       0.00000042 Ry

     iteration # 41     ecut=    60.00 Ry     beta= 0.15
     Davidson diagonalization with overlap

---- Real-time Memory Report at c_bands before calling an iterative solver
             0 MiB given to the printing process from OS
             0 MiB allocation reported by mallinfo(arena+hblkhd)
         22789 MiB available memory on the node where the printing process lives
------------------
     ethr =  9.81E-11,  avg # of iterations =  2.1

     negative rho (up, down):  7.926E-01 0.000E+00

     total cpu time spent up to now is      771.5 secs

     total energy              =   -4441.66160581 Ry
     estimated scf accuracy    <       0.00000027 Ry

     iteration # 42     ecut=    60.00 Ry     beta= 0.15
     Davidson diagonalization with overlap

---- Real-time Memory Report at c_bands before calling an iterative solver
             0 MiB given to the printing process from OS
             0 MiB allocation reported by mallinfo(arena+hblkhd)
         22791 MiB available memory on the node where the printing process lives
------------------
     ethr =  6.32E-11,  avg # of iterations =  3.1

     negative rho (up, down):  7.925E-01 0.000E+00

     total cpu time spent up to now is      789.0 secs

     total energy              =   -4441.66160595 Ry
     estimated scf accuracy    <       0.00000011 Ry

     iteration # 43     ecut=    60.00 Ry     beta= 0.15
     Davidson diagonalization with overlap

---- Real-time Memory Report at c_bands before calling an iterative solver
             0 MiB given to the printing process from OS
             0 MiB allocation reported by mallinfo(arena+hblkhd)
         22794 MiB available memory on the node where the printing process lives
------------------
     ethr =  2.59E-11,  avg # of iterations =  3.7

     negative rho (up, down):  7.925E-01 0.000E+00

     total cpu time spent up to now is      806.8 secs

     total energy              =   -4441.66160600 Ry
     estimated scf accuracy    <       0.00000007 Ry

     iteration # 44     ecut=    60.00 Ry     beta= 0.15
     Davidson diagonalization with overlap

---- Real-time Memory Report at c_bands before calling an iterative solver
             0 MiB given to the printing process from OS
             0 MiB allocation reported by mallinfo(arena+hblkhd)
         22791 MiB available memory on the node where the printing process lives
------------------
     ethr =  1.58E-11,  avg # of iterations =  2.8

     negative rho (up, down):  7.925E-01 0.000E+00

     total cpu time spent up to now is      823.9 secs

     total energy              =   -4441.66160602 Ry
     estimated scf accuracy    <       0.00000005 Ry

     iteration # 45     ecut=    60.00 Ry     beta= 0.15
     Davidson diagonalization with overlap

---- Real-time Memory Report at c_bands before calling an iterative solver
             0 MiB given to the printing process from OS
             0 MiB allocation reported by mallinfo(arena+hblkhd)
         22791 MiB available memory on the node where the printing process lives
------------------
     ethr =  1.05E-11,  avg # of iterations =  3.0

     negative rho (up, down):  7.925E-01 0.000E+00

     total cpu time spent up to now is      841.2 secs

     total energy              =   -4441.66160602 Ry
     estimated scf accuracy    <       0.00000003 Ry

     iteration # 46     ecut=    60.00 Ry     beta= 0.15
     Davidson diagonalization with overlap

---- Real-time Memory Report at c_bands before calling an iterative solver
             0 MiB given to the printing process from OS
             0 MiB allocation reported by mallinfo(arena+hblkhd)
         22792 MiB available memory on the node where the printing process lives
------------------
     ethr =  7.32E-12,  avg # of iterations =  2.7

     negative rho (up, down):  7.925E-01 0.000E+00

     total cpu time spent up to now is      858.5 secs

     total energy              =   -4441.66160602 Ry
     estimated scf accuracy    <       0.00000001 Ry

     iteration # 47     ecut=    60.00 Ry     beta= 0.15
     Davidson diagonalization with overlap

---- Real-time Memory Report at c_bands before calling an iterative solver
             0 MiB given to the printing process from OS
             0 MiB allocation reported by mallinfo(arena+hblkhd)
         22792 MiB available memory on the node where the printing process lives
------------------
     ethr =  3.00E-12,  avg # of iterations =  2.6

     negative rho (up, down):  7.925E-01 0.000E+00

     total cpu time spent up to now is      875.4 secs

     End of self-consistent calculation

          k = 0.0000 0.0000 0.0000 ( 65197 PWs)   bands (ev):

   -92.6915 -92.6400 -92.5456 -92.4995 -92.4404 -92.3978 -92.3809 -92.2623
   -56.0449 -56.0268 -55.9029 -55.8922 -55.8865 -55.8790 -55.8443 -55.8148
   -55.7996 -55.7973 -55.7900 -55.7480 -55.7301 -55.6914 -55.6721 -55.6403
   -55.6350 -55.5872 -55.5864 -55.5831 -55.5747 -55.5371 -55.5111 -55.4281
   -31.2693 -31.2497 -31.1255 -31.1081 -31.0210 -30.9769 -30.8708 -30.4904
   -29.8397 -29.7950 -29.7693 -29.6605 -15.0717 -15.0230 -14.9465 -14.8161
   -14.6212 -14.4977 -14.2101 -14.1880 -14.1608 -14.1149 -14.0667 -14.0529
   -14.0479 -14.0278 -14.0114 -13.9773 -13.9624 -13.9210 -13.7691 -13.5884
   -13.5575 -13.5269 -13.4937 -13.4779 -13.4235 -13.3904 -13.3138 -13.2416
   -13.1290 -13.1125 -13.1013 -13.0842 -13.0660 -13.0477 -12.9967 -12.9923
   -12.9651 -12.9464 -12.9194 -12.9149 -12.9016 -12.8876 -12.8565 -12.7960
   -12.7784 -12.7570 -12.5224 -12.5183 -12.4201 -12.3335 -12.1878 -11.9656
   -11.8909 -11.8515 -11.7784 -11.7671 -11.7431 -11.7253 -11.6624 -11.6450
   -11.6107 -11.5823 -11.4684 -11.3899 -11.3862  -2.9313  -2.6993  -2.4698
    -2.3224  -2.2597  -2.1180  -1.8106  -1.7963  -1.7772  -1.6920  -1.6726
    -1.6047  -1.5883  -1.5480  -1.5024  -1.3221  -1.1653  -1.0956  -1.0661
    -0.9215  -0.9067  -0.8595  -0.8405  -0.7956  -0.7792  -0.7240  -0.6975
    -0.6236  -0.6096  -0.5374  -0.4060  -0.3932  -0.3631  -0.2828  -0.2636
    -0.2437  -0.1882  -0.1180  -0.0728  -0.0195   0.0057   0.0763   0.1510
     0.1907   0.2176   0.2359   0.4852   0.4969   0.6712   0.7358   0.8013
     0.8650   0.9390   0.9517   0.9729   1.0319   1.0604   1.0944   1.1517
     1.2833   1.3422   1.3639   1.3888   1.3959   1.4595   1.5309   1.6382
     1.6528   1.7136   1.7257   1.7680   1.7898   1.7972   1.8533   1.9120
     1.9252   1.9590   2.0087   2.0387   2.1710   2.2521   2.2944   2.3235
     2.4609   2.4649   2.4815   2.4894   2.5220   2.5231   2.6405   2.6685
     2.6962   2.7145   2.7290   2.8103   2.9171   2.9492   2.9609   2.9672
     3.0350   3.0386   3.0630   3.0711   3.0802   3.0925   3.0990   3.1125
     3.1185   3.1314   3.1401   3.1472   3.1666   3.1873   3.1929   3.2043
     3.2298   3.3450   3.4264   4.1179   4.4395   4.7764   4.8704   5.0563
     5.7546   5.9467   5.9932   6.0240   6.3235   6.3706   6.4849   6.4929
     6.7243   7.0124   7.1019   7.3213   7.4065   7.6211   7.6718   7.6815
     7.7006   7.8561   7.9365   8.0195   8.1178   8.1688   8.4096   8.5492
     8.7118   8.8079   8.8687

     occupation numbers 
     1.0000   1.0000   1.0000   1.0000   1.0000   1.0000   1.0000   1.0000
     1.0000   1.0000   1.0000   1.0000   1.0000   1.0000   1.0000   1.0000
     1.0000   1.0000   1.0000   1.0000   1.0000   1.0000   1.0000   1.0000
     1.0000   1.0000   1.0000   1.0000   1.0000   1.0000   1.0000   1.0000
     1.0000   1.0000   1.0000   1.0000   1.0000   1.0000   1.0000   1.0000
     1.0000   1.0000   1.0000   1.0000   1.0000   1.0000   1.0000   1.0000
     1.0000   1.0000   1.0000   1.0000   1.0000   1.0000   1.0000   1.0000
     1.0000   1.0000   1.0000   1.0000   1.0000   1.0000   1.0000   1.0000
     1.0000   1.0000   1.0000   1.0000   1.0000   1.0000   1.0000   1.0000
     1.0000   1.0000   1.0000   1.0000   1.0000   1.0000   1.0000   1.0000
     1.0000   1.0000   1.0000   1.0000   1.0000   1.0000   1.0000   1.0000
     1.0000   1.0000   1.0000   1.0000   1.0000   1.0000   1.0000   1.0000
     1.0000   1.0000   1.0000   1.0000   1.0000   1.0000   1.0000   1.0000
     1.0000   1.0000   1.0000   1.0000   1.0000   1.0000   1.0000   1.0000
     1.0000   1.0000   1.0000   1.0000   1.0000   1.0000   1.0000   1.0000
     1.0000   1.0000   1.0000   1.0000   1.0000   1.0000   1.0000   1.0000
     1.0000   1.0000   1.0000   1.0000   1.0000   1.0000   1.0000   1.0000
     1.0000   1.0000   1.0000   1.0000   1.0000   1.0000   1.0000   1.0000
     1.0000   1.0000   1.0000   1.0000   1.0000   1.0000   1.0000   1.0000
     1.0000   1.0000   1.0000   1.0000   1.0000   1.0000   0.9999   0.9999
     0.9999   0.9998   0.9998   0.9998   0.9997   0.9996   0.9996   0.9994
     0.9988   0.9985   0.9983   0.9981   0.9980   0.9973   0.9963   0.9942
     0.9938   0.9920   0.9916   0.9901   0.9892   0.9888   0.9862   0.9828
     0.9819   0.9796   0.9756   0.9730   0.9582   0.9463   0.9390   0.9337
     0.9031   0.9021   0.8978   0.8957   0.8867   0.8863   0.8492   0.8392
     0.8290   0.8220   0.8163   0.7825   0.7331   0.7172   0.7113   0.7081
     0.6726   0.6707   0.6575   0.6531   0.6480   0.6413   0.6376   0.6301
     0.6267   0.6194   0.6145   0.6105   0.5994   0.5875   0.5842   0.5776
     0.5627   0.4948   0.4467   0.1228   0.0507   0.0162   0.0114   0.0053
     0.0002   0.0001   0.0000   0.0000   0.0000   0.0000   0.0000   0.0000
     0.0000   0.0000   0.0000   0.0000   0.0000   0.0000   0.0000   0.0000
     0.0000   0.0000   0.0000   0.0000   0.0000   0.0000   0.0000   0.0000
     0.0000   0.0000   0.0000

          k = 0.0000 0.2500 0.0000 ( 65257 PWs)   bands (ev):

   -92.6915 -92.6400 -92.5456 -92.4995 -92.4404 -92.3978 -92.3809 -92.2623
   -56.0449 -56.0268 -55.9029 -55.8922 -55.8865 -55.8790 -55.8443 -55.8148
   -55.7996 -55.7973 -55.7900 -55.7480 -55.7301 -55.6914 -55.6721 -55.6403
   -55.6350 -55.5872 -55.5864 -55.5831 -55.5747 -55.5371 -55.5111 -55.4281
   -31.2691 -31.2496 -31.1253 -31.1083 -31.0211 -30.9771 -30.8707 -30.4905
   -29.8391 -29.7947 -29.7700 -29.6608 -15.0354 -14.9964 -14.9211 -14.7869
   -14.6626 -14.4890 -14.3538 -14.1756 -14.1390 -14.1199 -14.0912 -14.0322
   -14.0258 -14.0091 -13.9920 -13.9660 -13.9436 -13.8391 -13.8002 -13.6384
   -13.6146 -13.5689 -13.5315 -13.4829 -13.4437 -13.3986 -13.3340 -13.2993
   -13.2340 -13.1602 -13.1387 -13.1046 -13.0964 -13.0681 -12.9824 -12.9592
   -12.9298 -12.9189 -12.8934 -12.8647 -12.8584 -12.8316 -12.8008 -12.7866
   -12.7157 -12.6680 -12.4739 -12.4347 -12.4101 -12.3947 -12.2390 -12.0163
   -11.9498 -11.8168 -11.7752 -11.7466 -11.7180 -11.7013 -11.6543 -11.6431
   -11.6205 -11.5871 -11.4827 -11.4313 -11.4209  -2.7959  -2.5749  -2.4370
    -2.2552  -2.2117  -2.0482  -1.8287  -1.7444  -1.7314  -1.6727  -1.5713
    -1.5550  -1.5208  -1.4942  -1.4503  -1.2545  -1.1658  -1.1233  -1.1097
    -1.0349  -1.0254  -0.9209  -0.8922  -0.8329  -0.8080  -0.7681  -0.7039
    -0.6773  -0.6449  -0.6128  -0.5948  -0.5637  -0.4903  -0.4387  -0.3675
    -0.2611  -0.2378  -0.1976  -0.0816  -0.0458   0.0209   0.0665   0.1371
     0.1609   0.1728   0.2300   0.5329   0.6184   0.6480   0.7407   0.7872
     0.8216   0.9229   0.9455   1.0356   1.0614   1.0872   1.2025   1.2967
     1.3170   1.3417   1.3627   1.3854   1.4452   1.4725   1.4996   1.5470
     1.5840   1.6132   1.6971   1.7326   1.7718   1.8215   1.8738   1.9173
     1.9497   1.9787   1.9890   2.0878   2.2032   2.2785   2.3076   2.3696
     2.4167   2.4541   2.4629   2.4678   2.4855   2.5304   2.5643   2.6571
     2.6907   2.7070   2.8748   2.8967   2.9300   2.9518   2.9682   2.9765
     2.9838   2.9937   3.0230   3.0258   3.0441   3.0483   3.0580   3.0758
     3.0876   3.0953   3.1177   3.1285   3.1335   3.1684   3.1846   3.2456
     3.6131   3.6507   3.8921   4.3111   4.4334   4.7184   5.0230   5.0807
     5.6494   5.8149   5.9216   5.9904   6.0920   6.1170   6.1918   6.6014
     6.8173   7.0820   7.1358   7.3361   7.4870   7.5065   7.5981   7.6524
     7.8539   7.8978   8.0069   8.1727   8.2580   8.3685   8.4146   8.5112
     8.5908   8.8283   8.9420

     occupation numbers 
     1.0000   1.0000   1.0000   1.0000   1.0000   1.0000   1.0000   1.0000
     1.0000   1.0000   1.0000   1.0000   1.0000   1.0000   1.0000   1.0000
     1.0000   1.0000   1.0000   1.0000   1.0000   1.0000   1.0000   1.0000
     1.0000   1.0000   1.0000   1.0000   1.0000   1.0000   1.0000   1.0000
     1.0000   1.0000   1.0000   1.0000   1.0000   1.0000   1.0000   1.0000
     1.0000   1.0000   1.0000   1.0000   1.0000   1.0000   1.0000   1.0000
     1.0000   1.0000   1.0000   1.0000   1.0000   1.0000   1.0000   1.0000
     1.0000   1.0000   1.0000   1.0000   1.0000   1.0000   1.0000   1.0000
     1.0000   1.0000   1.0000   1.0000   1.0000   1.0000   1.0000   1.0000
     1.0000   1.0000   1.0000   1.0000   1.0000   1.0000   1.0000   1.0000
     1.0000   1.0000   1.0000   1.0000   1.0000   1.0000   1.0000   1.0000
     1.0000   1.0000   1.0000   1.0000   1.0000   1.0000   1.0000   1.0000
     1.0000   1.0000   1.0000   1.0000   1.0000   1.0000   1.0000   1.0000
     1.0000   1.0000   1.0000   1.0000   1.0000   1.0000   1.0000   1.0000
     1.0000   1.0000   1.0000   1.0000   1.0000   1.0000   1.0000   1.0000
     1.0000   1.0000   1.0000   1.0000   1.0000   1.0000   1.0000   1.0000
     1.0000   1.0000   1.0000   1.0000   1.0000   1.0000   1.0000   1.0000
     1.0000   1.0000   1.0000   1.0000   1.0000   1.0000   1.0000   1.0000
     1.0000   1.0000   1.0000   1.0000   1.0000   1.0000   1.0000   1.0000
     1.0000   1.0000   1.0000   1.0000   1.0000   1.0000   0.9999   0.9999
     0.9999   0.9998   0.9998   0.9997   0.9996   0.9996   0.9992   0.9988
     0.9986   0.9985   0.9983   0.9981   0.9975   0.9972   0.9968   0.9961
     0.9954   0.9947   0.9925   0.9914   0.9899   0.9877   0.9851   0.9824
     0.9802   0.9781   0.9773   0.9681   0.9537   0.9419   0.9367   0.9244
     0.9139   0.9049   0.9026   0.9014   0.8967   0.8842   0.8741   0.8433
     0.8311   0.8249   0.7533   0.7430   0.7268   0.7159   0.7076   0.7033
     0.6996   0.6945   0.6790   0.6776   0.6678   0.6655   0.6602   0.6505
     0.6440   0.6397   0.6271   0.6211   0.6183   0.5983   0.5890   0.5535
     0.3404   0.3202   0.2045   0.0738   0.0516   0.0201   0.0061   0.0048
     0.0003   0.0001   0.0001   0.0000   0.0000   0.0000   0.0000   0.0000
     0.0000   0.0000   0.0000   0.0000   0.0000   0.0000   0.0000   0.0000
     0.0000   0.0000   0.0000   0.0000   0.0000   0.0000   0.0000   0.0000
     0.0000   0.0000   0.0000

          k = 0.0000-0.5000 0.0000 ( 65180 PWs)   bands (ev):

   -92.6915 -92.6400 -92.5456 -92.4995 -92.4404 -92.3978 -92.3809 -92.2623
   -56.0449 -56.0268 -55.9029 -55.8922 -55.8865 -55.8790 -55.8443 -55.8148
   -55.7996 -55.7973 -55.7900 -55.7480 -55.7301 -55.6914 -55.6721 -55.6403
   -55.6350 -55.5872 -55.5864 -55.5831 -55.5747 -55.5371 -55.5111 -55.4281
   -31.2689 -31.2495 -31.1251 -31.1085 -31.0213 -30.9773 -30.8706 -30.4906
   -29.8384 -29.7944 -29.7706 -29.6611 -14.9981 -14.9504 -14.8933 -14.7693
   -14.6839 -14.5502 -14.3882 -14.2739 -14.1481 -14.0753 -14.0324 -14.0278
   -13.9781 -13.9653 -13.9609 -13.9091 -13.8885 -13.8640 -13.8344 -13.7977
   -13.7483 -13.5741 -13.5150 -13.4871 -13.4471 -13.3999 -13.3493 -13.2995
   -13.2746 -13.2445 -13.2092 -13.1073 -13.0971 -13.0575 -12.9841 -12.9557
   -12.9391 -12.9198 -12.8737 -12.8598 -12.8214 -12.8036 -12.6966 -12.6766
   -12.6433 -12.6357 -12.5059 -12.4272 -12.3748 -12.3141 -12.2784 -12.0968
   -12.0428 -11.7721 -11.7687 -11.7411 -11.7039 -11.6697 -11.6586 -11.6168
   -11.6128 -11.5686 -11.5044 -11.4915 -11.4777  -2.5813  -2.5217  -2.3716
    -2.3002  -2.0180  -1.9347  -1.8065  -1.6709  -1.6309  -1.6134  -1.5342
    -1.5046  -1.4205  -1.3864  -1.3079  -1.2707  -1.2319  -1.2041  -1.1715
    -1.1319  -1.1085  -1.0611  -1.0258  -0.9909  -0.9584  -0.8483  -0.8044
    -0.7681  -0.7654  -0.6802  -0.6483  -0.6270  -0.5745  -0.4908  -0.4205
    -0.3317  -0.3012  -0.2035  -0.1584  -0.0196   0.0250   0.0451   0.1146
     0.2414   0.2794   0.4013   0.4722   0.4791   0.6053   0.6569   0.7920
     0.8851   0.9950   1.0249   1.0637   1.0715   1.1150   1.1265   1.1590
     1.1763   1.1878   1.2963   1.3592   1.3922   1.4162   1.6771   1.7092
     1.7319   1.8268   1.8595   1.8775   1.8936   1.9216   1.9387   1.9578
     1.9811   2.0128   2.0480   2.0795   2.0840   2.1106   2.1626   2.2495
     2.2774   2.4579   2.4663   2.4769   2.6124   2.6239   2.6514   2.6795
     2.6847   2.6929   2.7436   2.7561   2.8092   2.8313   2.9070   2.9236
     2.9901   2.9975   3.0196   3.0223   3.0401   3.0463   3.0511   3.0534
     3.0566   3.0690   3.0879   3.0887   3.1540   3.1579   3.1742   3.2283
     4.1507   4.1614   4.1885   4.2669   4.7582   4.9108   5.0328   5.1752
     5.4223   5.4725   5.5897   5.7395   6.0369   6.0588   6.2332   6.5145
     6.8574   6.9580   7.2267   7.3019   7.3847   7.4648   7.6895   7.7663
     7.9162   7.9396   8.1724   8.2916   8.4140   8.4944   8.5204   8.6895
     8.8039   8.8239   8.8681

     occupation numbers 
     1.0000   1.0000   1.0000   1.0000   1.0000   1.0000   1.0000   1.0000
     1.0000   1.0000   1.0000   1.0000   1.0000   1.0000   1.0000   1.0000
     1.0000   1.0000   1.0000   1.0000   1.0000   1.0000   1.0000   1.0000
     1.0000   1.0000   1.0000   1.0000   1.0000   1.0000   1.0000   1.0000
     1.0000   1.0000   1.0000   1.0000   1.0000   1.0000   1.0000   1.0000
     1.0000   1.0000   1.0000   1.0000   1.0000   1.0000   1.0000   1.0000
     1.0000   1.0000   1.0000   1.0000   1.0000   1.0000   1.0000   1.0000
     1.0000   1.0000   1.0000   1.0000   1.0000   1.0000   1.0000   1.0000
     1.0000   1.0000   1.0000   1.0000   1.0000   1.0000   1.0000   1.0000
     1.0000   1.0000   1.0000   1.0000   1.0000   1.0000   1.0000   1.0000
     1.0000   1.0000   1.0000   1.0000   1.0000   1.0000   1.0000   1.0000
     1.0000   1.0000   1.0000   1.0000   1.0000   1.0000   1.0000   1.0000
     1.0000   1.0000   1.0000   1.0000   1.0000   1.0000   1.0000   1.0000
     1.0000   1.0000   1.0000   1.0000   1.0000   1.0000   1.0000   1.0000
     1.0000   1.0000   1.0000   1.0000   1.0000   1.0000   1.0000   1.0000
     1.0000   1.0000   1.0000   1.0000   1.0000   1.0000   1.0000   1.0000
     1.0000   1.0000   1.0000   1.0000   1.0000   1.0000   1.0000   1.0000
     1.0000   1.0000   1.0000   1.0000   1.0000   1.0000   1.0000   1.0000
     1.0000   1.0000   1.0000   1.0000   1.0000   1.0000   1.0000   1.0000
     1.0000   1.0000   1.0000   1.0000   1.0000   1.0000   1.0000   0.9999
     0.9999   0.9997   0.9997   0.9996   0.9996   0.9995   0.9995   0.9994
     0.9993   0.9993   0.9988   0.9983   0.9981   0.9978   0.9931   0.9921
     0.9914   0.9875   0.9858   0.9848   0.9839   0.9822   0.9810   0.9797
     0.9779   0.9753   0.9721   0.9690   0.9685   0.9656   0.9593   0.9467
     0.9420   0.9039   0.9018   0.8990   0.8588   0.8549   0.8454   0.8352
     0.8333   0.8303   0.8105   0.8055   0.7830   0.7733   0.7380   0.7299
     0.6963   0.6925   0.6808   0.6794   0.6699   0.6665   0.6639   0.6627
     0.6610   0.6542   0.6438   0.6434   0.6066   0.6044   0.5950   0.5636
     0.1132   0.1102   0.1028   0.0835   0.0174   0.0097   0.0059   0.0032
     0.0010   0.0008   0.0004   0.0002   0.0000   0.0000   0.0000   0.0000
     0.0000   0.0000   0.0000   0.0000   0.0000   0.0000   0.0000   0.0000
     0.0000   0.0000   0.0000   0.0000   0.0000   0.0000   0.0000   0.0000
     0.0000   0.0000   0.0000

          k = 0.2500 0.2500 0.0000 ( 65198 PWs)   bands (ev):

   -92.6915 -92.6400 -92.5456 -92.4995 -92.4404 -92.3978 -92.3809 -92.2623
   -56.0449 -56.0268 -55.9029 -55.8922 -55.8865 -55.8790 -55.8443 -55.8148
   -55.7996 -55.7973 -55.7900 -55.7480 -55.7301 -55.6914 -55.6721 -55.6403
   -55.6350 -55.5872 -55.5864 -55.5831 -55.5747 -55.5371 -55.5111 -55.4281
   -31.2674 -31.2513 -31.1252 -31.1079 -31.0215 -30.9770 -30.8708 -30.4905
   -29.8381 -29.7956 -29.7696 -29.6612 -15.0064 -14.9614 -14.8929 -14.7767
   -14.6555 -14.5288 -14.4604 -14.2537 -14.0992 -14.0860 -14.0498 -14.0204
   -13.9973 -13.9666 -13.9619 -13.9379 -13.9083 -13.8302 -13.8140 -13.6545
   -13.6401 -13.6088 -13.5914 -13.5318 -13.5011 -13.4370 -13.4175 -13.2878
   -13.2358 -13.2185 -13.1348 -13.0954 -13.0665 -13.0352 -13.0095 -12.9731
   -12.9391 -12.9326 -12.9095 -12.8608 -12.8003 -12.7856 -12.7445 -12.7347
   -12.7050 -12.6375 -12.4720 -12.4439 -12.4192 -12.3094 -12.2681 -12.0352
   -12.0003 -11.7895 -11.7581 -11.7469 -11.7404 -11.6773 -11.6421 -11.6358
   -11.6007 -11.5933 -11.4994 -11.4595 -11.4423  -2.6576  -2.4491  -2.3311
    -2.2367  -2.1160  -2.0514  -1.8534  -1.7088  -1.6902  -1.6597  -1.5662
    -1.5310  -1.4378  -1.4095  -1.3598  -1.2310  -1.1900  -1.1514  -1.1068
    -1.0627  -1.0176  -0.9945  -0.9709  -0.9278  -0.9129  -0.8223  -0.7719
    -0.7059  -0.6568  -0.6269  -0.5778  -0.5630  -0.4995  -0.4512  -0.3903
    -0.3584  -0.2719  -0.2208  -0.1910  -0.1537  -0.0981  -0.0231   0.0133
     0.0423   0.1216   0.1704   0.4198   0.5685   0.6017   0.6613   0.7026
     0.7814   0.8380   0.8790   0.9161   1.1874   1.2515   1.3254   1.3486
     1.3999   1.4296   1.4658   1.5022   1.5197   1.5462   1.5924   1.6001
     1.6144   1.6621   1.7038   1.7394   1.7966   1.8381   1.8448   1.8846
     1.9163   1.9742   2.0046   2.1283   2.1875   2.2208   2.2453   2.3202
     2.3803   2.4062   2.4390   2.4604   2.4668   2.4802   2.4885   2.6013
     2.6304   2.7204   2.8860   2.9029   2.9088   2.9255   2.9398   2.9533
     2.9657   2.9729   2.9839   2.9969   3.0094   3.0281   3.0353   3.0459
     3.0684   3.0796   3.0887   3.1203   3.4208   3.5144   3.5570   3.6287
     3.6529   3.8710   3.9639   4.3170   4.5224   4.7272   4.9932   5.1710
     5.6535   5.7124   5.7795   5.8463   5.9041   6.0651   6.1641   6.2183
     6.8976   6.9189   7.0947   7.2801   7.5582   7.6117   7.7191   7.8577
     7.8794   8.0074   8.1924   8.2098   8.2785   8.3436   8.4527   8.5221
     8.5971   8.7481   8.8936

     occupation numbers 
     1.0000   1.0000   1.0000   1.0000   1.0000   1.0000   1.0000   1.0000
     1.0000   1.0000   1.0000   1.0000   1.0000   1.0000   1.0000   1.0000
     1.0000   1.0000   1.0000   1.0000   1.0000   1.0000   1.0000   1.0000
     1.0000   1.0000   1.0000   1.0000   1.0000   1.0000   1.0000   1.0000
     1.0000   1.0000   1.0000   1.0000   1.0000   1.0000   1.0000   1.0000
     1.0000   1.0000   1.0000   1.0000   1.0000   1.0000   1.0000   1.0000
     1.0000   1.0000   1.0000   1.0000   1.0000   1.0000   1.0000   1.0000
     1.0000   1.0000   1.0000   1.0000   1.0000   1.0000   1.0000   1.0000
     1.0000   1.0000   1.0000   1.0000   1.0000   1.0000   1.0000   1.0000
     1.0000   1.0000   1.0000   1.0000   1.0000   1.0000   1.0000   1.0000
     1.0000   1.0000   1.0000   1.0000   1.0000   1.0000   1.0000   1.0000
     1.0000   1.0000   1.0000   1.0000   1.0000   1.0000   1.0000   1.0000
     1.0000   1.0000   1.0000   1.0000   1.0000   1.0000   1.0000   1.0000
     1.0000   1.0000   1.0000   1.0000   1.0000   1.0000   1.0000   1.0000
     1.0000   1.0000   1.0000   1.0000   1.0000   1.0000   1.0000   1.0000
     1.0000   1.0000   1.0000   1.0000   1.0000   1.0000   1.0000   1.0000
     1.0000   1.0000   1.0000   1.0000   1.0000   1.0000   1.0000   1.0000
     1.0000   1.0000   1.0000   1.0000   1.0000   1.0000   1.0000   1.0000
     1.0000   1.0000   1.0000   1.0000   1.0000   1.0000   1.0000   1.0000
     1.0000   1.0000   1.0000   1.0000   1.0000   1.0000   1.0000   1.0000
     0.9999   0.9999   0.9999   0.9998   0.9993   0.9990   0.9986   0.9984
     0.9980   0.9977   0.9973   0.9968   0.9965   0.9961   0.9952   0.9950
     0.9947   0.9935   0.9923   0.9911   0.9889   0.9869   0.9866   0.9844
     0.9825   0.9784   0.9760   0.9636   0.9560   0.9512   0.9474   0.9343
     0.9221   0.9163   0.9086   0.9033   0.9016   0.8981   0.8959   0.8624
     0.8527   0.8197   0.7481   0.7400   0.7371   0.7290   0.7219   0.7152
     0.7088   0.7052   0.6995   0.6928   0.6862   0.6763   0.6725   0.6668
     0.6545   0.6483   0.6433   0.6257   0.4500   0.3956   0.3715   0.3320
     0.3191   0.2135   0.1756   0.0726   0.0391   0.0194   0.0069   0.0032
     0.0003   0.0002   0.0001   0.0001   0.0001   0.0000   0.0000   0.0000
     0.0000   0.0000   0.0000   0.0000   0.0000   0.0000   0.0000   0.0000
     0.0000   0.0000   0.0000   0.0000   0.0000   0.0000   0.0000   0.0000
     0.0000   0.0000   0.0000

          k = 0.2500-0.5000 0.0000 ( 65138 PWs)   bands (ev):

   -92.6915 -92.6400 -92.5456 -92.4995 -92.4404 -92.3978 -92.3809 -92.2623
   -56.0449 -56.0268 -55.9029 -55.8922 -55.8865 -55.8790 -55.8443 -55.8148
   -55.7996 -55.7973 -55.7900 -55.7480 -55.7301 -55.6914 -55.6721 -55.6403
   -55.6350 -55.5872 -55.5864 -55.5831 -55.5747 -55.5371 -55.5111 -55.4281
   -31.2672 -31.2512 -31.1250 -31.1081 -31.0216 -30.9772 -30.8707 -30.4906
   -29.8375 -29.7953 -29.7702 -29.6616 -14.9670 -14.9235 -14.8501 -14.7406
   -14.7065 -14.5900 -14.4940 -14.3695 -14.0638 -14.0098 -13.9843 -13.9659
   -13.9602 -13.9463 -13.9328 -13.8936 -13.8760 -13.8465 -13.8107 -13.7853
   -13.7421 -13.6564 -13.6086 -13.5483 -13.5286 -13.4618 -13.4490 -13.3431
   -13.2908 -13.1981 -13.1335 -13.1165 -13.0473 -13.0183 -12.9836 -12.9700
   -12.9397 -12.9278 -12.9021 -12.8504 -12.8131 -12.7914 -12.7084 -12.6809
   -12.6470 -12.6158 -12.5126 -12.4297 -12.3433 -12.3116 -12.2448 -12.0887
   -12.0479 -11.7655 -11.7533 -11.7421 -11.7150 -11.6840 -11.6549 -11.6146
   -11.5857 -11.5646 -11.5176 -11.4929 -11.4819  -2.4393  -2.3734  -2.2453
    -2.1689  -2.0385  -1.9543  -1.8309  -1.6819  -1.6264  -1.6054  -1.5429
    -1.5298  -1.4311  -1.3664  -1.2814  -1.2300  -1.2236  -1.1665  -1.1562
    -1.1108  -1.0817  -1.0339  -0.9969  -0.9616  -0.9215  -0.9080  -0.8648
    -0.8355  -0.7940  -0.7624  -0.6957  -0.5927  -0.5519  -0.4755  -0.4103
    -0.3583  -0.3178  -0.2989  -0.2430  -0.0840  -0.0752   0.0363   0.0683
     0.0788   0.1261   0.1532   0.1984   0.2204   0.2849   0.5589   0.6546
     0.7501   0.8109   1.0479   1.0722   1.1576   1.1866   1.3486   1.3839
     1.4248   1.4457   1.4618   1.4818   1.5459   1.5934   1.6270   1.7120
     1.7965   1.8385   1.8578   1.8725   1.9038   1.9198   1.9220   1.9711
     1.9816   1.9996   2.0461   2.0555   2.0714   2.1104   2.1632   2.2030
     2.2826   2.4192   2.4663   2.4713   2.5656   2.5856   2.6061   2.6301
     2.6528   2.6823   2.7024   2.7180   2.7419   2.8369   2.8851   2.9051
     2.9106   2.9222   2.9428   2.9567   2.9758   2.9830   3.0169   3.0288
     3.0423   3.0515   3.0613   3.0702   3.5990   3.6040   3.7521   3.8029
     4.1540   4.1939   4.2057   4.3252   4.7767   4.9331   5.0704   5.1460
     5.3147   5.4405   5.6124   5.6508   5.7763   5.7976   6.3269   6.4033
     6.4926   6.6459   7.2270   7.3639   7.5454   7.7108   7.8154   7.8846
     7.9330   8.0501   8.2275   8.3797   8.4485   8.5405   8.5603   8.6081
     8.7223   8.7602   8.8114

     occupation numbers 
     1.0000   1.0000   1.0000   1.0000   1.0000   1.0000   1.0000   1.0000
     1.0000   1.0000   1.0000   1.0000   1.0000   1.0000   1.0000   1.0000
     1.0000   1.0000   1.0000   1.0000   1.0000   1.0000   1.0000   1.0000
     1.0000   1.0000   1.0000   1.0000   1.0000   1.0000   1.0000   1.0000
     1.0000   1.0000   1.0000   1.0000   1.0000   1.0000   1.0000   1.0000
     1.0000   1.0000   1.0000   1.0000   1.0000   1.0000   1.0000   1.0000
     1.0000   1.0000   1.0000   1.0000   1.0000   1.0000   1.0000   1.0000
     1.0000   1.0000   1.0000   1.0000   1.0000   1.0000   1.0000   1.0000
     1.0000   1.0000   1.0000   1.0000   1.0000   1.0000   1.0000   1.0000
     1.0000   1.0000   1.0000   1.0000   1.0000   1.0000   1.0000   1.0000
     1.0000   1.0000   1.0000   1.0000   1.0000   1.0000   1.0000   1.0000
     1.0000   1.0000   1.0000   1.0000   1.0000   1.0000   1.0000   1.0000
     1.0000   1.0000   1.0000   1.0000   1.0000   1.0000   1.0000   1.0000
     1.0000   1.0000   1.0000   1.0000   1.0000   1.0000   1.0000   1.0000
     1.0000   1.0000   1.0000   1.0000   1.0000   1.0000   1.0000   1.0000
     1.0000   1.0000   1.0000   1.0000   1.0000   1.0000   1.0000   1.0000
     1.0000   1.0000   1.0000   1.0000   1.0000   1.0000   1.0000   1.0000
     1.0000   1.0000   1.0000   1.0000   1.0000   1.0000   1.0000   1.0000
     1.0000   1.0000   1.0000   1.0000   1.0000   1.0000   1.0000   1.0000
     1.0000   1.0000   1.0000   1.0000   1.0000   1.0000   1.0000   1.0000
     0.9999   0.9999   0.9997   0.9996   0.9994   0.9993   0.9984   0.9981
     0.9977   0.9975   0.9973   0.9971   0.9961   0.9952   0.9944   0.9921
     0.9889   0.9869   0.9859   0.9851   0.9833   0.9823   0.9821   0.9787
     0.9779   0.9764   0.9723   0.9714   0.9698   0.9656   0.9592   0.9538
     0.9411   0.9133   0.9018   0.9005   0.8737   0.8675   0.8608   0.8528
     0.8449   0.8342   0.8267   0.8207   0.8112   0.7707   0.7485   0.7389
     0.7363   0.7306   0.7204   0.7134   0.7037   0.7000   0.6822   0.6759
     0.6687   0.6637   0.6584   0.6535   0.3482   0.3454   0.2684   0.2441
     0.1123   0.1014   0.0983   0.0710   0.0162   0.0089   0.0050   0.0036
     0.0017   0.0009   0.0004   0.0003   0.0001   0.0001   0.0000   0.0000
     0.0000   0.0000   0.0000   0.0000   0.0000   0.0000   0.0000   0.0000
     0.0000   0.0000   0.0000   0.0000   0.0000   0.0000   0.0000   0.0000
     0.0000   0.0000   0.0000

          k =-0.5000-0.5000 0.0000 ( 65132 PWs)   bands (ev):

   -92.6915 -92.6400 -92.5456 -92.4995 -92.4404 -92.3978 -92.3809 -92.2623
   -56.0449 -56.0268 -55.9029 -55.8922 -55.8865 -55.8790 -55.8443 -55.8148
   -55.7996 -55.7973 -55.7900 -55.7480 -55.7301 -55.6914 -55.6721 -55.6403
   -55.6350 -55.5872 -55.5864 -55.5831 -55.5747 -55.5371 -55.5111 -55.4281
   -31.2651 -31.2533 -31.1249 -31.1077 -31.0220 -30.9772 -30.8709 -30.4907
   -29.8365 -29.7963 -29.7698 -29.6620 -14.9189 -14.8962 -14.7799 -14.7631
   -14.6694 -14.6352 -14.6028 -14.4680 -13.9738 -13.9663 -13.9625 -13.9265
   -13.9114 -13.8907 -13.8707 -13.8510 -13.8370 -13.8219 -13.8185 -13.8028
   -13.7235 -13.7170 -13.6893 -13.6538 -13.6326 -13.5492 -13.5198 -13.3825
   -13.3302 -13.1489 -13.1139 -13.0412 -13.0200 -13.0157 -12.9827 -12.9749
   -12.9655 -12.9469 -12.9090 -12.8197 -12.8102 -12.7724 -12.7506 -12.7296
   -12.5972 -12.5892 -12.5290 -12.4335 -12.3161 -12.3072 -12.2134 -12.0809
   -12.0535 -11.7614 -11.7499 -11.7323 -11.7148 -11.6805 -11.6620 -11.6271
   -11.5650 -11.5469 -11.5405 -11.4910 -11.4878  -2.2144  -2.1404  -2.1304
    -2.0559  -2.0189  -1.9409  -1.8729  -1.7474  -1.6320  -1.6022  -1.5612
    -1.5047  -1.4340  -1.4179  -1.3490  -1.3056  -1.1887  -1.1718  -1.1501
    -1.1111  -1.0829  -1.0183  -0.9709  -0.9533  -0.9402  -0.8860  -0.8433
    -0.8274  -0.7140  -0.6558  -0.6066  -0.5614  -0.5322  -0.5193  -0.4860
    -0.4431  -0.4064  -0.3981  -0.3106  -0.2465  -0.2006  -0.1733  -0.1015
    -0.0431  -0.0300   0.0273   0.0596   0.0668   0.0931   0.5310   0.5739
     0.6868   0.7473   1.0796   1.0930   1.1242   1.1643   1.4349   1.4535
     1.4611   1.5018   1.6278   1.7223   1.7491   1.7856   1.8076   1.8335
     1.8412   1.8687   1.8799   1.8982   1.9086   1.9589   1.9624   1.9905
     2.0134   2.0317   2.0418   2.0798   2.1056   2.1226   2.1537   2.1877
     2.2417   2.3093   2.4622   2.4642   2.5797   2.6094   2.6311   2.6473
     2.6642   2.6885   2.6927   2.7136   2.7238   2.7404   2.7612   2.7732
     2.8379   2.8400   2.8630   2.8770   2.8874   2.9076   2.9129   2.9215
     3.0257   3.0298   3.0572   3.0680   4.0380   4.0500   4.0763   4.0820
     4.3301   4.4051   4.4280   4.6686   4.7911   4.8736   5.0025   5.0902
     5.1072   5.2164   5.3092   5.4273   5.8594   5.8905   5.9650   6.0333
     6.5067   6.8739   6.9110   7.1738   7.9169   7.9219   7.9275   7.9840
     8.0144   8.0548   8.1069   8.2708   8.4029   8.5921   8.6046   8.6268
     8.6700   8.7458   8.7674

     occupation numbers 
     1.0000   1.0000   1.0000   1.0000   1.0000   1.0000   1.0000   1.0000
     1.0000   1.0000   1.0000   1.0000   1.0000   1.0000   1.0000   1.0000
     1.0000   1.0000   1.0000   1.0000   1.0000   1.0000   1.0000   1.0000
     1.0000   1.0000   1.0000   1.0000   1.0000   1.0000   1.0000   1.0000
     1.0000   1.0000   1.0000   1.0000   1.0000   1.0000   1.0000   1.0000
     1.0000   1.0000   1.0000   1.0000   1.0000   1.0000   1.0000   1.0000
     1.0000   1.0000   1.0000   1.0000   1.0000   1.0000   1.0000   1.0000
     1.0000   1.0000   1.0000   1.0000   1.0000   1.0000   1.0000   1.0000
     1.0000   1.0000   1.0000   1.0000   1.0000   1.0000   1.0000   1.0000
     1.0000   1.0000   1.0000   1.0000   1.0000   1.0000   1.0000   1.0000
     1.0000   1.0000   1.0000   1.0000   1.0000   1.0000   1.0000   1.0000
     1.0000   1.0000   1.0000   1.0000   1.0000   1.0000   1.0000   1.0000
     1.0000   1.0000   1.0000   1.0000   1.0000   1.0000   1.0000   1.0000
     1.0000   1.0000   1.0000   1.0000   1.0000   1.0000   1.0000   1.0000
     1.0000   1.0000   1.0000   1.0000   1.0000   1.0000   1.0000   1.0000
     1.0000   1.0000   1.0000   1.0000   1.0000   1.0000   1.0000   1.0000
     1.0000   1.0000   1.0000   1.0000   1.0000   1.0000   1.0000   1.0000
     1.0000   1.0000   1.0000   1.0000   1.0000   1.0000   1.0000   1.0000
     1.0000   1.0000   1.0000   1.0000   1.0000   1.0000   1.0000   1.0000
     1.0000   1.0000   1.0000   1.0000   1.0000   1.0000   1.0000   1.0000
     1.0000   0.9999   0.9996   0.9996   0.9995   0.9994   0.9976   0.9974
     0.9973   0.9968   0.9944   0.9917   0.9908   0.9893   0.9884   0.9872
     0.9868   0.9853   0.9847   0.9836   0.9830   0.9796   0.9793   0.9771
     0.9752   0.9736   0.9727   0.9689   0.9662   0.9642   0.9604   0.9559
     0.9479   0.9363   0.9028   0.9023   0.8693   0.8597   0.8524   0.8468
     0.8408   0.8319   0.8303   0.8224   0.8184   0.8118   0.8034   0.7984
     0.7703   0.7694   0.7588   0.7523   0.7474   0.7377   0.7351   0.7310
     0.6776   0.6754   0.6606   0.6547   0.1487   0.1446   0.1359   0.1340
     0.0700   0.0562   0.0525   0.0239   0.0154   0.0112   0.0067   0.0046
     0.0043   0.0026   0.0017   0.0010   0.0001   0.0001   0.0000   0.0000
     0.0000   0.0000   0.0000   0.0000   0.0000   0.0000   0.0000   0.0000
     0.0000   0.0000   0.0000   0.0000   0.0000   0.0000   0.0000   0.0000
     0.0000   0.0000   0.0000

          k = 0.2500 0.0000 0.0000 ( 65257 PWs)   bands (ev):

   -92.6915 -92.6400 -92.5456 -92.4995 -92.4404 -92.3978 -92.3809 -92.2623
   -56.0449 -56.0268 -55.9029 -55.8922 -55.8865 -55.8790 -55.8443 -55.8148
   -55.7996 -55.7973 -55.7900 -55.7480 -55.7301 -55.6914 -55.6721 -55.6403
   -55.6350 -55.5872 -55.5864 -55.5831 -55.5747 -55.5371 -55.5111 -55.4281
   -31.2676 -31.2514 -31.1254 -31.1077 -31.0214 -30.9768 -30.8709 -30.4905
   -29.8387 -29.7959 -29.7689 -29.6609 -15.0392 -14.9913 -14.9271 -14.7796
   -14.6721 -14.4747 -14.3468 -14.1659 -14.1492 -14.1194 -14.0873 -14.0625
   -14.0269 -14.0117 -13.9943 -13.9659 -13.9476 -13.8306 -13.7999 -13.6503
   -13.5825 -13.5688 -13.5056 -13.4830 -13.4696 -13.4119 -13.3366 -13.3042
   -13.2120 -13.1506 -13.1380 -13.0978 -13.0518 -13.0352 -13.0179 -13.0021
   -12.9667 -12.9409 -12.9216 -12.8921 -12.8691 -12.8109 -12.7901 -12.7619
   -12.6689 -12.6224 -12.4929 -12.4561 -12.4170 -12.3970 -12.2400 -12.0134
   -11.9485 -11.8165 -11.7653 -11.7481 -11.7334 -11.7068 -11.6567 -11.6338
[...]
     0.3495   0.3265   0.2049   0.0786   0.0460   0.0217   0.0060   0.0049
     0.0003   0.0001   0.0001   0.0000   0.0000   0.0000   0.0000   0.0000
     0.0000   0.0000   0.0000   0.0000   0.0000   0.0000   0.0000   0.0000
     0.0000   0.0000   0.0000   0.0000   0.0000   0.0000   0.0000   0.0000
     0.0000   0.0000   0.0000

          k =-0.5000 0.0000 0.0000 ( 65180 PWs)   bands (ev):

   -92.6915 -92.6400 -92.5456 -92.4995 -92.4404 -92.3978 -92.3809 -92.2623
   -56.0449 -56.0268 -55.9029 -55.8922 -55.8865 -55.8790 -55.8443 -55.8148
   -55.7996 -55.7973 -55.7900 -55.7480 -55.7301 -55.6914 -55.6721 -55.6403
   -55.6350 -55.5872 -55.5864 -55.5831 -55.5747 -55.5371 -55.5111 -55.4281
   -31.2655 -31.2536 -31.1253 -31.1073 -31.0217 -30.9767 -30.8710 -30.4905
   -29.8377 -29.7969 -29.7686 -29.6613 -15.0047 -14.9491 -14.8882 -14.7821
   -14.6776 -14.5342 -14.3835 -14.2490 -14.1228 -14.1089 -14.0991 -14.0367
   -13.9827 -13.9653 -13.9463 -13.8985 -13.8936 -13.8748 -13.8283 -13.8124
   -13.7002 -13.5456 -13.5115 -13.4851 -13.4779 -13.4185 -13.3552 -13.2823
   -13.2590 -13.2355 -13.2057 -13.0911 -13.0456 -13.0324 -13.0089 -12.9999
   -12.9709 -12.9359 -12.9170 -12.8922 -12.8748 -12.7826 -12.6315 -12.6224
   -12.6183 -12.5823 -12.5320 -12.4296 -12.4110 -12.3185 -12.3145 -12.0851
   -12.0361 -11.7695 -11.7470 -11.7410 -11.7251 -11.7073 -11.6663 -11.6035
   -11.5864 -11.5541 -11.5070 -11.4981 -11.4830  -2.5711  -2.5331  -2.3691
    -2.3304  -2.0161  -1.9412  -1.7928  -1.6760  -1.6373  -1.5903  -1.5429
    -1.5189  -1.3954  -1.3515  -1.3348  -1.2532  -1.2191  -1.2107  -1.1723
    -1.1542  -1.1103  -1.0430  -1.0157  -0.9847  -0.8910  -0.8442  -0.7942
    -0.7630  -0.7411  -0.7106  -0.6637  -0.6383  -0.5987  -0.4997  -0.4255
    -0.3607  -0.3000  -0.1352  -0.0906  -0.0466  -0.0086   0.0499   0.0667
     0.2070   0.2389   0.3020   0.4497   0.5487   0.5967   0.6965   0.7571
     0.8782   0.8965   1.0161   1.0411   1.0962   1.1317   1.1640   1.1736
     1.2180   1.2455   1.3104   1.3596   1.4082   1.4156   1.7179   1.7231
     1.7461   1.7592   1.8661   1.8814   1.8963   1.9063   1.9365   1.9486
     1.9901   2.0109   2.0346   2.0872   2.1043   2.1557   2.1819   2.2325
     2.3529   2.4385   2.4683   2.4753   2.5135   2.5267   2.6165   2.6360
     2.6686   2.7341   2.7439   2.7491   2.7794   2.8483   2.8910   2.9393
     2.9649   3.0105   3.0140   3.0161   3.0264   3.0435   3.0538   3.0675
     3.0728   3.0937   3.0989   3.1183   3.1389   3.1438   3.2734   3.2792
     4.1023   4.1354   4.1950   4.3345   4.8007   4.8717   5.0555   5.0607
     5.4899   5.5183   5.6084   5.6621   6.0431   6.0460   6.2395   6.5144
     6.8029   7.0070   7.2850   7.3051   7.3563   7.4062   7.7305   7.7847
     7.8898   7.9237   8.1668   8.2865   8.4270   8.5231   8.5615   8.6483
     8.7695   8.8041   8.9330

     occupation numbers 
     1.0000   1.0000   1.0000   1.0000   1.0000   1.0000   1.0000   1.0000
     1.0000   1.0000   1.0000   1.0000   1.0000   1.0000   1.0000   1.0000
     1.0000   1.0000   1.0000   1.0000   1.0000   1.0000   1.0000   1.0000
     1.0000   1.0000   1.0000   1.0000   1.0000   1.0000   1.0000   1.0000
     1.0000   1.0000   1.0000   1.0000   1.0000   1.0000   1.0000   1.0000
     1.0000   1.0000   1.0000   1.0000   1.0000   1.0000   1.0000   1.0000
     1.0000   1.0000   1.0000   1.0000   1.0000   1.0000   1.0000   1.0000
     1.0000   1.0000   1.0000   1.0000   1.0000   1.0000   1.0000   1.0000
     1.0000   1.0000   1.0000   1.0000   1.0000   1.0000   1.0000   1.0000
     1.0000   1.0000   1.0000   1.0000   1.0000   1.0000   1.0000   1.0000
     1.0000   1.0000   1.0000   1.0000   1.0000   1.0000   1.0000   1.0000
     1.0000   1.0000   1.0000   1.0000   1.0000   1.0000   1.0000   1.0000
     1.0000   1.0000   1.0000   1.0000   1.0000   1.0000   1.0000   1.0000
     1.0000   1.0000   1.0000   1.0000   1.0000   1.0000   1.0000   1.0000
     1.0000   1.0000   1.0000   1.0000   1.0000   1.0000   1.0000   1.0000
     1.0000   1.0000   1.0000   1.0000   1.0000   1.0000   1.0000   1.0000
     1.0000   1.0000   1.0000   1.0000   1.0000   1.0000   1.0000   1.0000
     1.0000   1.0000   1.0000   1.0000   1.0000   1.0000   1.0000   1.0000
     1.0000   1.0000   1.0000   1.0000   1.0000   1.0000   1.0000   1.0000
     1.0000   1.0000   1.0000   1.0000   1.0000   1.0000   1.0000   0.9999
     0.9999   0.9999   0.9997   0.9997   0.9996   0.9995   0.9994   0.9993
     0.9992   0.9990   0.9987   0.9983   0.9979   0.9978   0.9919   0.9917
     0.9909   0.9904   0.9855   0.9846   0.9837   0.9831   0.9812   0.9803
     0.9772   0.9755   0.9734   0.9682   0.9663   0.9602   0.9567   0.9494
     0.9279   0.9087   0.9012   0.8994   0.8890   0.8853   0.8574   0.8507
     0.8392   0.8143   0.8104   0.8083   0.7958   0.7656   0.7457   0.7221
     0.7093   0.6856   0.6838   0.6827   0.6772   0.6680   0.6625   0.6550
     0.6521   0.6406   0.6377   0.6268   0.6152   0.6124   0.5371   0.5337
     0.1276   0.1177   0.1011   0.0691   0.0148   0.0113   0.0053   0.0052
     0.0007   0.0006   0.0004   0.0003   0.0000   0.0000   0.0000   0.0000
     0.0000   0.0000   0.0000   0.0000   0.0000   0.0000   0.0000   0.0000
     0.0000   0.0000   0.0000   0.0000   0.0000   0.0000   0.0000   0.0000
     0.0000   0.0000   0.0000

          k =-0.2500 0.2500 0.0000 ( 65198 PWs)   bands (ev):

   -92.6915 -92.6400 -92.5456 -92.4995 -92.4404 -92.3978 -92.3809 -92.2623
   -56.0449 -56.0268 -55.9029 -55.8922 -55.8865 -55.8790 -55.8443 -55.8148
   -55.7996 -55.7973 -55.7900 -55.7480 -55.7301 -55.6914 -55.6721 -55.6403
   -55.6350 -55.5872 -55.5864 -55.5831 -55.5747 -55.5371 -55.5111 -55.4281
   -31.2674 -31.2513 -31.1252 -31.1079 -31.0215 -30.9770 -30.8708 -30.4905
   -29.8381 -29.7956 -29.7696 -29.6612 -15.0076 -14.9602 -14.8919 -14.7749
   -14.6612 -14.5346 -14.4521 -14.2438 -14.1059 -14.0767 -14.0624 -14.0148
   -13.9906 -13.9700 -13.9626 -13.9502 -13.9134 -13.8254 -13.8148 -13.6633
   -13.6367 -13.6063 -13.5865 -13.5342 -13.4873 -13.4285 -13.4259 -13.2942
   -13.2414 -13.2137 -13.1384 -13.0977 -13.0535 -13.0301 -12.9985 -12.9787
   -12.9433 -12.9189 -12.9108 -12.8856 -12.8240 -12.8045 -12.7616 -12.7397
   -12.6833 -12.5885 -12.4332 -12.4280 -12.4210 -12.3689 -12.2739 -12.0534
   -11.9776 -11.7887 -11.7677 -11.7397 -11.7282 -11.6869 -11.6518 -11.6292
   -11.6080 -11.5855 -11.4992 -11.4549 -11.4455  -2.6560  -2.4480  -2.3271
    -2.2382  -2.1203  -2.0542  -1.8510  -1.7056  -1.6879  -1.6577  -1.5668
    -1.5298  -1.4373  -1.4033  -1.3769  -1.2380  -1.1827  -1.1608  -1.1081
    -1.0773  -1.0211  -1.0007  -0.9608  -0.9324  -0.8917  -0.8285  -0.7808
    -0.7172  -0.6487  -0.6229  -0.5715  -0.5428  -0.4973  -0.4408  -0.3930
    -0.3543  -0.2535  -0.2208  -0.2088  -0.1659  -0.1006  -0.0280   0.0175
     0.0489   0.1247   0.1685   0.4017   0.5706   0.6095   0.6493   0.7103
     0.7846   0.8363   0.8901   0.9125   1.1943   1.3018   1.3422   1.3747
     1.3813   1.4242   1.4389   1.4847   1.5143   1.5290   1.5543   1.5998
     1.6165   1.6588   1.6788   1.7225   1.8073   1.8303   1.8467   1.8901
     1.9110   1.9545   2.0141   2.1171   2.2157   2.2447   2.2955   2.3160
     2.3803   2.4168   2.4431   2.4584   2.4678   2.4855   2.4940   2.6014
     2.6288   2.7195   2.8928   2.9010   2.9146   2.9245   2.9358   2.9496
     2.9560   2.9744   2.9832   2.9973   3.0071   3.0192   3.0290   3.0376
     3.0699   3.0795   3.0880   3.1225   3.4141   3.4961   3.5596   3.6404
     3.6541   3.8558   3.9725   4.3160   4.5203   4.7282   5.0037   5.1710
     5.6561   5.7083   5.7810   5.8430   5.9052   6.0682   6.1761   6.2039
     6.8875   6.9357   7.0934   7.2702   7.5724   7.6196   7.6800   7.8568
     7.9162   7.9726   8.1973   8.2528   8.3303   8.3536   8.4267   8.4564
     8.5576   8.7907   8.9078

     occupation numbers 
     1.0000   1.0000   1.0000   1.0000   1.0000   1.0000   1.0000   1.0000
     1.0000   1.0000   1.0000   1.0000   1.0000   1.0000   1.0000   1.0000
     1.0000   1.0000   1.0000   1.0000   1.0000   1.0000   1.0000   1.0000
     1.0000   1.0000   1.0000   1.0000   1.0000   1.0000   1.0000   1.0000
     1.0000   1.0000   1.0000   1.0000   1.0000   1.0000   1.0000   1.0000
     1.0000   1.0000   1.0000   1.0000   1.0000   1.0000   1.0000   1.0000
     1.0000   1.0000   1.0000   1.0000   1.0000   1.0000   1.0000   1.0000
     1.0000   1.0000   1.0000   1.0000   1.0000   1.0000   1.0000   1.0000
     1.0000   1.0000   1.0000   1.0000   1.0000   1.0000   1.0000   1.0000
     1.0000   1.0000   1.0000   1.0000   1.0000   1.0000   1.0000   1.0000
     1.0000   1.0000   1.0000   1.0000   1.0000   1.0000   1.0000   1.0000
     1.0000   1.0000   1.0000   1.0000   1.0000   1.0000   1.0000   1.0000
     1.0000   1.0000   1.0000   1.0000   1.0000   1.0000   1.0000   1.0000
     1.0000   1.0000   1.0000   1.0000   1.0000   1.0000   1.0000   1.0000
     1.0000   1.0000   1.0000   1.0000   1.0000   1.0000   1.0000   1.0000
     1.0000   1.0000   1.0000   1.0000   1.0000   1.0000   1.0000   1.0000
     1.0000   1.0000   1.0000   1.0000   1.0000   1.0000   1.0000   1.0000
     1.0000   1.0000   1.0000   1.0000   1.0000   1.0000   1.0000   1.0000
     1.0000   1.0000   1.0000   1.0000   1.0000   1.0000   1.0000   1.0000
     1.0000   1.0000   1.0000   1.0000   1.0000   1.0000   1.0000   1.0000
     0.9999   0.9999   0.9999   0.9998   0.9993   0.9987   0.9985   0.9982
     0.9982   0.9977   0.9976   0.9970   0.9966   0.9964   0.9959   0.9950
     0.9947   0.9936   0.9931   0.9917   0.9884   0.9873   0.9865   0.9841
     0.9828   0.9799   0.9752   0.9649   0.9519   0.9475   0.9389   0.9351
     0.9221   0.9139   0.9076   0.9038   0.9014   0.8967   0.8944   0.8624
     0.8532   0.8201   0.7448   0.7409   0.7343   0.7295   0.7239   0.7170
     0.7138   0.7044   0.6999   0.6926   0.6874   0.6810   0.6758   0.6712
     0.6537   0.6484   0.6437   0.6245   0.4539   0.4061   0.3700   0.3257
     0.3184   0.2202   0.1723   0.0728   0.0393   0.0194   0.0066   0.0032
     0.0003   0.0002   0.0001   0.0001   0.0001   0.0000   0.0000   0.0000
     0.0000   0.0000   0.0000   0.0000   0.0000   0.0000   0.0000   0.0000
     0.0000   0.0000   0.0000   0.0000   0.0000   0.0000   0.0000   0.0000
     0.0000   0.0000   0.0000

          k =-0.5000 0.2500 0.0000 ( 65138 PWs)   bands (ev):

   -92.6915 -92.6400 -92.5456 -92.4995 -92.4404 -92.3978 -92.3809 -92.2623
   -56.0449 -56.0268 -55.9029 -55.8922 -55.8865 -55.8790 -55.8443 -55.8148
   -55.7996 -55.7973 -55.7900 -55.7480 -55.7301 -55.6914 -55.6721 -55.6403
   -55.6350 -55.5872 -55.5864 -55.5831 -55.5747 -55.5371 -55.5111 -55.4281
   -31.2653 -31.2535 -31.1251 -31.1075 -31.0219 -30.9769 -30.8709 -30.4906
   -29.8371 -29.7966 -29.7692 -29.6616 -14.9712 -14.9232 -14.8451 -14.7485
   -14.7066 -14.5811 -14.4891 -14.3641 -14.0559 -14.0254 -14.0138 -13.9694
   -13.9623 -13.9461 -13.9206 -13.8848 -13.8798 -13.8531 -13.8175 -13.8073
   -13.6947 -13.6282 -13.5790 -13.5735 -13.5575 -13.4703 -13.4593 -13.3290
   -13.2769 -13.1914 -13.1564 -13.0663 -13.0451 -13.0166 -13.0067 -12.9778
   -12.9464 -12.9319 -12.9180 -12.8890 -12.8287 -12.7912 -12.6776 -12.6527
   -12.6137 -12.6062 -12.5303 -12.4296 -12.3578 -12.3134 -12.2601 -12.0821
   -12.0444 -11.7619 -11.7486 -11.7348 -11.7231 -11.7009 -11.6711 -11.5908
   -11.5812 -11.5593 -11.5215 -11.4943 -11.4856  -2.4287  -2.3873  -2.2387
    -2.1969  -2.0355  -1.9597  -1.8170  -1.6823  -1.6252  -1.5982  -1.5593
    -1.5212  -1.4404  -1.3252  -1.2682  -1.2457  -1.2194  -1.1756  -1.1278
    -1.1145  -1.0737  -1.0578  -0.9971  -0.9667  -0.9296  -0.8939  -0.8652
    -0.8070  -0.7801  -0.7387  -0.7038  -0.5990  -0.5724  -0.4813  -0.4213
    -0.3882  -0.3318  -0.2477  -0.2154  -0.1130  -0.0774  -0.0157   0.0327
     0.0599   0.1302   0.1632   0.2037   0.2428   0.2812   0.5965   0.6523
     0.7328   0.7824   1.0268   1.0917   1.1581   1.1887   1.3629   1.3981
     1.4360   1.4469   1.4652   1.4831   1.5526   1.5963   1.6364   1.6671
     1.7866   1.8241   1.8566   1.8721   1.9105   1.9294   1.9470   1.9636
     1.9811   2.0025   2.0500   2.0619   2.1012   2.1238   2.1581   2.2140
     2.3386   2.4278   2.4528   2.4676   2.4772   2.5256   2.5631   2.6329
     2.6634   2.6694   2.7092   2.7410   2.7641   2.8483   2.8884   2.9025
     2.9072   2.9283   2.9511   2.9635   2.9785   2.9904   3.0126   3.0265
     3.0354   3.0431   3.0549   3.0676   3.5973   3.6357   3.7857   3.8054
     4.1058   4.1555   4.2070   4.4171   4.7952   4.8896   5.0564   5.0857
     5.4173   5.4417   5.5958   5.6312   5.7552   5.8037   6.3296   6.4003
     6.4989   6.6417   7.2367   7.3541   7.5501   7.7202   7.8006   7.8848
     7.9473   8.0353   8.2094   8.4110   8.4555   8.5246   8.5833   8.6114
     8.6663   8.7544   8.8056

     occupation numbers 
     1.0000   1.0000   1.0000   1.0000   1.0000   1.0000   1.0000   1.0000
     1.0000   1.0000   1.0000   1.0000   1.0000   1.0000   1.0000   1.0000
     1.0000   1.0000   1.0000   1.0000   1.0000   1.0000   1.0000   1.0000
     1.0000   1.0000   1.0000   1.0000   1.0000   1.0000   1.0000   1.0000
     1.0000   1.0000   1.0000   1.0000   1.0000   1.0000   1.0000   1.0000
     1.0000   1.0000   1.0000   1.0000   1.0000   1.0000   1.0000   1.0000
     1.0000   1.0000   1.0000   1.0000   1.0000   1.0000   1.0000   1.0000
     1.0000   1.0000   1.0000   1.0000   1.0000   1.0000   1.0000   1.0000
     1.0000   1.0000   1.0000   1.0000   1.0000   1.0000   1.0000   1.0000
     1.0000   1.0000   1.0000   1.0000   1.0000   1.0000   1.0000   1.0000
     1.0000   1.0000   1.0000   1.0000   1.0000   1.0000   1.0000   1.0000
     1.0000   1.0000   1.0000   1.0000   1.0000   1.0000   1.0000   1.0000
     1.0000   1.0000   1.0000   1.0000   1.0000   1.0000   1.0000   1.0000
     1.0000   1.0000   1.0000   1.0000   1.0000   1.0000   1.0000   1.0000
     1.0000   1.0000   1.0000   1.0000   1.0000   1.0000   1.0000   1.0000
     1.0000   1.0000   1.0000   1.0000   1.0000   1.0000   1.0000   1.0000
     1.0000   1.0000   1.0000   1.0000   1.0000   1.0000   1.0000   1.0000
     1.0000   1.0000   1.0000   1.0000   1.0000   1.0000   1.0000   1.0000
     1.0000   1.0000   1.0000   1.0000   1.0000   1.0000   1.0000   1.0000
     1.0000   1.0000   1.0000   1.0000   1.0000   1.0000   1.0000   1.0000
     0.9999   0.9999   0.9997   0.9996   0.9994   0.9993   0.9983   0.9980
     0.9976   0.9975   0.9973   0.9970   0.9960   0.9951   0.9942   0.9934
     0.9893   0.9876   0.9860   0.9851   0.9829   0.9816   0.9804   0.9792
     0.9779   0.9762   0.9719   0.9708   0.9667   0.9641   0.9599   0.9522
     0.9307   0.9113   0.9052   0.9014   0.8989   0.8856   0.8745   0.8518
     0.8411   0.8389   0.8241   0.8116   0.8022   0.7656   0.7469   0.7402
     0.7379   0.7276   0.7163   0.7100   0.7023   0.6962   0.6845   0.6772
     0.6724   0.6683   0.6619   0.6550   0.3491   0.3282   0.2522   0.2429
     0.1265   0.1119   0.0980   0.0542   0.0151   0.0105   0.0053   0.0047
     0.0010   0.0009   0.0004   0.0003   0.0002   0.0001   0.0000   0.0000
     0.0000   0.0000   0.0000   0.0000   0.0000   0.0000   0.0000   0.0000
     0.0000   0.0000   0.0000   0.0000   0.0000   0.0000   0.0000   0.0000
     0.0000   0.0000   0.0000

     the Fermi energy is     3.3361 ev

!    total energy              =   -4441.66160601 Ry
     estimated scf accuracy    <          4.4E-09 Ry
     smearing contrib. (-TS)   =      -1.15497932 Ry
     internal energy E=F+TS    =   -4440.50662668 Ry

     The total energy is F=E-TS. E is the sum of the following terms:
     one-electron contribution =  -20804.66331068 Ry
     hartree contribution      =   10534.45969020 Ry
     xc contribution           =    -694.18456852 Ry
     ewald contribution        =    6800.05098438 Ry
     one-center paw contrib.   =    -276.16942205 Ry
      -> PAW hartree energy AE =      25.16934629 Ry
      -> PAW hartree energy PS =     -25.05317494 Ry
      -> PAW xc energy AE      =     -16.51841015 Ry
      -> PAW xc energy PS      =       6.87791710 Ry
      -> total E_H with PAW    =   10534.57586154 Ry
      -> total E_XC with PAW   =    -703.82506158 Ry

     convergence has been achieved in  47 iterations

     Writing all to output data dir /bsuhome/zayahcortright/scratch/pwscf.save/
 
     init_run     :      7.95s CPU      8.61s WALL (       1 calls)
     electrons    :    783.94s CPU    866.52s WALL (       1 calls)

     Called by init_run:
     wfcinit      :      6.29s CPU      6.51s WALL (       1 calls)
     wfcinit:atom :      0.05s CPU      0.07s WALL (       5 calls)
     wfcinit:wfcr :      5.98s CPU      6.11s WALL (       5 calls)
     potinit      :      0.16s CPU      0.18s WALL (       1 calls)
     hinit0       :      0.56s CPU      0.75s WALL (       1 calls)

     Called by electrons:
     c_bands      :    630.93s CPU    643.37s WALL (      47 calls)
     sum_band     :    110.76s CPU    150.12s WALL (      47 calls)
     v_of_rho     :      5.16s CPU      5.54s WALL (      48 calls)
     v_h          :      0.44s CPU      0.44s WALL (      48 calls)
     v_xc         :      4.72s CPU      5.09s WALL (      48 calls)
     newd         :     18.78s CPU     48.75s WALL (      48 calls)
     PAW_pot      :      1.55s CPU      1.59s WALL (      48 calls)
     mix_rho      :     16.48s CPU     16.88s WALL (      47 calls)

     Called by c_bands:
     init_us_2    :      6.17s CPU      6.28s WALL (     475 calls)
     init_us_2:cp :      6.16s CPU      6.28s WALL (     475 calls)
     cegterg      :    590.72s CPU    602.78s WALL (     235 calls)

     Called by sum_band:
     sum_band:wei :      0.35s CPU      0.36s WALL (      47 calls)
     sum_band:loo :     90.22s CPU     90.99s WALL (      47 calls)
     sum_band:buf :      1.24s CPU      1.30s WALL (     235 calls)
     sum_band:ini :      2.72s CPU      2.72s WALL (     235 calls)
     sum_band:cal :     18.43s CPU     18.52s WALL (     235 calls)
     sum_band:bec :      0.56s CPU      0.59s WALL (     235 calls)
     addusdens    :     17.02s CPU     55.53s WALL (      47 calls)
                                        0.00s GPU  (      47 calls)
     addusd:skk   :      0.30s CPU      2.13s WALL (     188 calls)
                                        0.00s GPU  (     188 calls)

     Called by *egterg:
     cdiaghg      :     59.53s CPU     59.82s WALL (    1348 calls)
     cegterg:over :     48.25s CPU     48.45s WALL (    1113 calls)
     cegterg:upda :     48.84s CPU     49.94s WALL (    1113 calls)
     cegterg:last :     69.88s CPU     70.19s WALL (     428 calls)
     cdiaghg:chol :      3.45s CPU      3.48s WALL (    1348 calls)
     cdiaghg:inve :      3.71s CPU      3.73s WALL (    1348 calls)
     cdiaghg:para :      7.61s CPU      7.67s WALL (    2696 calls)
     h_psi        :    299.59s CPU    304.34s WALL (    1353 calls)
     s_psi        :     38.39s CPU     38.52s WALL (    1353 calls)
     g_psi        :      2.52s CPU      2.53s WALL (    1113 calls)

     Called by h_psi:
     h_psi:calbec :     44.20s CPU     44.42s WALL (    1353 calls)
     vloc_psi     :    211.35s CPU    213.30s WALL (    1353 calls)
     add_vuspsi   :     37.88s CPU     38.17s WALL (    1353 calls)

     General routines
     calbec       :     62.63s CPU     62.93s WALL (    1588 calls)
     fft          :      4.77s CPU      4.83s WALL (     622 calls)
     ffts         :      5.49s CPU      5.54s WALL (    5027 calls)
     fftw         :    192.38s CPU    193.95s WALL (  319307 calls)
     interpolate  :      0.40s CPU      0.41s WALL (      48 calls)
 
     Parallel routines

     PAW routines
     PAW_pot      :      1.55s CPU      1.59s WALL (      48 calls)
 
     PWSCF        :  13m13.43s CPU  14m39.84s WALL

 
   This run was terminated on:  16:40: 2  21Jun2024            

=------------------------------------------------------------------------------=
   JOB DONE.
=------------------------------------------------------------------------------=
