
     Program PWSCF v.7.2 starts on 21Jun2024 at 23:55:22 

     This program is part of the open-source Quantum ESPRESSO suite
     for quantum simulation of materials; please cite
         "P. Giannozzi et al., J. Phys.:Condens. Matter 21 395502 (2009);
         "P. Giannozzi et al., J. Phys.:Condens. Matter 29 465901 (2017);
         "P. Giannozzi et al., J. Chem. Phys. 152 154105 (2020);
          URL http://www.quantum-espresso.org", 
     in publications or presentations arising from this work. More details at
     http://www.quantum-espresso.org/quote

     Parallel version (MPI & OpenMP), running on      48 processor cores
     Number of MPI processes:                48
     Threads/MPI process:                     1

     MPI processes distributed on     1 nodes
     33230 MiB available memory on the printing compute node when the environment starts
 
     Reading input from espresso.pwi
Warning: card &CELL ignored
Warning: card / ignored
Warning: card &FCP ignored
Warning: card / ignored
Warning: card &RISM ignored
Warning: card / ignored

     Current dimensions of program PWSCF are:
     Max number of different atomic species (ntypx) = 10
     Max number of k-points (npk) =  40000
     Max angular momentum in pseudopotentials (lmaxx) =  4
     file O.pbe-n-kjpaw_psl.0.1.UPF: wavefunction(s)  2P renormalized
     signal trapping enabled: kill the code with -SIGUSR1 to stop cleanly the simulation 
 
     K-points division:     npool     =       2
     R & G space division:  proc/nbgrp/npool/nimage =      24
     Subspace diagonalization in iterative solution of the eigenvalue problem:
     one sub-group per band group will be used
     scalapack distributed-memory algorithm (size of sub-group:  3*  3 procs)

 
     Parallelization info
     --------------------
     sticks:   dense  smooth     PW     G-vecs:    dense   smooth      PW
     Min         350     175     47                61430    21716    3036
     Max         351     177     48                61449    21727    3041
     Sum        8421    4205   1137              1474595   521381   72913
 
     Using Slab Decomposition
 


     bravais-lattice index     =            0
     lattice parameter (alat)  =      14.8599  a.u.
     unit-cell volume          =    8305.1283 (a.u.)^3
     number of atoms/cell      =           50
     number of atomic types    =            4
     number of electrons       =       431.00
     number of Kohn-Sham states=          259
     kinetic-energy cutoff     =      60.0000  Ry
     charge density cutoff     =     480.0000  Ry
     scf convergence threshold =      1.0E-08
     mixing beta               =       0.1500
     number of iterations used =            8  local-TF  mixing
     Exchange-correlation= PBE
                           (   1   4   3   4   0   0   0)

     celldm(1)=  14.859904  celldm(2)=   0.000000  celldm(3)=   0.000000
     celldm(4)=   0.000000  celldm(5)=   0.000000  celldm(6)=   0.000000

     crystal axes: (cart. coord. in units of alat)
               a(1) = (   1.000000   0.000000   0.000000 )  
               a(2) = (   0.000000   1.000000   0.000000 )  
               a(3) = (   0.000000   0.000000   2.531036 )  

     reciprocal axes: (cart. coord. in units 2 pi/alat)
               b(1) = (  1.000000  0.000000  0.000000 )  
               b(2) = (  0.000000  1.000000  0.000000 )  
               b(3) = (  0.000000  0.000000  0.395095 )  


     PseudoPot. # 1 for Sr read from file:
     /bsuhome/zayahcortright/q-e/pseudo/Sr_pbe_v1.uspp.F.UPF
     MD5 check sum: 6b418c05fbe9db5448babca5e47b7a5b
     Pseudo is Ultrasoft + core correction, Zval = 10.0
     Generated by new atomic code, or converted to UPF format
     Using radial grid of  883 points,  6 beta functions with: 
                l(1) =   0
                l(2) =   0
                l(3) =   1
                l(4) =   1
                l(5) =   2
                l(6) =   2
     Q(r) pseudized with  6 coefficients,  rinner =    1.400   1.400   1.400
                                                       1.400   1.400

     PseudoPot. # 2 for O  read from file:
     /bsuhome/zayahcortright/q-e/pseudo/O.pbe-n-kjpaw_psl.0.1.UPF
     MD5 check sum: 0234752ac141de4415c5fc33072bef88
     Pseudo is Projector augmented-wave + core cor, Zval =  6.0
     Generated using "atomic" code by A. Dal Corso  v.5.0.99 svn rev. 10869
     Shape of augmentation charge: BESSEL
     Using radial grid of 1095 points,  4 beta functions with: 
                l(1) =   0
                l(2) =   0
                l(3) =   1
                l(4) =   1
     Q(r) pseudized with 0 coefficients 


     PseudoPot. # 3 for Co read from file:
     /bsuhome/zayahcortright/q-e/pseudo/Co_pbe_v1.2.uspp.F.UPF
     MD5 check sum: 5f91765df6ddd3222702df6e7b74a16d
     Pseudo is Ultrasoft + core correction, Zval = 17.0
     Generated by new atomic code, or converted to UPF format
     Using radial grid of  863 points,  6 beta functions with: 
                l(1) =   0
                l(2) =   0
                l(3) =   1
                l(4) =   1
                l(5) =   2
                l(6) =   2
     Q(r) pseudized with  8 coefficients,  rinner =    1.200   1.200   1.200
                                                       1.200   1.200

     PseudoPot. # 4 for H  read from file:
     /bsuhome/zayahcortright/q-e/pseudo/H.pbe-rrkjus_psl.1.0.0.UPF
     MD5 check sum: f52b6d4d1c606e5624b1dc7b2218f220
     Pseudo is Ultrasoft, Zval =  1.0
     Generated using "atomic" code by A. Dal Corso  v.5.1
     Using radial grid of  929 points,  2 beta functions with: 
                l(1) =   0
                l(2) =   0
     Q(r) pseudized with 0 coefficients 


     atomic species   valence    mass     pseudopotential
        Sr            10.00    87.62000     Sr( 1.00)
        O              6.00    15.99900     O ( 1.00)
        Co            17.00    58.93319     Co( 1.00)
        H              1.00     1.00800     H ( 1.00)

     No symmetry found


                                    s                        frac. trans.

      isym =  1     identity                                     

 cryst.   s( 1) = (     1          0          0      )
                  (     0          1          0      )
                  (     0          0          1      )

 cart.    s( 1) = (  1.0000000  0.0000000  0.0000000 )
                  (  0.0000000  1.0000000  0.0000000 )
                  (  0.0000000  0.0000000  1.0000000 )


   Cartesian axes

     site n.     atom                  positions (alat units)
         1           Sr  tau(   1) = (   0.2508693   0.7491307   1.7574407  )
         2           O   tau(   2) = (   0.4985141   0.5014859   1.7715967  )
         3           Sr  tau(   3) = (   0.7482398   0.7454518   1.7648669  )
         4           Sr  tau(   4) = (   0.7441748   0.2558252   1.7667843  )
         5           Sr  tau(   5) = (   0.2508693   0.7491307   1.2696799  )
         6           Sr  tau(   6) = (   0.2508693   0.7491307   0.7632319  )
         7           Co  tau(   7) = (   0.4998914   0.5001086   1.0164559  )
         8           Co  tau(   8) = (   0.4936915   0.5063085   1.5135603  )
         9           O   tau(   9) = (   0.4988895   0.7610401   1.0164559  )
        10           O   tau(  10) = (   0.2389599   0.5011105   1.0164559  )
        11           O   tau(  11) = (   0.0070918   0.7374880   1.0164559  )
        12           O   tau(  12) = (   0.0088340   0.7405089   1.5135603  )
        13           O   tau(  13) = (   0.5066944   0.7415376   1.5135603  )
        14           O   tau(  14) = (   0.2584624   0.4933056   1.5135603  )
        15           O   tau(  15) = (   0.4985141   0.5014859   0.7773880  )
        16           O   tau(  16) = (   0.4985141   0.5014859   1.2555238  )
        17           Sr  tau(  17) = (   0.7482398   0.7454518   0.7706582  )
        18           Sr  tau(  18) = (   0.7482398   0.7454518   1.2622536  )
        19           Sr  tau(  19) = (   0.7441748   0.2558252   0.7725755  )
        20           Sr  tau(  20) = (   0.7441748   0.2558252   1.2603363  )
        21           O   tau(  21) = (   0.7322655   0.0078049   1.5135603  )
        22           O   tau(  22) = (   0.7558175   0.4996027   1.5135603  )
        23           O   tau(  23) = (   0.5003973   0.2441825   1.5135603  )
        24           O   tau(  24) = (   0.7527966   0.4978604   1.0164559  )
        25           O   tau(  25) = (   0.5021396   0.2472034   1.0164559  )
        26           O   tau(  26) = (   0.7517679   0.0000000   1.0164559  )
        27           O   tau(  27) = (   0.0114961   0.4948124   1.7455321  )
        28           O   tau(  28) = (   0.0048226   0.0077944   1.7715967  )
        29           Sr  tau(  29) = (   0.2545482   0.2517602   1.7648669  )
        30           O   tau(  30) = (   0.5048017   0.0015068   1.7786929  )
        31           Co  tau(  31) = (   0.0056869   0.5006215   1.0164559  )
        32           Co  tau(  32) = (   0.0065315   0.4997770   1.5135603  )
        33           Co  tau(  33) = (   0.0061999   0.0064171   1.0164559  )
        34           Co  tau(  34) = (   0.0000000   0.0126169   1.5135603  )
        35           O   tau(  35) = (   0.0114961   0.4948124   1.2815885  )
        36           O   tau(  36) = (   0.0114961   0.4948124   0.7513233  )
        37           O   tau(  37) = (   0.0051979   0.2673486   1.0164559  )
        38           O   tau(  38) = (   0.0130029   0.2478461   1.5135603  )
        39           O   tau(  39) = (   0.0048226   0.0077944   0.7773880  )
        40           O   tau(  40) = (   0.0048226   0.0077944   1.2555238  )
        41           Sr  tau(  41) = (   0.2545482   0.2517602   0.7706582  )
        42           Sr  tau(  42) = (   0.2545482   0.2517602   1.2622536  )
        43           Co  tau(  43) = (   0.4989925   0.0073160   1.5135603  )
        44           Co  tau(  44) = (   0.4998370   0.0064714   1.0164559  )
        45           O   tau(  45) = (   0.5048017   0.0015068   0.7844841  )
        46           O   tau(  46) = (   0.5048017   0.0015068   1.2484277  )
        47           O   tau(  47) = (   0.2621260   0.0059111   1.5135603  )
        48           O   tau(  48) = (   0.2591051   0.0041689   1.0164559  )
        49           O   tau(  49) = (   0.7108228   0.0000000   2.1602013  )
        50           H   tau(  50) = (   0.7108228   0.0000000   2.2847091  )

   Crystallographic axes

     site n.     atom                  positions (cryst. coord.)
         1           Sr  tau(   1) = (  0.2508693  0.7491307  0.6943562  )
         2           O   tau(   2) = (  0.4985141  0.5014859  0.6999492  )
         3           Sr  tau(   3) = (  0.7482398  0.7454518  0.6972903  )
         4           Sr  tau(   4) = (  0.7441748  0.2558252  0.6980478  )
         5           Sr  tau(   5) = (  0.2508693  0.7491307  0.5016443  )
         6           Sr  tau(   6) = (  0.2508693  0.7491307  0.3015492  )
         7           Co  tau(   7) = (  0.4998914  0.5001086  0.4015968  )
         8           Co  tau(   8) = (  0.4936915  0.5063085  0.5980003  )
         9           O   tau(   9) = (  0.4988895  0.7610401  0.4015968  )
        10           O   tau(  10) = (  0.2389599  0.5011105  0.4015968  )
        11           O   tau(  11) = (  0.0070918  0.7374880  0.4015968  )
        12           O   tau(  12) = (  0.0088340  0.7405089  0.5980003  )
        13           O   tau(  13) = (  0.5066944  0.7415376  0.5980003  )
        14           O   tau(  14) = (  0.2584624  0.4933056  0.5980003  )
        15           O   tau(  15) = (  0.4985141  0.5014859  0.3071422  )
        16           O   tau(  16) = (  0.4985141  0.5014859  0.4960513  )
        17           Sr  tau(  17) = (  0.7482398  0.7454518  0.3044833  )
        18           Sr  tau(  18) = (  0.7482398  0.7454518  0.4987103  )
        19           Sr  tau(  19) = (  0.7441748  0.2558252  0.3052408  )
        20           Sr  tau(  20) = (  0.7441748  0.2558252  0.4979527  )
        21           O   tau(  21) = (  0.7322655  0.0078049  0.5980003  )
        22           O   tau(  22) = (  0.7558175  0.4996027  0.5980003  )
        23           O   tau(  23) = (  0.5003973  0.2441825  0.5980003  )
        24           O   tau(  24) = (  0.7527966  0.4978604  0.4015968  )
        25           O   tau(  25) = (  0.5021396  0.2472034  0.4015968  )
        26           O   tau(  26) = (  0.7517679  0.0000000  0.4015968  )
        27           O   tau(  27) = (  0.0114961  0.4948124  0.6896512  )
        28           O   tau(  28) = (  0.0048226  0.0077944  0.6999492  )
        29           Sr  tau(  29) = (  0.2545482  0.2517602  0.6972903  )
        30           O   tau(  30) = (  0.5048017  0.0015068  0.7027529  )
        31           Co  tau(  31) = (  0.0056869  0.5006215  0.4015968  )
        32           Co  tau(  32) = (  0.0065315  0.4997770  0.5980003  )
        33           Co  tau(  33) = (  0.0061999  0.0064171  0.4015968  )
        34           Co  tau(  34) = (  0.0000000  0.0126169  0.5980003  )
        35           O   tau(  35) = (  0.0114961  0.4948124  0.5063494  )
        36           O   tau(  36) = (  0.0114961  0.4948124  0.2968442  )
        37           O   tau(  37) = (  0.0051979  0.2673486  0.4015968  )
        38           O   tau(  38) = (  0.0130029  0.2478461  0.5980003  )
        39           O   tau(  39) = (  0.0048226  0.0077944  0.3071422  )
        40           O   tau(  40) = (  0.0048226  0.0077944  0.4960513  )
        41           Sr  tau(  41) = (  0.2545482  0.2517602  0.3044833  )
        42           Sr  tau(  42) = (  0.2545482  0.2517602  0.4987103  )
        43           Co  tau(  43) = (  0.4989925  0.0073160  0.5980003  )
        44           Co  tau(  44) = (  0.4998370  0.0064714  0.4015968  )
        45           O   tau(  45) = (  0.5048017  0.0015068  0.3099459  )
        46           O   tau(  46) = (  0.5048017  0.0015068  0.4932477  )
        47           O   tau(  47) = (  0.2621260  0.0059111  0.5980003  )
        48           O   tau(  48) = (  0.2591051  0.0041689  0.4015968  )
        49           O   tau(  49) = (  0.7108228  0.0000000  0.8534850  )
        50           H   tau(  50) = (  0.7108228  0.0000000  0.9026774  )

     number of k points=    10  Gaussian smearing, width (Ry)=  0.0700
                       cart. coord. in units 2pi/alat
        k(    1) = (   0.0000000   0.0000000   0.0000000), wk =   0.1250000
        k(    2) = (   0.0000000   0.2500000   0.0000000), wk =   0.2500000
        k(    3) = (   0.0000000  -0.5000000   0.0000000), wk =   0.1250000
        k(    4) = (   0.2500000   0.2500000   0.0000000), wk =   0.2500000
        k(    5) = (   0.2500000  -0.5000000   0.0000000), wk =   0.2500000
        k(    6) = (  -0.5000000  -0.5000000   0.0000000), wk =   0.1250000
        k(    7) = (   0.2500000   0.0000000   0.0000000), wk =   0.2500000
        k(    8) = (  -0.5000000   0.0000000   0.0000000), wk =   0.1250000
        k(    9) = (  -0.2500000   0.2500000   0.0000000), wk =   0.2500000
        k(   10) = (  -0.5000000   0.2500000   0.0000000), wk =   0.2500000

                       cryst. coord.
        k(    1) = (   0.0000000   0.0000000   0.0000000), wk =   0.1250000
        k(    2) = (   0.0000000   0.2500000   0.0000000), wk =   0.2500000
        k(    3) = (   0.0000000  -0.5000000   0.0000000), wk =   0.1250000
        k(    4) = (   0.2500000   0.2500000   0.0000000), wk =   0.2500000
        k(    5) = (   0.2500000  -0.5000000   0.0000000), wk =   0.2500000
        k(    6) = (  -0.5000000  -0.5000000   0.0000000), wk =   0.1250000
        k(    7) = (   0.2500000   0.0000000   0.0000000), wk =   0.2500000
        k(    8) = (  -0.5000000   0.0000000   0.0000000), wk =   0.1250000
        k(    9) = (  -0.2500000   0.2500000   0.0000000), wk =   0.2500000
        k(   10) = (  -0.5000000   0.2500000   0.0000000), wk =   0.2500000

     Dense  grid:  1474595 G-vectors     FFT dimensions: ( 108, 108, 270)

     Smooth grid:   521381 G-vectors     FFT dimensions: (  75,  75, 192)

     Dynamical RAM for                 wfc:      10.73 MB

     Dynamical RAM for     wfc (w. buffer):      64.38 MB

     Dynamical RAM for           str. fact:       3.75 MB

     Dynamical RAM for           local pot:       0.00 MB

     Dynamical RAM for          nlocal pot:      24.61 MB

     Dynamical RAM for                qrad:       7.03 MB

     Dynamical RAM for          rho,v,vnew:       6.02 MB

     Dynamical RAM for               rhoin:       2.01 MB

     Dynamical RAM for            rho*nmix:      15.00 MB

     Dynamical RAM for           G-vectors:       3.68 MB

     Dynamical RAM for          h,s,v(r/c):       1.35 MB

     Dynamical RAM for          <psi|beta>:       2.35 MB

     Dynamical RAM for                 psi:      21.46 MB

     Dynamical RAM for                hpsi:      21.46 MB

     Dynamical RAM for                spsi:      21.46 MB

     Dynamical RAM for      wfcinit/wfcrot:      34.49 MB

     Dynamical RAM for           addusdens:     101.26 MB

     Estimated static dynamical RAM per process >     121.50 MB

     Estimated max dynamical RAM per process >     237.76 MB

     Estimated total dynamical RAM >      10.79 GB

     Check: negative core charge=   -0.000004

     Initial potential from superposition of free atoms

     starting charge     422.5961, renormalised to     431.0000

     negative rho (up, down):  7.820E-01 0.000E+00
     Starting wfcs are  377 randomized atomic wfcs
     Checking if some PAW data can be deallocated... 
       PAW data deallocated on   19 nodes for type:  2

     total cpu time spent up to now is        8.8 secs

     Self-consistent Calculation

     iteration #  1     ecut=    60.00 Ry     beta= 0.15
     Davidson diagonalization with overlap

---- Real-time Memory Report at c_bands before calling an iterative solver
             0 MiB given to the printing process from OS
             0 MiB allocation reported by mallinfo(arena+hblkhd)
         23978 MiB available memory on the node where the printing process lives
------------------
     ethr =  1.00E-02,  avg # of iterations =  2.0

     negative rho (up, down):  7.714E-01 0.000E+00

     total cpu time spent up to now is       25.1 secs

     total energy              =   -4446.57240452 Ry
     estimated scf accuracy    <      44.74741016 Ry

     iteration #  2     ecut=    60.00 Ry     beta= 0.15
     Davidson diagonalization with overlap

---- Real-time Memory Report at c_bands before calling an iterative solver
             0 MiB given to the printing process from OS
             0 MiB allocation reported by mallinfo(arena+hblkhd)
         24247 MiB available memory on the node where the printing process lives
------------------
     ethr =  1.00E-02,  avg # of iterations =  1.0

     negative rho (up, down):  7.580E-01 0.000E+00

     total cpu time spent up to now is       39.3 secs

     total energy              =   -4443.25174628 Ry
     estimated scf accuracy    <      29.40589668 Ry

     iteration #  3     ecut=    60.00 Ry     beta= 0.15
     Davidson diagonalization with overlap

---- Real-time Memory Report at c_bands before calling an iterative solver
             0 MiB given to the printing process from OS
             0 MiB allocation reported by mallinfo(arena+hblkhd)
         23412 MiB available memory on the node where the printing process lives
------------------
     ethr =  6.82E-03,  avg # of iterations =  1.0

     negative rho (up, down):  7.554E-01 0.000E+00

     total cpu time spent up to now is       53.8 secs

     total energy              =   -4444.26174627 Ry
     estimated scf accuracy    <      29.12376971 Ry

     iteration #  4     ecut=    60.00 Ry     beta= 0.15
     Davidson diagonalization with overlap

---- Real-time Memory Report at c_bands before calling an iterative solver
             0 MiB given to the printing process from OS
             0 MiB allocation reported by mallinfo(arena+hblkhd)
         23387 MiB available memory on the node where the printing process lives
------------------
     ethr =  6.76E-03,  avg # of iterations =  1.0

     negative rho (up, down):  7.490E-01 0.000E+00

     total cpu time spent up to now is       68.2 secs

     total energy              =   -4443.04102253 Ry
     estimated scf accuracy    <      20.88668958 Ry

     iteration #  5     ecut=    60.00 Ry     beta= 0.15
     Davidson diagonalization with overlap

---- Real-time Memory Report at c_bands before calling an iterative solver
             0 MiB given to the printing process from OS
             0 MiB allocation reported by mallinfo(arena+hblkhd)
         23369 MiB available memory on the node where the printing process lives
------------------
     ethr =  4.85E-03,  avg # of iterations =  1.0

     negative rho (up, down):  7.411E-01 0.000E+00

     total cpu time spent up to now is       82.7 secs

     total energy              =   -4442.62807273 Ry
     estimated scf accuracy    <       9.85288113 Ry

     iteration #  6     ecut=    60.00 Ry     beta= 0.15
     Davidson diagonalization with overlap

---- Real-time Memory Report at c_bands before calling an iterative solver
             0 MiB given to the printing process from OS
             0 MiB allocation reported by mallinfo(arena+hblkhd)
         23349 MiB available memory on the node where the printing process lives
------------------
     ethr =  2.29E-03,  avg # of iterations =  1.1

     negative rho (up, down):  7.432E-01 0.000E+00

     total cpu time spent up to now is       97.3 secs

     total energy              =   -4442.80346170 Ry
     estimated scf accuracy    <       4.82041467 Ry

     iteration #  7     ecut=    60.00 Ry     beta= 0.15
     Davidson diagonalization with overlap

---- Real-time Memory Report at c_bands before calling an iterative solver
             0 MiB given to the printing process from OS
             0 MiB allocation reported by mallinfo(arena+hblkhd)
         23335 MiB available memory on the node where the printing process lives
------------------
     ethr =  1.12E-03,  avg # of iterations =  1.7

     negative rho (up, down):  7.654E-01 0.000E+00

     total cpu time spent up to now is      112.0 secs

     total energy              =   -4441.67105668 Ry
     estimated scf accuracy    <       3.88152442 Ry

     iteration #  8     ecut=    60.00 Ry     beta= 0.15
     Davidson diagonalization with overlap

---- Real-time Memory Report at c_bands before calling an iterative solver
             0 MiB given to the printing process from OS
             0 MiB allocation reported by mallinfo(arena+hblkhd)
         23310 MiB available memory on the node where the printing process lives
------------------
     ethr =  9.01E-04,  avg # of iterations =  5.3

     negative rho (up, down):  7.726E-01 0.000E+00

     total cpu time spent up to now is      131.5 secs

     total energy              =   -4441.60337403 Ry
     estimated scf accuracy    <      13.67675906 Ry

     iteration #  9     ecut=    60.00 Ry     beta= 0.15
     Davidson diagonalization with overlap

---- Real-time Memory Report at c_bands before calling an iterative solver
             0 MiB given to the printing process from OS
             0 MiB allocation reported by mallinfo(arena+hblkhd)
         23132 MiB available memory on the node where the printing process lives
------------------
     ethr =  9.01E-04,  avg # of iterations = 10.0

     negative rho (up, down):  7.707E-01 0.000E+00

     total cpu time spent up to now is      152.8 secs

     total energy              =   -4441.78945077 Ry
     estimated scf accuracy    <       2.23127402 Ry

     iteration # 10     ecut=    60.00 Ry     beta= 0.15
     Davidson diagonalization with overlap

---- Real-time Memory Report at c_bands before calling an iterative solver
             0 MiB given to the printing process from OS
             0 MiB allocation reported by mallinfo(arena+hblkhd)
         22804 MiB available memory on the node where the printing process lives
------------------
     ethr =  5.18E-04,  avg # of iterations =  1.8

     negative rho (up, down):  7.779E-01 0.000E+00

     total cpu time spent up to now is      168.9 secs

     total energy              =   -4441.92956968 Ry
     estimated scf accuracy    <       1.07317056 Ry

     iteration # 11     ecut=    60.00 Ry     beta= 0.15
     Davidson diagonalization with overlap

---- Real-time Memory Report at c_bands before calling an iterative solver
             0 MiB given to the printing process from OS
             0 MiB allocation reported by mallinfo(arena+hblkhd)
         22793 MiB available memory on the node where the printing process lives
------------------
     ethr =  2.49E-04,  avg # of iterations =  3.8

     negative rho (up, down):  8.116E-01 0.000E+00

     total cpu time spent up to now is      186.0 secs

     total energy              =   -4441.72219158 Ry
     estimated scf accuracy    <       1.23541282 Ry

     iteration # 12     ecut=    60.00 Ry     beta= 0.15
     Davidson diagonalization with overlap

---- Real-time Memory Report at c_bands before calling an iterative solver
             0 MiB given to the printing process from OS
             0 MiB allocation reported by mallinfo(arena+hblkhd)
         22791 MiB available memory on the node where the printing process lives
------------------
     ethr =  2.49E-04,  avg # of iterations =  9.4

     negative rho (up, down):  8.153E-01 0.000E+00

     total cpu time spent up to now is      206.4 secs

     total energy              =   -4441.83538265 Ry
     estimated scf accuracy    <       0.95638804 Ry

     iteration # 13     ecut=    60.00 Ry     beta= 0.15
     Davidson diagonalization with overlap

---- Real-time Memory Report at c_bands before calling an iterative solver
             0 MiB given to the printing process from OS
             0 MiB allocation reported by mallinfo(arena+hblkhd)
         22765 MiB available memory on the node where the printing process lives
------------------
     ethr =  2.22E-04,  avg # of iterations =  1.6

     negative rho (up, down):  8.171E-01 0.000E+00

     total cpu time spent up to now is      222.0 secs

     total energy              =   -4441.79119141 Ry
     estimated scf accuracy    <       0.56678474 Ry

     iteration # 14     ecut=    60.00 Ry     beta= 0.15
     Davidson diagonalization with overlap

---- Real-time Memory Report at c_bands before calling an iterative solver
             0 MiB given to the printing process from OS
             0 MiB allocation reported by mallinfo(arena+hblkhd)
         22770 MiB available memory on the node where the printing process lives
------------------
     c_bands:  2 eigenvalues not converged
     ethr =  1.32E-04,  avg # of iterations =  6.1

     negative rho (up, down):  8.259E-01 0.000E+00

     total cpu time spent up to now is      240.8 secs

     total energy              =   -4441.72215919 Ry
     estimated scf accuracy    <       0.35533737 Ry

     iteration # 15     ecut=    60.00 Ry     beta= 0.15
     Davidson diagonalization with overlap

---- Real-time Memory Report at c_bands before calling an iterative solver
             0 MiB given to the printing process from OS
             0 MiB allocation reported by mallinfo(arena+hblkhd)
         22761 MiB available memory on the node where the printing process lives
------------------
     ethr =  8.24E-05,  avg # of iterations = 12.7

     negative rho (up, down):  8.341E-01 0.000E+00

     total cpu time spent up to now is      262.9 secs

     total energy              =   -4441.72604280 Ry
     estimated scf accuracy    <       0.33019085 Ry

     iteration # 16     ecut=    60.00 Ry     beta= 0.15
     Davidson diagonalization with overlap

---- Real-time Memory Report at c_bands before calling an iterative solver
             0 MiB given to the printing process from OS
             0 MiB allocation reported by mallinfo(arena+hblkhd)
         22733 MiB available memory on the node where the printing process lives
------------------
     ethr =  7.66E-05,  avg # of iterations =  4.1

     negative rho (up, down):  8.286E-01 0.000E+00

     total cpu time spent up to now is      281.1 secs

     total energy              =   -4441.70908224 Ry
     estimated scf accuracy    <       0.27688674 Ry

     iteration # 17     ecut=    60.00 Ry     beta= 0.15
     Davidson diagonalization with overlap

---- Real-time Memory Report at c_bands before calling an iterative solver
             0 MiB given to the printing process from OS
             0 MiB allocation reported by mallinfo(arena+hblkhd)
         22733 MiB available memory on the node where the printing process lives
------------------
     ethr =  6.42E-05,  avg # of iterations =  1.2

     negative rho (up, down):  8.060E-01 0.000E+00

     total cpu time spent up to now is      296.1 secs

     total energy              =   -4441.68212049 Ry
     estimated scf accuracy    <       0.16203534 Ry

     iteration # 18     ecut=    60.00 Ry     beta= 0.15
     Davidson diagonalization with overlap

---- Real-time Memory Report at c_bands before calling an iterative solver
             0 MiB given to the printing process from OS
             0 MiB allocation reported by mallinfo(arena+hblkhd)
         22739 MiB available memory on the node where the printing process lives
------------------
     ethr =  3.76E-05,  avg # of iterations =  9.7

     negative rho (up, down):  8.263E-01 0.000E+00

     total cpu time spent up to now is      317.2 secs

     total energy              =   -4441.66831620 Ry
     estimated scf accuracy    <       0.12592063 Ry

     iteration # 19     ecut=    60.00 Ry     beta= 0.15
     Davidson diagonalization with overlap

---- Real-time Memory Report at c_bands before calling an iterative solver
             0 MiB given to the printing process from OS
             0 MiB allocation reported by mallinfo(arena+hblkhd)
         22669 MiB available memory on the node where the printing process lives
------------------
     ethr =  2.92E-05,  avg # of iterations =  7.5

     negative rho (up, down):  8.340E-01 0.000E+00

     total cpu time spent up to now is      337.1 secs

     total energy              =   -4441.66712208 Ry
     estimated scf accuracy    <       0.05894657 Ry

     iteration # 20     ecut=    60.00 Ry     beta= 0.15
     Davidson diagonalization with overlap

---- Real-time Memory Report at c_bands before calling an iterative solver
             0 MiB given to the printing process from OS
             0 MiB allocation reported by mallinfo(arena+hblkhd)
         22708 MiB available memory on the node where the printing process lives
------------------
     ethr =  1.37E-05,  avg # of iterations =  9.6

     negative rho (up, down):  8.186E-01 0.000E+00

     total cpu time spent up to now is      358.4 secs

     total energy              =   -4441.66347237 Ry
     estimated scf accuracy    <       0.03718535 Ry

     iteration # 21     ecut=    60.00 Ry     beta= 0.15
     Davidson diagonalization with overlap

---- Real-time Memory Report at c_bands before calling an iterative solver
             0 MiB given to the printing process from OS
             0 MiB allocation reported by mallinfo(arena+hblkhd)
         22669 MiB available memory on the node where the printing process lives
------------------
     ethr =  8.63E-06,  avg # of iterations =  5.6

     negative rho (up, down):  8.150E-01 0.000E+00

     total cpu time spent up to now is      377.1 secs

     total energy              =   -4441.66302845 Ry
     estimated scf accuracy    <       0.02420949 Ry

     iteration # 22     ecut=    60.00 Ry     beta= 0.15
     Davidson diagonalization with overlap

---- Real-time Memory Report at c_bands before calling an iterative solver
             0 MiB given to the printing process from OS
             0 MiB allocation reported by mallinfo(arena+hblkhd)
         22658 MiB available memory on the node where the printing process lives
------------------
     c_bands:  1 eigenvalues not converged
     c_bands:  1 eigenvalues not converged
     ethr =  5.62E-06,  avg # of iterations =  8.1

     negative rho (up, down):  7.985E-01 0.000E+00

     total cpu time spent up to now is      396.9 secs

     total energy              =   -4441.66004758 Ry
     estimated scf accuracy    <       0.01869933 Ry

     iteration # 23     ecut=    60.00 Ry     beta= 0.15
     Davidson diagonalization with overlap

---- Real-time Memory Report at c_bands before calling an iterative solver
             0 MiB given to the printing process from OS
             0 MiB allocation reported by mallinfo(arena+hblkhd)
         22674 MiB available memory on the node where the printing process lives
------------------
     ethr =  4.34E-06,  avg # of iterations =  9.9

     negative rho (up, down):  7.978E-01 0.000E+00

     total cpu time spent up to now is      417.5 secs

     total energy              =   -4441.65781117 Ry
     estimated scf accuracy    <       0.01169705 Ry

     iteration # 24     ecut=    60.00 Ry     beta= 0.15
     Davidson diagonalization with overlap

---- Real-time Memory Report at c_bands before calling an iterative solver
             0 MiB given to the printing process from OS
             0 MiB allocation reported by mallinfo(arena+hblkhd)
         22741 MiB available memory on the node where the printing process lives
------------------
     ethr =  2.71E-06,  avg # of iterations = 12.1

     negative rho (up, down):  8.028E-01 0.000E+00

     total cpu time spent up to now is      441.0 secs

     total energy              =   -4441.65811466 Ry
     estimated scf accuracy    <       0.00389569 Ry

     iteration # 25     ecut=    60.00 Ry     beta= 0.15
     Davidson diagonalization with overlap

---- Real-time Memory Report at c_bands before calling an iterative solver
             0 MiB given to the printing process from OS
             0 MiB allocation reported by mallinfo(arena+hblkhd)
         22659 MiB available memory on the node where the printing process lives
------------------
     ethr =  9.04E-07,  avg # of iterations =  8.0

     negative rho (up, down):  8.012E-01 0.000E+00

     total cpu time spent up to now is      461.4 secs

     total energy              =   -4441.65816807 Ry
     estimated scf accuracy    <       0.00156312 Ry

     iteration # 26     ecut=    60.00 Ry     beta= 0.15
     Davidson diagonalization with overlap

---- Real-time Memory Report at c_bands before calling an iterative solver
             0 MiB given to the printing process from OS
             0 MiB allocation reported by mallinfo(arena+hblkhd)
         22625 MiB available memory on the node where the printing process lives
------------------
     ethr =  3.63E-07,  avg # of iterations =  4.9

     negative rho (up, down):  7.982E-01 0.000E+00

     total cpu time spent up to now is      478.9 secs

     total energy              =   -4441.65798265 Ry
     estimated scf accuracy    <       0.00106710 Ry

     iteration # 27     ecut=    60.00 Ry     beta= 0.15
     Davidson diagonalization with overlap

---- Real-time Memory Report at c_bands before calling an iterative solver
             0 MiB given to the printing process from OS
             0 MiB allocation reported by mallinfo(arena+hblkhd)
         22637 MiB available memory on the node where the printing process lives
------------------
     c_bands:  1 eigenvalues not converged
     ethr =  2.48E-07,  avg # of iterations = 14.9

     negative rho (up, down):  7.998E-01 0.000E+00

     total cpu time spent up to now is      503.8 secs

     total energy              =   -4441.65797964 Ry
     estimated scf accuracy    <       0.00050597 Ry

     iteration # 28     ecut=    60.00 Ry     beta= 0.15
     Davidson diagonalization with overlap

---- Real-time Memory Report at c_bands before calling an iterative solver
             0 MiB given to the printing process from OS
             0 MiB allocation reported by mallinfo(arena+hblkhd)
         22625 MiB available memory on the node where the printing process lives
------------------
     ethr =  1.17E-07,  avg # of iterations =  5.9

     negative rho (up, down):  7.964E-01 0.000E+00

     total cpu time spent up to now is      524.6 secs

     total energy              =   -4441.65796703 Ry
     estimated scf accuracy    <       0.00015710 Ry

     iteration # 29     ecut=    60.00 Ry     beta= 0.15
     Davidson diagonalization with overlap

---- Real-time Memory Report at c_bands before calling an iterative solver
             0 MiB given to the printing process from OS
             0 MiB allocation reported by mallinfo(arena+hblkhd)
         22628 MiB available memory on the node where the printing process lives
------------------
     ethr =  3.65E-08,  avg # of iterations =  4.6

     negative rho (up, down):  7.953E-01 0.000E+00

     total cpu time spent up to now is      543.0 secs

     total energy              =   -4441.65796661 Ry
     estimated scf accuracy    <       0.00008894 Ry

     iteration # 30     ecut=    60.00 Ry     beta= 0.15
     Davidson diagonalization with overlap

---- Real-time Memory Report at c_bands before calling an iterative solver
             0 MiB given to the printing process from OS
             0 MiB allocation reported by mallinfo(arena+hblkhd)
         22628 MiB available memory on the node where the printing process lives
------------------
     ethr =  2.06E-08,  avg # of iterations =  2.0

     negative rho (up, down):  7.940E-01 0.000E+00

     total cpu time spent up to now is      559.6 secs

     total energy              =   -4441.65795410 Ry
     estimated scf accuracy    <       0.00005511 Ry

     iteration # 31     ecut=    60.00 Ry     beta= 0.15
     Davidson diagonalization with overlap

---- Real-time Memory Report at c_bands before calling an iterative solver
             0 MiB given to the printing process from OS
             0 MiB allocation reported by mallinfo(arena+hblkhd)
         22694 MiB available memory on the node where the printing process lives
------------------
     ethr =  1.28E-08,  avg # of iterations =  3.9

     negative rho (up, down):  7.931E-01 0.000E+00

     total cpu time spent up to now is      577.4 secs

     total energy              =   -4441.65794521 Ry
     estimated scf accuracy    <       0.00002572 Ry

     iteration # 32     ecut=    60.00 Ry     beta= 0.15
     Davidson diagonalization with overlap

---- Real-time Memory Report at c_bands before calling an iterative solver
             0 MiB given to the printing process from OS
             0 MiB allocation reported by mallinfo(arena+hblkhd)
         22680 MiB available memory on the node where the printing process lives
------------------
     ethr =  5.97E-09,  avg # of iterations =  4.8

     negative rho (up, down):  7.928E-01 0.000E+00

     total cpu time spent up to now is      595.0 secs

     total energy              =   -4441.65794343 Ry
     estimated scf accuracy    <       0.00001392 Ry

     iteration # 33     ecut=    60.00 Ry     beta= 0.15
     Davidson diagonalization with overlap

---- Real-time Memory Report at c_bands before calling an iterative solver
             0 MiB given to the printing process from OS
             0 MiB allocation reported by mallinfo(arena+hblkhd)
         22702 MiB available memory on the node where the printing process lives
------------------
     ethr =  3.23E-09,  avg # of iterations =  2.2

     negative rho (up, down):  7.923E-01 0.000E+00

     total cpu time spent up to now is      611.6 secs

     total energy              =   -4441.65794580 Ry
     estimated scf accuracy    <       0.00000670 Ry

     iteration # 34     ecut=    60.00 Ry     beta= 0.15
     Davidson diagonalization with overlap

---- Real-time Memory Report at c_bands before calling an iterative solver
             0 MiB given to the printing process from OS
             0 MiB allocation reported by mallinfo(arena+hblkhd)
         22702 MiB available memory on the node where the printing process lives
------------------
     ethr =  1.55E-09,  avg # of iterations =  4.1

     negative rho (up, down):  7.923E-01 0.000E+00

     total cpu time spent up to now is      629.4 secs

     total energy              =   -4441.65794591 Ry
     estimated scf accuracy    <       0.00000249 Ry

     iteration # 35     ecut=    60.00 Ry     beta= 0.15
     Davidson diagonalization with overlap

---- Real-time Memory Report at c_bands before calling an iterative solver
             0 MiB given to the printing process from OS
             0 MiB allocation reported by mallinfo(arena+hblkhd)
         22699 MiB available memory on the node where the printing process lives
------------------
     ethr =  5.77E-10,  avg # of iterations =  3.4

     negative rho (up, down):  7.924E-01 0.000E+00

     total cpu time spent up to now is      647.7 secs

     total energy              =   -4441.65794625 Ry
     estimated scf accuracy    <       0.00000109 Ry

     iteration # 36     ecut=    60.00 Ry     beta= 0.15
     Davidson diagonalization with overlap

---- Real-time Memory Report at c_bands before calling an iterative solver
             0 MiB given to the printing process from OS
             0 MiB allocation reported by mallinfo(arena+hblkhd)
         22703 MiB available memory on the node where the printing process lives
------------------
     ethr =  2.53E-10,  avg # of iterations =  2.1

     negative rho (up, down):  7.924E-01 0.000E+00

     total cpu time spent up to now is      664.4 secs

     total energy              =   -4441.65794644 Ry
     estimated scf accuracy    <       0.00000062 Ry

     iteration # 37     ecut=    60.00 Ry     beta= 0.15
     Davidson diagonalization with overlap

---- Real-time Memory Report at c_bands before calling an iterative solver
             0 MiB given to the printing process from OS
             0 MiB allocation reported by mallinfo(arena+hblkhd)
         22699 MiB available memory on the node where the printing process lives
------------------
     ethr =  1.45E-10,  avg # of iterations =  2.2

     negative rho (up, down):  7.924E-01 0.000E+00

     total cpu time spent up to now is      681.1 secs

     total energy              =   -4441.65794652 Ry
     estimated scf accuracy    <       0.00000062 Ry

     iteration # 38     ecut=    60.00 Ry     beta= 0.15
     Davidson diagonalization with overlap

---- Real-time Memory Report at c_bands before calling an iterative solver
             0 MiB given to the printing process from OS
             0 MiB allocation reported by mallinfo(arena+hblkhd)
         22704 MiB available memory on the node where the printing process lives
------------------
     ethr =  1.43E-10,  avg # of iterations =  1.4

     negative rho (up, down):  7.924E-01 0.000E+00

     total cpu time spent up to now is      696.4 secs

     total energy              =   -4441.65794663 Ry
     estimated scf accuracy    <       0.00000047 Ry

     iteration # 39     ecut=    60.00 Ry     beta= 0.15
     Davidson diagonalization with overlap

---- Real-time Memory Report at c_bands before calling an iterative solver
             0 MiB given to the printing process from OS
             0 MiB allocation reported by mallinfo(arena+hblkhd)
         22703 MiB available memory on the node where the printing process lives
------------------
     ethr =  1.09E-10,  avg # of iterations =  2.2

     negative rho (up, down):  7.924E-01 0.000E+00

     total cpu time spent up to now is      713.1 secs

     total energy              =   -4441.65794666 Ry
     estimated scf accuracy    <       0.00000025 Ry

     iteration # 40     ecut=    60.00 Ry     beta= 0.15
     Davidson diagonalization with overlap

---- Real-time Memory Report at c_bands before calling an iterative solver
             0 MiB given to the printing process from OS
             0 MiB allocation reported by mallinfo(arena+hblkhd)
         22707 MiB available memory on the node where the printing process lives
------------------
     ethr =  5.77E-11,  avg # of iterations =  2.9

     negative rho (up, down):  7.925E-01 0.000E+00

     total cpu time spent up to now is      730.1 secs

     total energy              =   -4441.65794664 Ry
     estimated scf accuracy    <       0.00000023 Ry

     iteration # 41     ecut=    60.00 Ry     beta= 0.15
     Davidson diagonalization with overlap

---- Real-time Memory Report at c_bands before calling an iterative solver
             0 MiB given to the printing process from OS
             0 MiB allocation reported by mallinfo(arena+hblkhd)
         22711 MiB available memory on the node where the printing process lives
------------------
     ethr =  5.26E-11,  avg # of iterations =  2.3

     negative rho (up, down):  7.925E-01 0.000E+00

     total cpu time spent up to now is      746.8 secs

     total energy              =   -4441.65794657 Ry
     estimated scf accuracy    <       0.00000012 Ry

     iteration # 42     ecut=    60.00 Ry     beta= 0.15
     Davidson diagonalization with overlap

---- Real-time Memory Report at c_bands before calling an iterative solver
             0 MiB given to the printing process from OS
             0 MiB allocation reported by mallinfo(arena+hblkhd)
         22714 MiB available memory on the node where the printing process lives
------------------
     ethr =  2.72E-11,  avg # of iterations =  3.0

     negative rho (up, down):  7.925E-01 0.000E+00

     total cpu time spent up to now is      764.2 secs

     total energy              =   -4441.65794659 Ry
     estimated scf accuracy    <       0.00000007 Ry

     iteration # 43     ecut=    60.00 Ry     beta= 0.15
     Davidson diagonalization with overlap

---- Real-time Memory Report at c_bands before calling an iterative solver
             0 MiB given to the printing process from OS
             0 MiB allocation reported by mallinfo(arena+hblkhd)
         22716 MiB available memory on the node where the printing process lives
------------------
     ethr =  1.54E-11,  avg # of iterations =  2.1

     negative rho (up, down):  7.925E-01 0.000E+00

     total cpu time spent up to now is      781.2 secs

     total energy              =   -4441.65794663 Ry
     estimated scf accuracy    <       0.00000004 Ry

     iteration # 44     ecut=    60.00 Ry     beta= 0.15
     Davidson diagonalization with overlap

---- Real-time Memory Report at c_bands before calling an iterative solver
             0 MiB given to the printing process from OS
             0 MiB allocation reported by mallinfo(arena+hblkhd)
         22712 MiB available memory on the node where the printing process lives
------------------
     ethr =  9.46E-12,  avg # of iterations =  3.2

     negative rho (up, down):  7.925E-01 0.000E+00

     total cpu time spent up to now is      798.3 secs

     total energy              =   -4441.65794666 Ry
     estimated scf accuracy    <       0.00000001 Ry

     iteration # 45     ecut=    60.00 Ry     beta= 0.15
     Davidson diagonalization with overlap

---- Real-time Memory Report at c_bands before calling an iterative solver
             0 MiB given to the printing process from OS
             0 MiB allocation reported by mallinfo(arena+hblkhd)
         22718 MiB available memory on the node where the printing process lives
------------------
     ethr =  3.47E-12,  avg # of iterations =  4.0

     negative rho (up, down):  7.925E-01 0.000E+00

     total cpu time spent up to now is      815.7 secs

     End of self-consistent calculation

          k = 0.0000 0.0000 0.0000 ( 65197 PWs)   bands (ev):

   -92.6861 -92.6326 -92.5394 -92.4939 -92.4343 -92.3920 -92.3748 -92.2548
   -56.0396 -56.0191 -55.8968 -55.8866 -55.8796 -55.8734 -55.8371 -55.8087
   -55.7934 -55.7915 -55.7832 -55.7418 -55.7252 -55.6853 -55.6657 -55.6345
   -55.6291 -55.5804 -55.5793 -55.5773 -55.5688 -55.5301 -55.5051 -55.4215
   -31.2633 -31.2441 -31.1022 -31.0156 -30.9355 -30.9077 -30.8466 -30.7935
   -29.8324 -29.7898 -29.7633 -29.6558 -15.0662 -15.0237 -14.9409 -14.8117
   -14.6183 -14.4966 -14.2036 -14.1813 -14.1544 -14.1060 -14.0623 -14.0532
   -14.0419 -14.0219 -14.0029 -13.9593 -13.9431 -13.9139 -13.7620 -13.5873
   -13.5506 -13.5210 -13.4897 -13.4737 -13.4169 -13.3837 -13.3080 -13.2356
   -13.0970 -13.0840 -13.0730 -13.0594 -13.0418 -12.9889 -12.9831 -12.9799
   -12.9643 -12.9378 -12.9083 -12.8857 -12.8117 -12.7959 -12.7868 -12.7524
   -12.7350 -12.7295 -12.7072 -12.6586 -12.6552 -12.3279 -12.1823 -12.0001
   -11.9391 -11.8461 -11.7720 -11.7607 -11.7384 -11.7207 -11.6571 -11.6396
   -11.6050 -11.5751 -11.4646 -11.3846 -11.3810  -2.9263  -2.6939  -2.4645
    -2.3176  -2.2545  -2.1125  -1.8054  -1.7914  -1.7715  -1.6880  -1.6676
    -1.5999  -1.5836  -1.5427  -1.4981  -1.3163  -1.1220  -1.0927  -1.0605
    -0.9156  -0.9011  -0.8555  -0.8352  -0.7895  -0.7742  -0.7185  -0.6916
    -0.6184  -0.6037  -0.5314  -0.3995  -0.3866  -0.3579  -0.2766  -0.2653
    -0.2555  -0.1842  -0.1128  -0.0580  -0.0137   0.0193   0.0865   0.1526
     0.1969   0.2251   0.2294   0.4882   0.5034   0.6798   0.7430   0.8126
     0.8553   0.9448   0.9579   0.9748   1.0392   1.0656   1.1001   1.1580
     1.2890   1.3500   1.3685   1.3879   1.4016   1.4680   1.5370   1.6446
     1.6569   1.7224   1.7365   1.7782   1.7942   1.7991   1.8586   1.9125
     1.9520   1.9731   2.0164   2.0444   2.1752   2.2586   2.3001   2.3258
     2.4270   2.4783   2.4940   2.5183   2.5292   2.5354   2.6443   2.6742
     2.7006   2.7192   2.7324   2.8133   2.9230   2.9534   2.9661   2.9729
     3.0410   3.0446   3.0692   3.0764   3.0852   3.0990   3.1050   3.1186
     3.1232   3.1367   3.1445   3.1521   3.1719   3.1932   3.1981   3.2103
     3.2428   3.3513   3.4275   4.1220   4.4545   4.7860   4.8751   5.0585
     5.7558   5.9502   6.0048   6.0251   6.3296   6.3764   6.4903   6.5002
     6.7368   7.0177   7.0973   7.3317   7.4299   7.5752   7.6605   7.6764
     7.7029   7.9064   8.0137   8.0513   8.1233   8.1862   8.3562   8.4468
     8.7342   8.8575   8.9119

     occupation numbers 
     1.0000   1.0000   1.0000   1.0000   1.0000   1.0000   1.0000   1.0000
     1.0000   1.0000   1.0000   1.0000   1.0000   1.0000   1.0000   1.0000
     1.0000   1.0000   1.0000   1.0000   1.0000   1.0000   1.0000   1.0000
     1.0000   1.0000   1.0000   1.0000   1.0000   1.0000   1.0000   1.0000
     1.0000   1.0000   1.0000   1.0000   1.0000   1.0000   1.0000   1.0000
     1.0000   1.0000   1.0000   1.0000   1.0000   1.0000   1.0000   1.0000
     1.0000   1.0000   1.0000   1.0000   1.0000   1.0000   1.0000   1.0000
     1.0000   1.0000   1.0000   1.0000   1.0000   1.0000   1.0000   1.0000
     1.0000   1.0000   1.0000   1.0000   1.0000   1.0000   1.0000   1.0000
     1.0000   1.0000   1.0000   1.0000   1.0000   1.0000   1.0000   1.0000
     1.0000   1.0000   1.0000   1.0000   1.0000   1.0000   1.0000   1.0000
     1.0000   1.0000   1.0000   1.0000   1.0000   1.0000   1.0000   1.0000
     1.0000   1.0000   1.0000   1.0000   1.0000   1.0000   1.0000   1.0000
     1.0000   1.0000   1.0000   1.0000   1.0000   1.0000   1.0000   1.0000
     1.0000   1.0000   1.0000   1.0000   1.0000   1.0000   1.0000   1.0000
     1.0000   1.0000   1.0000   1.0000   1.0000   1.0000   1.0000   1.0000
     1.0000   1.0000   1.0000   1.0000   1.0000   1.0000   1.0000   1.0000
     1.0000   1.0000   1.0000   1.0000   1.0000   1.0000   1.0000   1.0000
     1.0000   1.0000   1.0000   1.0000   1.0000   1.0000   1.0000   1.0000
     1.0000   1.0000   1.0000   1.0000   1.0000   1.0000   0.9999   0.9999
     0.9999   0.9998   0.9998   0.9998   0.9997   0.9996   0.9996   0.9994
     0.9988   0.9985   0.9983   0.9981   0.9980   0.9973   0.9963   0.9941
     0.9938   0.9919   0.9914   0.9899   0.9892   0.9890   0.9862   0.9831
     0.9805   0.9790   0.9755   0.9730   0.9584   0.9462   0.9391   0.9343
     0.9129   0.9002   0.8960   0.8893   0.8863   0.8845   0.8499   0.8393
     0.8295   0.8225   0.8173   0.7838   0.7331   0.7180   0.7116   0.7081
     0.6725   0.6706   0.6573   0.6533   0.6485   0.6409   0.6375   0.6300
     0.6273   0.6197   0.6153   0.6110   0.5997   0.5874   0.5846   0.5775
     0.5585   0.4945   0.4494   0.1234   0.0493   0.0160   0.0114   0.0054
     0.0002   0.0001   0.0000   0.0000   0.0000   0.0000   0.0000   0.0000
     0.0000   0.0000   0.0000   0.0000   0.0000   0.0000   0.0000   0.0000
     0.0000   0.0000   0.0000   0.0000   0.0000   0.0000   0.0000   0.0000
     0.0000   0.0000   0.0000

          k = 0.0000 0.2500 0.0000 ( 65257 PWs)   bands (ev):

   -92.6861 -92.6326 -92.5394 -92.4939 -92.4343 -92.3920 -92.3748 -92.2548
   -56.0396 -56.0191 -55.8968 -55.8866 -55.8796 -55.8734 -55.8371 -55.8087
   -55.7934 -55.7915 -55.7832 -55.7418 -55.7252 -55.6853 -55.6657 -55.6345
   -55.6291 -55.5804 -55.5793 -55.5773 -55.5688 -55.5301 -55.5051 -55.4215
   -31.2631 -31.2439 -31.1024 -31.0157 -30.9352 -30.9075 -30.8470 -30.7938
   -29.8318 -29.7895 -29.7639 -29.6561 -15.0296 -14.9978 -14.9158 -14.7823
   -14.6597 -14.4859 -14.3491 -14.1696 -14.1338 -14.1120 -14.0816 -14.0271
   -14.0185 -14.0068 -13.9848 -13.9543 -13.9224 -13.8336 -13.7934 -13.6327
   -13.6109 -13.5620 -13.5269 -13.4824 -13.4370 -13.3871 -13.3273 -13.2928
   -13.1855 -13.1431 -13.1323 -13.0940 -13.0750 -12.9765 -12.9681 -12.9463
   -12.9195 -12.8869 -12.8538 -12.8424 -12.8011 -12.7839 -12.7664 -12.7456
   -12.7152 -12.6795 -12.6516 -12.5828 -12.4931 -12.3893 -12.2335 -12.0560
   -12.0057 -11.8117 -11.7688 -11.7406 -11.7126 -11.6961 -11.6489 -11.6374
   -11.6145 -11.5805 -11.4789 -11.4263 -11.4157  -2.7910  -2.5696  -2.4321
    -2.2501  -2.2065  -2.0428  -1.8240  -1.7390  -1.7260  -1.6693  -1.5661
    -1.5496  -1.5163  -1.4893  -1.4455  -1.2477  -1.1300  -1.1114  -1.1044
    -1.0313  -1.0208  -0.9157  -0.8863  -0.8271  -0.8021  -0.7625  -0.6993
    -0.6722  -0.6402  -0.6055  -0.5884  -0.5574  -0.4838  -0.4336  -0.3705
    -0.2571  -0.2402  -0.1935  -0.0737  -0.0374   0.0306   0.0761   0.1439
     0.1520   0.1786   0.2426   0.5380   0.6234   0.6537   0.7449   0.7930
     0.8186   0.9277   0.9459   1.0471   1.0676   1.0920   1.2070   1.2990
     1.3255   1.3461   1.3640   1.3921   1.4505   1.4785   1.5062   1.5534
     1.5895   1.6207   1.7055   1.7334   1.7799   1.8264   1.8817   1.9505
     1.9598   1.9777   2.0011   2.0934   2.2087   2.2824   2.3058   2.3754
     2.4125   2.4408   2.4694   2.4778   2.5214   2.5411   2.5700   2.6614
     2.6937   2.7083   2.8801   2.9029   2.9358   2.9567   2.9739   2.9823
     2.9895   2.9988   3.0281   3.0301   3.0493   3.0522   3.0640   3.0823
     3.0931   3.1014   3.1234   3.1338   3.1386   3.1738   3.1907   3.2512
     3.6289   3.6523   3.8959   4.3126   4.4521   4.7239   5.0269   5.0842
     5.6540   5.8029   5.9416   6.0000   6.0978   6.1219   6.1985   6.6064
     6.8469   7.0864   7.1292   7.3415   7.4930   7.5098   7.5425   7.6553
     7.8589   7.9861   8.0275   8.1810   8.2857   8.3599   8.3852   8.4251
     8.6351   8.8503   8.9481

     occupation numbers 
     1.0000   1.0000   1.0000   1.0000   1.0000   1.0000   1.0000   1.0000
     1.0000   1.0000   1.0000   1.0000   1.0000   1.0000   1.0000   1.0000
     1.0000   1.0000   1.0000   1.0000   1.0000   1.0000   1.0000   1.0000
     1.0000   1.0000   1.0000   1.0000   1.0000   1.0000   1.0000   1.0000
     1.0000   1.0000   1.0000   1.0000   1.0000   1.0000   1.0000   1.0000
     1.0000   1.0000   1.0000   1.0000   1.0000   1.0000   1.0000   1.0000
     1.0000   1.0000   1.0000   1.0000   1.0000   1.0000   1.0000   1.0000
     1.0000   1.0000   1.0000   1.0000   1.0000   1.0000   1.0000   1.0000
     1.0000   1.0000   1.0000   1.0000   1.0000   1.0000   1.0000   1.0000
     1.0000   1.0000   1.0000   1.0000   1.0000   1.0000   1.0000   1.0000
     1.0000   1.0000   1.0000   1.0000   1.0000   1.0000   1.0000   1.0000
     1.0000   1.0000   1.0000   1.0000   1.0000   1.0000   1.0000   1.0000
     1.0000   1.0000   1.0000   1.0000   1.0000   1.0000   1.0000   1.0000
     1.0000   1.0000   1.0000   1.0000   1.0000   1.0000   1.0000   1.0000
     1.0000   1.0000   1.0000   1.0000   1.0000   1.0000   1.0000   1.0000
     1.0000   1.0000   1.0000   1.0000   1.0000   1.0000   1.0000   1.0000
     1.0000   1.0000   1.0000   1.0000   1.0000   1.0000   1.0000   1.0000
     1.0000   1.0000   1.0000   1.0000   1.0000   1.0000   1.0000   1.0000
     1.0000   1.0000   1.0000   1.0000   1.0000   1.0000   1.0000   1.0000
     1.0000   1.0000   1.0000   1.0000   1.0000   1.0000   0.9999   0.9999
     0.9999   0.9998   0.9998   0.9997   0.9996   0.9996   0.9992   0.9988
     0.9986   0.9985   0.9983   0.9981   0.9975   0.9972   0.9968   0.9960
     0.9954   0.9947   0.9925   0.9915   0.9898   0.9878   0.9849   0.9806
     0.9799   0.9786   0.9768   0.9681   0.9538   0.9422   0.9380   0.9244
     0.9162   0.9096   0.9025   0.9003   0.8885   0.8828   0.8742   0.8439
     0.8321   0.8266   0.7536   0.7428   0.7268   0.7164   0.7077   0.7034
     0.6996   0.6948   0.6794   0.6784   0.6681   0.6665   0.6601   0.6501
     0.6441   0.6396   0.6272   0.6214   0.6186   0.5986   0.5888   0.5536
     0.3351   0.3225   0.2054   0.0748   0.0496   0.0201   0.0062   0.0048
     0.0003   0.0001   0.0001   0.0000   0.0000   0.0000   0.0000   0.0000
     0.0000   0.0000   0.0000   0.0000   0.0000   0.0000   0.0000   0.0000
     0.0000   0.0000   0.0000   0.0000   0.0000   0.0000   0.0000   0.0000
     0.0000   0.0000   0.0000

          k = 0.0000-0.5000 0.0000 ( 65180 PWs)   bands (ev):

   -92.6861 -92.6326 -92.5394 -92.4939 -92.4343 -92.3920 -92.3748 -92.2548
   -56.0396 -56.0191 -55.8968 -55.8866 -55.8796 -55.8734 -55.8371 -55.8087
   -55.7934 -55.7915 -55.7832 -55.7418 -55.7252 -55.6853 -55.6657 -55.6345
   -55.6291 -55.5804 -55.5793 -55.5773 -55.5688 -55.5301 -55.5051 -55.4215
   -31.2629 -31.2438 -31.1026 -31.0159 -30.9348 -30.9072 -30.8473 -30.7941
   -29.8312 -29.7892 -29.7645 -29.6565 -14.9952 -14.9464 -14.8931 -14.7629
   -14.6803 -14.5434 -14.3894 -14.2652 -14.1424 -14.0608 -14.0257 -14.0194
   -13.9722 -13.9555 -13.9529 -13.9048 -13.8851 -13.8599 -13.8264 -13.7832
   -13.7415 -13.5681 -13.5100 -13.4891 -13.4415 -13.3748 -13.3438 -13.2715
   -13.2687 -13.2241 -13.2034 -13.0948 -13.0757 -12.9637 -12.9548 -12.9420
   -12.9145 -12.8888 -12.8655 -12.8012 -12.7639 -12.7389 -12.7122 -12.6909
   -12.6764 -12.6498 -12.6371 -12.5002 -12.4325 -12.3087 -12.2694 -12.1708
   -12.1207 -11.7658 -11.7633 -11.7355 -11.6985 -11.6639 -11.6525 -11.6106
   -11.6067 -11.5624 -11.5006 -11.4871 -11.4729  -2.5770  -2.5162  -2.3669
    -2.2945  -2.0139  -1.9286  -1.8025  -1.6649  -1.6290  -1.6082  -1.5296
    -1.4975  -1.4163  -1.3805  -1.3038  -1.2637  -1.2253  -1.1980  -1.1427
    -1.1211  -1.1006  -1.0560  -1.0174  -0.9862  -0.9505  -0.8427  -0.7982
    -0.7629  -0.7619  -0.6755  -0.6437  -0.6200  -0.5676  -0.4884  -0.4136
    -0.3316  -0.3043  -0.1972  -0.1435  -0.0139   0.0210   0.0503   0.1146
     0.2569   0.2886   0.4072   0.4774   0.4846   0.6111   0.6593   0.7855
     0.8898   1.0014   1.0314   1.0697   1.0725   1.1181   1.1287   1.1665
     1.1902   1.1950   1.3027   1.3663   1.3910   1.4168   1.6775   1.7144
     1.7434   1.8384   1.8786   1.8844   1.9027   1.9281   1.9473   1.9709
     1.9924   2.0186   2.0522   2.0836   2.0857   2.1181   2.1695   2.2525
     2.2819   2.4291   2.4680   2.5243   2.6190   2.6306   2.6558   2.6833
     2.6906   2.6992   2.7500   2.7601   2.8144   2.8355   2.9139   2.9264
     2.9935   3.0044   3.0252   3.0269   3.0459   3.0513   3.0544   3.0583
     3.0625   3.0756   3.0934   3.0949   3.1591   3.1642   3.1803   3.2342
     4.1531   4.1818   4.2032   4.2690   4.7576   4.9168   5.0396   5.1724
     5.4273   5.4784   5.5961   5.7345   6.0361   6.0671   6.2989   6.4922
     6.8618   6.9626   7.2345   7.3108   7.3612   7.4884   7.6418   7.7676
     7.9214   8.0526   8.1968   8.2500   8.3293   8.4714   8.5333   8.6849
     8.8300   8.8428   8.8897

     occupation numbers 
     1.0000   1.0000   1.0000   1.0000   1.0000   1.0000   1.0000   1.0000
     1.0000   1.0000   1.0000   1.0000   1.0000   1.0000   1.0000   1.0000
     1.0000   1.0000   1.0000   1.0000   1.0000   1.0000   1.0000   1.0000
     1.0000   1.0000   1.0000   1.0000   1.0000   1.0000   1.0000   1.0000
     1.0000   1.0000   1.0000   1.0000   1.0000   1.0000   1.0000   1.0000
     1.0000   1.0000   1.0000   1.0000   1.0000   1.0000   1.0000   1.0000
     1.0000   1.0000   1.0000   1.0000   1.0000   1.0000   1.0000   1.0000
     1.0000   1.0000   1.0000   1.0000   1.0000   1.0000   1.0000   1.0000
     1.0000   1.0000   1.0000   1.0000   1.0000   1.0000   1.0000   1.0000
     1.0000   1.0000   1.0000   1.0000   1.0000   1.0000   1.0000   1.0000
     1.0000   1.0000   1.0000   1.0000   1.0000   1.0000   1.0000   1.0000
     1.0000   1.0000   1.0000   1.0000   1.0000   1.0000   1.0000   1.0000
     1.0000   1.0000   1.0000   1.0000   1.0000   1.0000   1.0000   1.0000
     1.0000   1.0000   1.0000   1.0000   1.0000   1.0000   1.0000   1.0000
     1.0000   1.0000   1.0000   1.0000   1.0000   1.0000   1.0000   1.0000
     1.0000   1.0000   1.0000   1.0000   1.0000   1.0000   1.0000   1.0000
     1.0000   1.0000   1.0000   1.0000   1.0000   1.0000   1.0000   1.0000
     1.0000   1.0000   1.0000   1.0000   1.0000   1.0000   1.0000   1.0000
     1.0000   1.0000   1.0000   1.0000   1.0000   1.0000   1.0000   1.0000
     1.0000   1.0000   1.0000   1.0000   1.0000   1.0000   1.0000   0.9999
     0.9999   0.9997   0.9997   0.9996   0.9996   0.9995   0.9995   0.9994
     0.9993   0.9993   0.9988   0.9983   0.9981   0.9979   0.9933   0.9922
     0.9912   0.9872   0.9851   0.9848   0.9837   0.9821   0.9808   0.9791
     0.9775   0.9753   0.9723   0.9692   0.9689   0.9654   0.9592   0.9471
     0.9423   0.9124   0.9028   0.8877   0.8585   0.8546   0.8459   0.8360
     0.8333   0.8301   0.8103   0.8062   0.7833   0.7740   0.7375   0.7314
     0.6976   0.6919   0.6809   0.6801   0.6699   0.6670   0.6653   0.6632
     0.6609   0.6538   0.6440   0.6431   0.6070   0.6041   0.5949   0.5636
     0.1142   0.1062   0.1005   0.0843   0.0178   0.0097   0.0059   0.0033
     0.0010   0.0008   0.0004   0.0002   0.0000   0.0000   0.0000   0.0000
     0.0000   0.0000   0.0000   0.0000   0.0000   0.0000   0.0000   0.0000
     0.0000   0.0000   0.0000   0.0000   0.0000   0.0000   0.0000   0.0000
     0.0000   0.0000   0.0000

          k = 0.2500 0.2500 0.0000 ( 65198 PWs)   bands (ev):

   -92.6861 -92.6326 -92.5394 -92.4939 -92.4343 -92.3920 -92.3748 -92.2548
   -56.0396 -56.0191 -55.8968 -55.8866 -55.8796 -55.8734 -55.8371 -55.8087
   -55.7934 -55.7915 -55.7832 -55.7418 -55.7252 -55.6853 -55.6657 -55.6345
   -55.6291 -55.5804 -55.5793 -55.5773 -55.5688 -55.5301 -55.5051 -55.4215
   -31.2614 -31.2457 -31.1020 -31.0161 -30.9340 -30.9086 -30.8464 -30.7944
   -29.8308 -29.7905 -29.7635 -29.6566 -15.0010 -14.9635 -14.8877 -14.7716
   -14.6516 -14.5264 -14.4542 -14.2457 -14.0929 -14.0792 -14.0418 -14.0134
   -13.9914 -13.9676 -13.9533 -13.9306 -13.8857 -13.8229 -13.8073 -13.6476
   -13.6326 -13.6038 -13.5843 -13.5336 -13.4953 -13.4178 -13.4103 -13.2541
   -13.2250 -13.2058 -13.1272 -13.0865 -13.0342 -13.0035 -12.9607 -12.9349
   -12.9206 -12.9011 -12.8423 -12.8225 -12.7770 -12.7375 -12.7296 -12.7174
   -12.6994 -12.6843 -12.6747 -12.4938 -12.4377 -12.3792 -12.2626 -12.0871
   -12.0557 -11.7839 -11.7525 -11.7413 -11.7338 -11.6720 -11.6366 -11.6305
   -11.5951 -11.5862 -11.4957 -11.4546 -11.4371  -2.6528  -2.4439  -2.3261
    -2.2319  -2.1110  -2.0461  -1.8489  -1.7038  -1.6846  -1.6559  -1.5612
    -1.5264  -1.4320  -1.4054  -1.3549  -1.2233  -1.1759  -1.1192  -1.1027
    -1.0572  -1.0135  -0.9884  -0.9651  -0.9212  -0.9071  -0.8167  -0.7659
    -0.7025  -0.6522  -0.6208  -0.5719  -0.5559  -0.4938  -0.4465  -0.3901
    -0.3553  -0.2704  -0.2157  -0.1868  -0.1484  -0.0930  -0.0123   0.0216
     0.0471   0.1368   0.1611   0.4252   0.5717   0.6079   0.6668   0.7112
     0.7842   0.8356   0.8912   0.9201   1.1900   1.2563   1.3297   1.3556
     1.4028   1.4363   1.4699   1.5073   1.5244   1.5518   1.5974   1.6054
     1.6199   1.6640   1.7077   1.7448   1.8050   1.8461   1.8536   1.9010
     1.9261   1.9835   2.0229   2.1331   2.1925   2.2267   2.2506   2.3193
     2.3890   2.4150   2.4332   2.4475   2.4720   2.4921   2.5275   2.6048
     2.6329   2.7211   2.8919   2.9084   2.9149   2.9307   2.9457   2.9586
     2.9710   2.9783   2.9891   3.0020   3.0141   3.0332   3.0396   3.0514
     3.0741   3.0851   3.0942   3.1259   3.4265   3.5210   3.5613   3.6343
     3.6681   3.8716   3.9696   4.3227   4.5385   4.7323   4.9974   5.1745
     5.6604   5.7146   5.7702   5.8522   5.9102   6.0893   6.1710   6.2220
     6.9077   6.9424   7.0832   7.2627   7.5633   7.6132   7.7242   7.8453
     7.8989   8.0364   8.1779   8.2313   8.3205   8.3611   8.4432   8.4594
     8.5445   8.8265   8.9526

     occupation numbers 
     1.0000   1.0000   1.0000   1.0000   1.0000   1.0000   1.0000   1.0000
     1.0000   1.0000   1.0000   1.0000   1.0000   1.0000   1.0000   1.0000
     1.0000   1.0000   1.0000   1.0000   1.0000   1.0000   1.0000   1.0000
     1.0000   1.0000   1.0000   1.0000   1.0000   1.0000   1.0000   1.0000
     1.0000   1.0000   1.0000   1.0000   1.0000   1.0000   1.0000   1.0000
     1.0000   1.0000   1.0000   1.0000   1.0000   1.0000   1.0000   1.0000
     1.0000   1.0000   1.0000   1.0000   1.0000   1.0000   1.0000   1.0000
     1.0000   1.0000   1.0000   1.0000   1.0000   1.0000   1.0000   1.0000
     1.0000   1.0000   1.0000   1.0000   1.0000   1.0000   1.0000   1.0000
     1.0000   1.0000   1.0000   1.0000   1.0000   1.0000   1.0000   1.0000
     1.0000   1.0000   1.0000   1.0000   1.0000   1.0000   1.0000   1.0000
     1.0000   1.0000   1.0000   1.0000   1.0000   1.0000   1.0000   1.0000
     1.0000   1.0000   1.0000   1.0000   1.0000   1.0000   1.0000   1.0000
     1.0000   1.0000   1.0000   1.0000   1.0000   1.0000   1.0000   1.0000
     1.0000   1.0000   1.0000   1.0000   1.0000   1.0000   1.0000   1.0000
     1.0000   1.0000   1.0000   1.0000   1.0000   1.0000   1.0000   1.0000
     1.0000   1.0000   1.0000   1.0000   1.0000   1.0000   1.0000   1.0000
     1.0000   1.0000   1.0000   1.0000   1.0000   1.0000   1.0000   1.0000
     1.0000   1.0000   1.0000   1.0000   1.0000   1.0000   1.0000   1.0000
     1.0000   1.0000   1.0000   1.0000   1.0000   1.0000   1.0000   1.0000
     0.9999   0.9999   0.9999   0.9998   0.9993   0.9990   0.9986   0.9984
     0.9980   0.9977   0.9973   0.9968   0.9965   0.9961   0.9952   0.9950
     0.9947   0.9936   0.9924   0.9911   0.9888   0.9868   0.9864   0.9838
     0.9822   0.9782   0.9749   0.9637   0.9561   0.9511   0.9474   0.9356
     0.9215   0.9156   0.9114   0.9080   0.9018   0.8965   0.8868   0.8632
     0.8538   0.8217   0.7480   0.7401   0.7370   0.7293   0.7219   0.7154
     0.7091   0.7054   0.6999   0.6931   0.6868   0.6767   0.6733   0.6669
     0.6546   0.6486   0.6435   0.6258   0.4501   0.3952   0.3723   0.3321
     0.3141   0.2158   0.1757   0.0727   0.0378   0.0195   0.0070   0.0033
     0.0003   0.0002   0.0002   0.0001   0.0001   0.0000   0.0000   0.0000
     0.0000   0.0000   0.0000   0.0000   0.0000   0.0000   0.0000   0.0000
     0.0000   0.0000   0.0000   0.0000   0.0000   0.0000   0.0000   0.0000
     0.0000   0.0000   0.0000

          k = 0.2500-0.5000 0.0000 ( 65138 PWs)   bands (ev):

   -92.6861 -92.6326 -92.5394 -92.4939 -92.4343 -92.3920 -92.3748 -92.2548
   -56.0396 -56.0191 -55.8968 -55.8866 -55.8796 -55.8734 -55.8371 -55.8087
   -55.7934 -55.7915 -55.7832 -55.7418 -55.7252 -55.6853 -55.6657 -55.6345
   -55.6291 -55.5804 -55.5793 -55.5773 -55.5688 -55.5301 -55.5051 -55.4215
   -31.2612 -31.2455 -31.1022 -31.0163 -30.9337 -30.9084 -30.8467 -30.7947
   -29.8302 -29.7902 -29.7641 -29.6569 -14.9650 -14.9196 -14.8506 -14.7335
   -14.7020 -14.5838 -14.4907 -14.3618 -14.0569 -14.0009 -13.9773 -13.9557
   -13.9529 -13.9379 -13.9278 -13.8895 -13.8736 -13.8390 -13.8043 -13.7741
   -13.7315 -13.6508 -13.6020 -13.5491 -13.5233 -13.4545 -13.4248 -13.3067
   -13.2710 -13.1924 -13.1276 -13.1042 -13.0187 -12.9757 -12.9592 -12.9291
   -12.9152 -12.8971 -12.8495 -12.8295 -12.7574 -12.7416 -12.7300 -12.6915
   -12.6699 -12.6408 -12.6091 -12.5068 -12.4041 -12.3062 -12.2388 -12.1647
   -12.1219 -11.7595 -11.7475 -11.7365 -11.7090 -11.6778 -11.6491 -11.6079
   -11.5810 -11.5586 -11.5138 -11.4881 -11.4771  -2.4353  -2.3678  -2.2408
    -2.1632  -2.0343  -1.9488  -1.8268  -1.6764  -1.6232  -1.6008  -1.5373
    -1.5242  -1.4270  -1.3595  -1.2754  -1.2256  -1.2163  -1.1534  -1.1205
    -1.1095  -1.0753  -1.0281  -0.9910  -0.9561  -0.9159  -0.9036  -0.8585
    -0.8293  -0.7887  -0.7570  -0.6909  -0.5901  -0.5456  -0.4712  -0.4057
    -0.3571  -0.3133  -0.2923  -0.2401  -0.0777  -0.0622   0.0332   0.0745
     0.0860   0.1261   0.1575   0.2071   0.2296   0.2904   0.5634   0.6568
     0.7544   0.8159   1.0487   1.0815   1.1629   1.1895   1.3536   1.3861
     1.4295   1.4520   1.4676   1.4870   1.5493   1.5949   1.6314   1.7163
     1.8033   1.8471   1.8641   1.8823   1.9138   1.9281   1.9334   1.9843
     1.9890   2.0182   2.0439   2.0663   2.0773   2.1145   2.1697   2.2066
     2.2861   2.4288   2.4362   2.5148   2.5721   2.5913   2.6108   2.6345
     2.6597   2.6880   2.7073   2.7227   2.7476   2.8416   2.8912   2.9104
     2.9130   2.9281   2.9485   2.9623   2.9815   2.9884   3.0213   3.0330
     3.0473   3.0568   3.0653   3.0770   3.6051   3.6092   3.7582   3.8092
     4.1693   4.2016   4.2179   4.3295   4.7769   4.9390   5.0766   5.1465
     5.3217   5.4446   5.6155   5.6423   5.7834   5.8041   6.3847   6.4131
     6.5019   6.6234   7.2393   7.3397   7.5594   7.7128   7.8180   7.8472
     7.8943   8.0532   8.3115   8.3963   8.4666   8.5393   8.5642   8.5822
     8.7153   8.7723   8.7970

     occupation numbers 
     1.0000   1.0000   1.0000   1.0000   1.0000   1.0000   1.0000   1.0000
     1.0000   1.0000   1.0000   1.0000   1.0000   1.0000   1.0000   1.0000
     1.0000   1.0000   1.0000   1.0000   1.0000   1.0000   1.0000   1.0000
     1.0000   1.0000   1.0000   1.0000   1.0000   1.0000   1.0000   1.0000
     1.0000   1.0000   1.0000   1.0000   1.0000   1.0000   1.0000   1.0000
     1.0000   1.0000   1.0000   1.0000   1.0000   1.0000   1.0000   1.0000
     1.0000   1.0000   1.0000   1.0000   1.0000   1.0000   1.0000   1.0000
     1.0000   1.0000   1.0000   1.0000   1.0000   1.0000   1.0000   1.0000
     1.0000   1.0000   1.0000   1.0000   1.0000   1.0000   1.0000   1.0000
     1.0000   1.0000   1.0000   1.0000   1.0000   1.0000   1.0000   1.0000
     1.0000   1.0000   1.0000   1.0000   1.0000   1.0000   1.0000   1.0000
     1.0000   1.0000   1.0000   1.0000   1.0000   1.0000   1.0000   1.0000
     1.0000   1.0000   1.0000   1.0000   1.0000   1.0000   1.0000   1.0000
     1.0000   1.0000   1.0000   1.0000   1.0000   1.0000   1.0000   1.0000
     1.0000   1.0000   1.0000   1.0000   1.0000   1.0000   1.0000   1.0000
     1.0000   1.0000   1.0000   1.0000   1.0000   1.0000   1.0000   1.0000
     1.0000   1.0000   1.0000   1.0000   1.0000   1.0000   1.0000   1.0000
     1.0000   1.0000   1.0000   1.0000   1.0000   1.0000   1.0000   1.0000
     1.0000   1.0000   1.0000   1.0000   1.0000   1.0000   1.0000   1.0000
     1.0000   1.0000   1.0000   1.0000   1.0000   1.0000   1.0000   1.0000
     0.9999   0.9999   0.9997   0.9996   0.9994   0.9993   0.9984   0.9982
     0.9977   0.9975   0.9973   0.9971   0.9961   0.9953   0.9945   0.9921
     0.9888   0.9868   0.9859   0.9849   0.9830   0.9821   0.9818   0.9781
     0.9777   0.9753   0.9730   0.9709   0.9698   0.9658   0.9591   0.9541
     0.9415   0.9124   0.9107   0.8903   0.8735   0.8675   0.8612   0.8532
     0.8445   0.8343   0.8270   0.8211   0.8113   0.7713   0.7483   0.7392
     0.7379   0.7306   0.7205   0.7136   0.7038   0.7002   0.6830   0.6768
     0.6692   0.6640   0.6594   0.6530   0.3480   0.3458   0.2683   0.2439
     0.1096   0.1009   0.0967   0.0713   0.0166   0.0089   0.0050   0.0037
     0.0016   0.0009   0.0004   0.0003   0.0001   0.0001   0.0000   0.0000
     0.0000   0.0000   0.0000   0.0000   0.0000   0.0000   0.0000   0.0000
     0.0000   0.0000   0.0000   0.0000   0.0000   0.0000   0.0000   0.0000
     0.0000   0.0000   0.0000

          k =-0.5000-0.5000 0.0000 ( 65132 PWs)   bands (ev):

   -92.6861 -92.6326 -92.5394 -92.4939 -92.4343 -92.3920 -92.3748 -92.2548
   -56.0396 -56.0191 -55.8968 -55.8866 -55.8796 -55.8734 -55.8371 -55.8087
   -55.7934 -55.7915 -55.7832 -55.7418 -55.7252 -55.6853 -55.6657 -55.6345
   -55.6291 -55.5804 -55.5793 -55.5773 -55.5688 -55.5301 -55.5051 -55.4215
   -31.2590 -31.2478 -31.1018 -31.0166 -30.9324 -30.9096 -30.8461 -30.7953
   -29.8292 -29.7912 -29.7637 -29.6573 -14.9195 -14.8925 -14.7753 -14.7628
   -14.6628 -14.6324 -14.5918 -14.4609 -13.9684 -13.9566 -13.9528 -13.9222
   -13.9021 -13.8856 -13.8715 -13.8453 -13.8340 -13.8143 -13.8100 -13.7900
   -13.7164 -13.7109 -13.6718 -13.6478 -13.6415 -13.5444 -13.4877 -13.3448
   -13.3090 -13.1437 -13.1004 -13.0346 -13.0106 -12.9750 -12.9698 -12.9600
   -12.9407 -12.8593 -12.8519 -12.8035 -12.7663 -12.7582 -12.7415 -12.7144
   -12.6851 -12.5902 -12.5827 -12.5232 -12.3797 -12.3026 -12.2031 -12.1658
   -12.1219 -11.7562 -11.7436 -11.7255 -11.7089 -11.6738 -11.6568 -11.6208
   -11.5615 -11.5407 -11.5362 -11.4859 -11.4830  -2.2116  -2.1359  -2.1231
    -2.0524  -2.0147  -1.9361  -1.8684  -1.7424  -1.6267  -1.5962  -1.5582
    -1.5001  -1.4277  -1.4131  -1.3430  -1.2995  -1.1821  -1.1545  -1.1201
    -1.1012  -1.0769  -1.0126  -0.9674  -0.9470  -0.9357  -0.8824  -0.8375
    -0.8219  -0.7085  -0.6525  -0.6060  -0.5552  -0.5275  -0.5179  -0.4811
    -0.4358  -0.4038  -0.3888  -0.3058  -0.2394  -0.1949  -0.1673  -0.0953
    -0.0399  -0.0125   0.0347   0.0542   0.0760   0.0875   0.5339   0.5770
     0.7067   0.7437   1.0852   1.0961   1.1301   1.1662   1.4381   1.4585
     1.4651   1.5014   1.6323   1.7271   1.7550   1.7908   1.8129   1.8412
     1.8462   1.8763   1.8871   1.9107   1.9126   1.9651   1.9661   1.9969
     2.0307   2.0399   2.0554   2.0914   2.1124   2.1335   2.1567   2.1858
     2.2477   2.3174   2.4301   2.5137   2.5881   2.6155   2.6368   2.6530
     2.6675   2.6951   2.6988   2.7184   2.7301   2.7447   2.7650   2.7768
     2.8429   2.8462   2.8675   2.8811   2.8942   2.9130   2.9162   2.9267
     3.0306   3.0344   3.0624   3.0717   4.0304   4.0475   4.0906   4.1185
     4.3353   4.4092   4.4337   4.6754   4.7967   4.8792   5.0081   5.0960
     5.1081   5.2211   5.3208   5.4106   5.8670   5.8961   5.9655   6.0391
     6.5996   6.8680   6.9063   7.1036   7.9025   7.9222   7.9518   7.9661
     7.9908   8.0414   8.1054   8.2821   8.4974   8.5999   8.6319   8.6532
     8.6738   8.7282   8.7574

     occupation numbers 
     1.0000   1.0000   1.0000   1.0000   1.0000   1.0000   1.0000   1.0000
     1.0000   1.0000   1.0000   1.0000   1.0000   1.0000   1.0000   1.0000
     1.0000   1.0000   1.0000   1.0000   1.0000   1.0000   1.0000   1.0000
     1.0000   1.0000   1.0000   1.0000   1.0000   1.0000   1.0000   1.0000
     1.0000   1.0000   1.0000   1.0000   1.0000   1.0000   1.0000   1.0000
     1.0000   1.0000   1.0000   1.0000   1.0000   1.0000   1.0000   1.0000
     1.0000   1.0000   1.0000   1.0000   1.0000   1.0000   1.0000   1.0000
     1.0000   1.0000   1.0000   1.0000   1.0000   1.0000   1.0000   1.0000
     1.0000   1.0000   1.0000   1.0000   1.0000   1.0000   1.0000   1.0000
     1.0000   1.0000   1.0000   1.0000   1.0000   1.0000   1.0000   1.0000
     1.0000   1.0000   1.0000   1.0000   1.0000   1.0000   1.0000   1.0000
     1.0000   1.0000   1.0000   1.0000   1.0000   1.0000   1.0000   1.0000
     1.0000   1.0000   1.0000   1.0000   1.0000   1.0000   1.0000   1.0000
     1.0000   1.0000   1.0000   1.0000   1.0000   1.0000   1.0000   1.0000
     1.0000   1.0000   1.0000   1.0000   1.0000   1.0000   1.0000   1.0000
     1.0000   1.0000   1.0000   1.0000   1.0000   1.0000   1.0000   1.0000
     1.0000   1.0000   1.0000   1.0000   1.0000   1.0000   1.0000   1.0000
     1.0000   1.0000   1.0000   1.0000   1.0000   1.0000   1.0000   1.0000
     1.0000   1.0000   1.0000   1.0000   1.0000   1.0000   1.0000   1.0000
     1.0000   1.0000   1.0000   1.0000   1.0000   1.0000   1.0000   1.0000
     1.0000   0.9999   0.9996   0.9996   0.9995   0.9994   0.9977   0.9974
     0.9973   0.9969   0.9944   0.9918   0.9908   0.9894   0.9884   0.9871
     0.9868   0.9852   0.9846   0.9832   0.9831   0.9795   0.9795   0.9771
     0.9742   0.9734   0.9720   0.9683   0.9661   0.9636   0.9608   0.9570
     0.9479   0.9359   0.9121   0.8906   0.8685   0.8597   0.8525   0.8469
     0.8417   0.8316   0.8302   0.8228   0.8182   0.8124   0.8042   0.7993
     0.7707   0.7692   0.7594   0.7531   0.7470   0.7379   0.7364   0.7313
     0.6781   0.6760   0.6610   0.6559   0.1533   0.1474   0.1332   0.1244
     0.0701   0.0565   0.0525   0.0239   0.0154   0.0112   0.0067   0.0046
     0.0044   0.0026   0.0016   0.0011   0.0001   0.0001   0.0000   0.0000
     0.0000   0.0000   0.0000   0.0000   0.0000   0.0000   0.0000   0.0000
     0.0000   0.0000   0.0000   0.0000   0.0000   0.0000   0.0000   0.0000
     0.0000   0.0000   0.0000

          k = 0.2500 0.0000 0.0000 ( 65257 PWs)   bands (ev):

   -92.6861 -92.6326 -92.5394 -92.4939 -92.4343 -92.3920 -92.3748 -92.2548
   -56.0396 -56.0191 -55.8968 -55.8866 -55.8796 -55.8734 -55.8371 -55.8087
   -55.7934 -55.7915 -55.7832 -55.7418 -55.7252 -55.6853 -55.6657 -55.6345
   -55.6291 -55.5804 -55.5793 -55.5773 -55.5689 -55.5301 -55.5051 -55.4215
   -31.2616 -31.2458 -31.1018 -31.0160 -30.9344 -30.9089 -30.8460 -30.7941
   -29.8314 -29.7908 -29.7629 -29.6562 -15.0332 -14.9938 -14.9211 -14.7751
   -14.6671 -14.4763 -14.3381 -14.1587 -14.1429 -14.1114 -14.0822 -14.0563
   -14.0253 -14.0061 -13.9848 -13.9543 -13.9289 -13.8226 -13.7912 -13.6444
   -13.5713 -13.5666 -13.5056 -13.4767 -13.4651 -13.3994 -13.3294 -13.2983
   -13.1820 -13.1441 -13.1277 -13.0460 -13.0291 -13.0111 -12.9924 -12.9789
   -12.9552 -12.9186 -12.8521 -12.8054 -12.7785 -12.7595 -12.7544 -12.7337
   -12.7266 -12.7071 -12.6754 -12.5625 -12.4866 -12.3914 -12.2345 -12.0552
   -12.0084 -11.8110 -11.7586 -11.7417 -11.7289 -11.7019 -11.6513 -11.6280
   -11.6198 -11.5683 -11.4806 -11.4246 -11.4186  -2.7905  -2.5687  -2.4388
    -2.2662  -2.2026  -2.0328  -1.8254  -1.7482  -1.7040  -1.6698  -1.5687
    -1.5542  -1.5193  -1.5000  -1.4315  -1.2506  -1.1427  -1.1197  -1.1004
    -1.0044  -0.9938  -0.9140  -0.8874  -0.8371  -0.7954  -0.7429  -0.7151
    -0.6653  -0.6377  -0.6184  -0.5638  -0.5464  -0.4586  -0.4500  -0.3871
    -0.2910  -0.2400  -0.1142  -0.1009  -0.0418   0.0130   0.0627   0.0901
     0.1264   0.1933   0.2328   0.5099   0.6457   0.6802   0.7650   0.8030
     0.8356   0.8579   0.9238   1.0347   1.0829   1.1072   1.1460   1.2938
     1.3262   1.3604   1.3667   1.4076   1.4542   1.4946   1.5305   1.5820
     1.6337   1.6486   1.7081   1.7489   1.7915   1.8105   1.8999   1.9113
     1.9363   1.9885   2.0043   2.1149   2.1773   2.2404   2.3192   2.3327
     2.4176   2.4285   2.4840   2.4957   2.5229   2.5550   2.5652   2.5858
     2.6355   2.7585   2.8744   2.8963   2.9292   2.9524   2.9603   2.9809
     2.9910   3.0057   3.0260   3.0318   3.0582   3.0691   3.0758   3.0884
     3.1092   3.1336   3.1373   3.1454   3.1523   3.1622   3.1720   3.3014
     3.6013   3.6415   3.8968   4.2922   4.4890   4.7044   5.0303   5.0805
     5.6494   5.8140   5.9245   6.0316   6.0841   6.1081   6.1988   6.5950
     6.8395   7.0595   7.1246   7.3444   7.4834   7.5677   7.6052   7.6344
     7.8354   7.9531   8.0601   8.1987   8.2716   8.3202   8.4039   8.4230
[...]
     0.3501   0.3283   0.2050   0.0791   0.0443   0.0215   0.0061   0.0049
     0.0003   0.0001   0.0001   0.0000   0.0000   0.0000   0.0000   0.0000
     0.0000   0.0000   0.0000   0.0000   0.0000   0.0000   0.0000   0.0000
     0.0000   0.0000   0.0000   0.0000   0.0000   0.0000   0.0000   0.0000
     0.0000   0.0000   0.0000

          k =-0.5000 0.0000 0.0000 ( 65180 PWs)   bands (ev):

   -92.6861 -92.6326 -92.5394 -92.4939 -92.4343 -92.3920 -92.3748 -92.2548
   -56.0396 -56.0191 -55.8968 -55.8866 -55.8796 -55.8734 -55.8371 -55.8087
   -55.7934 -55.7915 -55.7832 -55.7418 -55.7252 -55.6853 -55.6657 -55.6345
   -55.6291 -55.5804 -55.5793 -55.5773 -55.5688 -55.5301 -55.5051 -55.4215
   -31.2594 -31.2480 -31.1014 -31.0164 -30.9331 -30.9102 -30.8454 -30.7947
   -29.8304 -29.7919 -29.7625 -29.6566 -14.9999 -14.9500 -14.8871 -14.7723
   -14.6740 -14.5289 -14.3877 -14.2318 -14.1171 -14.1013 -14.0931 -14.0309
   -13.9774 -13.9532 -13.9453 -13.8961 -13.8829 -13.8680 -13.8222 -13.7901
   -13.6862 -13.5397 -13.5170 -13.4803 -13.4716 -13.3958 -13.3498 -13.2784
   -13.2532 -13.2299 -13.1870 -13.0398 -13.0270 -13.0009 -12.9912 -12.9494
   -12.9300 -12.9243 -12.9037 -12.7718 -12.7485 -12.7318 -12.7156 -12.7075
   -12.6736 -12.6256 -12.6163 -12.5264 -12.4159 -12.3126 -12.2530 -12.1746
   -12.1334 -11.7627 -11.7415 -11.7343 -11.7207 -11.7024 -11.6609 -11.5977
   -11.5795 -11.5458 -11.5036 -11.4944 -11.4784  -2.5665  -2.5277  -2.3644
    -2.3246  -2.0119  -1.9373  -1.7891  -1.6703  -1.6321  -1.5866  -1.5388
    -1.5132  -1.3897  -1.3453  -1.3304  -1.2483  -1.2116  -1.1977  -1.1655
    -1.1195  -1.1061  -1.0391  -1.0106  -0.9789  -0.8825  -0.8386  -0.7903
    -0.7576  -0.7355  -0.7058  -0.6574  -0.6320  -0.5931  -0.5000  -0.4189
    -0.3610  -0.2969  -0.1202  -0.0914  -0.0398  -0.0107   0.0657   0.0694
     0.2211   0.2429   0.2881   0.4558   0.5547   0.6049   0.6942   0.7793
     0.8807   0.9000   1.0250   1.0475   1.1001   1.1276   1.1684   1.1796
     1.2275   1.2472   1.3140   1.3670   1.4119   1.4199   1.7195   1.7363
     1.7474   1.7707   1.8734   1.8848   1.9082   1.9192   1.9418   1.9503
     1.9942   2.0158   2.0552   2.0928   2.1123   2.1609   2.1902   2.2370
     2.3497   2.4267   2.4647   2.5084   2.5319   2.5362   2.6209   2.6418
     2.6724   2.7401   2.7452   2.7541   2.7830   2.8524   2.8986   2.9420
     2.9733   3.0164   3.0201   3.0206   3.0332   3.0476   3.0592   3.0728
     3.0770   3.0996   3.1022   3.1258   3.1445   3.1495   3.2803   3.2873
     4.0938   4.1363   4.2044   4.3648   4.8059   4.8773   5.0557   5.0692
     5.4976   5.5221   5.6076   5.6670   6.0397   6.0516   6.2979   6.4602
     6.8083   7.0140   7.2723   7.3151   7.3376   7.4582   7.7118   7.7912
     7.8983   8.0853   8.1551   8.1841   8.3720   8.5013   8.5631   8.6425
     8.7739   8.8784   8.9368

     occupation numbers 
     1.0000   1.0000   1.0000   1.0000   1.0000   1.0000   1.0000   1.0000
     1.0000   1.0000   1.0000   1.0000   1.0000   1.0000   1.0000   1.0000
     1.0000   1.0000   1.0000   1.0000   1.0000   1.0000   1.0000   1.0000
     1.0000   1.0000   1.0000   1.0000   1.0000   1.0000   1.0000   1.0000
     1.0000   1.0000   1.0000   1.0000   1.0000   1.0000   1.0000   1.0000
     1.0000   1.0000   1.0000   1.0000   1.0000   1.0000   1.0000   1.0000
     1.0000   1.0000   1.0000   1.0000   1.0000   1.0000   1.0000   1.0000
     1.0000   1.0000   1.0000   1.0000   1.0000   1.0000   1.0000   1.0000
     1.0000   1.0000   1.0000   1.0000   1.0000   1.0000   1.0000   1.0000
     1.0000   1.0000   1.0000   1.0000   1.0000   1.0000   1.0000   1.0000
     1.0000   1.0000   1.0000   1.0000   1.0000   1.0000   1.0000   1.0000
     1.0000   1.0000   1.0000   1.0000   1.0000   1.0000   1.0000   1.0000
     1.0000   1.0000   1.0000   1.0000   1.0000   1.0000   1.0000   1.0000
     1.0000   1.0000   1.0000   1.0000   1.0000   1.0000   1.0000   1.0000
     1.0000   1.0000   1.0000   1.0000   1.0000   1.0000   1.0000   1.0000
     1.0000   1.0000   1.0000   1.0000   1.0000   1.0000   1.0000   1.0000
     1.0000   1.0000   1.0000   1.0000   1.0000   1.0000   1.0000   1.0000
     1.0000   1.0000   1.0000   1.0000   1.0000   1.0000   1.0000   1.0000
     1.0000   1.0000   1.0000   1.0000   1.0000   1.0000   1.0000   1.0000
     1.0000   1.0000   1.0000   1.0000   1.0000   1.0000   1.0000   0.9999
     0.9999   0.9999   0.9997   0.9997   0.9996   0.9995   0.9994   0.9993
     0.9992   0.9991   0.9987   0.9983   0.9979   0.9978   0.9920   0.9914
     0.9911   0.9902   0.9854   0.9848   0.9834   0.9827   0.9812   0.9806
     0.9773   0.9755   0.9720   0.9682   0.9661   0.9603   0.9564   0.9496
     0.9297   0.9129   0.9037   0.8921   0.8855   0.8842   0.8578   0.8508
     0.8400   0.8143   0.8122   0.8086   0.7967   0.7664   0.7449   0.7237
     0.7080   0.6856   0.6836   0.6834   0.6767   0.6690   0.6627   0.6553
     0.6530   0.6405   0.6391   0.6259   0.6153   0.6125   0.5365   0.5324
     0.1321   0.1191   0.1002   0.0644   0.0149   0.0113   0.0055   0.0052
     0.0007   0.0006   0.0004   0.0003   0.0000   0.0000   0.0000   0.0000
     0.0000   0.0000   0.0000   0.0000   0.0000   0.0000   0.0000   0.0000
     0.0000   0.0000   0.0000   0.0000   0.0000   0.0000   0.0000   0.0000
     0.0000   0.0000   0.0000

          k =-0.2500 0.2500 0.0000 ( 65198 PWs)   bands (ev):

   -92.6861 -92.6326 -92.5394 -92.4939 -92.4343 -92.3920 -92.3748 -92.2548
   -56.0396 -56.0191 -55.8968 -55.8866 -55.8796 -55.8734 -55.8371 -55.8087
   -55.7934 -55.7915 -55.7832 -55.7418 -55.7252 -55.6853 -55.6657 -55.6345
   -55.6291 -55.5804 -55.5793 -55.5773 -55.5688 -55.5301 -55.5051 -55.4215
   -31.2614 -31.2457 -31.1020 -31.0161 -30.9340 -30.9086 -30.8464 -30.7944
   -29.8308 -29.7905 -29.7635 -29.6566 -15.0024 -14.9624 -14.8863 -14.7701
   -14.6571 -14.5319 -14.4459 -14.2366 -14.0991 -14.0707 -14.0547 -14.0099
   -13.9836 -13.9648 -13.9566 -13.9437 -13.8915 -13.8184 -13.8070 -13.6572
   -13.6288 -13.6017 -13.5802 -13.5376 -13.4815 -13.4212 -13.4087 -13.2540
   -13.2242 -13.2051 -13.1316 -13.0876 -13.0253 -12.9927 -12.9701 -12.9317
   -12.9241 -12.9106 -12.8483 -12.8176 -12.7663 -12.7579 -12.7418 -12.7237
   -12.6923 -12.6767 -12.6657 -12.4845 -12.4275 -12.3880 -12.2683 -12.0876
   -12.0544 -11.7831 -11.7615 -11.7345 -11.7221 -11.6815 -11.6465 -11.6237
   -11.6016 -11.5792 -11.4954 -11.4499 -11.4405  -2.6511  -2.4428  -2.3220
    -2.2335  -2.1152  -2.0489  -1.8466  -1.7006  -1.6823  -1.6540  -1.5617
    -1.5252  -1.4318  -1.3983  -1.3726  -1.2295  -1.1731  -1.1196  -1.1055
    -1.0768  -1.0171  -0.9937  -0.9547  -0.9260  -0.8861  -0.8224  -0.7742
    -0.7139  -0.6438  -0.6165  -0.5664  -0.5357  -0.4911  -0.4368  -0.3927
    -0.3500  -0.2521  -0.2165  -0.2044  -0.1620  -0.0948  -0.0170   0.0264
     0.0543   0.1375   0.1611   0.4067   0.5739   0.6162   0.6570   0.7167
     0.7804   0.8443   0.8948   0.9197   1.1979   1.3071   1.3469   1.3785
     1.3854   1.4280   1.4454   1.4895   1.5203   1.5348   1.5604   1.6045
     1.6204   1.6654   1.6807   1.7282   1.8163   1.8389   1.8529   1.9050
     1.9218   1.9660   2.0316   2.1227   2.2206   2.2492   2.2981   2.3183
     2.3855   2.4237   2.4355   2.4540   2.4776   2.4943   2.5287   2.6041
     2.6322   2.7212   2.8980   2.9068   2.9203   2.9307   2.9415   2.9550
     2.9611   2.9799   2.9880   3.0029   3.0122   3.0246   3.0341   3.0420
     3.0749   3.0856   3.0934   3.1275   3.4197   3.5020   3.5655   3.6526
     3.6613   3.8567   3.9783   4.3218   4.5375   4.7326   5.0070   5.1746
     5.6613   5.7121   5.7731   5.8492   5.9112   6.0911   6.1813   6.2110
     6.9029   6.9411   7.1050   7.2387   7.5777   7.6204   7.6819   7.8778
     7.9036   8.0181   8.1969   8.2054   8.3286   8.3817   8.4380   8.4628
     8.5553   8.8087   8.9523

     occupation numbers 
     1.0000   1.0000   1.0000   1.0000   1.0000   1.0000   1.0000   1.0000
     1.0000   1.0000   1.0000   1.0000   1.0000   1.0000   1.0000   1.0000
     1.0000   1.0000   1.0000   1.0000   1.0000   1.0000   1.0000   1.0000
     1.0000   1.0000   1.0000   1.0000   1.0000   1.0000   1.0000   1.0000
     1.0000   1.0000   1.0000   1.0000   1.0000   1.0000   1.0000   1.0000
     1.0000   1.0000   1.0000   1.0000   1.0000   1.0000   1.0000   1.0000
     1.0000   1.0000   1.0000   1.0000   1.0000   1.0000   1.0000   1.0000
     1.0000   1.0000   1.0000   1.0000   1.0000   1.0000   1.0000   1.0000
     1.0000   1.0000   1.0000   1.0000   1.0000   1.0000   1.0000   1.0000
     1.0000   1.0000   1.0000   1.0000   1.0000   1.0000   1.0000   1.0000
     1.0000   1.0000   1.0000   1.0000   1.0000   1.0000   1.0000   1.0000
     1.0000   1.0000   1.0000   1.0000   1.0000   1.0000   1.0000   1.0000
     1.0000   1.0000   1.0000   1.0000   1.0000   1.0000   1.0000   1.0000
     1.0000   1.0000   1.0000   1.0000   1.0000   1.0000   1.0000   1.0000
     1.0000   1.0000   1.0000   1.0000   1.0000   1.0000   1.0000   1.0000
     1.0000   1.0000   1.0000   1.0000   1.0000   1.0000   1.0000   1.0000
     1.0000   1.0000   1.0000   1.0000   1.0000   1.0000   1.0000   1.0000
     1.0000   1.0000   1.0000   1.0000   1.0000   1.0000   1.0000   1.0000
     1.0000   1.0000   1.0000   1.0000   1.0000   1.0000   1.0000   1.0000
     1.0000   1.0000   1.0000   1.0000   1.0000   1.0000   1.0000   1.0000
     0.9999   0.9999   0.9999   0.9998   0.9993   0.9987   0.9985   0.9982
     0.9982   0.9978   0.9976   0.9970   0.9966   0.9964   0.9959   0.9951
     0.9947   0.9936   0.9932   0.9917   0.9883   0.9872   0.9865   0.9836
     0.9825   0.9795   0.9742   0.9649   0.9521   0.9477   0.9394   0.9357
     0.9222   0.9136   0.9108   0.9064   0.9004   0.8959   0.8864   0.8634
     0.8540   0.8217   0.7451   0.7409   0.7344   0.7293   0.7240   0.7172
     0.7141   0.7046   0.7004   0.6927   0.6878   0.6813   0.6762   0.6720
     0.6542   0.6483   0.6440   0.6249   0.4541   0.4061   0.3700   0.3223
     0.3177   0.2223   0.1724   0.0728   0.0379   0.0195   0.0067   0.0033
     0.0003   0.0002   0.0002   0.0001   0.0001   0.0000   0.0000   0.0000
     0.0000   0.0000   0.0000   0.0000   0.0000   0.0000   0.0000   0.0000
     0.0000   0.0000   0.0000   0.0000   0.0000   0.0000   0.0000   0.0000
     0.0000   0.0000   0.0000

          k =-0.5000 0.2500 0.0000 ( 65138 PWs)   bands (ev):

   -92.6861 -92.6326 -92.5394 -92.4939 -92.4343 -92.3920 -92.3748 -92.2548
   -56.0396 -56.0191 -55.8968 -55.8866 -55.8796 -55.8734 -55.8371 -55.8087
   -55.7934 -55.7915 -55.7832 -55.7418 -55.7252 -55.6853 -55.6657 -55.6345
   -55.6291 -55.5804 -55.5793 -55.5773 -55.5688 -55.5301 -55.5051 -55.4215
   -31.2592 -31.2479 -31.1016 -31.0165 -30.9328 -30.9099 -30.8458 -30.7950
   -29.8298 -29.7915 -29.7631 -29.6570 -14.9674 -14.9235 -14.8444 -14.7402
   -14.7005 -14.5762 -14.4893 -14.3523 -14.0497 -14.0189 -14.0074 -13.9652
   -13.9535 -13.9395 -13.9171 -13.8815 -13.8672 -13.8486 -13.8084 -13.7901
   -13.6807 -13.6221 -13.5750 -13.5715 -13.5582 -13.4545 -13.4425 -13.3123
   -13.2487 -13.1860 -13.1488 -13.0515 -13.0124 -13.0011 -12.9702 -12.9357
   -12.9243 -12.8983 -12.8830 -12.7972 -12.7734 -12.7387 -12.7131 -12.7040
   -12.6838 -12.6073 -12.5999 -12.5246 -12.3971 -12.3079 -12.2295 -12.1681
   -12.1285 -11.7556 -11.7431 -11.7290 -11.7165 -11.6959 -11.6656 -11.5841
   -11.5764 -11.5521 -11.5180 -11.4900 -11.4807  -2.4241  -2.3821  -2.2341
    -2.1912  -2.0309  -1.9559  -1.8132  -1.6762  -1.6211  -1.5936  -1.5548
    -1.5157  -1.4349  -1.3194  -1.2628  -1.2389  -1.2138  -1.1380  -1.1222
    -1.1046  -1.0696  -1.0519  -0.9920  -0.9620  -0.9235  -0.8881  -0.8596
    -0.8020  -0.7740  -0.7314  -0.6982  -0.5945  -0.5666  -0.4814  -0.4135
    -0.3867  -0.3311  -0.2427  -0.2072  -0.1100  -0.0661  -0.0122   0.0452
     0.0612   0.1381   0.1679   0.1994   0.2471   0.2878   0.5976   0.6593
     0.7484   0.7833   1.0355   1.0890   1.1678   1.1874   1.3673   1.4029
     1.4401   1.4519   1.4711   1.4887   1.5562   1.6019   1.6427   1.6681
     1.8013   1.8295   1.8602   1.8756   1.9253   1.9365   1.9529   1.9717
     1.9878   2.0103   2.0643   2.0728   2.1071   2.1293   2.1665   2.2178
     2.3385   2.4181   2.4540   2.4640   2.5154   2.5435   2.5687   2.6376
     2.6689   2.6745   2.7119   2.7440   2.7678   2.8522   2.8954   2.9067
     2.9125   2.9339   2.9562   2.9690   2.9831   2.9975   3.0184   3.0312
     3.0405   3.0487   3.0597   3.0712   3.5996   3.6516   3.7907   3.8135
     4.0984   4.1637   4.2145   4.4380   4.8005   4.8957   5.0537   5.0976
     5.4185   5.4461   5.6000   5.6341   5.7637   5.7988   6.3891   6.4045
     6.5100   6.5925   7.2696   7.3312   7.5750   7.7286   7.8093   7.8430
     7.9044   8.0389   8.3109   8.4122   8.4582   8.5177   8.5675   8.5873
     8.6787   8.7431   8.7934

     occupation numbers 
     1.0000   1.0000   1.0000   1.0000   1.0000   1.0000   1.0000   1.0000
     1.0000   1.0000   1.0000   1.0000   1.0000   1.0000   1.0000   1.0000
     1.0000   1.0000   1.0000   1.0000   1.0000   1.0000   1.0000   1.0000
     1.0000   1.0000   1.0000   1.0000   1.0000   1.0000   1.0000   1.0000
     1.0000   1.0000   1.0000   1.0000   1.0000   1.0000   1.0000   1.0000
     1.0000   1.0000   1.0000   1.0000   1.0000   1.0000   1.0000   1.0000
     1.0000   1.0000   1.0000   1.0000   1.0000   1.0000   1.0000   1.0000
     1.0000   1.0000   1.0000   1.0000   1.0000   1.0000   1.0000   1.0000
     1.0000   1.0000   1.0000   1.0000   1.0000   1.0000   1.0000   1.0000
     1.0000   1.0000   1.0000   1.0000   1.0000   1.0000   1.0000   1.0000
     1.0000   1.0000   1.0000   1.0000   1.0000   1.0000   1.0000   1.0000
     1.0000   1.0000   1.0000   1.0000   1.0000   1.0000   1.0000   1.0000
     1.0000   1.0000   1.0000   1.0000   1.0000   1.0000   1.0000   1.0000
     1.0000   1.0000   1.0000   1.0000   1.0000   1.0000   1.0000   1.0000
     1.0000   1.0000   1.0000   1.0000   1.0000   1.0000   1.0000   1.0000
     1.0000   1.0000   1.0000   1.0000   1.0000   1.0000   1.0000   1.0000
     1.0000   1.0000   1.0000   1.0000   1.0000   1.0000   1.0000   1.0000
     1.0000   1.0000   1.0000   1.0000   1.0000   1.0000   1.0000   1.0000
     1.0000   1.0000   1.0000   1.0000   1.0000   1.0000   1.0000   1.0000
     1.0000   1.0000   1.0000   1.0000   1.0000   1.0000   1.0000   1.0000
     0.9999   0.9999   0.9997   0.9996   0.9994   0.9993   0.9983   0.9980
     0.9976   0.9975   0.9973   0.9970   0.9960   0.9951   0.9942   0.9935
     0.9889   0.9876   0.9861   0.9853   0.9823   0.9816   0.9804   0.9791
     0.9778   0.9760   0.9711   0.9703   0.9666   0.9641   0.9595   0.9525
     0.9319   0.9150   0.9064   0.9038   0.8902   0.8821   0.8746   0.8522
     0.8412   0.8392   0.8252   0.8127   0.8031   0.7665   0.7464   0.7410
     0.7382   0.7277   0.7166   0.7102   0.7030   0.6955   0.6846   0.6778
     0.6728   0.6684   0.6624   0.6562   0.3510   0.3229   0.2526   0.2419
     0.1307   0.1112   0.0976   0.0518   0.0152   0.0105   0.0055   0.0046
     0.0010   0.0009   0.0004   0.0003   0.0002   0.0001   0.0000   0.0000
     0.0000   0.0000   0.0000   0.0000   0.0000   0.0000   0.0000   0.0000
     0.0000   0.0000   0.0000   0.0000   0.0000   0.0000   0.0000   0.0000
     0.0000   0.0000   0.0000

     the Fermi energy is     3.3420 ev

!    total energy              =   -4441.65794665 Ry
     estimated scf accuracy    <          8.2E-09 Ry
     smearing contrib. (-TS)   =      -1.15485233 Ry
     internal energy E=F+TS    =   -4440.50309432 Ry

     The total energy is F=E-TS. E is the sum of the following terms:
     one-electron contribution =  -20804.54271675 Ry
     hartree contribution      =   10534.48367401 Ry
     xc contribution           =    -694.18318534 Ry
     ewald contribution        =    6799.90916942 Ry
     one-center paw contrib.   =    -276.17003567 Ry
      -> PAW hartree energy AE =      25.16951628 Ry
      -> PAW hartree energy PS =     -25.05334148 Ry
      -> PAW xc energy AE      =     -16.51844932 Ry
      -> PAW xc energy PS      =       6.87795207 Ry
      -> total E_H with PAW    =   10534.59984881 Ry
      -> total E_XC with PAW   =    -703.82368259 Ry

     convergence has been achieved in  45 iterations

     Writing all to output data dir /bsuhome/zayahcortright/scratch/pwscf.save/
 
     init_run     :      7.46s CPU      8.39s WALL (       1 calls)
     electrons    :    731.51s CPU    807.19s WALL (       1 calls)

     Called by init_run:
     wfcinit      :      6.06s CPU      6.28s WALL (       1 calls)
     wfcinit:atom :      0.04s CPU      0.06s WALL (       5 calls)
     wfcinit:wfcr :      5.76s CPU      5.89s WALL (       5 calls)
     potinit      :      0.17s CPU      0.20s WALL (       1 calls)
     hinit0       :      0.35s CPU      0.78s WALL (       1 calls)

     Called by electrons:
     c_bands      :    593.16s CPU    604.20s WALL (      45 calls)
     sum_band     :    102.93s CPU    138.21s WALL (      45 calls)
     v_of_rho     :      4.90s CPU      5.27s WALL (      46 calls)
     v_h          :      0.43s CPU      0.44s WALL (      46 calls)
     v_xc         :      4.47s CPU      4.83s WALL (      46 calls)
     newd         :     17.30s CPU     45.89s WALL (      46 calls)
     PAW_pot      :      1.49s CPU      1.52s WALL (      46 calls)
     mix_rho      :     11.47s CPU     11.85s WALL (      45 calls)

     Called by c_bands:
     init_us_2    :      6.32s CPU      6.40s WALL (     455 calls)
     init_us_2:cp :      6.32s CPU      6.39s WALL (     455 calls)
     cegterg      :    558.50s CPU    569.20s WALL (     225 calls)

     Called by sum_band:
     sum_band:wei :      0.32s CPU      0.32s WALL (      45 calls)
     sum_band:loo :     81.98s CPU     82.67s WALL (      45 calls)
     sum_band:buf :      1.36s CPU      1.43s WALL (     225 calls)
     sum_band:ini :      2.92s CPU      2.93s WALL (     225 calls)
     sum_band:cal :     18.06s CPU     18.15s WALL (     225 calls)
     sum_band:bec :      0.54s CPU      0.56s WALL (     225 calls)
     addusdens    :     16.94s CPU     51.45s WALL (      45 calls)
                                        0.00s GPU  (      45 calls)
     addusd:skk   :      0.29s CPU      2.12s WALL (     180 calls)
                                        0.00s GPU  (     180 calls)

     Called by *egterg:
     cdiaghg      :     56.91s CPU     57.16s WALL (    1325 calls)
     cegterg:over :     41.58s CPU     41.75s WALL (    1100 calls)
     cegterg:upda :     46.14s CPU     46.99s WALL (    1100 calls)
     cegterg:last :     64.52s CPU     64.78s WALL (     409 calls)
     cdiaghg:chol :      3.32s CPU      3.34s WALL (    1325 calls)
     cdiaghg:inve :      3.69s CPU      3.71s WALL (    1325 calls)
     cdiaghg:para :      7.59s CPU      7.64s WALL (    2650 calls)
     h_psi        :    283.47s CPU    287.89s WALL (    1330 calls)
     s_psi        :     41.41s CPU     41.55s WALL (    1330 calls)
     g_psi        :      2.12s CPU      2.13s WALL (    1100 calls)

     Called by h_psi:
     h_psi:calbec :     42.92s CPU     43.13s WALL (    1330 calls)
     vloc_psi     :    194.50s CPU    196.37s WALL (    1330 calls)
     add_vuspsi   :     41.19s CPU     41.43s WALL (    1330 calls)

     General routines
     calbec       :     60.98s CPU     61.28s WALL (    1555 calls)
     fft          :      5.69s CPU      5.74s WALL (     596 calls)
     ffts         :      4.25s CPU      4.30s WALL (    4767 calls)
     fftw         :    162.37s CPU    163.72s WALL (  306825 calls)
     interpolate  :      0.38s CPU      0.38s WALL (      46 calls)
 
     Parallel routines

     PAW routines
     PAW_pot      :      1.49s CPU      1.52s WALL (      46 calls)
 
     PWSCF        :  12m20.40s CPU  13m40.56s WALL

 
   This run was terminated on:   0: 9: 2  22Jun2024            

=------------------------------------------------------------------------------=
   JOB DONE.
=------------------------------------------------------------------------------=
