
     Program PWSCF v.7.2 starts on 21Jun2024 at 20:20: 4 

     This program is part of the open-source Quantum ESPRESSO suite
     for quantum simulation of materials; please cite
         "P. Giannozzi et al., J. Phys.:Condens. Matter 21 395502 (2009);
         "P. Giannozzi et al., J. Phys.:Condens. Matter 29 465901 (2017);
         "P. Giannozzi et al., J. Chem. Phys. 152 154105 (2020);
          URL http://www.quantum-espresso.org", 
     in publications or presentations arising from this work. More details at
     http://www.quantum-espresso.org/quote

     Parallel version (MPI & OpenMP), running on      48 processor cores
     Number of MPI processes:                48
     Threads/MPI process:                     1

     MPI processes distributed on     1 nodes
     33235 MiB available memory on the printing compute node when the environment starts
 
     Reading input from espresso.pwi
Warning: card &CELL ignored
Warning: card / ignored
Warning: card &FCP ignored
Warning: card / ignored
Warning: card &RISM ignored
Warning: card / ignored

     Current dimensions of program PWSCF are:
     Max number of different atomic species (ntypx) = 10
     Max number of k-points (npk) =  40000
     Max angular momentum in pseudopotentials (lmaxx) =  4
     file O.pbe-n-kjpaw_psl.0.1.UPF: wavefunction(s)  2P renormalized
     signal trapping enabled: kill the code with -SIGUSR1 to stop cleanly the simulation 
 
     K-points division:     npool     =       2
     R & G space division:  proc/nbgrp/npool/nimage =      24
     Subspace diagonalization in iterative solution of the eigenvalue problem:
     one sub-group per band group will be used
     scalapack distributed-memory algorithm (size of sub-group:  3*  3 procs)

 
     Parallelization info
     --------------------
     sticks:   dense  smooth     PW     G-vecs:    dense   smooth      PW
     Min         350     175     47                61430    21716    3036
     Max         351     177     48                61449    21727    3041
     Sum        8421    4205   1137              1474595   521381   72913
 
     Using Slab Decomposition
 


     bravais-lattice index     =            0
     lattice parameter (alat)  =      14.8599  a.u.
     unit-cell volume          =    8305.1283 (a.u.)^3
     number of atoms/cell      =           50
     number of atomic types    =            4
     number of electrons       =       431.00
     number of Kohn-Sham states=          259
     kinetic-energy cutoff     =      60.0000  Ry
     charge density cutoff     =     480.0000  Ry
     scf convergence threshold =      1.0E-08
     mixing beta               =       0.1500
     number of iterations used =            8  local-TF  mixing
     Exchange-correlation= PBE
                           (   1   4   3   4   0   0   0)

     celldm(1)=  14.859904  celldm(2)=   0.000000  celldm(3)=   0.000000
     celldm(4)=   0.000000  celldm(5)=   0.000000  celldm(6)=   0.000000

     crystal axes: (cart. coord. in units of alat)
               a(1) = (   1.000000   0.000000   0.000000 )  
               a(2) = (   0.000000   1.000000   0.000000 )  
               a(3) = (   0.000000   0.000000   2.531036 )  

     reciprocal axes: (cart. coord. in units 2 pi/alat)
               b(1) = (  1.000000  0.000000  0.000000 )  
               b(2) = (  0.000000  1.000000  0.000000 )  
               b(3) = (  0.000000  0.000000  0.395095 )  


     PseudoPot. # 1 for Sr read from file:
     /bsuhome/zayahcortright/q-e/pseudo/Sr_pbe_v1.uspp.F.UPF
     MD5 check sum: 6b418c05fbe9db5448babca5e47b7a5b
     Pseudo is Ultrasoft + core correction, Zval = 10.0
     Generated by new atomic code, or converted to UPF format
     Using radial grid of  883 points,  6 beta functions with: 
                l(1) =   0
                l(2) =   0
                l(3) =   1
                l(4) =   1
                l(5) =   2
                l(6) =   2
     Q(r) pseudized with  6 coefficients,  rinner =    1.400   1.400   1.400
                                                       1.400   1.400

     PseudoPot. # 2 for O  read from file:
     /bsuhome/zayahcortright/q-e/pseudo/O.pbe-n-kjpaw_psl.0.1.UPF
     MD5 check sum: 0234752ac141de4415c5fc33072bef88
     Pseudo is Projector augmented-wave + core cor, Zval =  6.0
     Generated using "atomic" code by A. Dal Corso  v.5.0.99 svn rev. 10869
     Shape of augmentation charge: BESSEL
     Using radial grid of 1095 points,  4 beta functions with: 
                l(1) =   0
                l(2) =   0
                l(3) =   1
                l(4) =   1
     Q(r) pseudized with 0 coefficients 


     PseudoPot. # 3 for Co read from file:
     /bsuhome/zayahcortright/q-e/pseudo/Co_pbe_v1.2.uspp.F.UPF
     MD5 check sum: 5f91765df6ddd3222702df6e7b74a16d
     Pseudo is Ultrasoft + core correction, Zval = 17.0
     Generated by new atomic code, or converted to UPF format
     Using radial grid of  863 points,  6 beta functions with: 
                l(1) =   0
                l(2) =   0
                l(3) =   1
                l(4) =   1
                l(5) =   2
                l(6) =   2
     Q(r) pseudized with  8 coefficients,  rinner =    1.200   1.200   1.200
                                                       1.200   1.200

     PseudoPot. # 4 for H  read from file:
     /bsuhome/zayahcortright/q-e/pseudo/H.pbe-rrkjus_psl.1.0.0.UPF
     MD5 check sum: f52b6d4d1c606e5624b1dc7b2218f220
     Pseudo is Ultrasoft, Zval =  1.0
     Generated using "atomic" code by A. Dal Corso  v.5.1
     Using radial grid of  929 points,  2 beta functions with: 
                l(1) =   0
                l(2) =   0
     Q(r) pseudized with 0 coefficients 


     atomic species   valence    mass     pseudopotential
        Sr            10.00    87.62000     Sr( 1.00)
        O              6.00    15.99900     O ( 1.00)
        Co            17.00    58.93319     Co( 1.00)
        H              1.00     1.00800     H ( 1.00)

     No symmetry found


                                    s                        frac. trans.

      isym =  1     identity                                     

 cryst.   s( 1) = (     1          0          0      )
                  (     0          1          0      )
                  (     0          0          1      )

 cart.    s( 1) = (  1.0000000  0.0000000  0.0000000 )
                  (  0.0000000  1.0000000  0.0000000 )
                  (  0.0000000  0.0000000  1.0000000 )


   Cartesian axes

     site n.     atom                  positions (alat units)
         1           Sr  tau(   1) = (   0.2508693   0.7491307   1.7574407  )
         2           O   tau(   2) = (   0.4985141   0.5014859   1.7715967  )
         3           Sr  tau(   3) = (   0.7482398   0.7454518   1.7648669  )
         4           Sr  tau(   4) = (   0.7441748   0.2558252   1.7667843  )
         5           Sr  tau(   5) = (   0.2508693   0.7491307   1.2696799  )
         6           Sr  tau(   6) = (   0.2508693   0.7491307   0.7632319  )
         7           Co  tau(   7) = (   0.4998914   0.5001086   1.0164559  )
         8           Co  tau(   8) = (   0.4936915   0.5063085   1.5135603  )
         9           O   tau(   9) = (   0.4988895   0.7610401   1.0164559  )
        10           O   tau(  10) = (   0.2389599   0.5011105   1.0164559  )
        11           O   tau(  11) = (   0.0070918   0.7374880   1.0164559  )
        12           O   tau(  12) = (   0.0088340   0.7405089   1.5135603  )
        13           O   tau(  13) = (   0.5066944   0.7415376   1.5135603  )
        14           O   tau(  14) = (   0.2584624   0.4933056   1.5135603  )
        15           O   tau(  15) = (   0.4985141   0.5014859   0.7773880  )
        16           O   tau(  16) = (   0.4985141   0.5014859   1.2555238  )
        17           Sr  tau(  17) = (   0.7482398   0.7454518   0.7706582  )
        18           Sr  tau(  18) = (   0.7482398   0.7454518   1.2622536  )
        19           Sr  tau(  19) = (   0.7441748   0.2558252   0.7725755  )
        20           Sr  tau(  20) = (   0.7441748   0.2558252   1.2603363  )
        21           O   tau(  21) = (   0.7322655   0.0078049   1.5135603  )
        22           O   tau(  22) = (   0.7558175   0.4996027   1.5135603  )
        23           O   tau(  23) = (   0.5003973   0.2441825   1.5135603  )
        24           O   tau(  24) = (   0.7527966   0.4978604   1.0164559  )
        25           O   tau(  25) = (   0.5021396   0.2472034   1.0164559  )
        26           O   tau(  26) = (   0.7517679   0.0000000   1.0164559  )
        27           O   tau(  27) = (   0.0114961   0.4948124   1.7455321  )
        28           O   tau(  28) = (   0.0048226   0.0077944   1.7715967  )
        29           Sr  tau(  29) = (   0.2545482   0.2517602   1.7648669  )
        30           O   tau(  30) = (   0.5048017   0.0015068   1.7786929  )
        31           Co  tau(  31) = (   0.0056869   0.5006215   1.0164559  )
        32           Co  tau(  32) = (   0.0065315   0.4997770   1.5135603  )
        33           Co  tau(  33) = (   0.0061999   0.0064171   1.0164559  )
        34           Co  tau(  34) = (   0.0000000   0.0126169   1.5135603  )
        35           O   tau(  35) = (   0.0114961   0.4948124   1.2815885  )
        36           O   tau(  36) = (   0.0114961   0.4948124   0.7513233  )
        37           O   tau(  37) = (   0.0051979   0.2673486   1.0164559  )
        38           O   tau(  38) = (   0.0130029   0.2478461   1.5135603  )
        39           O   tau(  39) = (   0.0048226   0.0077944   0.7773880  )
        40           O   tau(  40) = (   0.0048226   0.0077944   1.2555238  )
        41           Sr  tau(  41) = (   0.2545482   0.2517602   0.7706582  )
        42           Sr  tau(  42) = (   0.2545482   0.2517602   1.2622536  )
        43           Co  tau(  43) = (   0.4989925   0.0073160   1.5135603  )
        44           Co  tau(  44) = (   0.4998370   0.0064714   1.0164559  )
        45           O   tau(  45) = (   0.5048017   0.0015068   0.7844841  )
        46           O   tau(  46) = (   0.5048017   0.0015068   1.2484277  )
        47           O   tau(  47) = (   0.2621260   0.0059111   1.5135603  )
        48           O   tau(  48) = (   0.2591051   0.0041689   1.0164559  )
        49           O   tau(  49) = (   0.4264937   0.1421646   2.1602013  )
        50           H   tau(  50) = (   0.4264937   0.1421646   2.2847091  )

   Crystallographic axes

     site n.     atom                  positions (cryst. coord.)
         1           Sr  tau(   1) = (  0.2508693  0.7491307  0.6943562  )
         2           O   tau(   2) = (  0.4985141  0.5014859  0.6999492  )
         3           Sr  tau(   3) = (  0.7482398  0.7454518  0.6972903  )
         4           Sr  tau(   4) = (  0.7441748  0.2558252  0.6980478  )
         5           Sr  tau(   5) = (  0.2508693  0.7491307  0.5016443  )
         6           Sr  tau(   6) = (  0.2508693  0.7491307  0.3015492  )
         7           Co  tau(   7) = (  0.4998914  0.5001086  0.4015968  )
         8           Co  tau(   8) = (  0.4936915  0.5063085  0.5980003  )
         9           O   tau(   9) = (  0.4988895  0.7610401  0.4015968  )
        10           O   tau(  10) = (  0.2389599  0.5011105  0.4015968  )
        11           O   tau(  11) = (  0.0070918  0.7374880  0.4015968  )
        12           O   tau(  12) = (  0.0088340  0.7405089  0.5980003  )
        13           O   tau(  13) = (  0.5066944  0.7415376  0.5980003  )
        14           O   tau(  14) = (  0.2584624  0.4933056  0.5980003  )
        15           O   tau(  15) = (  0.4985141  0.5014859  0.3071422  )
        16           O   tau(  16) = (  0.4985141  0.5014859  0.4960513  )
        17           Sr  tau(  17) = (  0.7482398  0.7454518  0.3044833  )
        18           Sr  tau(  18) = (  0.7482398  0.7454518  0.4987103  )
        19           Sr  tau(  19) = (  0.7441748  0.2558252  0.3052408  )
        20           Sr  tau(  20) = (  0.7441748  0.2558252  0.4979527  )
        21           O   tau(  21) = (  0.7322655  0.0078049  0.5980003  )
        22           O   tau(  22) = (  0.7558175  0.4996027  0.5980003  )
        23           O   tau(  23) = (  0.5003973  0.2441825  0.5980003  )
        24           O   tau(  24) = (  0.7527966  0.4978604  0.4015968  )
        25           O   tau(  25) = (  0.5021396  0.2472034  0.4015968  )
        26           O   tau(  26) = (  0.7517679  0.0000000  0.4015968  )
        27           O   tau(  27) = (  0.0114961  0.4948124  0.6896512  )
        28           O   tau(  28) = (  0.0048226  0.0077944  0.6999492  )
        29           Sr  tau(  29) = (  0.2545482  0.2517602  0.6972903  )
        30           O   tau(  30) = (  0.5048017  0.0015068  0.7027529  )
        31           Co  tau(  31) = (  0.0056869  0.5006215  0.4015968  )
        32           Co  tau(  32) = (  0.0065315  0.4997770  0.5980003  )
        33           Co  tau(  33) = (  0.0061999  0.0064171  0.4015968  )
        34           Co  tau(  34) = (  0.0000000  0.0126169  0.5980003  )
        35           O   tau(  35) = (  0.0114961  0.4948124  0.5063494  )
        36           O   tau(  36) = (  0.0114961  0.4948124  0.2968442  )
        37           O   tau(  37) = (  0.0051979  0.2673486  0.4015968  )
        38           O   tau(  38) = (  0.0130029  0.2478461  0.5980003  )
        39           O   tau(  39) = (  0.0048226  0.0077944  0.3071422  )
        40           O   tau(  40) = (  0.0048226  0.0077944  0.4960513  )
        41           Sr  tau(  41) = (  0.2545482  0.2517602  0.3044833  )
        42           Sr  tau(  42) = (  0.2545482  0.2517602  0.4987103  )
        43           Co  tau(  43) = (  0.4989925  0.0073160  0.5980003  )
        44           Co  tau(  44) = (  0.4998370  0.0064714  0.4015968  )
        45           O   tau(  45) = (  0.5048017  0.0015068  0.3099459  )
        46           O   tau(  46) = (  0.5048017  0.0015068  0.4932477  )
        47           O   tau(  47) = (  0.2621260  0.0059111  0.5980003  )
        48           O   tau(  48) = (  0.2591051  0.0041689  0.4015968  )
        49           O   tau(  49) = (  0.4264937  0.1421646  0.8534850  )
        50           H   tau(  50) = (  0.4264937  0.1421646  0.9026774  )

     number of k points=    10  Gaussian smearing, width (Ry)=  0.0700
                       cart. coord. in units 2pi/alat
        k(    1) = (   0.0000000   0.0000000   0.0000000), wk =   0.1250000
        k(    2) = (   0.0000000   0.2500000   0.0000000), wk =   0.2500000
        k(    3) = (   0.0000000  -0.5000000   0.0000000), wk =   0.1250000
        k(    4) = (   0.2500000   0.2500000   0.0000000), wk =   0.2500000
        k(    5) = (   0.2500000  -0.5000000   0.0000000), wk =   0.2500000
        k(    6) = (  -0.5000000  -0.5000000   0.0000000), wk =   0.1250000
        k(    7) = (   0.2500000   0.0000000   0.0000000), wk =   0.2500000
        k(    8) = (  -0.5000000   0.0000000   0.0000000), wk =   0.1250000
        k(    9) = (  -0.2500000   0.2500000   0.0000000), wk =   0.2500000
        k(   10) = (  -0.5000000   0.2500000   0.0000000), wk =   0.2500000

                       cryst. coord.
        k(    1) = (   0.0000000   0.0000000   0.0000000), wk =   0.1250000
        k(    2) = (   0.0000000   0.2500000   0.0000000), wk =   0.2500000
        k(    3) = (   0.0000000  -0.5000000   0.0000000), wk =   0.1250000
        k(    4) = (   0.2500000   0.2500000   0.0000000), wk =   0.2500000
        k(    5) = (   0.2500000  -0.5000000   0.0000000), wk =   0.2500000
        k(    6) = (  -0.5000000  -0.5000000   0.0000000), wk =   0.1250000
        k(    7) = (   0.2500000   0.0000000   0.0000000), wk =   0.2500000
        k(    8) = (  -0.5000000   0.0000000   0.0000000), wk =   0.1250000
        k(    9) = (  -0.2500000   0.2500000   0.0000000), wk =   0.2500000
        k(   10) = (  -0.5000000   0.2500000   0.0000000), wk =   0.2500000

     Dense  grid:  1474595 G-vectors     FFT dimensions: ( 108, 108, 270)

     Smooth grid:   521381 G-vectors     FFT dimensions: (  75,  75, 192)

     Dynamical RAM for                 wfc:      10.73 MB

     Dynamical RAM for     wfc (w. buffer):      64.38 MB

     Dynamical RAM for           str. fact:       3.75 MB

     Dynamical RAM for           local pot:       0.00 MB

     Dynamical RAM for          nlocal pot:      24.61 MB

     Dynamical RAM for                qrad:       7.03 MB

     Dynamical RAM for          rho,v,vnew:       6.02 MB

     Dynamical RAM for               rhoin:       2.01 MB

     Dynamical RAM for            rho*nmix:      15.00 MB

     Dynamical RAM for           G-vectors:       3.68 MB

     Dynamical RAM for          h,s,v(r/c):       1.35 MB

     Dynamical RAM for          <psi|beta>:       2.35 MB

     Dynamical RAM for                 psi:      21.46 MB

     Dynamical RAM for                hpsi:      21.46 MB

     Dynamical RAM for                spsi:      21.46 MB

     Dynamical RAM for      wfcinit/wfcrot:      34.49 MB

     Dynamical RAM for           addusdens:     101.26 MB

     Estimated static dynamical RAM per process >     121.50 MB

     Estimated max dynamical RAM per process >     237.76 MB

     Estimated total dynamical RAM >      10.79 GB

     Check: negative core charge=   -0.000004

     Initial potential from superposition of free atoms

     starting charge     422.5961, renormalised to     431.0000

     negative rho (up, down):  7.820E-01 0.000E+00
     Starting wfcs are  377 randomized atomic wfcs
     Checking if some PAW data can be deallocated... 
       PAW data deallocated on   19 nodes for type:  2

     total cpu time spent up to now is        9.0 secs

     Self-consistent Calculation

     iteration #  1     ecut=    60.00 Ry     beta= 0.15
     Davidson diagonalization with overlap

---- Real-time Memory Report at c_bands before calling an iterative solver
             0 MiB given to the printing process from OS
             0 MiB allocation reported by mallinfo(arena+hblkhd)
         24015 MiB available memory on the node where the printing process lives
------------------
     ethr =  1.00E-02,  avg # of iterations =  2.0

     negative rho (up, down):  7.717E-01 0.000E+00

     total cpu time spent up to now is       25.4 secs

     total energy              =   -4446.64769229 Ry
     estimated scf accuracy    <      44.75952405 Ry

     iteration #  2     ecut=    60.00 Ry     beta= 0.15
     Davidson diagonalization with overlap

---- Real-time Memory Report at c_bands before calling an iterative solver
             0 MiB given to the printing process from OS
             0 MiB allocation reported by mallinfo(arena+hblkhd)
         24267 MiB available memory on the node where the printing process lives
------------------
     ethr =  1.00E-02,  avg # of iterations =  1.0

     negative rho (up, down):  7.582E-01 0.000E+00

     total cpu time spent up to now is       39.8 secs

     total energy              =   -4443.27791719 Ry
     estimated scf accuracy    <      29.75949463 Ry

     iteration #  3     ecut=    60.00 Ry     beta= 0.15
     Davidson diagonalization with overlap

---- Real-time Memory Report at c_bands before calling an iterative solver
             0 MiB given to the printing process from OS
             0 MiB allocation reported by mallinfo(arena+hblkhd)
         23427 MiB available memory on the node where the printing process lives
------------------
     ethr =  6.90E-03,  avg # of iterations =  1.0

     negative rho (up, down):  7.554E-01 0.000E+00

     total cpu time spent up to now is       54.2 secs

     total energy              =   -4444.26586480 Ry
     estimated scf accuracy    <      28.77419305 Ry

     iteration #  4     ecut=    60.00 Ry     beta= 0.15
     Davidson diagonalization with overlap

---- Real-time Memory Report at c_bands before calling an iterative solver
             0 MiB given to the printing process from OS
             0 MiB allocation reported by mallinfo(arena+hblkhd)
         23397 MiB available memory on the node where the printing process lives
------------------
     ethr =  6.68E-03,  avg # of iterations =  1.0

     negative rho (up, down):  7.496E-01 0.000E+00

     total cpu time spent up to now is       68.7 secs

     total energy              =   -4443.08336005 Ry
     estimated scf accuracy    <      20.80661340 Ry

     iteration #  5     ecut=    60.00 Ry     beta= 0.15
     Davidson diagonalization with overlap

---- Real-time Memory Report at c_bands before calling an iterative solver
             0 MiB given to the printing process from OS
             0 MiB allocation reported by mallinfo(arena+hblkhd)
         23384 MiB available memory on the node where the printing process lives
------------------
     ethr =  4.83E-03,  avg # of iterations =  1.0

     negative rho (up, down):  7.402E-01 0.000E+00

     total cpu time spent up to now is       83.0 secs

     total energy              =   -4442.53132146 Ry
     estimated scf accuracy    <      10.54996333 Ry

     iteration #  6     ecut=    60.00 Ry     beta= 0.15
     Davidson diagonalization with overlap

---- Real-time Memory Report at c_bands before calling an iterative solver
             0 MiB given to the printing process from OS
             0 MiB allocation reported by mallinfo(arena+hblkhd)
         23363 MiB available memory on the node where the printing process lives
------------------
     ethr =  2.45E-03,  avg # of iterations =  1.1

     negative rho (up, down):  7.429E-01 0.000E+00

     total cpu time spent up to now is       97.7 secs

     total energy              =   -4442.80657595 Ry
     estimated scf accuracy    <       4.93732203 Ry

     iteration #  7     ecut=    60.00 Ry     beta= 0.15
     Davidson diagonalization with overlap

---- Real-time Memory Report at c_bands before calling an iterative solver
             0 MiB given to the printing process from OS
             0 MiB allocation reported by mallinfo(arena+hblkhd)
         23347 MiB available memory on the node where the printing process lives
------------------
     ethr =  1.15E-03,  avg # of iterations =  1.7

     negative rho (up, down):  7.639E-01 0.000E+00

     total cpu time spent up to now is      112.6 secs

     total energy              =   -4441.63409504 Ry
     estimated scf accuracy    <       3.95112947 Ry

     iteration #  8     ecut=    60.00 Ry     beta= 0.15
     Davidson diagonalization with overlap

---- Real-time Memory Report at c_bands before calling an iterative solver
             0 MiB given to the printing process from OS
             0 MiB allocation reported by mallinfo(arena+hblkhd)
         23326 MiB available memory on the node where the printing process lives
------------------
     ethr =  9.17E-04,  avg # of iterations =  5.7

     negative rho (up, down):  7.717E-01 0.000E+00

     total cpu time spent up to now is      132.5 secs

     total energy              =   -4441.44673319 Ry
     estimated scf accuracy    <      14.96568527 Ry

     iteration #  9     ecut=    60.00 Ry     beta= 0.15
     Davidson diagonalization with overlap

---- Real-time Memory Report at c_bands before calling an iterative solver
             0 MiB given to the printing process from OS
             0 MiB allocation reported by mallinfo(arena+hblkhd)
         23099 MiB available memory on the node where the printing process lives
------------------
     ethr =  9.17E-04,  avg # of iterations = 10.6

     negative rho (up, down):  7.701E-01 0.000E+00

     total cpu time spent up to now is      153.9 secs

     total energy              =   -4441.78645615 Ry
     estimated scf accuracy    <       2.40133415 Ry

     iteration # 10     ecut=    60.00 Ry     beta= 0.15
     Davidson diagonalization with overlap

---- Real-time Memory Report at c_bands before calling an iterative solver
             0 MiB given to the printing process from OS
             0 MiB allocation reported by mallinfo(arena+hblkhd)
         22845 MiB available memory on the node where the printing process lives
------------------
     ethr =  5.57E-04,  avg # of iterations =  1.4

     negative rho (up, down):  7.795E-01 0.000E+00

     total cpu time spent up to now is      169.6 secs

     total energy              =   -4441.91453754 Ry
     estimated scf accuracy    <       1.14494503 Ry

     iteration # 11     ecut=    60.00 Ry     beta= 0.15
     Davidson diagonalization with overlap

---- Real-time Memory Report at c_bands before calling an iterative solver
             0 MiB given to the printing process from OS
             0 MiB allocation reported by mallinfo(arena+hblkhd)
         22832 MiB available memory on the node where the printing process lives
------------------
     ethr =  2.66E-04,  avg # of iterations =  4.2

     negative rho (up, down):  8.055E-01 0.000E+00

     total cpu time spent up to now is      188.4 secs

     total energy              =   -4441.72629627 Ry
     estimated scf accuracy    <       1.51078666 Ry

     iteration # 12     ecut=    60.00 Ry     beta= 0.15
     Davidson diagonalization with overlap

---- Real-time Memory Report at c_bands before calling an iterative solver
             0 MiB given to the printing process from OS
             0 MiB allocation reported by mallinfo(arena+hblkhd)
         22776 MiB available memory on the node where the printing process lives
------------------
     ethr =  2.66E-04,  avg # of iterations =  7.9

     negative rho (up, down):  8.118E-01 0.000E+00

     total cpu time spent up to now is      208.3 secs

     total energy              =   -4441.84245764 Ry
     estimated scf accuracy    <       0.84924576 Ry

     iteration # 13     ecut=    60.00 Ry     beta= 0.15
     Davidson diagonalization with overlap

---- Real-time Memory Report at c_bands before calling an iterative solver
             0 MiB given to the printing process from OS
             0 MiB allocation reported by mallinfo(arena+hblkhd)
         22738 MiB available memory on the node where the printing process lives
------------------
     ethr =  1.97E-04,  avg # of iterations =  3.1

     negative rho (up, down):  8.187E-01 0.000E+00

     total cpu time spent up to now is      225.3 secs

     total energy              =   -4441.78926641 Ry
     estimated scf accuracy    <       0.55394496 Ry

     iteration # 14     ecut=    60.00 Ry     beta= 0.15
     Davidson diagonalization with overlap

---- Real-time Memory Report at c_bands before calling an iterative solver
             0 MiB given to the printing process from OS
             0 MiB allocation reported by mallinfo(arena+hblkhd)
         22733 MiB available memory on the node where the printing process lives
------------------
     ethr =  1.29E-04,  avg # of iterations =  7.3

     negative rho (up, down):  8.276E-01 0.000E+00

     total cpu time spent up to now is      244.8 secs

     total energy              =   -4441.70785744 Ry
     estimated scf accuracy    <       0.35074489 Ry

     iteration # 15     ecut=    60.00 Ry     beta= 0.15
     Davidson diagonalization with overlap

---- Real-time Memory Report at c_bands before calling an iterative solver
             0 MiB given to the printing process from OS
             0 MiB allocation reported by mallinfo(arena+hblkhd)
         22722 MiB available memory on the node where the printing process lives
------------------
     ethr =  8.14E-05,  avg # of iterations = 11.2

     negative rho (up, down):  8.322E-01 0.000E+00

     total cpu time spent up to now is      267.2 secs

     total energy              =   -4441.72270909 Ry
     estimated scf accuracy    <       0.37301511 Ry

     iteration # 16     ecut=    60.00 Ry     beta= 0.15
     Davidson diagonalization with overlap

---- Real-time Memory Report at c_bands before calling an iterative solver
             0 MiB given to the printing process from OS
             0 MiB allocation reported by mallinfo(arena+hblkhd)
         22712 MiB available memory on the node where the printing process lives
------------------
     ethr =  8.14E-05,  avg # of iterations =  1.3

     negative rho (up, down):  8.273E-01 0.000E+00

     total cpu time spent up to now is      282.8 secs

     total energy              =   -4441.70645950 Ry
     estimated scf accuracy    <       0.25592805 Ry

     iteration # 17     ecut=    60.00 Ry     beta= 0.15
     Davidson diagonalization with overlap

---- Real-time Memory Report at c_bands before calling an iterative solver
             0 MiB given to the printing process from OS
             0 MiB allocation reported by mallinfo(arena+hblkhd)
         22720 MiB available memory on the node where the printing process lives
------------------
     ethr =  5.94E-05,  avg # of iterations =  4.3

     negative rho (up, down):  8.061E-01 0.000E+00

     total cpu time spent up to now is      300.3 secs

     total energy              =   -4441.67657973 Ry
     estimated scf accuracy    <       0.16769674 Ry

     iteration # 18     ecut=    60.00 Ry     beta= 0.15
     Davidson diagonalization with overlap

---- Real-time Memory Report at c_bands before calling an iterative solver
             0 MiB given to the printing process from OS
             0 MiB allocation reported by mallinfo(arena+hblkhd)
         22721 MiB available memory on the node where the printing process lives
------------------
     ethr =  3.89E-05,  avg # of iterations =  8.6

     negative rho (up, down):  8.416E-01 0.000E+00

     total cpu time spent up to now is      321.1 secs

     total energy              =   -4441.66355651 Ry
     estimated scf accuracy    <       0.08533894 Ry

     iteration # 19     ecut=    60.00 Ry     beta= 0.15
     Davidson diagonalization with overlap

---- Real-time Memory Report at c_bands before calling an iterative solver
             0 MiB given to the printing process from OS
             0 MiB allocation reported by mallinfo(arena+hblkhd)
         22699 MiB available memory on the node where the printing process lives
------------------
     ethr =  1.98E-05,  avg # of iterations = 11.2

     negative rho (up, down):  8.423E-01 0.000E+00

     total cpu time spent up to now is      344.7 secs

     total energy              =   -4441.66652421 Ry
     estimated scf accuracy    <       0.04123660 Ry

     iteration # 20     ecut=    60.00 Ry     beta= 0.15
     Davidson diagonalization with overlap

---- Real-time Memory Report at c_bands before calling an iterative solver
             0 MiB given to the printing process from OS
             0 MiB allocation reported by mallinfo(arena+hblkhd)
         22640 MiB available memory on the node where the printing process lives
------------------
     ethr =  9.57E-06,  avg # of iterations =  1.4

     negative rho (up, down):  8.081E-01 0.000E+00

     total cpu time spent up to now is      360.9 secs

     total energy              =   -4441.66133412 Ry
     estimated scf accuracy    <       0.02936778 Ry

     iteration # 21     ecut=    60.00 Ry     beta= 0.15
     Davidson diagonalization with overlap

---- Real-time Memory Report at c_bands before calling an iterative solver
             0 MiB given to the printing process from OS
             0 MiB allocation reported by mallinfo(arena+hblkhd)
         22585 MiB available memory on the node where the printing process lives
------------------
     ethr =  6.81E-06,  avg # of iterations =  3.0

     negative rho (up, down):  7.994E-01 0.000E+00

     total cpu time spent up to now is      378.2 secs

     total energy              =   -4441.65797060 Ry
     estimated scf accuracy    <       0.02099817 Ry

     iteration # 22     ecut=    60.00 Ry     beta= 0.15
     Davidson diagonalization with overlap

---- Real-time Memory Report at c_bands before calling an iterative solver
             0 MiB given to the printing process from OS
             0 MiB allocation reported by mallinfo(arena+hblkhd)
         22607 MiB available memory on the node where the printing process lives
------------------
     ethr =  4.87E-06,  avg # of iterations = 12.8

     negative rho (up, down):  8.030E-01 0.000E+00

     total cpu time spent up to now is      401.0 secs

     total energy              =   -4441.65701396 Ry
     estimated scf accuracy    <       0.01071177 Ry

     iteration # 23     ecut=    60.00 Ry     beta= 0.15
     Davidson diagonalization with overlap

---- Real-time Memory Report at c_bands before calling an iterative solver
             0 MiB given to the printing process from OS
             0 MiB allocation reported by mallinfo(arena+hblkhd)
         22579 MiB available memory on the node where the printing process lives
------------------
     ethr =  2.49E-06,  avg # of iterations = 12.4

     negative rho (up, down):  8.016E-01 0.000E+00

     total cpu time spent up to now is      424.6 secs

     total energy              =   -4441.65658754 Ry
     estimated scf accuracy    <       0.00536833 Ry

     iteration # 24     ecut=    60.00 Ry     beta= 0.15
     Davidson diagonalization with overlap

---- Real-time Memory Report at c_bands before calling an iterative solver
             0 MiB given to the printing process from OS
             0 MiB allocation reported by mallinfo(arena+hblkhd)
         22565 MiB available memory on the node where the printing process lives
------------------
     ethr =  1.25E-06,  avg # of iterations =  2.8

     negative rho (up, down):  8.023E-01 0.000E+00

     total cpu time spent up to now is      441.8 secs

     total energy              =   -4441.65648139 Ry
     estimated scf accuracy    <       0.00302834 Ry

     iteration # 25     ecut=    60.00 Ry     beta= 0.15
     Davidson diagonalization with overlap

---- Real-time Memory Report at c_bands before calling an iterative solver
             0 MiB given to the printing process from OS
             0 MiB allocation reported by mallinfo(arena+hblkhd)
         22565 MiB available memory on the node where the printing process lives
------------------
     c_bands:  1 eigenvalues not converged
     ethr =  7.03E-07,  avg # of iterations = 11.2

     negative rho (up, down):  7.995E-01 0.000E+00

     total cpu time spent up to now is      463.6 secs

     total energy              =   -4441.65644470 Ry
     estimated scf accuracy    <       0.00141646 Ry

     iteration # 26     ecut=    60.00 Ry     beta= 0.15
     Davidson diagonalization with overlap

---- Real-time Memory Report at c_bands before calling an iterative solver
             0 MiB given to the printing process from OS
             0 MiB allocation reported by mallinfo(arena+hblkhd)
         22544 MiB available memory on the node where the printing process lives
------------------
     ethr =  3.29E-07,  avg # of iterations =  9.4

     negative rho (up, down):  7.972E-01 0.000E+00

     total cpu time spent up to now is      485.4 secs

     total energy              =   -4441.65642202 Ry
     estimated scf accuracy    <       0.00079018 Ry

     iteration # 27     ecut=    60.00 Ry     beta= 0.15
     Davidson diagonalization with overlap

---- Real-time Memory Report at c_bands before calling an iterative solver
             0 MiB given to the printing process from OS
             0 MiB allocation reported by mallinfo(arena+hblkhd)
         22576 MiB available memory on the node where the printing process lives
------------------
     c_bands:  1 eigenvalues not converged
     ethr =  1.83E-07,  avg # of iterations =  8.6

     negative rho (up, down):  7.959E-01 0.000E+00

     total cpu time spent up to now is      506.5 secs

     total energy              =   -4441.65642846 Ry
     estimated scf accuracy    <       0.00038251 Ry

     iteration # 28     ecut=    60.00 Ry     beta= 0.15
     Davidson diagonalization with overlap

---- Real-time Memory Report at c_bands before calling an iterative solver
             0 MiB given to the printing process from OS
             0 MiB allocation reported by mallinfo(arena+hblkhd)
         22560 MiB available memory on the node where the printing process lives
------------------
     ethr =  8.87E-08,  avg # of iterations =  2.6

     negative rho (up, down):  7.945E-01 0.000E+00

     total cpu time spent up to now is      523.8 secs

     total energy              =   -4441.65641515 Ry
     estimated scf accuracy    <       0.00024787 Ry

     iteration # 29     ecut=    60.00 Ry     beta= 0.15
     Davidson diagonalization with overlap

---- Real-time Memory Report at c_bands before calling an iterative solver
             0 MiB given to the printing process from OS
             0 MiB allocation reported by mallinfo(arena+hblkhd)
         22599 MiB available memory on the node where the printing process lives
------------------
     ethr =  5.75E-08,  avg # of iterations =  3.4

     negative rho (up, down):  7.935E-01 0.000E+00

     total cpu time spent up to now is      541.2 secs

     total energy              =   -4441.65640476 Ry
     estimated scf accuracy    <       0.00013117 Ry

     iteration # 30     ecut=    60.00 Ry     beta= 0.15
     Davidson diagonalization with overlap

---- Real-time Memory Report at c_bands before calling an iterative solver
             0 MiB given to the printing process from OS
             0 MiB allocation reported by mallinfo(arena+hblkhd)
         22605 MiB available memory on the node where the printing process lives
------------------
     ethr =  3.04E-08,  avg # of iterations =  2.1

     negative rho (up, down):  7.925E-01 0.000E+00

     total cpu time spent up to now is      558.2 secs

     total energy              =   -4441.65641604 Ry
     estimated scf accuracy    <       0.00004284 Ry

     iteration # 31     ecut=    60.00 Ry     beta= 0.15
     Davidson diagonalization with overlap

---- Real-time Memory Report at c_bands before calling an iterative solver
             0 MiB given to the printing process from OS
             0 MiB allocation reported by mallinfo(arena+hblkhd)
         22613 MiB available memory on the node where the printing process lives
------------------
     ethr =  9.94E-09,  avg # of iterations =  3.0

     negative rho (up, down):  7.924E-01 0.000E+00

     total cpu time spent up to now is      575.7 secs

     total energy              =   -4441.65642187 Ry
     estimated scf accuracy    <       0.00001144 Ry

     iteration # 32     ecut=    60.00 Ry     beta= 0.15
     Davidson diagonalization with overlap

---- Real-time Memory Report at c_bands before calling an iterative solver
             0 MiB given to the printing process from OS
             0 MiB allocation reported by mallinfo(arena+hblkhd)
         22617 MiB available memory on the node where the printing process lives
------------------
     ethr =  2.65E-09,  avg # of iterations =  2.1

     negative rho (up, down):  7.922E-01 0.000E+00

     total cpu time spent up to now is      592.3 secs

     total energy              =   -4441.65642459 Ry
     estimated scf accuracy    <       0.00000583 Ry

     iteration # 33     ecut=    60.00 Ry     beta= 0.15
     Davidson diagonalization with overlap

---- Real-time Memory Report at c_bands before calling an iterative solver
             0 MiB given to the printing process from OS
             0 MiB allocation reported by mallinfo(arena+hblkhd)
         22620 MiB available memory on the node where the printing process lives
------------------
     ethr =  1.35E-09,  avg # of iterations =  3.3

     negative rho (up, down):  7.922E-01 0.000E+00

     total cpu time spent up to now is      609.8 secs

     total energy              =   -4441.65642529 Ry
     estimated scf accuracy    <       0.00000371 Ry

     iteration # 34     ecut=    60.00 Ry     beta= 0.15
     Davidson diagonalization with overlap

---- Real-time Memory Report at c_bands before calling an iterative solver
             0 MiB given to the printing process from OS
             0 MiB allocation reported by mallinfo(arena+hblkhd)
         22624 MiB available memory on the node where the printing process lives
------------------
     ethr =  8.62E-10,  avg # of iterations =  2.2

     negative rho (up, down):  7.924E-01 0.000E+00

     total cpu time spent up to now is      626.5 secs

     total energy              =   -4441.65642604 Ry
     estimated scf accuracy    <       0.00000250 Ry

     iteration # 35     ecut=    60.00 Ry     beta= 0.15
     Davidson diagonalization with overlap

---- Real-time Memory Report at c_bands before calling an iterative solver
             0 MiB given to the printing process from OS
             0 MiB allocation reported by mallinfo(arena+hblkhd)
         22629 MiB available memory on the node where the printing process lives
------------------
     ethr =  5.80E-10,  avg # of iterations =  2.3

     negative rho (up, down):  7.924E-01 0.000E+00

     total cpu time spent up to now is      643.3 secs

     total energy              =   -4441.65642635 Ry
     estimated scf accuracy    <       0.00000120 Ry

     iteration # 36     ecut=    60.00 Ry     beta= 0.15
     Davidson diagonalization with overlap

---- Real-time Memory Report at c_bands before calling an iterative solver
             0 MiB given to the printing process from OS
             0 MiB allocation reported by mallinfo(arena+hblkhd)
         22629 MiB available memory on the node where the printing process lives
------------------
     ethr =  2.79E-10,  avg # of iterations =  2.2

     negative rho (up, down):  7.925E-01 0.000E+00

     total cpu time spent up to now is      660.0 secs

     total energy              =   -4441.65642648 Ry
     estimated scf accuracy    <       0.00000076 Ry

     iteration # 37     ecut=    60.00 Ry     beta= 0.15
     Davidson diagonalization with overlap

---- Real-time Memory Report at c_bands before calling an iterative solver
             0 MiB given to the printing process from OS
             0 MiB allocation reported by mallinfo(arena+hblkhd)
         22636 MiB available memory on the node where the printing process lives
------------------
     ethr =  1.76E-10,  avg # of iterations =  3.2

     negative rho (up, down):  7.925E-01 0.000E+00

     total cpu time spent up to now is      677.2 secs

     total energy              =   -4441.65642649 Ry
     estimated scf accuracy    <       0.00000049 Ry

     iteration # 38     ecut=    60.00 Ry     beta= 0.15
     Davidson diagonalization with overlap

---- Real-time Memory Report at c_bands before calling an iterative solver
             0 MiB given to the printing process from OS
             0 MiB allocation reported by mallinfo(arena+hblkhd)
         22641 MiB available memory on the node where the printing process lives
------------------
     ethr =  1.13E-10,  avg # of iterations =  2.6

     negative rho (up, down):  7.925E-01 0.000E+00

     total cpu time spent up to now is      694.1 secs

     total energy              =   -4441.65642645 Ry
     estimated scf accuracy    <       0.00000034 Ry

     iteration # 39     ecut=    60.00 Ry     beta= 0.15
     Davidson diagonalization with overlap

---- Real-time Memory Report at c_bands before calling an iterative solver
             0 MiB given to the printing process from OS
             0 MiB allocation reported by mallinfo(arena+hblkhd)
         22645 MiB available memory on the node where the printing process lives
------------------
     ethr =  7.89E-11,  avg # of iterations =  2.5

     negative rho (up, down):  7.925E-01 0.000E+00

     total cpu time spent up to now is      710.9 secs

     total energy              =   -4441.65642640 Ry
     estimated scf accuracy    <       0.00000025 Ry

     iteration # 40     ecut=    60.00 Ry     beta= 0.15
     Davidson diagonalization with overlap

---- Real-time Memory Report at c_bands before calling an iterative solver
             0 MiB given to the printing process from OS
             0 MiB allocation reported by mallinfo(arena+hblkhd)
         22648 MiB available memory on the node where the printing process lives
------------------
     ethr =  5.69E-11,  avg # of iterations =  2.5

     negative rho (up, down):  7.925E-01 0.000E+00

     total cpu time spent up to now is      727.9 secs

     total energy              =   -4441.65642639 Ry
     estimated scf accuracy    <       0.00000014 Ry

     iteration # 41     ecut=    60.00 Ry     beta= 0.15
     Davidson diagonalization with overlap

---- Real-time Memory Report at c_bands before calling an iterative solver
             0 MiB given to the printing process from OS
             0 MiB allocation reported by mallinfo(arena+hblkhd)
         22646 MiB available memory on the node where the printing process lives
------------------
     ethr =  3.24E-11,  avg # of iterations =  2.0

     negative rho (up, down):  7.925E-01 0.000E+00

     total cpu time spent up to now is      744.4 secs

     total energy              =   -4441.65642645 Ry
     estimated scf accuracy    <       0.00000008 Ry

     iteration # 42     ecut=    60.00 Ry     beta= 0.15
     Davidson diagonalization with overlap

---- Real-time Memory Report at c_bands before calling an iterative solver
             0 MiB given to the printing process from OS
             0 MiB allocation reported by mallinfo(arena+hblkhd)
         22647 MiB available memory on the node where the printing process lives
------------------
     ethr =  1.95E-11,  avg # of iterations =  2.9

     negative rho (up, down):  7.925E-01 0.000E+00

     total cpu time spent up to now is      761.4 secs

     total energy              =   -4441.65642647 Ry
     estimated scf accuracy    <       0.00000005 Ry

     iteration # 43     ecut=    60.00 Ry     beta= 0.15
     Davidson diagonalization with overlap

---- Real-time Memory Report at c_bands before calling an iterative solver
             0 MiB given to the printing process from OS
             0 MiB allocation reported by mallinfo(arena+hblkhd)
         22654 MiB available memory on the node where the printing process lives
------------------
     ethr =  1.11E-11,  avg # of iterations =  2.2

     negative rho (up, down):  7.924E-01 0.000E+00

     total cpu time spent up to now is      778.1 secs

     total energy              =   -4441.65642649 Ry
     estimated scf accuracy    <       0.00000003 Ry

     iteration # 44     ecut=    60.00 Ry     beta= 0.15
     Davidson diagonalization with overlap

---- Real-time Memory Report at c_bands before calling an iterative solver
             0 MiB given to the printing process from OS
             0 MiB allocation reported by mallinfo(arena+hblkhd)
         22657 MiB available memory on the node where the printing process lives
------------------
     ethr =  7.50E-12,  avg # of iterations =  3.2

     negative rho (up, down):  7.924E-01 0.000E+00

     total cpu time spent up to now is      795.4 secs

     total energy              =   -4441.65642651 Ry
     estimated scf accuracy    <       0.00000003 Ry

     iteration # 45     ecut=    60.00 Ry     beta= 0.15
     Davidson diagonalization with overlap

---- Real-time Memory Report at c_bands before calling an iterative solver
             0 MiB given to the printing process from OS
             0 MiB allocation reported by mallinfo(arena+hblkhd)
         22656 MiB available memory on the node where the printing process lives
------------------
     ethr =  6.56E-12,  avg # of iterations =  2.9

     negative rho (up, down):  7.925E-01 0.000E+00

     total cpu time spent up to now is      812.4 secs

     total energy              =   -4441.65642650 Ry
     estimated scf accuracy    <       0.00000002 Ry

     iteration # 46     ecut=    60.00 Ry     beta= 0.15
     Davidson diagonalization with overlap

---- Real-time Memory Report at c_bands before calling an iterative solver
             0 MiB given to the printing process from OS
             0 MiB allocation reported by mallinfo(arena+hblkhd)
         22661 MiB available memory on the node where the printing process lives
------------------
     ethr =  4.07E-12,  avg # of iterations =  3.1

     negative rho (up, down):  7.925E-01 0.000E+00

     total cpu time spent up to now is      829.6 secs

     total energy              =   -4441.65642650 Ry
     estimated scf accuracy    <       0.00000001 Ry

     iteration # 47     ecut=    60.00 Ry     beta= 0.15
     Davidson diagonalization with overlap

---- Real-time Memory Report at c_bands before calling an iterative solver
             0 MiB given to the printing process from OS
             0 MiB allocation reported by mallinfo(arena+hblkhd)
         22664 MiB available memory on the node where the printing process lives
------------------
     ethr =  3.07E-12,  avg # of iterations =  2.8

     negative rho (up, down):  7.925E-01 0.000E+00

     total cpu time spent up to now is      847.0 secs

     total energy              =   -4441.65642650 Ry
     estimated scf accuracy    <       0.00000001 Ry

     iteration # 48     ecut=    60.00 Ry     beta= 0.15
     Davidson diagonalization with overlap

---- Real-time Memory Report at c_bands before calling an iterative solver
             0 MiB given to the printing process from OS
             0 MiB allocation reported by mallinfo(arena+hblkhd)
         22665 MiB available memory on the node where the printing process lives
------------------
     ethr =  2.36E-12,  avg # of iterations =  1.1

     negative rho (up, down):  7.925E-01 0.000E+00

     total cpu time spent up to now is      861.9 secs

     End of self-consistent calculation

          k = 0.0000 0.0000 0.0000 ( 65197 PWs)   bands (ev):

   -92.6829 -92.6288 -92.5362 -92.4908 -92.4322 -92.3891 -92.3714 -92.2506
   -56.0363 -56.0153 -55.8937 -55.8834 -55.8756 -55.8703 -55.8331 -55.8055
   -55.7899 -55.7887 -55.7798 -55.7393 -55.7232 -55.6827 -55.6625 -55.6324
   -55.6257 -55.5771 -55.5764 -55.5743 -55.5658 -55.5254 -55.5018 -55.4171
   -31.2605 -31.2410 -31.1103 -31.0992 -31.0122 -30.9295 -30.8808 -30.5555
   -29.8306 -29.7864 -29.7606 -29.6518 -15.0628 -15.0166 -14.9378 -14.8079
   -14.6146 -14.4906 -14.2014 -14.1809 -14.1520 -14.1058 -14.0585 -14.0462
   -14.0405 -14.0202 -14.0030 -13.9657 -13.9474 -13.9124 -13.7601 -13.5839
   -13.5488 -13.5182 -13.4897 -13.4705 -13.4140 -13.3802 -13.3051 -13.2328
   -13.1085 -13.0953 -13.0883 -13.0729 -13.0569 -13.0386 -12.9874 -12.9840
   -12.9674 -12.9372 -12.9065 -12.8956 -12.8883 -12.8721 -12.8308 -12.8039
   -12.7690 -12.7418 -12.5490 -12.5429 -12.4881 -12.3248 -12.1791 -11.9643
   -11.9071 -11.8431 -11.7696 -11.7582 -11.7348 -11.7171 -11.6538 -11.6364
   -11.6020 -11.5733 -11.4602 -11.3811 -11.3776  -2.9229  -2.6906  -2.4613
    -2.3140  -2.2511  -2.1091  -1.8019  -1.7879  -1.7684  -1.6845  -1.6643
    -1.5965  -1.5798  -1.5389  -1.4957  -1.3129  -1.1216  -1.0849  -1.0590
    -0.9125  -0.8980  -0.8518  -0.8326  -0.7874  -0.7694  -0.7155  -0.6887
    -0.6137  -0.6007  -0.5285  -0.3958  -0.3837  -0.3552  -0.2742  -0.2618
    -0.2506  -0.1827  -0.1100  -0.0453  -0.0111   0.0276   0.0870   0.1524
     0.2005   0.2212   0.2343   0.4923   0.5049   0.6839   0.7482   0.8232
     0.8571   0.9439   0.9591   0.9729   1.0421   1.0694   1.1024   1.1619
     1.2920   1.3544   1.3716   1.3905   1.4035   1.4691   1.5404   1.6478
     1.6568   1.7266   1.7443   1.7806   1.7950   1.8033   1.8627   1.9164
     1.9410   1.9791   2.0282   2.0483   2.1785   2.2655   2.3047   2.3218
     2.4549   2.4889   2.4964   2.5034   2.5316   2.5446   2.6422   2.6767
     2.7018   2.7205   2.7344   2.8171   2.9255   2.9566   2.9697   2.9762
     3.0447   3.0486   3.0716   3.0798   3.0880   3.1005   3.1075   3.1210
     3.1265   3.1394   3.1477   3.1556   3.1756   3.1962   3.2013   3.2136
     3.2488   3.3547   3.4281   4.1237   4.4607   4.7897   4.8775   5.0618
     5.7286   5.9567   6.0068   6.0228   6.3326   6.3795   6.4905   6.5001
     6.7220   7.0190   7.0985   7.3300   7.4232   7.5989   7.6680   7.6775
     7.7086   7.8769   7.9358   8.0281   8.1252   8.1926   8.3843   8.5253
     8.7078   8.8007   8.8676

     occupation numbers 
     1.0000   1.0000   1.0000   1.0000   1.0000   1.0000   1.0000   1.0000
     1.0000   1.0000   1.0000   1.0000   1.0000   1.0000   1.0000   1.0000
     1.0000   1.0000   1.0000   1.0000   1.0000   1.0000   1.0000   1.0000
     1.0000   1.0000   1.0000   1.0000   1.0000   1.0000   1.0000   1.0000
     1.0000   1.0000   1.0000   1.0000   1.0000   1.0000   1.0000   1.0000
     1.0000   1.0000   1.0000   1.0000   1.0000   1.0000   1.0000   1.0000
     1.0000   1.0000   1.0000   1.0000   1.0000   1.0000   1.0000   1.0000
     1.0000   1.0000   1.0000   1.0000   1.0000   1.0000   1.0000   1.0000
     1.0000   1.0000   1.0000   1.0000   1.0000   1.0000   1.0000   1.0000
     1.0000   1.0000   1.0000   1.0000   1.0000   1.0000   1.0000   1.0000
     1.0000   1.0000   1.0000   1.0000   1.0000   1.0000   1.0000   1.0000
     1.0000   1.0000   1.0000   1.0000   1.0000   1.0000   1.0000   1.0000
     1.0000   1.0000   1.0000   1.0000   1.0000   1.0000   1.0000   1.0000
     1.0000   1.0000   1.0000   1.0000   1.0000   1.0000   1.0000   1.0000
     1.0000   1.0000   1.0000   1.0000   1.0000   1.0000   1.0000   1.0000
     1.0000   1.0000   1.0000   1.0000   1.0000   1.0000   1.0000   1.0000
     1.0000   1.0000   1.0000   1.0000   1.0000   1.0000   1.0000   1.0000
     1.0000   1.0000   1.0000   1.0000   1.0000   1.0000   1.0000   1.0000
     1.0000   1.0000   1.0000   1.0000   1.0000   1.0000   1.0000   1.0000
     1.0000   1.0000   1.0000   1.0000   1.0000   1.0000   0.9999   0.9999
     0.9999   0.9998   0.9998   0.9998   0.9997   0.9996   0.9996   0.9994
     0.9989   0.9984   0.9983   0.9981   0.9980   0.9973   0.9963   0.9941
     0.9939   0.9919   0.9913   0.9899   0.9893   0.9890   0.9861   0.9831
     0.9815   0.9787   0.9747   0.9729   0.9584   0.9455   0.9388   0.9357
     0.9069   0.8982   0.8962   0.8943   0.8865   0.8827   0.8517   0.8395
     0.8303   0.8232   0.8177   0.7835   0.7334   0.7180   0.7114   0.7081
     0.6722   0.6701   0.6577   0.6532   0.6487   0.6418   0.6379   0.6304
     0.6273   0.6200   0.6153   0.6108   0.5994   0.5875   0.5845   0.5774
     0.5569   0.4943   0.4510   0.1238   0.0488   0.0160   0.0114   0.0054
     0.0002   0.0001   0.0000   0.0000   0.0000   0.0000   0.0000   0.0000
     0.0000   0.0000   0.0000   0.0000   0.0000   0.0000   0.0000   0.0000
     0.0000   0.0000   0.0000   0.0000   0.0000   0.0000   0.0000   0.0000
     0.0000   0.0000   0.0000

          k = 0.0000 0.2500 0.0000 ( 65257 PWs)   bands (ev):

   -92.6829 -92.6288 -92.5362 -92.4908 -92.4322 -92.3891 -92.3714 -92.2506
   -56.0363 -56.0153 -55.8937 -55.8834 -55.8756 -55.8703 -55.8331 -55.8055
   -55.7899 -55.7887 -55.7798 -55.7393 -55.7232 -55.6828 -55.6625 -55.6324
   -55.6257 -55.5771 -55.5764 -55.5743 -55.5658 -55.5254 -55.5018 -55.4171
   -31.2603 -31.2409 -31.1102 -31.0994 -31.0124 -30.9296 -30.8807 -30.5556
   -29.8300 -29.7861 -29.7612 -29.6522 -15.0264 -14.9902 -14.9124 -14.7786
   -14.6555 -14.4819 -14.3457 -14.1670 -14.1323 -14.1112 -14.0822 -14.0242
   -14.0167 -14.0013 -13.9853 -13.9489 -13.9353 -13.8310 -13.7915 -13.6298
   -13.6087 -13.5600 -13.5240 -13.4812 -13.4338 -13.3841 -13.3248 -13.2902
   -13.2060 -13.1629 -13.1304 -13.0948 -13.0869 -13.0580 -12.9710 -12.9465
   -12.9181 -12.9040 -12.8835 -12.8598 -12.8492 -12.8171 -12.7919 -12.7784
   -12.6952 -12.6604 -12.5135 -12.4697 -12.4443 -12.3861 -12.2303 -12.0161
   -11.9683 -11.8085 -11.7664 -11.7380 -11.7095 -11.6928 -11.6457 -11.6344
   -11.6118 -11.5783 -11.4745 -11.4227 -11.4122  -2.7876  -2.5663  -2.4287
    -2.2466  -2.2031  -2.0393  -1.8205  -1.7355  -1.7226  -1.6659  -1.5623
    -1.5464  -1.5134  -1.4858  -1.4423  -1.2444  -1.1252  -1.1137  -1.0978
    -1.0264  -1.0168  -0.9129  -0.8834  -0.8245  -0.8001  -0.7596  -0.6961
    -0.6692  -0.6372  -0.6009  -0.5857  -0.5548  -0.4801  -0.4305  -0.3685
    -0.2520  -0.2369  -0.1897  -0.0680  -0.0263   0.0348   0.0795   0.1361
     0.1536   0.1812   0.2472   0.5427   0.6283   0.6595   0.7482   0.7971
     0.8213   0.9290   0.9485   1.0470   1.0702   1.0957   1.2092   1.3028
     1.3282   1.3506   1.3658   1.3937   1.4544   1.4805   1.5094   1.5558
     1.5931   1.6224   1.7082   1.7391   1.7861   1.8263   1.8885   1.9420
     1.9610   1.9810   2.0076   2.0998   2.2150   2.2870   2.3033   2.3781
     2.4264   2.4532   2.4756   2.4963   2.5111   2.5367   2.5729   2.6587
     2.6943   2.7109   2.8834   2.9060   2.9397   2.9593   2.9769   2.9851
     2.9929   3.0027   3.0317   3.0334   3.0525   3.0550   3.0666   3.0848
     3.0968   3.1043   3.1264   3.1371   3.1418   3.1773   3.1940   3.2544
     3.6340   3.6555   3.8967   4.3132   4.4587   4.7297   5.0291   5.0850
     5.6576   5.7965   5.9141   6.0052   6.0995   6.1214   6.2015   6.6084
     6.8110   7.0920   7.1253   7.3432   7.4952   7.5141   7.5642   7.6565
     7.8544   7.9419   7.9970   8.1830   8.2575   8.3844   8.4215   8.5064
     8.5616   8.8156   8.9322

     occupation numbers 
     1.0000   1.0000   1.0000   1.0000   1.0000   1.0000   1.0000   1.0000
     1.0000   1.0000   1.0000   1.0000   1.0000   1.0000   1.0000   1.0000
     1.0000   1.0000   1.0000   1.0000   1.0000   1.0000   1.0000   1.0000
     1.0000   1.0000   1.0000   1.0000   1.0000   1.0000   1.0000   1.0000
     1.0000   1.0000   1.0000   1.0000   1.0000   1.0000   1.0000   1.0000
     1.0000   1.0000   1.0000   1.0000   1.0000   1.0000   1.0000   1.0000
     1.0000   1.0000   1.0000   1.0000   1.0000   1.0000   1.0000   1.0000
     1.0000   1.0000   1.0000   1.0000   1.0000   1.0000   1.0000   1.0000
     1.0000   1.0000   1.0000   1.0000   1.0000   1.0000   1.0000   1.0000
     1.0000   1.0000   1.0000   1.0000   1.0000   1.0000   1.0000   1.0000
     1.0000   1.0000   1.0000   1.0000   1.0000   1.0000   1.0000   1.0000
     1.0000   1.0000   1.0000   1.0000   1.0000   1.0000   1.0000   1.0000
     1.0000   1.0000   1.0000   1.0000   1.0000   1.0000   1.0000   1.0000
     1.0000   1.0000   1.0000   1.0000   1.0000   1.0000   1.0000   1.0000
     1.0000   1.0000   1.0000   1.0000   1.0000   1.0000   1.0000   1.0000
     1.0000   1.0000   1.0000   1.0000   1.0000   1.0000   1.0000   1.0000
     1.0000   1.0000   1.0000   1.0000   1.0000   1.0000   1.0000   1.0000
     1.0000   1.0000   1.0000   1.0000   1.0000   1.0000   1.0000   1.0000
     1.0000   1.0000   1.0000   1.0000   1.0000   1.0000   1.0000   1.0000
     1.0000   1.0000   1.0000   1.0000   1.0000   1.0000   0.9999   0.9999
     0.9999   0.9998   0.9998   0.9997   0.9996   0.9996   0.9992   0.9988
     0.9986   0.9985   0.9984   0.9981   0.9975   0.9972   0.9968   0.9961
     0.9954   0.9947   0.9925   0.9915   0.9897   0.9879   0.9847   0.9814
     0.9801   0.9786   0.9765   0.9678   0.9533   0.9419   0.9391   0.9245
     0.9138   0.9073   0.9017   0.8962   0.8922   0.8850   0.8742   0.8460
     0.8331   0.8268   0.7535   0.7428   0.7264   0.7166   0.7077   0.7035
     0.6995   0.6944   0.6792   0.6783   0.6680   0.6667   0.6604   0.6505
     0.6439   0.6397   0.6273   0.6213   0.6186   0.5984   0.5888   0.5536
     0.3340   0.3225   0.2064   0.0753   0.0491   0.0199   0.0062   0.0049
     0.0003   0.0001   0.0001   0.0000   0.0000   0.0000   0.0000   0.0000
     0.0000   0.0000   0.0000   0.0000   0.0000   0.0000   0.0000   0.0000
     0.0000   0.0000   0.0000   0.0000   0.0000   0.0000   0.0000   0.0000
     0.0000   0.0000   0.0000

          k = 0.0000-0.5000 0.0000 ( 65180 PWs)   bands (ev):

   -92.6829 -92.6288 -92.5362 -92.4908 -92.4322 -92.3891 -92.3714 -92.2506
   -56.0363 -56.0153 -55.8937 -55.8834 -55.8756 -55.8703 -55.8331 -55.8055
   -55.7899 -55.7887 -55.7798 -55.7393 -55.7232 -55.6828 -55.6625 -55.6324
   -55.6257 -55.5771 -55.5764 -55.5743 -55.5658 -55.5254 -55.5018 -55.4171
   -31.2601 -31.2408 -31.1100 -31.0996 -31.0125 -30.9298 -30.8806 -30.5557
   -29.8293 -29.7858 -29.7618 -29.6525 -14.9901 -14.9422 -14.8860 -14.7614
   -14.6756 -14.5424 -14.3813 -14.2667 -14.1393 -14.0661 -14.0239 -14.0191
   -13.9695 -13.9532 -13.9484 -13.9006 -13.8838 -13.8549 -13.8261 -13.7922
   -13.7380 -13.5649 -13.5067 -13.4881 -13.4385 -13.3736 -13.3408 -13.2850
   -13.2659 -13.2446 -13.2004 -13.0972 -13.0878 -13.0501 -12.9609 -12.9461
   -12.9289 -12.9110 -12.8653 -12.8563 -12.8104 -12.7898 -12.6880 -12.6592
   -12.6344 -12.6337 -12.5031 -12.4962 -12.3788 -12.3056 -12.2833 -12.1050
   -12.0648 -11.7633 -11.7603 -11.7326 -11.6952 -11.6611 -11.6500 -11.6081
   -11.6041 -11.5598 -11.4963 -11.4829 -11.4691  -2.5730  -2.5135  -2.3629
    -2.2913  -2.0103  -1.9254  -1.7980  -1.6618  -1.6251  -1.6043  -1.5266
    -1.4959  -1.4119  -1.3775  -1.2998  -1.2604  -1.2223  -1.1954  -1.1457
    -1.1037  -1.0995  -1.0533  -1.0178  -0.9829  -0.9501  -0.8395  -0.7955
    -0.7595  -0.7578  -0.6720  -0.6417  -0.6178  -0.5664  -0.4851  -0.4084
    -0.3278  -0.2995  -0.1870  -0.1410  -0.0110   0.0214   0.0559   0.1098
     0.2555   0.3033   0.4103   0.4800   0.4871   0.6147   0.6652   0.7847
     0.8972   1.0029   1.0329   1.0726   1.0783   1.1156   1.1342   1.1689
     1.1899   1.1996   1.3076   1.3719   1.3931   1.4169   1.6809   1.7214
     1.7458   1.8381   1.8675   1.8915   1.9086   1.9315   1.9574   1.9715
     1.9990   2.0195   2.0556   2.0844   2.0872   2.1206   2.1720   2.2561
     2.2908   2.4545   2.4812   2.5047   2.6210   2.6341   2.6509   2.6865
     2.6932   2.7036   2.7547   2.7649   2.8179   2.8393   2.9155   2.9296
     2.9974   3.0070   3.0281   3.0297   3.0489   3.0557   3.0568   3.0622
     3.0647   3.0786   3.0966   3.0979   3.1628   3.1669   3.1836   3.2380
     4.1462   4.1966   4.2111   4.2708   4.7534   4.9249   5.0415   5.1739
     5.4287   5.4806   5.5986   5.7345   6.0363   6.0695   6.2263   6.5033
     6.8641   6.9649   7.2356   7.3296   7.3676   7.4503   7.6362   7.7712
     7.9240   7.9827   8.2082   8.2685   8.4004   8.4895   8.5151   8.6889
     8.8187   8.8335   8.8834

     occupation numbers 
     1.0000   1.0000   1.0000   1.0000   1.0000   1.0000   1.0000   1.0000
     1.0000   1.0000   1.0000   1.0000   1.0000   1.0000   1.0000   1.0000
     1.0000   1.0000   1.0000   1.0000   1.0000   1.0000   1.0000   1.0000
     1.0000   1.0000   1.0000   1.0000   1.0000   1.0000   1.0000   1.0000
     1.0000   1.0000   1.0000   1.0000   1.0000   1.0000   1.0000   1.0000
     1.0000   1.0000   1.0000   1.0000   1.0000   1.0000   1.0000   1.0000
     1.0000   1.0000   1.0000   1.0000   1.0000   1.0000   1.0000   1.0000
     1.0000   1.0000   1.0000   1.0000   1.0000   1.0000   1.0000   1.0000
     1.0000   1.0000   1.0000   1.0000   1.0000   1.0000   1.0000   1.0000
     1.0000   1.0000   1.0000   1.0000   1.0000   1.0000   1.0000   1.0000
     1.0000   1.0000   1.0000   1.0000   1.0000   1.0000   1.0000   1.0000
     1.0000   1.0000   1.0000   1.0000   1.0000   1.0000   1.0000   1.0000
     1.0000   1.0000   1.0000   1.0000   1.0000   1.0000   1.0000   1.0000
     1.0000   1.0000   1.0000   1.0000   1.0000   1.0000   1.0000   1.0000
     1.0000   1.0000   1.0000   1.0000   1.0000   1.0000   1.0000   1.0000
     1.0000   1.0000   1.0000   1.0000   1.0000   1.0000   1.0000   1.0000
     1.0000   1.0000   1.0000   1.0000   1.0000   1.0000   1.0000   1.0000
     1.0000   1.0000   1.0000   1.0000   1.0000   1.0000   1.0000   1.0000
     1.0000   1.0000   1.0000   1.0000   1.0000   1.0000   1.0000   1.0000
     1.0000   1.0000   1.0000   1.0000   1.0000   1.0000   1.0000   0.9999
     0.9999   0.9997   0.9997   0.9996   0.9996   0.9995   0.9995   0.9994
     0.9993   0.9993   0.9988   0.9983   0.9981   0.9979   0.9933   0.9920
     0.9912   0.9874   0.9859   0.9846   0.9835   0.9821   0.9803   0.9793
     0.9772   0.9755   0.9722   0.9694   0.9691   0.9655   0.9592   0.9471
     0.9413   0.9070   0.9002   0.8940   0.8589   0.8545   0.8487   0.8360
     0.8335   0.8296   0.8097   0.8055   0.7831   0.7737   0.7382   0.7314
     0.6972   0.6922   0.6811   0.6802   0.6700   0.6663   0.6657   0.6628
     0.6615   0.6538   0.6439   0.6432   0.6067   0.6043   0.5948   0.5632
     0.1171   0.1030   0.0992   0.0846   0.0183   0.0095   0.0059   0.0033
     0.0010   0.0008   0.0004   0.0002   0.0000   0.0000   0.0000   0.0000
     0.0000   0.0000   0.0000   0.0000   0.0000   0.0000   0.0000   0.0000
     0.0000   0.0000   0.0000   0.0000   0.0000   0.0000   0.0000   0.0000
     0.0000   0.0000   0.0000

          k = 0.2500 0.2500 0.0000 ( 65198 PWs)   bands (ev):

   -92.6829 -92.6288 -92.5362 -92.4908 -92.4322 -92.3891 -92.3714 -92.2506
   -56.0363 -56.0153 -55.8937 -55.8834 -55.8756 -55.8703 -55.8331 -55.8055
   -55.7899 -55.7887 -55.7798 -55.7393 -55.7232 -55.6827 -55.6625 -55.6324
   -55.6257 -55.5771 -55.5764 -55.5743 -55.5658 -55.5254 -55.5018 -55.4171
   -31.2586 -31.2426 -31.1100 -31.0990 -31.0127 -30.9296 -30.8808 -30.5557
   -29.8290 -29.7871 -29.7608 -29.6526 -14.9974 -14.9553 -14.8844 -14.7683
   -14.6482 -14.5216 -14.4521 -14.2461 -14.0906 -14.0775 -14.0412 -14.0122
   -13.9880 -13.9598 -13.9458 -13.9310 -13.8995 -13.8220 -13.8060 -13.6454
   -13.6313 -13.6007 -13.5824 -13.5349 -13.4922 -13.4156 -13.4082 -13.2667
   -13.2416 -13.2103 -13.1259 -13.0862 -13.0543 -13.0248 -13.0008 -12.9594
   -12.9294 -12.9082 -12.8988 -12.8400 -12.7955 -12.7777 -12.7462 -12.7260
   -12.6961 -12.6345 -12.5120 -12.4477 -12.4343 -12.3286 -12.2595 -12.0401
   -12.0179 -11.7810 -11.7494 -11.7383 -11.7316 -11.6688 -11.6336 -11.6271
   -11.5921 -11.5845 -11.4912 -11.4510 -11.4335  -2.6493  -2.4404  -2.3227
    -2.2284  -2.1075  -2.0426  -1.8455  -1.7001  -1.6814  -1.6524  -1.5573
    -1.5238  -1.4291  -1.4014  -1.3513  -1.2206  -1.1744  -1.1143  -1.0994
    -1.0524  -1.0093  -0.9866  -0.9623  -0.9190  -0.9042  -0.8141  -0.7629
    -0.6992  -0.6487  -0.6162  -0.5688  -0.5530  -0.4907  -0.4433  -0.3875
    -0.3515  -0.2677  -0.2111  -0.1836  -0.1451  -0.0904  -0.0009   0.0289
     0.0479   0.1348   0.1618   0.4291   0.5761   0.6112   0.6728   0.7142
     0.7779   0.8450   0.8900   0.9252   1.1918   1.2589   1.3329   1.3587
     1.4055   1.4384   1.4730   1.5115   1.5277   1.5550   1.6027   1.6085
     1.6225   1.6655   1.7073   1.7468   1.8142   1.8511   1.8565   1.9042
     1.9276   1.9806   2.0267   2.1406   2.1975   2.2307   2.2536   2.3184
     2.3868   2.4165   2.4500   2.4663   2.4809   2.5004   2.5095   2.6029
     2.6357   2.7242   2.8948   2.9115   2.9179   2.9346   2.9491   2.9617
     2.9749   2.9819   2.9923   3.0050   3.0167   3.0365   3.0424   3.0542
     3.0759   3.0880   3.0975   3.1284   3.4295   3.5245   3.5642   3.6366
     3.6750   3.8720   3.9725   4.3269   4.5427   4.7356   5.0004   5.1763
     5.6626   5.7169   5.7701   5.8560   5.9132   6.0537   6.1692   6.2279
     6.8853   6.9106   7.1307   7.2390   7.5660   7.6144   7.7238   7.8559
     7.9001   8.0173   8.1829   8.2209   8.3361   8.3559   8.4506   8.4628
     8.5572   8.7614   8.8978

     occupation numbers 
     1.0000   1.0000   1.0000   1.0000   1.0000   1.0000   1.0000   1.0000
     1.0000   1.0000   1.0000   1.0000   1.0000   1.0000   1.0000   1.0000
     1.0000   1.0000   1.0000   1.0000   1.0000   1.0000   1.0000   1.0000
     1.0000   1.0000   1.0000   1.0000   1.0000   1.0000   1.0000   1.0000
     1.0000   1.0000   1.0000   1.0000   1.0000   1.0000   1.0000   1.0000
     1.0000   1.0000   1.0000   1.0000   1.0000   1.0000   1.0000   1.0000
     1.0000   1.0000   1.0000   1.0000   1.0000   1.0000   1.0000   1.0000
     1.0000   1.0000   1.0000   1.0000   1.0000   1.0000   1.0000   1.0000
     1.0000   1.0000   1.0000   1.0000   1.0000   1.0000   1.0000   1.0000
     1.0000   1.0000   1.0000   1.0000   1.0000   1.0000   1.0000   1.0000
     1.0000   1.0000   1.0000   1.0000   1.0000   1.0000   1.0000   1.0000
     1.0000   1.0000   1.0000   1.0000   1.0000   1.0000   1.0000   1.0000
     1.0000   1.0000   1.0000   1.0000   1.0000   1.0000   1.0000   1.0000
     1.0000   1.0000   1.0000   1.0000   1.0000   1.0000   1.0000   1.0000
     1.0000   1.0000   1.0000   1.0000   1.0000   1.0000   1.0000   1.0000
     1.0000   1.0000   1.0000   1.0000   1.0000   1.0000   1.0000   1.0000
     1.0000   1.0000   1.0000   1.0000   1.0000   1.0000   1.0000   1.0000
     1.0000   1.0000   1.0000   1.0000   1.0000   1.0000   1.0000   1.0000
     1.0000   1.0000   1.0000   1.0000   1.0000   1.0000   1.0000   1.0000
     1.0000   1.0000   1.0000   1.0000   1.0000   1.0000   1.0000   1.0000
     0.9999   0.9999   0.9999   0.9998   0.9993   0.9990   0.9986   0.9984
     0.9980   0.9977   0.9973   0.9968   0.9965   0.9961   0.9952   0.9950
     0.9947   0.9937   0.9925   0.9912   0.9885   0.9867   0.9865   0.9838
     0.9823   0.9786   0.9749   0.9632   0.9558   0.9510   0.9475   0.9363
     0.9226   0.9160   0.9081   0.9041   0.9003   0.8951   0.8927   0.8648
     0.8539   0.8217   0.7481   0.7402   0.7371   0.7289   0.7218   0.7154
     0.7088   0.7052   0.6998   0.6933   0.6871   0.6766   0.6735   0.6671
     0.6553   0.6487   0.6434   0.6262   0.4501   0.3950   0.3725   0.3326
     0.3121   0.2170   0.1758   0.0725   0.0377   0.0195   0.0070   0.0033
     0.0003   0.0002   0.0002   0.0001   0.0001   0.0000   0.0000   0.0000
     0.0000   0.0000   0.0000   0.0000   0.0000   0.0000   0.0000   0.0000
     0.0000   0.0000   0.0000   0.0000   0.0000   0.0000   0.0000   0.0000
     0.0000   0.0000   0.0000

          k = 0.2500-0.5000 0.0000 ( 65138 PWs)   bands (ev):

   -92.6829 -92.6288 -92.5362 -92.4908 -92.4322 -92.3891 -92.3714 -92.2506
   -56.0363 -56.0153 -55.8937 -55.8834 -55.8756 -55.8703 -55.8331 -55.8055
   -55.7899 -55.7887 -55.7798 -55.7393 -55.7232 -55.6828 -55.6625 -55.6324
   -55.6257 -55.5771 -55.5764 -55.5743 -55.5658 -55.5254 -55.5018 -55.4171
   -31.2584 -31.2425 -31.1099 -31.0992 -31.0129 -30.9297 -30.8807 -30.5558
   -29.8284 -29.7867 -29.7614 -29.6529 -14.9592 -14.9152 -14.8429 -14.7323
   -14.6982 -14.5822 -14.4864 -14.3622 -14.0549 -14.0014 -13.9759 -13.9528
   -13.9485 -13.9375 -13.9240 -13.8852 -13.8715 -13.8385 -13.8021 -13.7804
   -13.7303 -13.6476 -13.5994 -13.5509 -13.5202 -13.4515 -13.4254 -13.3223
   -13.2970 -13.1894 -13.1247 -13.1072 -13.0365 -13.0097 -12.9731 -12.9582
   -12.9268 -12.9045 -12.8932 -12.8490 -12.7954 -12.7895 -12.6938 -12.6800
   -12.6384 -12.6070 -12.5070 -12.5021 -12.3447 -12.3030 -12.2452 -12.0974
   -12.0720 -11.7568 -11.7447 -11.7335 -11.7064 -11.6753 -11.6463 -11.6058
   -11.5774 -11.5560 -11.5094 -11.4842 -11.4733  -2.4313  -2.3651  -2.2366
    -2.1600  -2.0306  -1.9457  -1.8224  -1.6733  -1.6194  -1.5970  -1.5346
    -1.5214  -1.4227  -1.3572  -1.2723  -1.2223  -1.2135  -1.1505  -1.1234
    -1.0963  -1.0727  -1.0256  -0.9886  -0.9532  -0.9130  -0.8995  -0.8565
    -0.8267  -0.7861  -0.7539  -0.6881  -0.5874  -0.5433  -0.4675  -0.4018
    -0.3530  -0.3095  -0.2888  -0.2331  -0.0707  -0.0590   0.0339   0.0775
     0.0841   0.1258   0.1622   0.2100   0.2374   0.2942   0.5691   0.6679
     0.7456   0.8183   1.0550   1.0803   1.1649   1.1963   1.3561   1.3890
     1.4329   1.4552   1.4712   1.4904   1.5524   1.5978   1.6336   1.7139
     1.8122   1.8538   1.8664   1.8819   1.9173   1.9300   1.9418   1.9852
     1.9914   2.0240   2.0448   2.0659   2.0802   2.1194   2.1719   2.2107
     2.2906   2.4253   2.4707   2.5003   2.5747   2.5920   2.6096   2.6373
     2.6628   2.6921   2.7109   2.7269   2.7550   2.8446   2.8939   2.9140
     2.9157   2.9312   2.9517   2.9652   2.9850   2.9916   3.0244   3.0358
     3.0507   3.0592   3.0677   3.0786   3.6070   3.6133   3.7613   3.8138
     4.1675   4.2106   4.2245   4.3326   4.7736   4.9467   5.0781   5.1491
     5.3250   5.4471   5.6159   5.6418   5.7852   5.8074   6.3100   6.4108
     6.5024   6.6370   7.2116   7.3628   7.5429   7.7169   7.8148   7.8872
     7.9135   8.0580   8.2686   8.3809   8.4874   8.5400   8.5613   8.5736
     8.7234   8.7579   8.7978

     occupation numbers 
     1.0000   1.0000   1.0000   1.0000   1.0000   1.0000   1.0000   1.0000
     1.0000   1.0000   1.0000   1.0000   1.0000   1.0000   1.0000   1.0000
     1.0000   1.0000   1.0000   1.0000   1.0000   1.0000   1.0000   1.0000
     1.0000   1.0000   1.0000   1.0000   1.0000   1.0000   1.0000   1.0000
     1.0000   1.0000   1.0000   1.0000   1.0000   1.0000   1.0000   1.0000
     1.0000   1.0000   1.0000   1.0000   1.0000   1.0000   1.0000   1.0000
     1.0000   1.0000   1.0000   1.0000   1.0000   1.0000   1.0000   1.0000
     1.0000   1.0000   1.0000   1.0000   1.0000   1.0000   1.0000   1.0000
     1.0000   1.0000   1.0000   1.0000   1.0000   1.0000   1.0000   1.0000
     1.0000   1.0000   1.0000   1.0000   1.0000   1.0000   1.0000   1.0000
     1.0000   1.0000   1.0000   1.0000   1.0000   1.0000   1.0000   1.0000
     1.0000   1.0000   1.0000   1.0000   1.0000   1.0000   1.0000   1.0000
     1.0000   1.0000   1.0000   1.0000   1.0000   1.0000   1.0000   1.0000
     1.0000   1.0000   1.0000   1.0000   1.0000   1.0000   1.0000   1.0000
     1.0000   1.0000   1.0000   1.0000   1.0000   1.0000   1.0000   1.0000
     1.0000   1.0000   1.0000   1.0000   1.0000   1.0000   1.0000   1.0000
     1.0000   1.0000   1.0000   1.0000   1.0000   1.0000   1.0000   1.0000
     1.0000   1.0000   1.0000   1.0000   1.0000   1.0000   1.0000   1.0000
     1.0000   1.0000   1.0000   1.0000   1.0000   1.0000   1.0000   1.0000
     1.0000   1.0000   1.0000   1.0000   1.0000   1.0000   1.0000   1.0000
     0.9999   0.9999   0.9997   0.9996   0.9994   0.9993   0.9984   0.9982
     0.9977   0.9975   0.9973   0.9971   0.9961   0.9953   0.9945   0.9923
     0.9886   0.9866   0.9859   0.9851   0.9830   0.9822   0.9814   0.9783
     0.9778   0.9751   0.9733   0.9712   0.9698   0.9656   0.9593   0.9540
     0.9413   0.9140   0.9029   0.8952   0.8737   0.8683   0.8626   0.8534
     0.8445   0.8339   0.8268   0.8207   0.8096   0.7713   0.7486   0.7390
     0.7381   0.7306   0.7205   0.7137   0.7036   0.7002   0.6831   0.6770
     0.6690   0.6644   0.6598   0.6539   0.3487   0.3453   0.2683   0.2432
     0.1110   0.0994   0.0958   0.0713   0.0170   0.0087   0.0050   0.0037
     0.0016   0.0009   0.0004   0.0003   0.0001   0.0001   0.0000   0.0000
     0.0000   0.0000   0.0000   0.0000   0.0000   0.0000   0.0000   0.0000
     0.0000   0.0000   0.0000   0.0000   0.0000   0.0000   0.0000   0.0000
     0.0000   0.0000   0.0000

          k =-0.5000-0.5000 0.0000 ( 65132 PWs)   bands (ev):

   -92.6829 -92.6288 -92.5362 -92.4908 -92.4322 -92.3891 -92.3714 -92.2506
   -56.0363 -56.0153 -55.8937 -55.8834 -55.8756 -55.8703 -55.8331 -55.8055
   -55.7899 -55.7887 -55.7798 -55.7393 -55.7232 -55.6828 -55.6625 -55.6324
   -55.6257 -55.5771 -55.5764 -55.5743 -55.5658 -55.5254 -55.5018 -55.4171
   -31.2563 -31.2446 -31.1098 -31.0989 -31.0133 -30.9297 -30.8809 -30.5559
   -29.8274 -29.7878 -29.7610 -29.6533 -14.9116 -14.8880 -14.7713 -14.7560
   -14.6608 -14.6279 -14.5941 -14.4609 -13.9654 -13.9548 -13.9486 -13.9189
   -13.9021 -13.8813 -13.8660 -13.8425 -13.8305 -13.8127 -13.8107 -13.7942
   -13.7149 -13.7077 -13.6786 -13.6453 -13.6393 -13.5411 -13.4939 -13.3540
   -13.3434 -13.1404 -13.1045 -13.0321 -13.0092 -13.0044 -12.9726 -12.9662
   -12.9567 -12.9380 -12.8710 -12.8241 -12.7908 -12.7714 -12.7524 -12.7179
   -12.5885 -12.5809 -12.5204 -12.5093 -12.3155 -12.2991 -12.2092 -12.0887
   -12.0823 -11.7528 -11.7412 -11.7234 -11.7061 -11.6718 -11.6536 -11.6185
   -11.5570 -11.5382 -11.5321 -11.4823 -11.4792  -2.2073  -2.1318  -2.1199
    -2.0494  -2.0109  -1.9324  -1.8643  -1.7396  -1.6234  -1.5928  -1.5545
    -1.4962  -1.4252  -1.4095  -1.3399  -1.2971  -1.1805  -1.1556  -1.1096
    -1.1023  -1.0739  -1.0095  -0.9624  -0.9438  -0.9316  -0.8790  -0.8345
    -0.8197  -0.7058  -0.6481  -0.5996  -0.5519  -0.5254  -0.5156  -0.4782
    -0.4327  -0.3999  -0.3877  -0.3026  -0.2347  -0.1917  -0.1626  -0.0923
    -0.0336  -0.0070   0.0408   0.0557   0.0756   0.0877   0.5362   0.5966
     0.6845   0.7546   1.0876   1.0983   1.1343   1.1715   1.4407   1.4594
     1.4677   1.5044   1.6361   1.7307   1.7580   1.7949   1.8200   1.8404
     1.8496   1.8785   1.8931   1.9148   1.9259   1.9647   1.9689   1.9964
     2.0317   2.0514   2.0570   2.0946   2.1148   2.1300   2.1624   2.1834
     2.2501   2.3180   2.4622   2.4904   2.5913   2.6189   2.6400   2.6563
     2.6716   2.6969   2.7025   2.7231   2.7350   2.7503   2.7698   2.7825
     2.8458   2.8489   2.8704   2.8852   2.8952   2.9149   2.9211   2.9293
     3.0322   3.0378   3.0637   3.0740   4.0222   4.0507   4.1036   4.1292
     4.3374   4.4098   4.4369   4.6780   4.7998   4.8825   5.0110   5.1011
     5.1097   5.2238   5.3248   5.4086   5.8677   5.8967   5.9669   6.0424
     6.4816   6.8742   6.9258   7.1383   7.8952   7.9292   7.9443   7.9905
     8.0084   8.0444   8.1048   8.2850   8.4523   8.6018   8.6303   8.6405
     8.6740   8.7283   8.8735

     occupation numbers 
     1.0000   1.0000   1.0000   1.0000   1.0000   1.0000   1.0000   1.0000
     1.0000   1.0000   1.0000   1.0000   1.0000   1.0000   1.0000   1.0000
     1.0000   1.0000   1.0000   1.0000   1.0000   1.0000   1.0000   1.0000
     1.0000   1.0000   1.0000   1.0000   1.0000   1.0000   1.0000   1.0000
     1.0000   1.0000   1.0000   1.0000   1.0000   1.0000   1.0000   1.0000
     1.0000   1.0000   1.0000   1.0000   1.0000   1.0000   1.0000   1.0000
     1.0000   1.0000   1.0000   1.0000   1.0000   1.0000   1.0000   1.0000
     1.0000   1.0000   1.0000   1.0000   1.0000   1.0000   1.0000   1.0000
     1.0000   1.0000   1.0000   1.0000   1.0000   1.0000   1.0000   1.0000
     1.0000   1.0000   1.0000   1.0000   1.0000   1.0000   1.0000   1.0000
     1.0000   1.0000   1.0000   1.0000   1.0000   1.0000   1.0000   1.0000
     1.0000   1.0000   1.0000   1.0000   1.0000   1.0000   1.0000   1.0000
     1.0000   1.0000   1.0000   1.0000   1.0000   1.0000   1.0000   1.0000
     1.0000   1.0000   1.0000   1.0000   1.0000   1.0000   1.0000   1.0000
     1.0000   1.0000   1.0000   1.0000   1.0000   1.0000   1.0000   1.0000
     1.0000   1.0000   1.0000   1.0000   1.0000   1.0000   1.0000   1.0000
     1.0000   1.0000   1.0000   1.0000   1.0000   1.0000   1.0000   1.0000
     1.0000   1.0000   1.0000   1.0000   1.0000   1.0000   1.0000   1.0000
     1.0000   1.0000   1.0000   1.0000   1.0000   1.0000   1.0000   1.0000
     1.0000   1.0000   1.0000   1.0000   1.0000   1.0000   1.0000   1.0000
     1.0000   0.9999   0.9996   0.9996   0.9995   0.9994   0.9977   0.9974
     0.9973   0.9969   0.9944   0.9917   0.9908   0.9893   0.9882   0.9873
     0.9868   0.9853   0.9845   0.9832   0.9825   0.9798   0.9795   0.9774
     0.9744   0.9726   0.9721   0.9683   0.9661   0.9644   0.9605   0.9577
     0.9480   0.9364   0.9051   0.8978   0.8685   0.8596   0.8525   0.8468
     0.8414   0.8321   0.8300   0.8221   0.8175   0.8115   0.8035   0.7983
     0.7708   0.7694   0.7596   0.7527   0.7479   0.7385   0.7355   0.7315
     0.6789   0.6759   0.6620   0.6564   0.1574   0.1474   0.1300   0.1222
     0.0703   0.0569   0.0525   0.0239   0.0154   0.0112   0.0067   0.0046
     0.0044   0.0026   0.0016   0.0011   0.0001   0.0001   0.0000   0.0000
     0.0000   0.0000   0.0000   0.0000   0.0000   0.0000   0.0000   0.0000
     0.0000   0.0000   0.0000   0.0000   0.0000   0.0000   0.0000   0.0000
     0.0000   0.0000   0.0000

          k = 0.2500 0.0000 0.0000 ( 65257 PWs)   bands (ev):

   -92.6829 -92.6288 -92.5362 -92.4908 -92.4322 -92.3891 -92.3714 -92.2506
   -56.0363 -56.0153 -55.8937 -55.8834 -55.8756 -55.8703 -55.8331 -55.8055
   -55.7899 -55.7887 -55.7798 -55.7393 -55.7232 -55.6827 -55.6625 -55.6324
   -55.6257 -55.5771 -55.5764 -55.5743 -55.5658 -55.5254 -55.5018 -55.4171
   -31.2588 -31.2427 -31.1102 -31.0988 -31.0126 -30.9294 -30.8809 -30.5556
   -29.8296 -29.7874 -29.7602 -29.6523 -15.0300 -14.9854 -14.9185 -14.7712
[...]
     0.3504   0.3295   0.2047   0.0791   0.0439   0.0216   0.0061   0.0049
     0.0003   0.0001   0.0001   0.0000   0.0000   0.0000   0.0000   0.0000
     0.0000   0.0000   0.0000   0.0000   0.0000   0.0000   0.0000   0.0000
     0.0000   0.0000   0.0000   0.0000   0.0000   0.0000   0.0000   0.0000
     0.0000   0.0000   0.0000

          k =-0.5000 0.0000 0.0000 ( 65180 PWs)   bands (ev):

   -92.6829 -92.6288 -92.5362 -92.4908 -92.4322 -92.3891 -92.3714 -92.2506
   -56.0363 -56.0153 -55.8937 -55.8834 -55.8756 -55.8703 -55.8331 -55.8055
   -55.7899 -55.7887 -55.7798 -55.7393 -55.7232 -55.6827 -55.6625 -55.6324
   -55.6257 -55.5771 -55.5764 -55.5743 -55.5658 -55.5254 -55.5018 -55.4171
   -31.2566 -31.2449 -31.1101 -31.0984 -31.0130 -30.9293 -30.8810 -30.5557
   -29.8286 -29.7884 -29.7598 -29.6527 -14.9959 -14.9425 -14.8810 -14.7736
   -14.6688 -14.5265 -14.3763 -14.2406 -14.1142 -14.1029 -14.0902 -14.0285
   -13.9734 -13.9495 -13.9378 -13.8898 -13.8866 -13.8674 -13.8204 -13.8036
   -13.6910 -13.5364 -13.5125 -13.4771 -13.4694 -13.3964 -13.3465 -13.2796
   -13.2503 -13.2268 -13.2025 -13.0724 -13.0368 -13.0226 -12.9986 -12.9887
   -12.9548 -12.9268 -12.9057 -12.8641 -12.8429 -12.7850 -12.6293 -12.6226
   -12.6136 -12.6073 -12.5232 -12.5014 -12.3981 -12.3097 -12.3015 -12.0986
   -12.0615 -11.7605 -11.7387 -11.7321 -11.7167 -11.6989 -11.6578 -11.5948
   -11.5775 -11.5450 -11.4988 -11.4899 -11.4744  -2.5628  -2.5246  -2.3606
    -2.3216  -2.0079  -1.9341  -1.7842  -1.6674  -1.6286  -1.5839  -1.5348
    -1.5101  -1.3865  -1.3423  -1.3269  -1.2451  -1.2096  -1.1946  -1.1630
    -1.1230  -1.0954  -1.0357  -1.0072  -0.9770  -0.8796  -0.8354  -0.7865
    -0.7537  -0.7316  -0.7032  -0.6544  -0.6299  -0.5876  -0.4958  -0.4167
    -0.3581  -0.2951  -0.1092  -0.0903  -0.0364  -0.0065   0.0712   0.0779
     0.2200   0.2476   0.2866   0.4600   0.5584   0.6076   0.6853   0.7857
     0.8826   0.9047   1.0352   1.0502   1.1032   1.1286   1.1680   1.1852
     1.2255   1.2519   1.3191   1.3666   1.4148   1.4198   1.7294   1.7310
     1.7493   1.7865   1.8784   1.8906   1.9099   1.9236   1.9430   1.9549
     2.0030   2.0168   2.0515   2.0960   2.1128   2.1622   2.1955   2.2394
     2.3458   2.4495   2.4864   2.4898   2.5272   2.5429   2.6260   2.6449
     2.6759   2.7411   2.7496   2.7572   2.7859   2.8560   2.9021   2.9438
     2.9773   3.0180   3.0224   3.0235   3.0358   3.0498   3.0616   3.0762
     3.0799   3.1042   3.1061   3.1280   3.1477   3.1531   3.2832   3.2904
     4.0838   4.1441   4.2121   4.3717   4.8100   4.8841   5.0549   5.0706
     5.4989   5.5236   5.6120   5.6717   6.0408   6.0552   6.2330   6.4924
     6.8098   7.0152   7.2891   7.2996   7.3424   7.4351   7.7063   7.7935
     7.9029   7.9635   8.1761   8.3216   8.3662   8.5002   8.5349   8.6518
     8.7761   8.8134   8.9220

     occupation numbers 
     1.0000   1.0000   1.0000   1.0000   1.0000   1.0000   1.0000   1.0000
     1.0000   1.0000   1.0000   1.0000   1.0000   1.0000   1.0000   1.0000
     1.0000   1.0000   1.0000   1.0000   1.0000   1.0000   1.0000   1.0000
     1.0000   1.0000   1.0000   1.0000   1.0000   1.0000   1.0000   1.0000
     1.0000   1.0000   1.0000   1.0000   1.0000   1.0000   1.0000   1.0000
     1.0000   1.0000   1.0000   1.0000   1.0000   1.0000   1.0000   1.0000
     1.0000   1.0000   1.0000   1.0000   1.0000   1.0000   1.0000   1.0000
     1.0000   1.0000   1.0000   1.0000   1.0000   1.0000   1.0000   1.0000
     1.0000   1.0000   1.0000   1.0000   1.0000   1.0000   1.0000   1.0000
     1.0000   1.0000   1.0000   1.0000   1.0000   1.0000   1.0000   1.0000
     1.0000   1.0000   1.0000   1.0000   1.0000   1.0000   1.0000   1.0000
     1.0000   1.0000   1.0000   1.0000   1.0000   1.0000   1.0000   1.0000
     1.0000   1.0000   1.0000   1.0000   1.0000   1.0000   1.0000   1.0000
     1.0000   1.0000   1.0000   1.0000   1.0000   1.0000   1.0000   1.0000
     1.0000   1.0000   1.0000   1.0000   1.0000   1.0000   1.0000   1.0000
     1.0000   1.0000   1.0000   1.0000   1.0000   1.0000   1.0000   1.0000
     1.0000   1.0000   1.0000   1.0000   1.0000   1.0000   1.0000   1.0000
     1.0000   1.0000   1.0000   1.0000   1.0000   1.0000   1.0000   1.0000
     1.0000   1.0000   1.0000   1.0000   1.0000   1.0000   1.0000   1.0000
     1.0000   1.0000   1.0000   1.0000   1.0000   1.0000   1.0000   0.9999
     0.9999   0.9999   0.9997   0.9997   0.9996   0.9995   0.9994   0.9993
     0.9992   0.9991   0.9987   0.9983   0.9979   0.9979   0.9918   0.9917
     0.9911   0.9897   0.9853   0.9846   0.9835   0.9826   0.9813   0.9805
     0.9769   0.9757   0.9726   0.9682   0.9664   0.9605   0.9561   0.9497
     0.9311   0.9082   0.8989   0.8980   0.8877   0.8832   0.8572   0.8508
     0.8398   0.8151   0.8117   0.8087   0.7969   0.7662   0.7447   0.7244
     0.7075   0.6864   0.6841   0.6835   0.6770   0.6695   0.6631   0.6552
     0.6532   0.6397   0.6387   0.6264   0.6153   0.6122   0.5366   0.5324
     0.1364   0.1177   0.0990   0.0637   0.0148   0.0112   0.0056   0.0052
     0.0007   0.0006   0.0004   0.0003   0.0000   0.0000   0.0000   0.0000
     0.0000   0.0000   0.0000   0.0000   0.0000   0.0000   0.0000   0.0000
     0.0000   0.0000   0.0000   0.0000   0.0000   0.0000   0.0000   0.0000
     0.0000   0.0000   0.0000

          k =-0.2500 0.2500 0.0000 ( 65198 PWs)   bands (ev):

   -92.6829 -92.6288 -92.5362 -92.4908 -92.4322 -92.3891 -92.3714 -92.2506
   -56.0363 -56.0153 -55.8937 -55.8834 -55.8756 -55.8703 -55.8331 -55.8055
   -55.7899 -55.7887 -55.7798 -55.7393 -55.7232 -55.6827 -55.6625 -55.6324
   -55.6257 -55.5771 -55.5764 -55.5743 -55.5658 -55.5254 -55.5018 -55.4171
   -31.2586 -31.2426 -31.1100 -31.0990 -31.0127 -30.9296 -30.8808 -30.5557
   -29.8290 -29.7871 -29.7608 -29.6526 -14.9987 -14.9541 -14.8833 -14.7665
   -14.6541 -14.5270 -14.4437 -14.2365 -14.0973 -14.0680 -14.0543 -14.0065
   -13.9819 -13.9608 -13.9520 -13.9401 -13.9035 -13.8175 -13.8065 -13.6545
   -13.6277 -13.5988 -13.5779 -13.5366 -13.4784 -13.4179 -13.4076 -13.2663
   -13.2508 -13.2053 -13.1296 -13.0884 -13.0394 -13.0207 -12.9887 -12.9680
   -12.9307 -12.9095 -12.8940 -12.8675 -12.8140 -12.7889 -12.7528 -12.7319
   -12.6744 -12.6045 -12.5042 -12.4244 -12.4214 -12.3734 -12.2652 -12.0515
   -12.0025 -11.7802 -11.7590 -11.7312 -11.7194 -11.6785 -11.6433 -11.6206
   -11.5992 -11.5767 -11.4910 -11.4462 -11.4369  -2.6477  -2.4393  -2.3187
    -2.2299  -2.1117  -2.0454  -1.8432  -1.6969  -1.6791  -1.6505  -1.5579
    -1.5226  -1.4285  -1.3951  -1.3685  -1.2269  -1.1721  -1.1215  -1.0982
    -1.0674  -1.0136  -0.9920  -0.9523  -0.9235  -0.8830  -0.8205  -0.7716
    -0.7108  -0.6406  -0.6116  -0.5622  -0.5335  -0.4881  -0.4335  -0.3900
    -0.3471  -0.2483  -0.2135  -0.1999  -0.1590  -0.0915  -0.0062   0.0333
     0.0573   0.1359   0.1597   0.4109   0.5770   0.6195   0.6602   0.7234
     0.7814   0.8468   0.8965   0.9205   1.1998   1.3096   1.3508   1.3820
     1.3874   1.4318   1.4484   1.4927   1.5235   1.5377   1.5632   1.6082
     1.6262   1.6657   1.6819   1.7272   1.8260   1.8436   1.8583   1.9129
     1.9239   1.9653   2.0262   2.1294   2.2269   2.2523   2.2982   2.3185
     2.3961   2.4220   2.4522   2.4601   2.4839   2.5076   2.5137   2.6037
     2.6343   2.7240   2.9014   2.9101   2.9235   2.9337   2.9449   2.9587
     2.9644   2.9827   2.9906   3.0063   3.0153   3.0280   3.0373   3.0443
     3.0774   3.0879   3.0966   3.1305   3.4227   3.5052   3.5685   3.6520
     3.6720   3.8561   3.9812   4.3258   4.5421   4.7360   5.0104   5.1761
     5.6652   5.7119   5.7725   5.8530   5.9143   6.0552   6.1846   6.2093
     6.8924   6.9220   7.0880   7.2708   7.5790   7.6233   7.6837   7.8663
     7.9084   7.9988   8.2003   8.2335   8.3162   8.3355   8.4322   8.4673
     8.6242   8.7490   8.8837

     occupation numbers 
     1.0000   1.0000   1.0000   1.0000   1.0000   1.0000   1.0000   1.0000
     1.0000   1.0000   1.0000   1.0000   1.0000   1.0000   1.0000   1.0000
     1.0000   1.0000   1.0000   1.0000   1.0000   1.0000   1.0000   1.0000
     1.0000   1.0000   1.0000   1.0000   1.0000   1.0000   1.0000   1.0000
     1.0000   1.0000   1.0000   1.0000   1.0000   1.0000   1.0000   1.0000
     1.0000   1.0000   1.0000   1.0000   1.0000   1.0000   1.0000   1.0000
     1.0000   1.0000   1.0000   1.0000   1.0000   1.0000   1.0000   1.0000
     1.0000   1.0000   1.0000   1.0000   1.0000   1.0000   1.0000   1.0000
     1.0000   1.0000   1.0000   1.0000   1.0000   1.0000   1.0000   1.0000
     1.0000   1.0000   1.0000   1.0000   1.0000   1.0000   1.0000   1.0000
     1.0000   1.0000   1.0000   1.0000   1.0000   1.0000   1.0000   1.0000
     1.0000   1.0000   1.0000   1.0000   1.0000   1.0000   1.0000   1.0000
     1.0000   1.0000   1.0000   1.0000   1.0000   1.0000   1.0000   1.0000
     1.0000   1.0000   1.0000   1.0000   1.0000   1.0000   1.0000   1.0000
     1.0000   1.0000   1.0000   1.0000   1.0000   1.0000   1.0000   1.0000
     1.0000   1.0000   1.0000   1.0000   1.0000   1.0000   1.0000   1.0000
     1.0000   1.0000   1.0000   1.0000   1.0000   1.0000   1.0000   1.0000
     1.0000   1.0000   1.0000   1.0000   1.0000   1.0000   1.0000   1.0000
     1.0000   1.0000   1.0000   1.0000   1.0000   1.0000   1.0000   1.0000
     1.0000   1.0000   1.0000   1.0000   1.0000   1.0000   1.0000   1.0000
     0.9999   0.9999   0.9999   0.9998   0.9993   0.9987   0.9985   0.9982
     0.9982   0.9978   0.9976   0.9970   0.9966   0.9964   0.9959   0.9950
     0.9947   0.9937   0.9932   0.9919   0.9880   0.9871   0.9864   0.9833
     0.9826   0.9798   0.9749   0.9645   0.9516   0.9477   0.9400   0.9363
     0.9206   0.9148   0.9076   0.9056   0.8995   0.8932   0.8915   0.8645
     0.8544   0.8218   0.7450   0.7408   0.7344   0.7294   0.7238   0.7169
     0.7141   0.7047   0.7007   0.6926   0.6879   0.6812   0.6762   0.6724
     0.6545   0.6488   0.6439   0.6250   0.4542   0.4061   0.3700   0.3243
     0.3137   0.2240   0.1725   0.0727   0.0378   0.0194   0.0067   0.0033
     0.0003   0.0002   0.0002   0.0001   0.0001   0.0000   0.0000   0.0000
     0.0000   0.0000   0.0000   0.0000   0.0000   0.0000   0.0000   0.0000
     0.0000   0.0000   0.0000   0.0000   0.0000   0.0000   0.0000   0.0000
     0.0000   0.0000   0.0000

          k =-0.5000 0.2500 0.0000 ( 65138 PWs)   bands (ev):

   -92.6829 -92.6288 -92.5362 -92.4908 -92.4322 -92.3891 -92.3714 -92.2506
   -56.0363 -56.0153 -55.8937 -55.8834 -55.8756 -55.8703 -55.8331 -55.8055
   -55.7899 -55.7887 -55.7798 -55.7393 -55.7232 -55.6827 -55.6625 -55.6324
   -55.6257 -55.5771 -55.5764 -55.5743 -55.5658 -55.5254 -55.5018 -55.4171
   -31.2565 -31.2448 -31.1099 -31.0987 -31.0131 -30.9295 -30.8809 -30.5558
   -29.8280 -29.7881 -29.7604 -29.6530 -14.9626 -14.9164 -14.8379 -14.7400
   -14.6978 -14.5733 -14.4818 -14.3564 -14.0476 -14.0171 -14.0056 -13.9592
   -13.9484 -13.9381 -13.9117 -13.8767 -13.8727 -13.8458 -13.8085 -13.7986
   -13.6864 -13.6190 -13.5710 -13.5688 -13.5561 -13.4523 -13.4443 -13.3179
   -13.2763 -13.1827 -13.1475 -13.0558 -13.0310 -13.0073 -12.9979 -12.9664
   -12.9331 -12.9214 -12.8996 -12.8684 -12.8039 -12.7935 -12.6790 -12.6641
   -12.6047 -12.5977 -12.5216 -12.5042 -12.3524 -12.3048 -12.2535 -12.0935
   -12.0705 -11.7531 -11.7401 -11.7263 -11.7143 -11.6925 -11.6626 -11.5820
   -11.5728 -11.5504 -11.5133 -11.4858 -11.4769  -2.4204  -2.3789  -2.2302
    -2.1880  -2.0270  -1.9527  -1.8085  -1.6737  -1.6175  -1.5906  -1.5510
    -1.5124  -1.4316  -1.3164  -1.2593  -1.2367  -1.2114  -1.1419  -1.1140
    -1.0996  -1.0644  -1.0494  -0.9884  -0.9589  -0.9210  -0.8854  -0.8565
    -0.7983  -0.7712  -0.7289  -0.6952  -0.5918  -0.5617  -0.4777  -0.4122
    -0.3818  -0.3285  -0.2402  -0.2026  -0.1074  -0.0548  -0.0091   0.0487
     0.0701   0.1421   0.1656   0.1974   0.2501   0.2910   0.5973   0.6737
     0.7326   0.7939   1.0425   1.0899   1.1669   1.1932   1.3686   1.4060
     1.4430   1.4545   1.4731   1.4908   1.5608   1.6030   1.6481   1.6709
     1.8120   1.8367   1.8623   1.8744   1.9326   1.9426   1.9567   1.9701
     1.9926   2.0155   2.0649   2.0727   2.1071   2.1304   2.1711   2.2181
     2.3371   2.4397   2.4581   2.4793   2.5022   2.5412   2.5719   2.6425
     2.6718   2.6776   2.7155   2.7487   2.7712   2.8555   2.8975   2.9107
     2.9155   2.9368   2.9598   2.9720   2.9873   2.9998   3.0216   3.0334
     3.0440   3.0511   3.0619   3.0732   3.5997   3.6603   3.7922   3.8177
     4.0910   4.1712   4.2204   4.4435   4.8046   4.9018   5.0545   5.0976
     5.4212   5.4496   5.6035   5.6365   5.7668   5.7984   6.3164   6.4048
     6.5091   6.6217   7.2461   7.3326   7.5680   7.7263   7.8092   7.8735
     7.9215   8.0417   8.2544   8.4099   8.4882   8.5310   8.5815   8.5910
     8.6759   8.7366   8.7804

     occupation numbers 
     1.0000   1.0000   1.0000   1.0000   1.0000   1.0000   1.0000   1.0000
     1.0000   1.0000   1.0000   1.0000   1.0000   1.0000   1.0000   1.0000
     1.0000   1.0000   1.0000   1.0000   1.0000   1.0000   1.0000   1.0000
     1.0000   1.0000   1.0000   1.0000   1.0000   1.0000   1.0000   1.0000
     1.0000   1.0000   1.0000   1.0000   1.0000   1.0000   1.0000   1.0000
     1.0000   1.0000   1.0000   1.0000   1.0000   1.0000   1.0000   1.0000
     1.0000   1.0000   1.0000   1.0000   1.0000   1.0000   1.0000   1.0000
     1.0000   1.0000   1.0000   1.0000   1.0000   1.0000   1.0000   1.0000
     1.0000   1.0000   1.0000   1.0000   1.0000   1.0000   1.0000   1.0000
     1.0000   1.0000   1.0000   1.0000   1.0000   1.0000   1.0000   1.0000
     1.0000   1.0000   1.0000   1.0000   1.0000   1.0000   1.0000   1.0000
     1.0000   1.0000   1.0000   1.0000   1.0000   1.0000   1.0000   1.0000
     1.0000   1.0000   1.0000   1.0000   1.0000   1.0000   1.0000   1.0000
     1.0000   1.0000   1.0000   1.0000   1.0000   1.0000   1.0000   1.0000
     1.0000   1.0000   1.0000   1.0000   1.0000   1.0000   1.0000   1.0000
     1.0000   1.0000   1.0000   1.0000   1.0000   1.0000   1.0000   1.0000
     1.0000   1.0000   1.0000   1.0000   1.0000   1.0000   1.0000   1.0000
     1.0000   1.0000   1.0000   1.0000   1.0000   1.0000   1.0000   1.0000
     1.0000   1.0000   1.0000   1.0000   1.0000   1.0000   1.0000   1.0000
     1.0000   1.0000   1.0000   1.0000   1.0000   1.0000   1.0000   1.0000
     0.9999   0.9999   0.9997   0.9996   0.9994   0.9993   0.9983   0.9980
     0.9976   0.9975   0.9973   0.9971   0.9960   0.9952   0.9941   0.9935
     0.9886   0.9874   0.9862   0.9855   0.9820   0.9814   0.9804   0.9794
     0.9777   0.9758   0.9713   0.9706   0.9670   0.9644   0.9594   0.9529
     0.9328   0.9106   0.9061   0.9007   0.8946   0.8837   0.8745   0.8516
     0.8413   0.8392   0.8251   0.8121   0.8029   0.7664   0.7469   0.7406
     0.7382   0.7279   0.7164   0.7102   0.7024   0.6959   0.6845   0.6783
     0.6726   0.6688   0.6630   0.6568   0.3527   0.3199   0.2534   0.2414
     0.1340   0.1100   0.0969   0.0515   0.0151   0.0104   0.0056   0.0046
     0.0010   0.0009   0.0004   0.0003   0.0002   0.0001   0.0000   0.0000
     0.0000   0.0000   0.0000   0.0000   0.0000   0.0000   0.0000   0.0000
     0.0000   0.0000   0.0000   0.0000   0.0000   0.0000   0.0000   0.0000
     0.0000   0.0000   0.0000

     the Fermi energy is     3.3451 ev

!    total energy              =   -4441.65642650 Ry
     estimated scf accuracy    <          8.4E-09 Ry
     smearing contrib. (-TS)   =      -1.15494809 Ry
     internal energy E=F+TS    =   -4440.50147841 Ry

     The total energy is F=E-TS. E is the sum of the following terms:
     one-electron contribution =  -20805.58009216 Ry
     hartree contribution      =   10535.04210218 Ry
     xc contribution           =    -694.18205396 Ry
     ewald contribution        =    6800.38887058 Ry
     one-center paw contrib.   =    -276.17030504 Ry
      -> PAW hartree energy AE =      25.14755782 Ry
      -> PAW hartree energy PS =     -25.03161879 Ry
      -> PAW xc energy AE      =     -16.51530233 Ry
      -> PAW xc energy PS      =       6.87466416 Ry
      -> total E_H with PAW    =   10535.15804121 Ry
      -> total E_XC with PAW   =    -703.82269212 Ry

     convergence has been achieved in  48 iterations

     Writing all to output data dir /bsuhome/zayahcortright/scratch/pwscf.save/
 
     init_run     :      7.52s CPU      8.40s WALL (       1 calls)
     electrons    :    770.49s CPU    853.13s WALL (       1 calls)

     Called by init_run:
     wfcinit      :      6.00s CPU      6.22s WALL (       1 calls)
     wfcinit:atom :      0.05s CPU      0.07s WALL (       5 calls)
     wfcinit:wfcr :      5.68s CPU      5.80s WALL (       5 calls)
     potinit      :      0.16s CPU      0.19s WALL (       1 calls)
     hinit0       :      0.43s CPU      0.79s WALL (       1 calls)

     Called by electrons:
     c_bands      :    620.50s CPU    632.32s WALL (      48 calls)
     sum_band     :    111.95s CPU    151.04s WALL (      48 calls)
     v_of_rho     :      5.20s CPU      5.59s WALL (      49 calls)
     v_h          :      0.46s CPU      0.46s WALL (      49 calls)
     v_xc         :      4.74s CPU      5.13s WALL (      49 calls)
     newd         :     18.10s CPU     48.93s WALL (      49 calls)
     PAW_pot      :      1.66s CPU      1.70s WALL (      49 calls)
     mix_rho      :     12.75s CPU     13.16s WALL (      48 calls)

     Called by c_bands:
     init_us_2    :      6.80s CPU      6.94s WALL (     485 calls)
     init_us_2:cp :      6.80s CPU      6.94s WALL (     485 calls)
     cegterg      :    584.36s CPU    595.70s WALL (     240 calls)

     Called by sum_band:
     sum_band:wei :      0.35s CPU      0.35s WALL (      48 calls)
     sum_band:loo :     88.82s CPU     89.56s WALL (      48 calls)
     sum_band:buf :      1.41s CPU      1.47s WALL (     240 calls)
     sum_band:ini :      3.06s CPU      3.08s WALL (     240 calls)
     sum_band:cal :     18.76s CPU     18.83s WALL (     240 calls)
     sum_band:bec :      0.56s CPU      0.58s WALL (     240 calls)
     addusdens    :     16.63s CPU     54.90s WALL (      48 calls)
                                        0.00s GPU  (      48 calls)
     addusd:skk   :      0.32s CPU      2.35s WALL (     192 calls)
                                        0.00s GPU  (     192 calls)

     Called by *egterg:
     cdiaghg      :     59.14s CPU     59.40s WALL (    1308 calls)
     cegterg:over :     42.95s CPU     43.13s WALL (    1068 calls)
     cegterg:upda :     46.17s CPU     47.09s WALL (    1068 calls)
     cegterg:last :     68.27s CPU     68.50s WALL (     435 calls)
     cdiaghg:chol :      3.45s CPU      3.47s WALL (    1308 calls)
     cdiaghg:inve :      3.73s CPU      3.75s WALL (    1308 calls)
     cdiaghg:para :      7.81s CPU      7.86s WALL (    2616 calls)
     h_psi        :    298.67s CPU    303.34s WALL (    1313 calls)
     s_psi        :     44.13s CPU     44.27s WALL (    1313 calls)
     g_psi        :      2.16s CPU      2.17s WALL (    1068 calls)

     Called by h_psi:
     h_psi:calbec :     44.80s CPU     45.01s WALL (    1313 calls)
     vloc_psi     :    205.56s CPU    207.51s WALL (    1313 calls)
     add_vuspsi   :     43.02s CPU     43.26s WALL (    1313 calls)

     General routines
     calbec       :     63.56s CPU     63.83s WALL (    1553 calls)
     fft          :      6.19s CPU      6.27s WALL (     635 calls)
     ffts         :      4.67s CPU      4.72s WALL (    5230 calls)
     fftw         :    170.86s CPU    172.25s WALL (  325348 calls)
     interpolate  :      0.39s CPU      0.41s WALL (      49 calls)
 
     Parallel routines

     PAW routines
     PAW_pot      :      1.66s CPU      1.70s WALL (      49 calls)
 
     PWSCF        :  12m59.78s CPU  14m26.30s WALL

 
   This run was terminated on:  20:34:31  21Jun2024            

=------------------------------------------------------------------------------=
   JOB DONE.
=------------------------------------------------------------------------------=
