
     Program PWSCF v.7.2 starts on 21Jun2024 at 15:14: 8 

     This program is part of the open-source Quantum ESPRESSO suite
     for quantum simulation of materials; please cite
         "P. Giannozzi et al., J. Phys.:Condens. Matter 21 395502 (2009);
         "P. Giannozzi et al., J. Phys.:Condens. Matter 29 465901 (2017);
         "P. Giannozzi et al., J. Chem. Phys. 152 154105 (2020);
          URL http://www.quantum-espresso.org", 
     in publications or presentations arising from this work. More details at
     http://www.quantum-espresso.org/quote

     Parallel version (MPI & OpenMP), running on      48 processor cores
     Number of MPI processes:                48
     Threads/MPI process:                     1

     MPI processes distributed on     1 nodes
     33244 MiB available memory on the printing compute node when the environment starts
 
     Reading input from espresso.pwi
Warning: card &CELL ignored
Warning: card / ignored
Warning: card &FCP ignored
Warning: card / ignored
Warning: card &RISM ignored
Warning: card / ignored

     Current dimensions of program PWSCF are:
     Max number of different atomic species (ntypx) = 10
     Max number of k-points (npk) =  40000
     Max angular momentum in pseudopotentials (lmaxx) =  4
     file O.pbe-n-kjpaw_psl.0.1.UPF: wavefunction(s)  2P renormalized
     signal trapping enabled: kill the code with -SIGUSR1 to stop cleanly the simulation 
 
     K-points division:     npool     =       2
     R & G space division:  proc/nbgrp/npool/nimage =      24
     Subspace diagonalization in iterative solution of the eigenvalue problem:
     one sub-group per band group will be used
     scalapack distributed-memory algorithm (size of sub-group:  3*  3 procs)

 
     Parallelization info
     --------------------
     sticks:   dense  smooth     PW     G-vecs:    dense   smooth      PW
     Min         350     175     47                61430    21716    3036
     Max         351     177     48                61449    21727    3041
     Sum        8421    4205   1137              1474595   521381   72913
 
     Using Slab Decomposition
 


     bravais-lattice index     =            0
     lattice parameter (alat)  =      14.8599  a.u.
     unit-cell volume          =    8305.1283 (a.u.)^3
     number of atoms/cell      =           50
     number of atomic types    =            4
     number of electrons       =       431.00
     number of Kohn-Sham states=          259
     kinetic-energy cutoff     =      60.0000  Ry
     charge density cutoff     =     480.0000  Ry
     scf convergence threshold =      1.0E-08
     mixing beta               =       0.1500
     number of iterations used =            8  local-TF  mixing
     Exchange-correlation= PBE
                           (   1   4   3   4   0   0   0)

     celldm(1)=  14.859904  celldm(2)=   0.000000  celldm(3)=   0.000000
     celldm(4)=   0.000000  celldm(5)=   0.000000  celldm(6)=   0.000000

     crystal axes: (cart. coord. in units of alat)
               a(1) = (   1.000000   0.000000   0.000000 )  
               a(2) = (   0.000000   1.000000   0.000000 )  
               a(3) = (   0.000000   0.000000   2.531036 )  

     reciprocal axes: (cart. coord. in units 2 pi/alat)
               b(1) = (  1.000000  0.000000  0.000000 )  
               b(2) = (  0.000000  1.000000  0.000000 )  
               b(3) = (  0.000000  0.000000  0.395095 )  


     PseudoPot. # 1 for Sr read from file:
     /bsuhome/zayahcortright/q-e/pseudo/Sr_pbe_v1.uspp.F.UPF
     MD5 check sum: 6b418c05fbe9db5448babca5e47b7a5b
     Pseudo is Ultrasoft + core correction, Zval = 10.0
     Generated by new atomic code, or converted to UPF format
     Using radial grid of  883 points,  6 beta functions with: 
                l(1) =   0
                l(2) =   0
                l(3) =   1
                l(4) =   1
                l(5) =   2
                l(6) =   2
     Q(r) pseudized with  6 coefficients,  rinner =    1.400   1.400   1.400
                                                       1.400   1.400

     PseudoPot. # 2 for O  read from file:
     /bsuhome/zayahcortright/q-e/pseudo/O.pbe-n-kjpaw_psl.0.1.UPF
     MD5 check sum: 0234752ac141de4415c5fc33072bef88
     Pseudo is Projector augmented-wave + core cor, Zval =  6.0
     Generated using "atomic" code by A. Dal Corso  v.5.0.99 svn rev. 10869
     Shape of augmentation charge: BESSEL
     Using radial grid of 1095 points,  4 beta functions with: 
                l(1) =   0
                l(2) =   0
                l(3) =   1
                l(4) =   1
     Q(r) pseudized with 0 coefficients 


     PseudoPot. # 3 for Co read from file:
     /bsuhome/zayahcortright/q-e/pseudo/Co_pbe_v1.2.uspp.F.UPF
     MD5 check sum: 5f91765df6ddd3222702df6e7b74a16d
     Pseudo is Ultrasoft + core correction, Zval = 17.0
     Generated by new atomic code, or converted to UPF format
     Using radial grid of  863 points,  6 beta functions with: 
                l(1) =   0
                l(2) =   0
                l(3) =   1
                l(4) =   1
                l(5) =   2
                l(6) =   2
     Q(r) pseudized with  8 coefficients,  rinner =    1.200   1.200   1.200
                                                       1.200   1.200

     PseudoPot. # 4 for H  read from file:
     /bsuhome/zayahcortright/q-e/pseudo/H.pbe-rrkjus_psl.1.0.0.UPF
     MD5 check sum: f52b6d4d1c606e5624b1dc7b2218f220
     Pseudo is Ultrasoft, Zval =  1.0
     Generated using "atomic" code by A. Dal Corso  v.5.1
     Using radial grid of  929 points,  2 beta functions with: 
                l(1) =   0
                l(2) =   0
     Q(r) pseudized with 0 coefficients 


     atomic species   valence    mass     pseudopotential
        Sr            10.00    87.62000     Sr( 1.00)
        O              6.00    15.99900     O ( 1.00)
        Co            17.00    58.93319     Co( 1.00)
        H              1.00     1.00800     H ( 1.00)

     No symmetry found


                                    s                        frac. trans.

      isym =  1     identity                                     

 cryst.   s( 1) = (     1          0          0      )
                  (     0          1          0      )
                  (     0          0          1      )

 cart.    s( 1) = (  1.0000000  0.0000000  0.0000000 )
                  (  0.0000000  1.0000000  0.0000000 )
                  (  0.0000000  0.0000000  1.0000000 )


   Cartesian axes

     site n.     atom                  positions (alat units)
         1           Sr  tau(   1) = (   0.2508693   0.7491307   1.7574407  )
         2           O   tau(   2) = (   0.4985141   0.5014859   1.7715967  )
         3           Sr  tau(   3) = (   0.7482398   0.7454518   1.7648669  )
         4           Sr  tau(   4) = (   0.7441748   0.2558252   1.7667843  )
         5           Sr  tau(   5) = (   0.2508693   0.7491307   1.2696799  )
         6           Sr  tau(   6) = (   0.2508693   0.7491307   0.7632319  )
         7           Co  tau(   7) = (   0.4998914   0.5001086   1.0164559  )
         8           Co  tau(   8) = (   0.4936915   0.5063085   1.5135603  )
         9           O   tau(   9) = (   0.4988895   0.7610401   1.0164559  )
        10           O   tau(  10) = (   0.2389599   0.5011105   1.0164559  )
        11           O   tau(  11) = (   0.0070918   0.7374880   1.0164559  )
        12           O   tau(  12) = (   0.0088340   0.7405089   1.5135603  )
        13           O   tau(  13) = (   0.5066944   0.7415376   1.5135603  )
        14           O   tau(  14) = (   0.2584624   0.4933056   1.5135603  )
        15           O   tau(  15) = (   0.4985141   0.5014859   0.7773880  )
        16           O   tau(  16) = (   0.4985141   0.5014859   1.2555238  )
        17           Sr  tau(  17) = (   0.7482398   0.7454518   0.7706582  )
        18           Sr  tau(  18) = (   0.7482398   0.7454518   1.2622536  )
        19           Sr  tau(  19) = (   0.7441748   0.2558252   0.7725755  )
        20           Sr  tau(  20) = (   0.7441748   0.2558252   1.2603363  )
        21           O   tau(  21) = (   0.7322655   0.0078049   1.5135603  )
        22           O   tau(  22) = (   0.7558175   0.4996027   1.5135603  )
        23           O   tau(  23) = (   0.5003973   0.2441825   1.5135603  )
        24           O   tau(  24) = (   0.7527966   0.4978604   1.0164559  )
        25           O   tau(  25) = (   0.5021396   0.2472034   1.0164559  )
        26           O   tau(  26) = (   0.7517679   0.0000000   1.0164559  )
        27           O   tau(  27) = (   0.0114961   0.4948124   1.7455321  )
        28           O   tau(  28) = (   0.0048226   0.0077944   1.7715967  )
        29           Sr  tau(  29) = (   0.2545482   0.2517602   1.7648669  )
        30           O   tau(  30) = (   0.5048017   0.0015068   1.7786929  )
        31           Co  tau(  31) = (   0.0056869   0.5006215   1.0164559  )
        32           Co  tau(  32) = (   0.0065315   0.4997770   1.5135603  )
        33           Co  tau(  33) = (   0.0061999   0.0064171   1.0164559  )
        34           Co  tau(  34) = (   0.0000000   0.0126169   1.5135603  )
        35           O   tau(  35) = (   0.0114961   0.4948124   1.2815885  )
        36           O   tau(  36) = (   0.0114961   0.4948124   0.7513233  )
        37           O   tau(  37) = (   0.0051979   0.2673486   1.0164559  )
        38           O   tau(  38) = (   0.0130029   0.2478461   1.5135603  )
        39           O   tau(  39) = (   0.0048226   0.0077944   0.7773880  )
        40           O   tau(  40) = (   0.0048226   0.0077944   1.2555238  )
        41           Sr  tau(  41) = (   0.2545482   0.2517602   0.7706582  )
        42           Sr  tau(  42) = (   0.2545482   0.2517602   1.2622536  )
        43           Co  tau(  43) = (   0.4989925   0.0073160   1.5135603  )
        44           Co  tau(  44) = (   0.4998370   0.0064714   1.0164559  )
        45           O   tau(  45) = (   0.5048017   0.0015068   0.7844841  )
        46           O   tau(  46) = (   0.5048017   0.0015068   1.2484277  )
        47           O   tau(  47) = (   0.2621260   0.0059111   1.5135603  )
        48           O   tau(  48) = (   0.2591051   0.0041689   1.0164559  )
        49           O   tau(  49) = (   0.0000000   0.5686583   2.1602013  )
        50           H   tau(  50) = (   0.0000000   0.5686583   2.2847091  )

   Crystallographic axes

     site n.     atom                  positions (cryst. coord.)
         1           Sr  tau(   1) = (  0.2508693  0.7491307  0.6943562  )
         2           O   tau(   2) = (  0.4985141  0.5014859  0.6999492  )
         3           Sr  tau(   3) = (  0.7482398  0.7454518  0.6972903  )
         4           Sr  tau(   4) = (  0.7441748  0.2558252  0.6980478  )
         5           Sr  tau(   5) = (  0.2508693  0.7491307  0.5016443  )
         6           Sr  tau(   6) = (  0.2508693  0.7491307  0.3015492  )
         7           Co  tau(   7) = (  0.4998914  0.5001086  0.4015968  )
         8           Co  tau(   8) = (  0.4936915  0.5063085  0.5980003  )
         9           O   tau(   9) = (  0.4988895  0.7610401  0.4015968  )
        10           O   tau(  10) = (  0.2389599  0.5011105  0.4015968  )
        11           O   tau(  11) = (  0.0070918  0.7374880  0.4015968  )
        12           O   tau(  12) = (  0.0088340  0.7405089  0.5980003  )
        13           O   tau(  13) = (  0.5066944  0.7415376  0.5980003  )
        14           O   tau(  14) = (  0.2584624  0.4933056  0.5980003  )
        15           O   tau(  15) = (  0.4985141  0.5014859  0.3071422  )
        16           O   tau(  16) = (  0.4985141  0.5014859  0.4960513  )
        17           Sr  tau(  17) = (  0.7482398  0.7454518  0.3044833  )
        18           Sr  tau(  18) = (  0.7482398  0.7454518  0.4987103  )
        19           Sr  tau(  19) = (  0.7441748  0.2558252  0.3052408  )
        20           Sr  tau(  20) = (  0.7441748  0.2558252  0.4979527  )
        21           O   tau(  21) = (  0.7322655  0.0078049  0.5980003  )
        22           O   tau(  22) = (  0.7558175  0.4996027  0.5980003  )
        23           O   tau(  23) = (  0.5003973  0.2441825  0.5980003  )
        24           O   tau(  24) = (  0.7527966  0.4978604  0.4015968  )
        25           O   tau(  25) = (  0.5021396  0.2472034  0.4015968  )
        26           O   tau(  26) = (  0.7517679  0.0000000  0.4015968  )
        27           O   tau(  27) = (  0.0114961  0.4948124  0.6896512  )
        28           O   tau(  28) = (  0.0048226  0.0077944  0.6999492  )
        29           Sr  tau(  29) = (  0.2545482  0.2517602  0.6972903  )
        30           O   tau(  30) = (  0.5048017  0.0015068  0.7027529  )
        31           Co  tau(  31) = (  0.0056869  0.5006215  0.4015968  )
        32           Co  tau(  32) = (  0.0065315  0.4997770  0.5980003  )
        33           Co  tau(  33) = (  0.0061999  0.0064171  0.4015968  )
        34           Co  tau(  34) = (  0.0000000  0.0126169  0.5980003  )
        35           O   tau(  35) = (  0.0114961  0.4948124  0.5063494  )
        36           O   tau(  36) = (  0.0114961  0.4948124  0.2968442  )
        37           O   tau(  37) = (  0.0051979  0.2673486  0.4015968  )
        38           O   tau(  38) = (  0.0130029  0.2478461  0.5980003  )
        39           O   tau(  39) = (  0.0048226  0.0077944  0.3071422  )
        40           O   tau(  40) = (  0.0048226  0.0077944  0.4960513  )
        41           Sr  tau(  41) = (  0.2545482  0.2517602  0.3044833  )
        42           Sr  tau(  42) = (  0.2545482  0.2517602  0.4987103  )
        43           Co  tau(  43) = (  0.4989925  0.0073160  0.5980003  )
        44           Co  tau(  44) = (  0.4998370  0.0064714  0.4015968  )
        45           O   tau(  45) = (  0.5048017  0.0015068  0.3099459  )
        46           O   tau(  46) = (  0.5048017  0.0015068  0.4932477  )
        47           O   tau(  47) = (  0.2621260  0.0059111  0.5980003  )
        48           O   tau(  48) = (  0.2591051  0.0041689  0.4015968  )
        49           O   tau(  49) = (  0.0000000  0.5686583  0.8534850  )
        50           H   tau(  50) = (  0.0000000  0.5686583  0.9026774  )

     number of k points=    10  Gaussian smearing, width (Ry)=  0.0700
                       cart. coord. in units 2pi/alat
        k(    1) = (   0.0000000   0.0000000   0.0000000), wk =   0.1250000
        k(    2) = (   0.0000000   0.2500000   0.0000000), wk =   0.2500000
        k(    3) = (   0.0000000  -0.5000000   0.0000000), wk =   0.1250000
        k(    4) = (   0.2500000   0.2500000   0.0000000), wk =   0.2500000
        k(    5) = (   0.2500000  -0.5000000   0.0000000), wk =   0.2500000
        k(    6) = (  -0.5000000  -0.5000000   0.0000000), wk =   0.1250000
        k(    7) = (   0.2500000   0.0000000   0.0000000), wk =   0.2500000
        k(    8) = (  -0.5000000   0.0000000   0.0000000), wk =   0.1250000
        k(    9) = (  -0.2500000   0.2500000   0.0000000), wk =   0.2500000
        k(   10) = (  -0.5000000   0.2500000   0.0000000), wk =   0.2500000

                       cryst. coord.
        k(    1) = (   0.0000000   0.0000000   0.0000000), wk =   0.1250000
        k(    2) = (   0.0000000   0.2500000   0.0000000), wk =   0.2500000
        k(    3) = (   0.0000000  -0.5000000   0.0000000), wk =   0.1250000
        k(    4) = (   0.2500000   0.2500000   0.0000000), wk =   0.2500000
        k(    5) = (   0.2500000  -0.5000000   0.0000000), wk =   0.2500000
        k(    6) = (  -0.5000000  -0.5000000   0.0000000), wk =   0.1250000
        k(    7) = (   0.2500000   0.0000000   0.0000000), wk =   0.2500000
        k(    8) = (  -0.5000000   0.0000000   0.0000000), wk =   0.1250000
        k(    9) = (  -0.2500000   0.2500000   0.0000000), wk =   0.2500000
        k(   10) = (  -0.5000000   0.2500000   0.0000000), wk =   0.2500000

     Dense  grid:  1474595 G-vectors     FFT dimensions: ( 108, 108, 270)

     Smooth grid:   521381 G-vectors     FFT dimensions: (  75,  75, 192)

     Dynamical RAM for                 wfc:      10.73 MB

     Dynamical RAM for     wfc (w. buffer):      64.38 MB

     Dynamical RAM for           str. fact:       3.75 MB

     Dynamical RAM for           local pot:       0.00 MB

     Dynamical RAM for          nlocal pot:      24.61 MB

     Dynamical RAM for                qrad:       7.03 MB

     Dynamical RAM for          rho,v,vnew:       6.02 MB

     Dynamical RAM for               rhoin:       2.01 MB

     Dynamical RAM for            rho*nmix:      15.00 MB

     Dynamical RAM for           G-vectors:       3.68 MB

     Dynamical RAM for          h,s,v(r/c):       1.35 MB

     Dynamical RAM for          <psi|beta>:       2.35 MB

     Dynamical RAM for                 psi:      21.46 MB

     Dynamical RAM for                hpsi:      21.46 MB

     Dynamical RAM for                spsi:      21.46 MB

     Dynamical RAM for      wfcinit/wfcrot:      34.49 MB

     Dynamical RAM for           addusdens:     101.26 MB

     Estimated static dynamical RAM per process >     121.50 MB

     Estimated max dynamical RAM per process >     237.76 MB

     Estimated total dynamical RAM >      10.79 GB

     Check: negative core charge=   -0.000004

     Initial potential from superposition of free atoms

     starting charge     422.5961, renormalised to     431.0000

     negative rho (up, down):  7.820E-01 0.000E+00
     Starting wfcs are  377 randomized atomic wfcs
     Checking if some PAW data can be deallocated... 
       PAW data deallocated on   19 nodes for type:  2

     total cpu time spent up to now is        9.4 secs

     Self-consistent Calculation

     iteration #  1     ecut=    60.00 Ry     beta= 0.15
     Davidson diagonalization with overlap

---- Real-time Memory Report at c_bands before calling an iterative solver
             0 MiB given to the printing process from OS
             0 MiB allocation reported by mallinfo(arena+hblkhd)
         24019 MiB available memory on the node where the printing process lives
------------------
     ethr =  1.00E-02,  avg # of iterations =  2.0

     negative rho (up, down):  7.715E-01 0.000E+00

     total cpu time spent up to now is       26.3 secs

     total energy              =   -4446.61472248 Ry
     estimated scf accuracy    <      44.92011004 Ry

     iteration #  2     ecut=    60.00 Ry     beta= 0.15
     Davidson diagonalization with overlap

---- Real-time Memory Report at c_bands before calling an iterative solver
             0 MiB given to the printing process from OS
             0 MiB allocation reported by mallinfo(arena+hblkhd)
         24272 MiB available memory on the node where the printing process lives
------------------
     ethr =  1.00E-02,  avg # of iterations =  1.0

     negative rho (up, down):  7.582E-01 0.000E+00

     total cpu time spent up to now is       40.7 secs

     total energy              =   -4443.28164926 Ry
     estimated scf accuracy    <      29.62816399 Ry

     iteration #  3     ecut=    60.00 Ry     beta= 0.15
     Davidson diagonalization with overlap

---- Real-time Memory Report at c_bands before calling an iterative solver
             0 MiB given to the printing process from OS
             0 MiB allocation reported by mallinfo(arena+hblkhd)
         23435 MiB available memory on the node where the printing process lives
------------------
     ethr =  6.87E-03,  avg # of iterations =  1.0

     negative rho (up, down):  7.553E-01 0.000E+00

     total cpu time spent up to now is       55.6 secs

     total energy              =   -4444.25709953 Ry
     estimated scf accuracy    <      28.57106836 Ry

     iteration #  4     ecut=    60.00 Ry     beta= 0.15
     Davidson diagonalization with overlap

---- Real-time Memory Report at c_bands before calling an iterative solver
             0 MiB given to the printing process from OS
             0 MiB allocation reported by mallinfo(arena+hblkhd)
         23413 MiB available memory on the node where the printing process lives
------------------
     ethr =  6.63E-03,  avg # of iterations =  1.0

     negative rho (up, down):  7.500E-01 0.000E+00

     total cpu time spent up to now is       70.1 secs

     total energy              =   -4443.03222211 Ry
     estimated scf accuracy    <      21.05812773 Ry

     iteration #  5     ecut=    60.00 Ry     beta= 0.15
     Davidson diagonalization with overlap

---- Real-time Memory Report at c_bands before calling an iterative solver
             0 MiB given to the printing process from OS
             0 MiB allocation reported by mallinfo(arena+hblkhd)
         23393 MiB available memory on the node where the printing process lives
------------------
     ethr =  4.89E-03,  avg # of iterations =  1.0

     negative rho (up, down):  7.401E-01 0.000E+00

     total cpu time spent up to now is       84.8 secs

     total energy              =   -4442.51376785 Ry
     estimated scf accuracy    <      11.51471007 Ry

     iteration #  6     ecut=    60.00 Ry     beta= 0.15
     Davidson diagonalization with overlap

---- Real-time Memory Report at c_bands before calling an iterative solver
             0 MiB given to the printing process from OS
             0 MiB allocation reported by mallinfo(arena+hblkhd)
         23375 MiB available memory on the node where the printing process lives
------------------
     ethr =  2.67E-03,  avg # of iterations =  1.1

     negative rho (up, down):  7.427E-01 0.000E+00

     total cpu time spent up to now is       99.6 secs

     total energy              =   -4442.81170811 Ry
     estimated scf accuracy    <       5.00432502 Ry

     iteration #  7     ecut=    60.00 Ry     beta= 0.15
     Davidson diagonalization with overlap

---- Real-time Memory Report at c_bands before calling an iterative solver
             0 MiB given to the printing process from OS
             0 MiB allocation reported by mallinfo(arena+hblkhd)
         23357 MiB available memory on the node where the printing process lives
------------------
     ethr =  1.16E-03,  avg # of iterations =  1.6

     negative rho (up, down):  7.649E-01 0.000E+00

     total cpu time spent up to now is      115.1 secs

     total energy              =   -4441.68347574 Ry
     estimated scf accuracy    <       3.97599201 Ry

     iteration #  8     ecut=    60.00 Ry     beta= 0.15
     Davidson diagonalization with overlap

---- Real-time Memory Report at c_bands before calling an iterative solver
             0 MiB given to the printing process from OS
             0 MiB allocation reported by mallinfo(arena+hblkhd)
         23340 MiB available memory on the node where the printing process lives
------------------
     ethr =  9.23E-04,  avg # of iterations =  3.7

     negative rho (up, down):  7.731E-01 0.000E+00

     total cpu time spent up to now is      133.9 secs

     total energy              =   -4441.29682143 Ry
     estimated scf accuracy    <      21.84125310 Ry

     iteration #  9     ecut=    60.00 Ry     beta= 0.15
     Davidson diagonalization with overlap

---- Real-time Memory Report at c_bands before calling an iterative solver
             0 MiB given to the printing process from OS
             0 MiB allocation reported by mallinfo(arena+hblkhd)
         23208 MiB available memory on the node where the printing process lives
------------------
     ethr =  9.23E-04,  avg # of iterations = 10.0

     negative rho (up, down):  7.703E-01 0.000E+00

     total cpu time spent up to now is      156.1 secs

     total energy              =   -4441.72907366 Ry
     estimated scf accuracy    <       3.59615184 Ry

     iteration # 10     ecut=    60.00 Ry     beta= 0.15
     Davidson diagonalization with overlap

---- Real-time Memory Report at c_bands before calling an iterative solver
             0 MiB given to the printing process from OS
             0 MiB allocation reported by mallinfo(arena+hblkhd)
         22856 MiB available memory on the node where the printing process lives
------------------
     ethr =  8.34E-04,  avg # of iterations =  1.3

     negative rho (up, down):  7.747E-01 0.000E+00

     total cpu time spent up to now is      171.3 secs

     total energy              =   -4441.88628952 Ry
     estimated scf accuracy    <       1.54962089 Ry

     iteration # 11     ecut=    60.00 Ry     beta= 0.15
     Davidson diagonalization with overlap

---- Real-time Memory Report at c_bands before calling an iterative solver
             0 MiB given to the printing process from OS
             0 MiB allocation reported by mallinfo(arena+hblkhd)
         22840 MiB available memory on the node where the printing process lives
------------------
     ethr =  3.60E-04,  avg # of iterations =  3.0

     negative rho (up, down):  8.036E-01 0.000E+00

     total cpu time spent up to now is      188.1 secs

     total energy              =   -4441.74214761 Ry
     estimated scf accuracy    <       1.07412715 Ry

     iteration # 12     ecut=    60.00 Ry     beta= 0.15
     Davidson diagonalization with overlap

---- Real-time Memory Report at c_bands before calling an iterative solver
             0 MiB given to the printing process from OS
             0 MiB allocation reported by mallinfo(arena+hblkhd)
         22834 MiB available memory on the node where the printing process lives
------------------
     ethr =  2.49E-04,  avg # of iterations =  2.5

     negative rho (up, down):  8.172E-01 0.000E+00

     total cpu time spent up to now is      204.9 secs

     total energy              =   -4441.88081231 Ry
     estimated scf accuracy    <       1.61522301 Ry

     iteration # 13     ecut=    60.00 Ry     beta= 0.15
     Davidson diagonalization with overlap

---- Real-time Memory Report at c_bands before calling an iterative solver
             0 MiB given to the printing process from OS
             0 MiB allocation reported by mallinfo(arena+hblkhd)
         22837 MiB available memory on the node where the printing process lives
------------------
     ethr =  2.49E-04,  avg # of iterations = 10.7

     negative rho (up, down):  8.181E-01 0.000E+00

     total cpu time spent up to now is      225.7 secs

     total energy              =   -4441.79071295 Ry
     estimated scf accuracy    <       1.18692906 Ry

     iteration # 14     ecut=    60.00 Ry     beta= 0.15
     Davidson diagonalization with overlap

---- Real-time Memory Report at c_bands before calling an iterative solver
             0 MiB given to the printing process from OS
             0 MiB allocation reported by mallinfo(arena+hblkhd)
         22798 MiB available memory on the node where the printing process lives
------------------
     ethr =  2.49E-04,  avg # of iterations =  1.6

     negative rho (up, down):  8.166E-01 0.000E+00

     total cpu time spent up to now is      241.7 secs

     total energy              =   -4441.75635411 Ry
     estimated scf accuracy    <       0.41567484 Ry

     iteration # 15     ecut=    60.00 Ry     beta= 0.15
     Davidson diagonalization with overlap

---- Real-time Memory Report at c_bands before calling an iterative solver
             0 MiB given to the printing process from OS
             0 MiB allocation reported by mallinfo(arena+hblkhd)
         22804 MiB available memory on the node where the printing process lives
------------------
     c_bands:  4 eigenvalues not converged
     ethr =  9.64E-05,  avg # of iterations =  7.5

     negative rho (up, down):  8.261E-01 0.000E+00

     total cpu time spent up to now is      260.8 secs

     total energy              =   -4441.72829611 Ry
     estimated scf accuracy    <       0.28728610 Ry

     iteration # 16     ecut=    60.00 Ry     beta= 0.15
     Davidson diagonalization with overlap

---- Real-time Memory Report at c_bands before calling an iterative solver
             0 MiB given to the printing process from OS
             0 MiB allocation reported by mallinfo(arena+hblkhd)
         22767 MiB available memory on the node where the printing process lives
------------------
     ethr =  6.67E-05,  avg # of iterations = 12.4

     negative rho (up, down):  8.298E-01 0.000E+00

     total cpu time spent up to now is      283.2 secs

     total energy              =   -4441.72518702 Ry
     estimated scf accuracy    <       0.29567260 Ry

     iteration # 17     ecut=    60.00 Ry     beta= 0.15
     Davidson diagonalization with overlap

---- Real-time Memory Report at c_bands before calling an iterative solver
             0 MiB given to the printing process from OS
             0 MiB allocation reported by mallinfo(arena+hblkhd)
         22784 MiB available memory on the node where the printing process lives
------------------
     ethr =  6.67E-05,  avg # of iterations =  1.1

     negative rho (up, down):  8.220E-01 0.000E+00

     total cpu time spent up to now is      298.1 secs

     total energy              =   -4441.70415912 Ry
     estimated scf accuracy    <       0.23254788 Ry

     iteration # 18     ecut=    60.00 Ry     beta= 0.15
     Davidson diagonalization with overlap

---- Real-time Memory Report at c_bands before calling an iterative solver
             0 MiB given to the printing process from OS
             0 MiB allocation reported by mallinfo(arena+hblkhd)
         22771 MiB available memory on the node where the printing process lives
------------------
     ethr =  5.40E-05,  avg # of iterations =  6.2

     negative rho (up, down):  8.137E-01 0.000E+00

     total cpu time spent up to now is      317.2 secs

     total energy              =   -4441.68190505 Ry
     estimated scf accuracy    <       0.15117445 Ry

     iteration # 19     ecut=    60.00 Ry     beta= 0.15
     Davidson diagonalization with overlap

---- Real-time Memory Report at c_bands before calling an iterative solver
             0 MiB given to the printing process from OS
             0 MiB allocation reported by mallinfo(arena+hblkhd)
         22768 MiB available memory on the node where the printing process lives
------------------
     ethr =  3.51E-05,  avg # of iterations = 10.1

     negative rho (up, down):  8.347E-01 0.000E+00

     total cpu time spent up to now is      338.7 secs

     total energy              =   -4441.66530320 Ry
     estimated scf accuracy    <       0.11960409 Ry

     iteration # 20     ecut=    60.00 Ry     beta= 0.15
     Davidson diagonalization with overlap

---- Real-time Memory Report at c_bands before calling an iterative solver
             0 MiB given to the printing process from OS
             0 MiB allocation reported by mallinfo(arena+hblkhd)
         22663 MiB available memory on the node where the printing process lives
------------------
     ethr =  2.78E-05,  avg # of iterations =  5.7

     negative rho (up, down):  8.231E-01 0.000E+00

     total cpu time spent up to now is      357.8 secs

     total energy              =   -4441.66884927 Ry
     estimated scf accuracy    <       0.04149159 Ry

     iteration # 21     ecut=    60.00 Ry     beta= 0.15
     Davidson diagonalization with overlap

---- Real-time Memory Report at c_bands before calling an iterative solver
             0 MiB given to the printing process from OS
             0 MiB allocation reported by mallinfo(arena+hblkhd)
         22658 MiB available memory on the node where the printing process lives
------------------
     ethr =  9.63E-06,  avg # of iterations = 11.5

     negative rho (up, down):  8.124E-01 0.000E+00

     total cpu time spent up to now is      380.3 secs

     total energy              =   -4441.66666975 Ry
     estimated scf accuracy    <       0.03096629 Ry

     iteration # 22     ecut=    60.00 Ry     beta= 0.15
     Davidson diagonalization with overlap

---- Real-time Memory Report at c_bands before calling an iterative solver
             0 MiB given to the printing process from OS
             0 MiB allocation reported by mallinfo(arena+hblkhd)
         22620 MiB available memory on the node where the printing process lives
------------------
     ethr =  7.18E-06,  avg # of iterations =  3.3

     negative rho (up, down):  8.026E-01 0.000E+00

     total cpu time spent up to now is      398.1 secs

     total energy              =   -4441.66455856 Ry
     estimated scf accuracy    <       0.02189622 Ry

     iteration # 23     ecut=    60.00 Ry     beta= 0.15
     Davidson diagonalization with overlap

---- Real-time Memory Report at c_bands before calling an iterative solver
             0 MiB given to the printing process from OS
             0 MiB allocation reported by mallinfo(arena+hblkhd)
         22620 MiB available memory on the node where the printing process lives
------------------
     ethr =  5.08E-06,  avg # of iterations =  7.6

     negative rho (up, down):  7.936E-01 0.000E+00

     total cpu time spent up to now is      417.7 secs

     total energy              =   -4441.66232103 Ry
     estimated scf accuracy    <       0.01534523 Ry

     iteration # 24     ecut=    60.00 Ry     beta= 0.15
     Davidson diagonalization with overlap

---- Real-time Memory Report at c_bands before calling an iterative solver
             0 MiB given to the printing process from OS
             0 MiB allocation reported by mallinfo(arena+hblkhd)
         22631 MiB available memory on the node where the printing process lives
------------------
     c_bands:  1 eigenvalues not converged
     ethr =  3.56E-06,  avg # of iterations = 11.1

     negative rho (up, down):  8.044E-01 0.000E+00

     total cpu time spent up to now is      440.2 secs

     total energy              =   -4441.66139585 Ry
     estimated scf accuracy    <       0.01026444 Ry

     iteration # 25     ecut=    60.00 Ry     beta= 0.15
     Davidson diagonalization with overlap

---- Real-time Memory Report at c_bands before calling an iterative solver
             0 MiB given to the printing process from OS
             0 MiB allocation reported by mallinfo(arena+hblkhd)
         22636 MiB available memory on the node where the printing process lives
------------------
     ethr =  2.38E-06,  avg # of iterations =  7.6

     negative rho (up, down):  8.005E-01 0.000E+00

     total cpu time spent up to now is      461.2 secs

     total energy              =   -4441.66139525 Ry
     estimated scf accuracy    <       0.00279832 Ry

     iteration # 26     ecut=    60.00 Ry     beta= 0.15
     Davidson diagonalization with overlap

---- Real-time Memory Report at c_bands before calling an iterative solver
             0 MiB given to the printing process from OS
             0 MiB allocation reported by mallinfo(arena+hblkhd)
         22621 MiB available memory on the node where the printing process lives
------------------
     ethr =  6.49E-07,  avg # of iterations =  8.2

     negative rho (up, down):  7.995E-01 0.000E+00

     total cpu time spent up to now is      481.3 secs

     total energy              =   -4441.66138333 Ry
     estimated scf accuracy    <       0.00163415 Ry

     iteration # 27     ecut=    60.00 Ry     beta= 0.15
     Davidson diagonalization with overlap

---- Real-time Memory Report at c_bands before calling an iterative solver
             0 MiB given to the printing process from OS
             0 MiB allocation reported by mallinfo(arena+hblkhd)
         22639 MiB available memory on the node where the printing process lives
------------------
     ethr =  3.79E-07,  avg # of iterations =  5.8

     negative rho (up, down):  7.948E-01 0.000E+00

     total cpu time spent up to now is      500.3 secs

     total energy              =   -4441.66124285 Ry
     estimated scf accuracy    <       0.00076154 Ry

     iteration # 28     ecut=    60.00 Ry     beta= 0.15
     Davidson diagonalization with overlap

---- Real-time Memory Report at c_bands before calling an iterative solver
             0 MiB given to the printing process from OS
             0 MiB allocation reported by mallinfo(arena+hblkhd)
         22680 MiB available memory on the node where the printing process lives
------------------
     c_bands:  1 eigenvalues not converged
     ethr =  1.77E-07,  avg # of iterations = 11.2

     negative rho (up, down):  7.941E-01 0.000E+00

     total cpu time spent up to now is      525.7 secs

     total energy              =   -4441.66131617 Ry
     estimated scf accuracy    <       0.00020062 Ry

     iteration # 29     ecut=    60.00 Ry     beta= 0.15
     Davidson diagonalization with overlap

---- Real-time Memory Report at c_bands before calling an iterative solver
             0 MiB given to the printing process from OS
             0 MiB allocation reported by mallinfo(arena+hblkhd)
         22645 MiB available memory on the node where the printing process lives
------------------
     ethr =  4.65E-08,  avg # of iterations =  2.9

     negative rho (up, down):  7.933E-01 0.000E+00

     total cpu time spent up to now is      543.4 secs

     total energy              =   -4441.66131525 Ry
     estimated scf accuracy    <       0.00012828 Ry

     iteration # 30     ecut=    60.00 Ry     beta= 0.15
     Davidson diagonalization with overlap

---- Real-time Memory Report at c_bands before calling an iterative solver
             0 MiB given to the printing process from OS
             0 MiB allocation reported by mallinfo(arena+hblkhd)
         22634 MiB available memory on the node where the printing process lives
------------------
     ethr =  2.98E-08,  avg # of iterations =  2.1

     negative rho (up, down):  7.926E-01 0.000E+00

     total cpu time spent up to now is      560.3 secs

     total energy              =   -4441.66131947 Ry
     estimated scf accuracy    <       0.00006714 Ry

     iteration # 31     ecut=    60.00 Ry     beta= 0.15
     Davidson diagonalization with overlap

---- Real-time Memory Report at c_bands before calling an iterative solver
             0 MiB given to the printing process from OS
             0 MiB allocation reported by mallinfo(arena+hblkhd)
         22632 MiB available memory on the node where the printing process lives
------------------
     ethr =  1.56E-08,  avg # of iterations =  2.2

     negative rho (up, down):  7.923E-01 0.000E+00

     total cpu time spent up to now is      577.9 secs

     total energy              =   -4441.66132797 Ry
     estimated scf accuracy    <       0.00002275 Ry

     iteration # 32     ecut=    60.00 Ry     beta= 0.15
     Davidson diagonalization with overlap

---- Real-time Memory Report at c_bands before calling an iterative solver
             0 MiB given to the printing process from OS
             0 MiB allocation reported by mallinfo(arena+hblkhd)
         22614 MiB available memory on the node where the printing process lives
------------------
     ethr =  5.28E-09,  avg # of iterations =  2.2

     negative rho (up, down):  7.922E-01 0.000E+00

     total cpu time spent up to now is      595.1 secs

     total energy              =   -4441.66132985 Ry
     estimated scf accuracy    <       0.00001030 Ry

     iteration # 33     ecut=    60.00 Ry     beta= 0.15
     Davidson diagonalization with overlap

---- Real-time Memory Report at c_bands before calling an iterative solver
             0 MiB given to the printing process from OS
             0 MiB allocation reported by mallinfo(arena+hblkhd)
         22623 MiB available memory on the node where the printing process lives
------------------
     ethr =  2.39E-09,  avg # of iterations =  2.7

     negative rho (up, down):  7.923E-01 0.000E+00

     total cpu time spent up to now is      612.3 secs

     total energy              =   -4441.66133042 Ry
     estimated scf accuracy    <       0.00000526 Ry

     iteration # 34     ecut=    60.00 Ry     beta= 0.15
     Davidson diagonalization with overlap

---- Real-time Memory Report at c_bands before calling an iterative solver
             0 MiB given to the printing process from OS
             0 MiB allocation reported by mallinfo(arena+hblkhd)
         22641 MiB available memory on the node where the printing process lives
------------------
     ethr =  1.22E-09,  avg # of iterations =  2.2

     negative rho (up, down):  7.923E-01 0.000E+00

     total cpu time spent up to now is      629.3 secs

     total energy              =   -4441.66133072 Ry
     estimated scf accuracy    <       0.00000242 Ry

     iteration # 35     ecut=    60.00 Ry     beta= 0.15
     Davidson diagonalization with overlap

---- Real-time Memory Report at c_bands before calling an iterative solver
             0 MiB given to the printing process from OS
             0 MiB allocation reported by mallinfo(arena+hblkhd)
         22641 MiB available memory on the node where the printing process lives
------------------
     ethr =  5.62E-10,  avg # of iterations =  2.1

     negative rho (up, down):  7.924E-01 0.000E+00

     total cpu time spent up to now is      646.3 secs

     total energy              =   -4441.66133083 Ry
     estimated scf accuracy    <       0.00000131 Ry

     iteration # 36     ecut=    60.00 Ry     beta= 0.15
     Davidson diagonalization with overlap

---- Real-time Memory Report at c_bands before calling an iterative solver
             0 MiB given to the printing process from OS
             0 MiB allocation reported by mallinfo(arena+hblkhd)
         22642 MiB available memory on the node where the printing process lives
------------------
     ethr =  3.04E-10,  avg # of iterations =  2.2

     negative rho (up, down):  7.925E-01 0.000E+00

     total cpu time spent up to now is      663.7 secs

     total energy              =   -4441.66133097 Ry
     estimated scf accuracy    <       0.00000075 Ry

     iteration # 37     ecut=    60.00 Ry     beta= 0.15
     Davidson diagonalization with overlap

---- Real-time Memory Report at c_bands before calling an iterative solver
             0 MiB given to the printing process from OS
             0 MiB allocation reported by mallinfo(arena+hblkhd)
         22639 MiB available memory on the node where the printing process lives
------------------
     ethr =  1.75E-10,  avg # of iterations =  2.2

     negative rho (up, down):  7.925E-01 0.000E+00

     total cpu time spent up to now is      681.1 secs

     total energy              =   -4441.66133105 Ry
     estimated scf accuracy    <       0.00000033 Ry

     iteration # 38     ecut=    60.00 Ry     beta= 0.15
     Davidson diagonalization with overlap

---- Real-time Memory Report at c_bands before calling an iterative solver
             0 MiB given to the printing process from OS
             0 MiB allocation reported by mallinfo(arena+hblkhd)
         22639 MiB available memory on the node where the printing process lives
------------------
     ethr =  7.77E-11,  avg # of iterations =  2.1

     negative rho (up, down):  7.925E-01 0.000E+00

     total cpu time spent up to now is      697.9 secs

     total energy              =   -4441.66133107 Ry
     estimated scf accuracy    <       0.00000025 Ry

     iteration # 39     ecut=    60.00 Ry     beta= 0.15
     Davidson diagonalization with overlap

---- Real-time Memory Report at c_bands before calling an iterative solver
             0 MiB given to the printing process from OS
             0 MiB allocation reported by mallinfo(arena+hblkhd)
         22648 MiB available memory on the node where the printing process lives
------------------
     ethr =  5.70E-11,  avg # of iterations =  2.1

     negative rho (up, down):  7.925E-01 0.000E+00

     total cpu time spent up to now is      714.6 secs

     total energy              =   -4441.66133103 Ry
     estimated scf accuracy    <       0.00000023 Ry

     iteration # 40     ecut=    60.00 Ry     beta= 0.15
     Davidson diagonalization with overlap

---- Real-time Memory Report at c_bands before calling an iterative solver
             0 MiB given to the printing process from OS
             0 MiB allocation reported by mallinfo(arena+hblkhd)
         22650 MiB available memory on the node where the printing process lives
------------------
     ethr =  5.39E-11,  avg # of iterations =  2.2

     negative rho (up, down):  7.925E-01 0.000E+00

     total cpu time spent up to now is      732.3 secs

     total energy              =   -4441.66133103 Ry
     estimated scf accuracy    <       0.00000009 Ry

     iteration # 41     ecut=    60.00 Ry     beta= 0.15
     Davidson diagonalization with overlap

---- Real-time Memory Report at c_bands before calling an iterative solver
             0 MiB given to the printing process from OS
             0 MiB allocation reported by mallinfo(arena+hblkhd)
         22657 MiB available memory on the node where the printing process lives
------------------
     ethr =  2.07E-11,  avg # of iterations =  2.1

     negative rho (up, down):  7.925E-01 0.000E+00

     total cpu time spent up to now is      749.8 secs

     total energy              =   -4441.66133102 Ry
     estimated scf accuracy    <       0.00000005 Ry

     iteration # 42     ecut=    60.00 Ry     beta= 0.15
     Davidson diagonalization with overlap

---- Real-time Memory Report at c_bands before calling an iterative solver
             0 MiB given to the printing process from OS
             0 MiB allocation reported by mallinfo(arena+hblkhd)
         22654 MiB available memory on the node where the printing process lives
------------------
     ethr =  1.24E-11,  avg # of iterations =  2.0

     negative rho (up, down):  7.925E-01 0.000E+00

     total cpu time spent up to now is      767.1 secs

     total energy              =   -4441.66133102 Ry
     estimated scf accuracy    <       0.00000004 Ry

     iteration # 43     ecut=    60.00 Ry     beta= 0.15
     Davidson diagonalization with overlap

---- Real-time Memory Report at c_bands before calling an iterative solver
             0 MiB given to the printing process from OS
             0 MiB allocation reported by mallinfo(arena+hblkhd)
         22655 MiB available memory on the node where the printing process lives
------------------
     ethr =  9.15E-12,  avg # of iterations =  2.2

     negative rho (up, down):  7.925E-01 0.000E+00

     total cpu time spent up to now is      784.7 secs

     total energy              =   -4441.66133103 Ry
     estimated scf accuracy    <       0.00000002 Ry

     iteration # 44     ecut=    60.00 Ry     beta= 0.15
     Davidson diagonalization with overlap

---- Real-time Memory Report at c_bands before calling an iterative solver
             0 MiB given to the printing process from OS
             0 MiB allocation reported by mallinfo(arena+hblkhd)
         22661 MiB available memory on the node where the printing process lives
------------------
     ethr =  4.59E-12,  avg # of iterations =  2.2

     negative rho (up, down):  7.925E-01 0.000E+00

     total cpu time spent up to now is      802.1 secs

     total energy              =   -4441.66133105 Ry
     estimated scf accuracy    <       0.00000002 Ry

     iteration # 45     ecut=    60.00 Ry     beta= 0.15
     Davidson diagonalization with overlap

---- Real-time Memory Report at c_bands before calling an iterative solver
             0 MiB given to the printing process from OS
             0 MiB allocation reported by mallinfo(arena+hblkhd)
         22655 MiB available memory on the node where the printing process lives
------------------
     ethr =  3.72E-12,  avg # of iterations =  3.5

     negative rho (up, down):  7.925E-01 0.000E+00

     total cpu time spent up to now is      820.1 secs

     End of self-consistent calculation

          k = 0.0000 0.0000 0.0000 ( 65197 PWs)   bands (ev):

   -92.7082 -92.6615 -92.5634 -92.5148 -92.4587 -92.4149 -92.3974 -92.2767
   -56.0617 -56.0481 -55.9202 -55.9090 -55.9027 -55.8958 -55.8642 -55.8322
   -55.8160 -55.8144 -55.8114 -55.7657 -55.7454 -55.7096 -55.6903 -55.6588
   -55.6502 -55.6031 -55.6031 -55.6001 -55.5917 -55.5520 -55.5277 -55.4420
   -31.2850 -31.2655 -31.1240 -31.0372 -30.9973 -30.9812 -30.8108 -30.7655
   -29.8550 -29.8116 -29.7865 -29.6782 -15.0885 -15.0408 -14.9624 -14.8337
   -14.6335 -14.5164 -14.2251 -14.2024 -14.1758 -14.1297 -14.0847 -14.0708
   -14.0599 -14.0410 -14.0176 -13.9836 -13.9599 -13.9365 -13.7835 -13.5968
   -13.5721 -13.5422 -13.5029 -13.4830 -13.4391 -13.4054 -13.3295 -13.2569
   -13.1273 -13.1165 -13.1049 -13.0818 -13.0638 -13.0281 -13.0081 -13.0057
   -12.9868 -12.9607 -12.9299 -12.9071 -12.8543 -12.8427 -12.8301 -12.7704
   -12.7515 -12.7435 -12.6883 -12.6455 -12.6372 -12.3498 -12.2036 -12.0273
   -11.9548 -11.8684 -11.7943 -11.7834 -11.7605 -11.7429 -11.6793 -11.6623
   -11.6271 -11.5982 -11.4869 -11.4069 -11.4034  -2.9477  -2.7164  -2.4871
    -2.3375  -2.2770  -2.1350  -1.8267  -1.8119  -1.7935  -1.7052  -1.6886
    -1.6206  -1.6042  -1.5639  -1.5198  -1.3383  -1.1242  -1.0958  -1.0756
    -0.9381  -0.9232  -0.8748  -0.8560  -0.8097  -0.7925  -0.7407  -0.7135
    -0.6393  -0.6278  -0.5539  -0.4222  -0.4097  -0.3784  -0.2987  -0.2775
    -0.2166  -0.1792  -0.1318  -0.0884  -0.0277  -0.0125   0.0528   0.1260
     0.1731   0.1975   0.2070   0.4676   0.4832   0.6635   0.7193   0.7820
     0.8327   0.9192   0.9312   0.9483   1.0172   1.0449   1.0779   1.1352
     1.2668   1.3245   1.3468   1.3742   1.3843   1.4444   1.5138   1.6267
     1.6462   1.6975   1.7073   1.7511   1.7735   1.7858   1.8360   1.9013
     1.9088   1.9489   1.9677   2.0205   2.1521   2.2378   2.2800   2.2968
     2.4330   2.4401   2.4611   2.4680   2.5053   2.5073   2.6194   2.6514
     2.6803   2.6998   2.7197   2.8011   2.9016   2.9383   2.9447   2.9504
     3.0179   3.0247   3.0458   3.0536   3.0628   3.0747   3.0831   3.0974
     3.1041   3.1129   3.1217   3.1290   3.1495   3.1707   3.1756   3.1881
     3.2092   3.3279   3.4124   4.0984   4.4217   4.7645   4.8645   5.0339
     5.8217   5.9535   5.9874   6.0065   6.3069   6.3538   6.4789   6.4887
     6.7747   7.0055   7.1030   7.3121   7.5971   7.6248   7.6509   7.6733
     7.7029   7.9216   7.9473   8.0685   8.1087   8.1784   8.4238   8.4429
     8.6748   8.8242   8.8946

     occupation numbers 
     1.0000   1.0000   1.0000   1.0000   1.0000   1.0000   1.0000   1.0000
     1.0000   1.0000   1.0000   1.0000   1.0000   1.0000   1.0000   1.0000
     1.0000   1.0000   1.0000   1.0000   1.0000   1.0000   1.0000   1.0000
     1.0000   1.0000   1.0000   1.0000   1.0000   1.0000   1.0000   1.0000
     1.0000   1.0000   1.0000   1.0000   1.0000   1.0000   1.0000   1.0000
     1.0000   1.0000   1.0000   1.0000   1.0000   1.0000   1.0000   1.0000
     1.0000   1.0000   1.0000   1.0000   1.0000   1.0000   1.0000   1.0000
     1.0000   1.0000   1.0000   1.0000   1.0000   1.0000   1.0000   1.0000
     1.0000   1.0000   1.0000   1.0000   1.0000   1.0000   1.0000   1.0000
     1.0000   1.0000   1.0000   1.0000   1.0000   1.0000   1.0000   1.0000
     1.0000   1.0000   1.0000   1.0000   1.0000   1.0000   1.0000   1.0000
     1.0000   1.0000   1.0000   1.0000   1.0000   1.0000   1.0000   1.0000
     1.0000   1.0000   1.0000   1.0000   1.0000   1.0000   1.0000   1.0000
     1.0000   1.0000   1.0000   1.0000   1.0000   1.0000   1.0000   1.0000
     1.0000   1.0000   1.0000   1.0000   1.0000   1.0000   1.0000   1.0000
     1.0000   1.0000   1.0000   1.0000   1.0000   1.0000   1.0000   1.0000
     1.0000   1.0000   1.0000   1.0000   1.0000   1.0000   1.0000   1.0000
     1.0000   1.0000   1.0000   1.0000   1.0000   1.0000   1.0000   1.0000
     1.0000   1.0000   1.0000   1.0000   1.0000   1.0000   1.0000   1.0000
     1.0000   1.0000   1.0000   1.0000   1.0000   1.0000   0.9999   0.9999
     0.9999   0.9998   0.9998   0.9998   0.9997   0.9996   0.9996   0.9994
     0.9988   0.9985   0.9983   0.9981   0.9980   0.9973   0.9963   0.9940
     0.9935   0.9920   0.9917   0.9901   0.9891   0.9886   0.9862   0.9824
     0.9819   0.9791   0.9776   0.9731   0.9585   0.9458   0.9386   0.9355
     0.9059   0.9042   0.8987   0.8969   0.8866   0.8861   0.8506   0.8393
     0.8287   0.8212   0.8134   0.7792   0.7325   0.7142   0.7110   0.7081
     0.6727   0.6691   0.6576   0.6534   0.6484   0.6418   0.6371   0.6291
     0.6253   0.6204   0.6154   0.6113   0.5995   0.5873   0.5845   0.5773
     0.5649   0.4949   0.4450   0.1236   0.0508   0.0159   0.0109   0.0054
     0.0001   0.0000   0.0000   0.0000   0.0000   0.0000   0.0000   0.0000
     0.0000   0.0000   0.0000   0.0000   0.0000   0.0000   0.0000   0.0000
     0.0000   0.0000   0.0000   0.0000   0.0000   0.0000   0.0000   0.0000
     0.0000   0.0000   0.0000

          k = 0.0000 0.2500 0.0000 ( 65257 PWs)   bands (ev):

   -92.7082 -92.6615 -92.5634 -92.5148 -92.4587 -92.4149 -92.3974 -92.2767
   -56.0617 -56.0481 -55.9202 -55.9090 -55.9027 -55.8958 -55.8642 -55.8322
   -55.8160 -55.8144 -55.8114 -55.7657 -55.7454 -55.7096 -55.6903 -55.6588
   -55.6502 -55.6031 -55.6031 -55.6001 -55.5917 -55.5520 -55.5277 -55.4420
   -31.2848 -31.2654 -31.1242 -31.0373 -30.9952 -30.9834 -30.8101 -30.7662
   -29.8544 -29.8113 -29.7871 -29.6785 -15.0521 -15.0143 -14.9378 -14.8038
   -14.6771 -14.5042 -14.3709 -14.1916 -14.1520 -14.1344 -14.1057 -14.0463
   -14.0406 -14.0251 -14.0010 -13.9629 -13.9484 -13.8553 -13.8136 -13.6544
   -13.6211 -13.5838 -13.5464 -13.4807 -13.4590 -13.4102 -13.3492 -13.3147
   -13.2411 -13.1710 -13.1543 -13.1157 -13.0964 -13.0088 -12.9946 -12.9681
   -12.9421 -12.9095 -12.8925 -12.8737 -12.8073 -12.7993 -12.7822 -12.7482
   -12.7419 -12.7272 -12.6779 -12.5536 -12.4858 -12.4111 -12.2547 -12.0862
   -12.0227 -11.8339 -11.7911 -11.7632 -11.7352 -11.7186 -11.6710 -11.6599
   -11.6373 -11.6027 -11.5013 -11.4486 -11.4380  -2.8123  -2.5921  -2.4540
    -2.2712  -2.2281  -2.0653  -1.8430  -1.7615  -1.7484  -1.6851  -1.5874
    -1.5715  -1.5382  -1.5102  -1.4663  -1.2696  -1.1416  -1.1287  -1.1046
    -1.0482  -1.0392  -0.9371  -0.9084  -0.8491  -0.8217  -0.7844  -0.7177
    -0.6905  -0.6590  -0.6299  -0.6127  -0.5794  -0.5077  -0.4555  -0.3716
    -0.2751  -0.2386  -0.1825  -0.0971  -0.0565   0.0150   0.0554   0.1109
     0.1250   0.1526   0.2108   0.5174   0.6046   0.6420   0.7218   0.7676
     0.7899   0.9034   0.9213   1.0181   1.0444   1.0705   1.1850   1.2823
     1.3003   1.3275   1.3490   1.3684   1.4285   1.4576   1.4845   1.5310
     1.5665   1.6019   1.6908   1.7257   1.7495   1.8075   1.8579   1.8943
     1.9234   1.9540   1.9654   2.0743   2.1910   2.2621   2.2818   2.3530
     2.3972   2.4334   2.4406   2.4494   2.4593   2.5122   2.5475   2.6331
     2.6844   2.6994   2.8596   2.8795   2.9135   2.9385   2.9524   2.9615
     2.9668   2.9757   3.0059   3.0083   3.0258   3.0364   3.0401   3.0611
     3.0718   3.0796   3.1003   3.1111   3.1173   3.1520   3.1685   3.2273
     3.5928   3.6337   3.8747   4.2890   4.4153   4.7115   5.0171   5.0580
     5.6409   5.8266   5.9589   6.0128   6.0809   6.1030   6.1777   6.5955
     6.9011   7.0976   7.1424   7.3265   7.4817   7.4952   7.6409   7.7078
     7.8557   7.9755   8.0904   8.1941   8.2649   8.3622   8.4037   8.4265
     8.4938   8.7954   8.9446

     occupation numbers 
     1.0000   1.0000   1.0000   1.0000   1.0000   1.0000   1.0000   1.0000
     1.0000   1.0000   1.0000   1.0000   1.0000   1.0000   1.0000   1.0000
     1.0000   1.0000   1.0000   1.0000   1.0000   1.0000   1.0000   1.0000
     1.0000   1.0000   1.0000   1.0000   1.0000   1.0000   1.0000   1.0000
     1.0000   1.0000   1.0000   1.0000   1.0000   1.0000   1.0000   1.0000
     1.0000   1.0000   1.0000   1.0000   1.0000   1.0000   1.0000   1.0000
     1.0000   1.0000   1.0000   1.0000   1.0000   1.0000   1.0000   1.0000
     1.0000   1.0000   1.0000   1.0000   1.0000   1.0000   1.0000   1.0000
     1.0000   1.0000   1.0000   1.0000   1.0000   1.0000   1.0000   1.0000
     1.0000   1.0000   1.0000   1.0000   1.0000   1.0000   1.0000   1.0000
     1.0000   1.0000   1.0000   1.0000   1.0000   1.0000   1.0000   1.0000
     1.0000   1.0000   1.0000   1.0000   1.0000   1.0000   1.0000   1.0000
     1.0000   1.0000   1.0000   1.0000   1.0000   1.0000   1.0000   1.0000
     1.0000   1.0000   1.0000   1.0000   1.0000   1.0000   1.0000   1.0000
     1.0000   1.0000   1.0000   1.0000   1.0000   1.0000   1.0000   1.0000
     1.0000   1.0000   1.0000   1.0000   1.0000   1.0000   1.0000   1.0000
     1.0000   1.0000   1.0000   1.0000   1.0000   1.0000   1.0000   1.0000
     1.0000   1.0000   1.0000   1.0000   1.0000   1.0000   1.0000   1.0000
     1.0000   1.0000   1.0000   1.0000   1.0000   1.0000   1.0000   1.0000
     1.0000   1.0000   1.0000   1.0000   1.0000   1.0000   0.9999   0.9999
     0.9999   0.9998   0.9998   0.9997   0.9996   0.9996   0.9992   0.9988
     0.9986   0.9984   0.9983   0.9981   0.9975   0.9971   0.9968   0.9960
     0.9954   0.9946   0.9922   0.9910   0.9901   0.9876   0.9850   0.9828
     0.9809   0.9787   0.9778   0.9677   0.9531   0.9418   0.9383   0.9243
     0.9145   0.9058   0.9040   0.9018   0.8992   0.8846   0.8741   0.8459
     0.8271   0.8213   0.7526   0.7431   0.7266   0.7141   0.7070   0.7024
     0.6996   0.6951   0.6792   0.6779   0.6685   0.6628   0.6608   0.6493
     0.6434   0.6391   0.6275   0.6214   0.6179   0.5981   0.5886   0.5543
     0.3423   0.3203   0.2048   0.0750   0.0518   0.0194   0.0059   0.0049
     0.0003   0.0001   0.0000   0.0000   0.0000   0.0000   0.0000   0.0000
     0.0000   0.0000   0.0000   0.0000   0.0000   0.0000   0.0000   0.0000
     0.0000   0.0000   0.0000   0.0000   0.0000   0.0000   0.0000   0.0000
     0.0000   0.0000   0.0000

          k = 0.0000-0.5000 0.0000 ( 65180 PWs)   bands (ev):

   -92.7082 -92.6615 -92.5634 -92.5148 -92.4587 -92.4149 -92.3974 -92.2767
   -56.0617 -56.0481 -55.9202 -55.9090 -55.9027 -55.8958 -55.8642 -55.8322
   -55.8160 -55.8144 -55.8114 -55.7657 -55.7454 -55.7096 -55.6903 -55.6588
   -55.6502 -55.6031 -55.6031 -55.6001 -55.5917 -55.5520 -55.5277 -55.4420
   -31.2846 -31.2653 -31.1244 -31.0374 -30.9915 -30.9870 -30.8094 -30.7670
   -29.8537 -29.8110 -29.7878 -29.6788 -15.0151 -14.9667 -14.9136 -14.7822
   -14.7019 -14.5630 -14.4091 -14.2828 -14.1646 -14.0886 -14.0475 -14.0402
   -13.9914 -13.9771 -13.9613 -13.9298 -13.8966 -13.8822 -13.8439 -13.7892
   -13.7689 -13.5906 -13.5310 -13.4806 -13.4637 -13.4025 -13.3651 -13.3188
   -13.2903 -13.2621 -13.2250 -13.1165 -13.0971 -12.9873 -12.9734 -12.9623
   -12.9518 -12.9358 -12.8888 -12.7960 -12.7750 -12.7484 -12.7346 -12.7130
   -12.7040 -12.6838 -12.6590 -12.5220 -12.3999 -12.3296 -12.2662 -12.1994
   -12.1620 -11.7880 -11.7854 -11.7582 -11.7214 -11.6868 -11.6756 -11.6324
   -11.6287 -11.5840 -11.5232 -11.5095 -11.4953  -2.5968  -2.5393  -2.3889
    -2.3171  -2.0317  -1.9515  -1.8238  -1.6876  -1.6432  -1.6299  -1.5524
    -1.5193  -1.4387  -1.4030  -1.3231  -1.2854  -1.2475  -1.2200  -1.1602
    -1.1274  -1.1043  -1.0738  -1.0366  -1.0092  -0.9741  -0.8648  -0.8208
    -0.7832  -0.7783  -0.6927  -0.6639  -0.6422  -0.5953  -0.5002  -0.4375
    -0.3438  -0.2776  -0.2134  -0.1823  -0.0370   0.0323   0.0469   0.0800
     0.1986   0.2644   0.3846   0.4557   0.4669   0.5902   0.6648   0.7377
     0.8701   0.9733   1.0076   1.0470   1.0620   1.0928   1.1078   1.1423
     1.1599   1.1732   1.2801   1.3405   1.3779   1.4111   1.6796   1.6945
     1.7145   1.8021   1.8280   1.8652   1.8798   1.9052   1.9252   1.9292
     1.9530   2.0017   2.0255   2.0597   2.0628   2.0927   2.1449   2.2374
     2.2693   2.4324   2.4416   2.4531   2.5979   2.6099   2.6241   2.6646
     2.6745   2.6815   2.7267   2.7371   2.7916   2.8121   2.8925   2.9117
     2.9763   2.9804   3.0062   3.0108   3.0230   3.0265   3.0305   3.0383
     3.0412   3.0526   3.0709   3.0717   3.1371   3.1417   3.1580   3.2125
     4.1180   4.1307   4.1784   4.2637   4.7318   4.8978   5.0198   5.1804
     5.4100   5.4590   5.5810   5.7419   6.0341   6.0389   6.3909   6.4960
     6.8494   6.9509   7.2131   7.3188   7.4262   7.4970   7.7468   7.8295
     7.9033   8.0950   8.1336   8.3018   8.3255   8.3811   8.4895   8.6605
     8.8018   8.8161   8.8597

     occupation numbers 
     1.0000   1.0000   1.0000   1.0000   1.0000   1.0000   1.0000   1.0000
     1.0000   1.0000   1.0000   1.0000   1.0000   1.0000   1.0000   1.0000
     1.0000   1.0000   1.0000   1.0000   1.0000   1.0000   1.0000   1.0000
     1.0000   1.0000   1.0000   1.0000   1.0000   1.0000   1.0000   1.0000
     1.0000   1.0000   1.0000   1.0000   1.0000   1.0000   1.0000   1.0000
     1.0000   1.0000   1.0000   1.0000   1.0000   1.0000   1.0000   1.0000
     1.0000   1.0000   1.0000   1.0000   1.0000   1.0000   1.0000   1.0000
     1.0000   1.0000   1.0000   1.0000   1.0000   1.0000   1.0000   1.0000
     1.0000   1.0000   1.0000   1.0000   1.0000   1.0000   1.0000   1.0000
     1.0000   1.0000   1.0000   1.0000   1.0000   1.0000   1.0000   1.0000
     1.0000   1.0000   1.0000   1.0000   1.0000   1.0000   1.0000   1.0000
     1.0000   1.0000   1.0000   1.0000   1.0000   1.0000   1.0000   1.0000
     1.0000   1.0000   1.0000   1.0000   1.0000   1.0000   1.0000   1.0000
     1.0000   1.0000   1.0000   1.0000   1.0000   1.0000   1.0000   1.0000
     1.0000   1.0000   1.0000   1.0000   1.0000   1.0000   1.0000   1.0000
     1.0000   1.0000   1.0000   1.0000   1.0000   1.0000   1.0000   1.0000
     1.0000   1.0000   1.0000   1.0000   1.0000   1.0000   1.0000   1.0000
     1.0000   1.0000   1.0000   1.0000   1.0000   1.0000   1.0000   1.0000
     1.0000   1.0000   1.0000   1.0000   1.0000   1.0000   1.0000   1.0000
     1.0000   1.0000   1.0000   1.0000   1.0000   1.0000   1.0000   0.9999
     0.9999   0.9998   0.9997   0.9996   0.9996   0.9995   0.9995   0.9994
     0.9993   0.9993   0.9988   0.9983   0.9980   0.9977   0.9925   0.9921
     0.9914   0.9879   0.9866   0.9846   0.9837   0.9821   0.9808   0.9805
     0.9788   0.9748   0.9726   0.9693   0.9690   0.9657   0.9594   0.9459
     0.9405   0.9061   0.9037   0.9008   0.8580   0.8539   0.8490   0.8345
     0.8308   0.8282   0.8106   0.8063   0.7834   0.7743   0.7369   0.7275
     0.6947   0.6926   0.6790   0.6766   0.6700   0.6681   0.6660   0.6618
     0.6602   0.6539   0.6439   0.6434   0.6066   0.6040   0.5947   0.5630
     0.1178   0.1141   0.1010   0.0804   0.0180   0.0095   0.0058   0.0029
     0.0010   0.0007   0.0004   0.0002   0.0000   0.0000   0.0000   0.0000
     0.0000   0.0000   0.0000   0.0000   0.0000   0.0000   0.0000   0.0000
     0.0000   0.0000   0.0000   0.0000   0.0000   0.0000   0.0000   0.0000
     0.0000   0.0000   0.0000

          k = 0.2500 0.2500 0.0000 ( 65198 PWs)   bands (ev):

   -92.7082 -92.6615 -92.5634 -92.5148 -92.4587 -92.4149 -92.3974 -92.2767
   -56.0617 -56.0481 -55.9202 -55.9090 -55.9027 -55.8958 -55.8642 -55.8322
   -55.8160 -55.8144 -55.8114 -55.7657 -55.7454 -55.7096 -55.6903 -55.6588
   -55.6502 -55.6031 -55.6031 -55.6001 -55.5917 -55.5520 -55.5277 -55.4420
   -31.2831 -31.2671 -31.1238 -31.0377 -30.9950 -30.9832 -30.8103 -30.7664
   -29.8534 -29.8123 -29.7867 -29.6789 -15.0231 -14.9795 -14.9098 -14.7934
   -14.6692 -14.5465 -14.4765 -14.2659 -14.1145 -14.1009 -14.0641 -14.0341
   -14.0124 -13.9833 -13.9622 -13.9454 -13.9111 -13.8457 -13.8268 -13.6700
   -13.6545 -13.6238 -13.6062 -13.5228 -13.5114 -13.4400 -13.4324 -13.3005
   -13.2587 -13.2354 -13.1486 -13.1085 -13.0561 -13.0251 -12.9862 -12.9715
   -12.9524 -12.9244 -12.8893 -12.8337 -12.7913 -12.7656 -12.7515 -12.7236
   -12.7203 -12.6896 -12.6719 -12.4925 -12.4596 -12.3917 -12.2838 -12.1185
   -12.0707 -11.8062 -11.7746 -11.7637 -11.7566 -11.6939 -11.6594 -11.6528
   -11.6173 -11.6094 -11.5180 -11.4770 -11.4594  -2.6738  -2.4663  -2.3483
    -2.2517  -2.1332  -2.0687  -1.8675  -1.7259  -1.7071  -1.6730  -1.5818
    -1.5485  -1.4539  -1.4260  -1.3758  -1.2455  -1.1970  -1.1259  -1.1046
    -1.0780  -1.0298  -1.0087  -0.9863  -0.9442  -0.9287  -0.8374  -0.7880
    -0.7167  -0.6694  -0.6426  -0.5950  -0.5808  -0.5159  -0.4651  -0.3958
    -0.3718  -0.2750  -0.2348  -0.1972  -0.1654  -0.1115  -0.0376   0.0008
     0.0405   0.1010   0.1361   0.4061   0.5596   0.5884   0.6542   0.6872
     0.7484   0.7924   0.8611   0.9008   1.1730   1.2354   1.3093   1.3321
     1.3888   1.4131   1.4507   1.4878   1.5035   1.5313   1.5774   1.5856
     1.6040   1.6516   1.6848   1.7238   1.7805   1.8164   1.8349   1.8593
     1.8964   1.9541   1.9769   2.1109   2.1706   2.2067   2.2280   2.2981
     2.3578   2.3882   2.4238   2.4341   2.4518   2.4596   2.4648   2.5755
     2.6224   2.7126   2.8697   2.8883   2.8922   2.9087   2.9243   2.9379
     2.9498   2.9554   2.9681   2.9813   2.9980   3.0108   3.0171   3.0296
     3.0553   3.0632   3.0721   3.1033   3.4038   3.4956   3.5461   3.6107
     3.6220   3.8579   3.9465   4.2978   4.5023   4.7172   4.9742   5.1656
     5.6426   5.7011   5.7944   5.8320   5.8908   6.1439   6.1607   6.2112
     6.8921   7.0159   7.2106   7.2520   7.5485   7.6014   7.7083   7.8641
     7.8946   8.0310   8.1491   8.2295   8.3369   8.4094   8.4411   8.5183
     8.5645   8.6433   8.8978

     occupation numbers 
     1.0000   1.0000   1.0000   1.0000   1.0000   1.0000   1.0000   1.0000
     1.0000   1.0000   1.0000   1.0000   1.0000   1.0000   1.0000   1.0000
     1.0000   1.0000   1.0000   1.0000   1.0000   1.0000   1.0000   1.0000
     1.0000   1.0000   1.0000   1.0000   1.0000   1.0000   1.0000   1.0000
     1.0000   1.0000   1.0000   1.0000   1.0000   1.0000   1.0000   1.0000
     1.0000   1.0000   1.0000   1.0000   1.0000   1.0000   1.0000   1.0000
     1.0000   1.0000   1.0000   1.0000   1.0000   1.0000   1.0000   1.0000
     1.0000   1.0000   1.0000   1.0000   1.0000   1.0000   1.0000   1.0000
     1.0000   1.0000   1.0000   1.0000   1.0000   1.0000   1.0000   1.0000
     1.0000   1.0000   1.0000   1.0000   1.0000   1.0000   1.0000   1.0000
     1.0000   1.0000   1.0000   1.0000   1.0000   1.0000   1.0000   1.0000
     1.0000   1.0000   1.0000   1.0000   1.0000   1.0000   1.0000   1.0000
     1.0000   1.0000   1.0000   1.0000   1.0000   1.0000   1.0000   1.0000
     1.0000   1.0000   1.0000   1.0000   1.0000   1.0000   1.0000   1.0000
     1.0000   1.0000   1.0000   1.0000   1.0000   1.0000   1.0000   1.0000
     1.0000   1.0000   1.0000   1.0000   1.0000   1.0000   1.0000   1.0000
     1.0000   1.0000   1.0000   1.0000   1.0000   1.0000   1.0000   1.0000
     1.0000   1.0000   1.0000   1.0000   1.0000   1.0000   1.0000   1.0000
     1.0000   1.0000   1.0000   1.0000   1.0000   1.0000   1.0000   1.0000
     1.0000   1.0000   1.0000   1.0000   1.0000   1.0000   1.0000   1.0000
     0.9999   0.9999   0.9999   0.9998   0.9993   0.9990   0.9986   0.9984
     0.9979   0.9977   0.9972   0.9967   0.9965   0.9960   0.9952   0.9950
     0.9946   0.9934   0.9924   0.9911   0.9888   0.9872   0.9862   0.9849
     0.9827   0.9787   0.9769   0.9636   0.9560   0.9507   0.9474   0.9353
     0.9233   0.9166   0.9082   0.9056   0.9012   0.8991   0.8978   0.8653
     0.8496   0.8162   0.7478   0.7389   0.7370   0.7290   0.7212   0.7144
     0.7084   0.7055   0.6990   0.6921   0.6833   0.6766   0.6732   0.6665
     0.6525   0.6481   0.6432   0.6258   0.4500   0.3967   0.3681   0.3326
     0.3265   0.2119   0.1758   0.0731   0.0395   0.0190   0.0070   0.0031
     0.0003   0.0002   0.0001   0.0001   0.0001   0.0000   0.0000   0.0000
     0.0000   0.0000   0.0000   0.0000   0.0000   0.0000   0.0000   0.0000
     0.0000   0.0000   0.0000   0.0000   0.0000   0.0000   0.0000   0.0000
     0.0000   0.0000   0.0000

          k = 0.2500-0.5000 0.0000 ( 65138 PWs)   bands (ev):

   -92.7082 -92.6615 -92.5634 -92.5148 -92.4587 -92.4149 -92.3974 -92.2767
   -56.0617 -56.0481 -55.9202 -55.9090 -55.9027 -55.8958 -55.8642 -55.8322
   -55.8160 -55.8144 -55.8114 -55.7657 -55.7454 -55.7096 -55.6903 -55.6588
   -55.6502 -55.6031 -55.6031 -55.6001 -55.5917 -55.5520 -55.5277 -55.4420
   -31.2829 -31.2670 -31.1241 -31.0378 -30.9913 -30.9869 -30.8095 -30.7671
   -29.8528 -29.8119 -29.7874 -29.6793 -14.9844 -14.9398 -14.8705 -14.7530
   -14.7239 -14.6045 -14.5120 -14.3811 -14.0796 -14.0237 -13.9986 -13.9764
   -13.9634 -13.9576 -13.9495 -13.9132 -13.8860 -13.8556 -13.8254 -13.7898
   -13.7507 -13.6725 -13.6242 -13.5461 -13.5349 -13.4758 -13.4480 -13.3562
   -13.3183 -13.2140 -13.1493 -13.1258 -13.0403 -12.9991 -12.9841 -12.9533
   -12.9383 -12.9231 -12.9162 -12.7994 -12.7851 -12.7567 -12.7420 -12.7091
   -12.6936 -12.6624 -12.6311 -12.5286 -12.3816 -12.3271 -12.2448 -12.1879
   -12.1625 -11.7818 -11.7697 -11.7590 -11.7319 -11.7001 -11.6721 -11.6301
   -11.6033 -11.5807 -11.5363 -11.5106 -11.4993  -2.4543  -2.3912  -2.2626
    -2.1858  -2.0523  -1.9712  -1.8481  -1.6981  -1.6409  -1.6205  -1.5594
    -1.5466  -1.4494  -1.3816  -1.2977  -1.2456  -1.2365  -1.1750  -1.1331
    -1.1052  -1.0965  -1.0488  -1.0087  -0.9772  -0.9386  -0.9256  -0.8812
    -0.8516  -0.8054  -0.7779  -0.7098  -0.6022  -0.5716  -0.4878  -0.4222
    -0.3657  -0.3283  -0.3139  -0.2429  -0.1011  -0.0913   0.0439   0.0503
     0.0600   0.1017   0.1395   0.1708   0.2058   0.2706   0.5636   0.6578
     0.7030   0.7587   1.0395   1.0510   1.1454   1.1695   1.3332   1.3741
     1.4073   1.4314   1.4439   1.4671   1.5327   1.5854   1.6183   1.6869
     1.7882   1.8182   1.8400   1.8495   1.8868   1.9019   1.9070   1.9514
     1.9630   1.9826   2.0197   2.0302   2.0538   2.0873   2.1446   2.1923
     2.2695   2.3997   2.4370   2.4540   2.5496   2.5663   2.5846   2.6205
     2.6391   2.6649   2.6850   2.6990   2.7220   2.8182   2.8715   2.8883
     2.8990   2.9062   2.9260   2.9398   2.9587   2.9674   3.0097   3.0166
     3.0267   3.0335   3.0436   3.0529   3.5687   3.5951   3.7354   3.7884
     4.1194   4.1790   4.1869   4.3166   4.7514   4.9195   5.0558   5.1429
     5.2983   5.4313   5.6051   5.6612   5.7658   5.7900   6.3926   6.4821
     6.5051   6.6314   7.3667   7.4190   7.5903   7.6978   7.7315   7.8118
     7.8766   8.0357   8.3517   8.4383   8.4701   8.5428   8.5582   8.5747
     8.6845   8.7108   8.7685

     occupation numbers 
     1.0000   1.0000   1.0000   1.0000   1.0000   1.0000   1.0000   1.0000
     1.0000   1.0000   1.0000   1.0000   1.0000   1.0000   1.0000   1.0000
     1.0000   1.0000   1.0000   1.0000   1.0000   1.0000   1.0000   1.0000
     1.0000   1.0000   1.0000   1.0000   1.0000   1.0000   1.0000   1.0000
     1.0000   1.0000   1.0000   1.0000   1.0000   1.0000   1.0000   1.0000
     1.0000   1.0000   1.0000   1.0000   1.0000   1.0000   1.0000   1.0000
     1.0000   1.0000   1.0000   1.0000   1.0000   1.0000   1.0000   1.0000
     1.0000   1.0000   1.0000   1.0000   1.0000   1.0000   1.0000   1.0000
     1.0000   1.0000   1.0000   1.0000   1.0000   1.0000   1.0000   1.0000
     1.0000   1.0000   1.0000   1.0000   1.0000   1.0000   1.0000   1.0000
     1.0000   1.0000   1.0000   1.0000   1.0000   1.0000   1.0000   1.0000
     1.0000   1.0000   1.0000   1.0000   1.0000   1.0000   1.0000   1.0000
     1.0000   1.0000   1.0000   1.0000   1.0000   1.0000   1.0000   1.0000
     1.0000   1.0000   1.0000   1.0000   1.0000   1.0000   1.0000   1.0000
     1.0000   1.0000   1.0000   1.0000   1.0000   1.0000   1.0000   1.0000
     1.0000   1.0000   1.0000   1.0000   1.0000   1.0000   1.0000   1.0000
     1.0000   1.0000   1.0000   1.0000   1.0000   1.0000   1.0000   1.0000
     1.0000   1.0000   1.0000   1.0000   1.0000   1.0000   1.0000   1.0000
     1.0000   1.0000   1.0000   1.0000   1.0000   1.0000   1.0000   1.0000
     1.0000   1.0000   1.0000   1.0000   1.0000   1.0000   1.0000   1.0000
     0.9999   0.9999   0.9996   0.9996   0.9994   0.9993   0.9984   0.9981
     0.9977   0.9975   0.9973   0.9970   0.9960   0.9950   0.9942   0.9923
     0.9885   0.9871   0.9860   0.9855   0.9833   0.9823   0.9820   0.9789
     0.9780   0.9764   0.9732   0.9722   0.9699   0.9663   0.9594   0.9529
     0.9405   0.9139   0.9049   0.9006   0.8735   0.8682   0.8623   0.8503
     0.8438   0.8344   0.8269   0.8215   0.8124   0.7716   0.7469   0.7389
     0.7337   0.7302   0.7204   0.7135   0.7038   0.6993   0.6771   0.6735
     0.6680   0.6644   0.6589   0.6538   0.3556   0.3410   0.2683   0.2430
     0.1174   0.1009   0.0988   0.0693   0.0167   0.0087   0.0050   0.0034
     0.0016   0.0009   0.0003   0.0003   0.0001   0.0001   0.0000   0.0000
     0.0000   0.0000   0.0000   0.0000   0.0000   0.0000   0.0000   0.0000
     0.0000   0.0000   0.0000   0.0000   0.0000   0.0000   0.0000   0.0000
     0.0000   0.0000   0.0000

          k =-0.5000-0.5000 0.0000 ( 65132 PWs)   bands (ev):

   -92.7082 -92.6615 -92.5634 -92.5148 -92.4587 -92.4149 -92.3974 -92.2767
   -56.0617 -56.0481 -55.9202 -55.9090 -55.9027 -55.8958 -55.8642 -55.8322
   -55.8160 -55.8144 -55.8114 -55.7657 -55.7454 -55.7096 -55.6903 -55.6588
   -55.6502 -55.6031 -55.6031 -55.6001 -55.5917 -55.5520 -55.5277 -55.4420
   -31.2807 -31.2692 -31.1237 -31.0382 -30.9912 -30.9868 -30.8097 -30.7673
   -29.8518 -29.8130 -29.7870 -29.6797 -14.9374 -14.9127 -14.7955 -14.7824
   -14.6861 -14.6528 -14.6139 -14.4813 -13.9894 -13.9777 -13.9624 -13.9430
   -13.9255 -13.9081 -13.8835 -13.8648 -13.8546 -13.8401 -13.8278 -13.8093
   -13.7394 -13.7330 -13.6948 -13.6683 -13.6187 -13.5625 -13.5052 -13.3971
   -13.3633 -13.1642 -13.1231 -13.0572 -13.0326 -12.9984 -12.9913 -12.9818
   -12.9635 -12.9208 -12.8902 -12.8004 -12.7769 -12.7584 -12.7486 -12.7215
   -12.7169 -12.6123 -12.6045 -12.5449 -12.3643 -12.3234 -12.2214 -12.1764
   -12.1648 -11.7785 -11.7661 -11.7480 -11.7314 -11.6961 -11.6783 -11.6443
   -11.5838 -11.5633 -11.5585 -11.5083 -11.5050  -2.2277  -2.1551  -2.1481
    -2.0747  -2.0360  -1.9577  -1.8899  -1.7626  -1.6484  -1.6189  -1.5753
    -1.5224  -1.4498  -1.4355  -1.3650  -1.3224  -1.2042  -1.1741  -1.1267
    -1.1028  -1.0992  -1.0344  -0.9867  -0.9694  -0.9569  -0.8994  -0.8597
    -0.8380  -0.7280  -0.6721  -0.6268  -0.5775  -0.5466  -0.5248  -0.4974
    -0.4610  -0.4172  -0.4075  -0.3269  -0.2601  -0.2175  -0.1881  -0.1172
    -0.0544  -0.0506   0.0116   0.0438   0.0550   0.0952   0.5431   0.5779
     0.6487   0.6709   1.0629   1.0759   1.1148   1.1547   1.4201   1.4376
     1.4456   1.4944   1.6116   1.7063   1.7337   1.7701   1.7985   1.8128
     1.8229   1.8535   1.8661   1.8822   1.8921   1.9419   1.9450   1.9728
     1.9861   2.0070   2.0240   2.0603   2.0864   2.1019   2.1301   2.1652
     2.2271   2.2964   2.4333   2.4525   2.5631   2.5935   2.6152   2.6309
     2.6433   2.6734   2.6749   2.6941   2.7053   2.7219   2.7445   2.7544
     2.8201   2.8242   2.8445   2.8587   2.8756   2.8967   2.8988   2.9050
     3.0151   3.0219   3.0377   3.0521   4.0006   4.0383   4.0459   4.0787
     4.3118   4.3868   4.4113   4.6506   4.7742   4.8565   4.9860   5.0776
     5.0858   5.2021   5.2911   5.4669   5.8564   5.8849   5.9528   6.0275
     6.7388   6.9460   6.9885   7.0639   7.8850   7.9236   7.9583   7.9629
     7.9819   8.0170   8.0847   8.2666   8.5197   8.5838   8.6158   8.6544
     8.6656   8.7966   8.8197

     occupation numbers 
     1.0000   1.0000   1.0000   1.0000   1.0000   1.0000   1.0000   1.0000
     1.0000   1.0000   1.0000   1.0000   1.0000   1.0000   1.0000   1.0000
     1.0000   1.0000   1.0000   1.0000   1.0000   1.0000   1.0000   1.0000
     1.0000   1.0000   1.0000   1.0000   1.0000   1.0000   1.0000   1.0000
     1.0000   1.0000   1.0000   1.0000   1.0000   1.0000   1.0000   1.0000
     1.0000   1.0000   1.0000   1.0000   1.0000   1.0000   1.0000   1.0000
     1.0000   1.0000   1.0000   1.0000   1.0000   1.0000   1.0000   1.0000
     1.0000   1.0000   1.0000   1.0000   1.0000   1.0000   1.0000   1.0000
     1.0000   1.0000   1.0000   1.0000   1.0000   1.0000   1.0000   1.0000
     1.0000   1.0000   1.0000   1.0000   1.0000   1.0000   1.0000   1.0000
     1.0000   1.0000   1.0000   1.0000   1.0000   1.0000   1.0000   1.0000
     1.0000   1.0000   1.0000   1.0000   1.0000   1.0000   1.0000   1.0000
     1.0000   1.0000   1.0000   1.0000   1.0000   1.0000   1.0000   1.0000
     1.0000   1.0000   1.0000   1.0000   1.0000   1.0000   1.0000   1.0000
     1.0000   1.0000   1.0000   1.0000   1.0000   1.0000   1.0000   1.0000
     1.0000   1.0000   1.0000   1.0000   1.0000   1.0000   1.0000   1.0000
     1.0000   1.0000   1.0000   1.0000   1.0000   1.0000   1.0000   1.0000
     1.0000   1.0000   1.0000   1.0000   1.0000   1.0000   1.0000   1.0000
     1.0000   1.0000   1.0000   1.0000   1.0000   1.0000   1.0000   1.0000
     1.0000   1.0000   1.0000   1.0000   1.0000   1.0000   1.0000   1.0000
     1.0000   1.0000   0.9996   0.9996   0.9995   0.9993   0.9976   0.9974
     0.9973   0.9966   0.9944   0.9917   0.9907   0.9893   0.9880   0.9874
     0.9869   0.9852   0.9845   0.9836   0.9830   0.9796   0.9794   0.9772
     0.9761   0.9743   0.9728   0.9692   0.9664   0.9647   0.9613   0.9567
     0.9476   0.9356   0.9058   0.9010   0.8693   0.8594   0.8521   0.8467
     0.8423   0.8312   0.8307   0.8234   0.8190   0.8125   0.8033   0.7992
     0.7707   0.7689   0.7596   0.7530   0.7450   0.7349   0.7338   0.7308
     0.6743   0.6706   0.6621   0.6542   0.1559   0.1429   0.1403   0.1297
     0.0703   0.0565   0.0525   0.0240   0.0154   0.0112   0.0067   0.0045
     0.0044   0.0026   0.0017   0.0007   0.0001   0.0001   0.0000   0.0000
     0.0000   0.0000   0.0000   0.0000   0.0000   0.0000   0.0000   0.0000
     0.0000   0.0000   0.0000   0.0000   0.0000   0.0000   0.0000   0.0000
     0.0000   0.0000   0.0000

          k = 0.2500 0.0000 0.0000 ( 65257 PWs)   bands (ev):

   -92.7082 -92.6615 -92.5634 -92.5148 -92.4587 -92.4149 -92.3974 -92.2767
   -56.0617 -56.0481 -55.9202 -55.9090 -55.9027 -55.8958 -55.8642 -55.8322
   -55.8160 -55.8144 -55.8114 -55.7657 -55.7454 -55.7096 -55.6903 -55.6588
   -55.6502 -55.6031 -55.6031 -55.6001 -55.5917 -55.5520 -55.5277 -55.4420
   -31.2833 -31.2672 -31.1236 -31.0375 -30.9971 -30.9811 -30.8110 -30.7657
   -29.8540 -29.8126 -29.7861 -29.6786 -15.0558 -15.0097 -14.9429 -14.7972
   -14.6852 -14.4942 -14.3614 -14.1793 -14.1646 -14.1341 -14.1016 -14.0764
   -14.0446 -14.0257 -14.0007 -13.9638 -13.9523 -13.8465 -13.8130 -13.6665
   -13.5960 -13.5788 -13.5071 -13.4961 -13.4804 -13.4206 -13.3521 -13.3198
   -13.2250 -13.1671 -13.1574 -13.0679 -13.0512 -13.0337 -13.0254 -13.0139
   -12.9792 -12.9412 -12.8848 -12.8447 -12.8285 -12.8268 -12.7788 -12.7451
   -12.6978 -12.6493 -12.6420 -12.6002 -12.5214 -12.4132 -12.2557 -12.0836
   -12.0210 -11.8332 -11.7813 -11.7640 -11.7508 -11.7239 -11.6737 -11.6503
   -11.6423 -11.5916 -11.5028 -11.4469 -11.4410  -2.8118  -2.5912  -2.4609
    -2.2875  -2.2237  -2.0551  -1.8437  -1.7705  -1.7266  -1.6870  -1.5899
    -1.5757  -1.5406  -1.5213  -1.4519  -1.2724  -1.1637  -1.1265  -1.1006
    -1.0268  -1.0099  -0.9365  -0.9094  -0.8560  -0.8164  -0.7647  -0.7288
    -0.6836  -0.6602  -0.6409  -0.5865  -0.5728  -0.4817  -0.4715  -0.3958
    -0.3004  -0.2160  -0.1399  -0.1234  -0.0453  -0.0137   0.0398   0.0607
     0.1070   0.1633   0.2087   0.4975   0.6245   0.6687   0.7437   0.7688
     0.8033   0.8170   0.9008   1.0124   1.0607   1.0859   1.1227   1.2788
     1.3041   1.3411   1.3472   1.3852   1.4339   1.4801   1.5086   1.5675
     1.6107   1.6256   1.6827   1.7279   1.7663   1.7953   1.8765   1.8786
     1.9191   1.9426   1.9727   2.0878   2.1550   2.2244   2.2956   2.3047
     2.3807   2.4325   2.4435   2.4648   2.4782   2.5323   2.5404   2.5559
     2.6253   2.7551   2.8525   2.8740   2.9064   2.9338   2.9370   2.9610
     2.9684   2.9833   3.0061   3.0104   3.0363   3.0489   3.0547   3.0664
     3.0870   3.1107   3.1153   3.1224   3.1305   3.1396   3.1491   3.2731
     3.5694   3.6249   3.8771   4.2698   4.4529   4.6817   5.0177   5.0623
     5.6335   5.8337   5.9847   6.0053   6.0692   6.0956   6.1777   6.5830
     6.9119   7.1144   7.1366   7.3295   7.4648   7.5559   7.5890   7.6789
     7.8596   7.9724   8.0873   8.1883   8.3289   8.3465   8.3991   8.4365
     8.4781   8.7900   8.9454

[...]
     0.3552   0.3250   0.2037   0.0791   0.0462   0.0215   0.0058   0.0048
     0.0003   0.0001   0.0000   0.0000   0.0000   0.0000   0.0000   0.0000
     0.0000   0.0000   0.0000   0.0000   0.0000   0.0000   0.0000   0.0000
     0.0000   0.0000   0.0000   0.0000   0.0000   0.0000   0.0000   0.0000
     0.0000   0.0000   0.0000

          k =-0.5000 0.0000 0.0000 ( 65180 PWs)   bands (ev):

   -92.7082 -92.6615 -92.5634 -92.5148 -92.4587 -92.4149 -92.3974 -92.2767
   -56.0617 -56.0481 -55.9202 -55.9090 -55.9027 -55.8958 -55.8642 -55.8322
   -55.8160 -55.8144 -55.8114 -55.7657 -55.7454 -55.7096 -55.6903 -55.6588
   -55.6502 -55.6031 -55.6031 -55.6001 -55.5917 -55.5520 -55.5277 -55.4420
   -31.2811 -31.2694 -31.1233 -31.0379 -30.9970 -30.9809 -30.8112 -30.7658
   -29.8530 -29.8136 -29.7857 -29.6790 -15.0217 -14.9667 -14.9067 -14.7945
   -14.6955 -14.5506 -14.4046 -14.2557 -14.1391 -14.1208 -14.1152 -14.0476
   -13.9987 -13.9658 -13.9622 -13.9139 -13.8988 -13.8868 -13.8426 -13.8144
   -13.7162 -13.5623 -13.5115 -13.4986 -13.4865 -13.4151 -13.3710 -13.3121
   -13.2750 -13.2514 -13.2329 -13.0615 -13.0486 -13.0258 -13.0158 -13.0093
   -12.9538 -12.9325 -12.9244 -12.8450 -12.8277 -12.7308 -12.7019 -12.6479
   -12.6476 -12.6412 -12.6381 -12.5482 -12.4430 -12.3336 -12.3142 -12.1832
   -12.1411 -11.7853 -11.7637 -11.7570 -11.7425 -11.7242 -11.6828 -11.6205
   -11.6028 -11.5698 -11.5253 -11.5163 -11.5005  -2.5875  -2.5494  -2.3865
    -2.3473  -2.0321  -1.9547  -1.8109  -1.6927  -1.6525  -1.6056  -1.5598
    -1.5357  -1.4120  -1.3681  -1.3507  -1.2695  -1.2348  -1.2185  -1.1876
    -1.1275  -1.1047  -1.0598  -1.0324  -0.9962  -0.9057  -0.8606  -0.8095
    -0.7785  -0.7581  -0.7217  -0.6784  -0.6538  -0.6155  -0.5024  -0.4474
    -0.3625  -0.3014  -0.1549  -0.1106  -0.0638   0.0032   0.0348   0.0608
     0.1905   0.2243   0.2682   0.4329   0.5330   0.5813   0.6837   0.7310
     0.8535   0.8648   0.9967   1.0252   1.0806   1.1176   1.1490   1.1563
     1.2074   1.2277   1.2963   1.3435   1.3893   1.4079   1.6976   1.7125
     1.7247   1.7586   1.8518   1.8655   1.8804   1.8867   1.9183   1.9298
     1.9657   1.9909   2.0126   2.0706   2.0871   2.1396   2.1591   2.2179
     2.3245   2.4179   2.4354   2.4637   2.4954   2.5094   2.5949   2.6192
     2.6526   2.7197   2.7280   2.7377   2.7683   2.8291   2.8745   2.9343
     2.9473   2.9936   2.9986   3.0019   3.0102   3.0276   3.0387   3.0507
     3.0577   3.0759   3.0795   3.1023   3.1219   3.1268   3.2551   3.2621
     4.0597   4.1290   4.1885   4.3065   4.7851   4.8594   5.0390   5.0632
     5.4814   5.5077   5.6052   5.6484   6.0272   6.0528   6.4081   6.4891
     6.7943   7.0030   7.2779   7.3013   7.4018   7.4632   7.7713   7.7890
     7.8819   8.1120   8.1978   8.2166   8.3192   8.4603   8.5129   8.6185
     8.7566   8.8191   8.8895

     occupation numbers 
     1.0000   1.0000   1.0000   1.0000   1.0000   1.0000   1.0000   1.0000
     1.0000   1.0000   1.0000   1.0000   1.0000   1.0000   1.0000   1.0000
     1.0000   1.0000   1.0000   1.0000   1.0000   1.0000   1.0000   1.0000
     1.0000   1.0000   1.0000   1.0000   1.0000   1.0000   1.0000   1.0000
     1.0000   1.0000   1.0000   1.0000   1.0000   1.0000   1.0000   1.0000
     1.0000   1.0000   1.0000   1.0000   1.0000   1.0000   1.0000   1.0000
     1.0000   1.0000   1.0000   1.0000   1.0000   1.0000   1.0000   1.0000
     1.0000   1.0000   1.0000   1.0000   1.0000   1.0000   1.0000   1.0000
     1.0000   1.0000   1.0000   1.0000   1.0000   1.0000   1.0000   1.0000
     1.0000   1.0000   1.0000   1.0000   1.0000   1.0000   1.0000   1.0000
     1.0000   1.0000   1.0000   1.0000   1.0000   1.0000   1.0000   1.0000
     1.0000   1.0000   1.0000   1.0000   1.0000   1.0000   1.0000   1.0000
     1.0000   1.0000   1.0000   1.0000   1.0000   1.0000   1.0000   1.0000
     1.0000   1.0000   1.0000   1.0000   1.0000   1.0000   1.0000   1.0000
     1.0000   1.0000   1.0000   1.0000   1.0000   1.0000   1.0000   1.0000
     1.0000   1.0000   1.0000   1.0000   1.0000   1.0000   1.0000   1.0000
     1.0000   1.0000   1.0000   1.0000   1.0000   1.0000   1.0000   1.0000
     1.0000   1.0000   1.0000   1.0000   1.0000   1.0000   1.0000   1.0000
     1.0000   1.0000   1.0000   1.0000   1.0000   1.0000   1.0000   1.0000
     1.0000   1.0000   1.0000   1.0000   1.0000   1.0000   1.0000   0.9999
     0.9999   0.9999   0.9997   0.9997   0.9996   0.9995   0.9994   0.9993
     0.9991   0.9991   0.9987   0.9983   0.9979   0.9977   0.9920   0.9915
     0.9911   0.9898   0.9853   0.9846   0.9837   0.9833   0.9813   0.9805
     0.9778   0.9757   0.9738   0.9681   0.9663   0.9601   0.9575   0.9490
     0.9302   0.9096   0.9053   0.8980   0.8894   0.8854   0.8590   0.8507
     0.8389   0.8134   0.8100   0.8061   0.7933   0.7667   0.7455   0.7162
     0.7097   0.6857   0.6830   0.6813   0.6769   0.6675   0.6616   0.6550
     0.6512   0.6411   0.6391   0.6264   0.6153   0.6125   0.5380   0.5338
     0.1358   0.1146   0.0984   0.0713   0.0148   0.0111   0.0053   0.0048
     0.0007   0.0006   0.0003   0.0003   0.0000   0.0000   0.0000   0.0000
     0.0000   0.0000   0.0000   0.0000   0.0000   0.0000   0.0000   0.0000
     0.0000   0.0000   0.0000   0.0000   0.0000   0.0000   0.0000   0.0000
     0.0000   0.0000   0.0000

          k =-0.2500 0.2500 0.0000 ( 65198 PWs)   bands (ev):

   -92.7082 -92.6615 -92.5634 -92.5148 -92.4587 -92.4149 -92.3974 -92.2767
   -56.0617 -56.0481 -55.9202 -55.9090 -55.9027 -55.8958 -55.8642 -55.8322
   -55.8160 -55.8144 -55.8114 -55.7657 -55.7454 -55.7096 -55.6903 -55.6588
   -55.6502 -55.6031 -55.6031 -55.6001 -55.5917 -55.5520 -55.5277 -55.4420
   -31.2831 -31.2671 -31.1238 -31.0377 -30.9950 -30.9832 -30.8103 -30.7664
   -29.8534 -29.8123 -29.7867 -29.6789 -15.0244 -14.9785 -14.9082 -14.7922
   -14.6748 -14.5517 -14.4684 -14.2565 -14.1209 -14.0923 -14.0767 -14.0301
   -14.0054 -13.9852 -13.9683 -13.9494 -13.9187 -13.8414 -13.8271 -13.6790
   -13.6511 -13.6187 -13.6020 -13.5234 -13.5037 -13.4423 -13.4300 -13.3055
   -13.2603 -13.2296 -13.1529 -13.1097 -13.0464 -13.0149 -12.9938 -12.9723
   -12.9536 -12.9335 -12.8834 -12.8419 -12.7929 -12.7787 -12.7620 -12.7226
   -12.7010 -12.6869 -12.6715 -12.4819 -12.4493 -12.4030 -12.2895 -12.1210
   -12.0675 -11.8053 -11.7839 -11.7569 -11.7447 -11.7035 -11.6692 -11.6458
   -11.6245 -11.6019 -11.5177 -11.4722 -11.4628  -2.6722  -2.4653  -2.3443
    -2.2530  -2.1376  -2.0714  -1.8650  -1.7230  -1.7046  -1.6710  -1.5824
    -1.5474  -1.4539  -1.4191  -1.3931  -1.2518  -1.1955  -1.1305  -1.1049
    -1.0911  -1.0356  -1.0167  -0.9763  -0.9481  -0.9074  -0.8437  -0.7964
    -0.7241  -0.6638  -0.6391  -0.5891  -0.5598  -0.5147  -0.4540  -0.3972
    -0.3678  -0.2607  -0.2369  -0.2127  -0.1714  -0.1157  -0.0421  -0.0011
     0.0500   0.1059   0.1348   0.3850   0.5654   0.5950   0.6416   0.6954
     0.7475   0.7964   0.8675   0.8981   1.1807   1.2865   1.3260   1.3597
     1.3691   1.4069   1.4222   1.4697   1.5003   1.5123   1.5387   1.5875
     1.6036   1.6422   1.6697   1.7094   1.7924   1.8093   1.8345   1.8612
     1.8950   1.9359   1.9836   2.0971   2.2039   2.2284   2.2757   2.2949
     2.3570   2.3993   2.4258   2.4353   2.4527   2.4590   2.4746   2.5756
     2.6213   2.7118   2.8779   2.8843   2.8992   2.9076   2.9191   2.9330
     2.9413   2.9589   2.9696   2.9808   2.9928   3.0028   3.0120   3.0199
     3.0553   3.0650   3.0712   3.1055   3.3972   3.4778   3.5479   3.6123
     3.6339   3.8423   3.9550   4.2971   4.4997   4.7187   4.9838   5.1657
     5.6438   5.6993   5.7985   5.8281   5.8914   6.1476   6.1710   6.1950
     6.8919   7.0236   7.1888   7.2700   7.5622   7.6090   7.6689   7.8813
     7.8932   8.0217   8.1675   8.2251   8.3362   8.4177   8.4431   8.4803
     8.5659   8.6702   8.8982

     occupation numbers 
     1.0000   1.0000   1.0000   1.0000   1.0000   1.0000   1.0000   1.0000
     1.0000   1.0000   1.0000   1.0000   1.0000   1.0000   1.0000   1.0000
     1.0000   1.0000   1.0000   1.0000   1.0000   1.0000   1.0000   1.0000
     1.0000   1.0000   1.0000   1.0000   1.0000   1.0000   1.0000   1.0000
     1.0000   1.0000   1.0000   1.0000   1.0000   1.0000   1.0000   1.0000
     1.0000   1.0000   1.0000   1.0000   1.0000   1.0000   1.0000   1.0000
     1.0000   1.0000   1.0000   1.0000   1.0000   1.0000   1.0000   1.0000
     1.0000   1.0000   1.0000   1.0000   1.0000   1.0000   1.0000   1.0000
     1.0000   1.0000   1.0000   1.0000   1.0000   1.0000   1.0000   1.0000
     1.0000   1.0000   1.0000   1.0000   1.0000   1.0000   1.0000   1.0000
     1.0000   1.0000   1.0000   1.0000   1.0000   1.0000   1.0000   1.0000
     1.0000   1.0000   1.0000   1.0000   1.0000   1.0000   1.0000   1.0000
     1.0000   1.0000   1.0000   1.0000   1.0000   1.0000   1.0000   1.0000
     1.0000   1.0000   1.0000   1.0000   1.0000   1.0000   1.0000   1.0000
     1.0000   1.0000   1.0000   1.0000   1.0000   1.0000   1.0000   1.0000
     1.0000   1.0000   1.0000   1.0000   1.0000   1.0000   1.0000   1.0000
     1.0000   1.0000   1.0000   1.0000   1.0000   1.0000   1.0000   1.0000
     1.0000   1.0000   1.0000   1.0000   1.0000   1.0000   1.0000   1.0000
     1.0000   1.0000   1.0000   1.0000   1.0000   1.0000   1.0000   1.0000
     1.0000   1.0000   1.0000   1.0000   1.0000   1.0000   1.0000   1.0000
     0.9999   0.9999   0.9999   0.9998   0.9993   0.9987   0.9985   0.9982
     0.9981   0.9977   0.9976   0.9970   0.9965   0.9964   0.9959   0.9949
     0.9946   0.9936   0.9928   0.9916   0.9883   0.9875   0.9863   0.9848
     0.9828   0.9800   0.9763   0.9652   0.9512   0.9474   0.9394   0.9359
     0.9235   0.9140   0.9077   0.9053   0.9009   0.8993   0.8951   0.8653
     0.8500   0.8165   0.7439   0.7408   0.7336   0.7295   0.7238   0.7169
     0.7127   0.7037   0.6982   0.6924   0.6861   0.6808   0.6759   0.6717
     0.6525   0.6471   0.6437   0.6246   0.4540   0.4069   0.3671   0.3317
     0.3202   0.2187   0.1726   0.0733   0.0398   0.0189   0.0067   0.0031
     0.0003   0.0002   0.0001   0.0001   0.0001   0.0000   0.0000   0.0000
     0.0000   0.0000   0.0000   0.0000   0.0000   0.0000   0.0000   0.0000
     0.0000   0.0000   0.0000   0.0000   0.0000   0.0000   0.0000   0.0000
     0.0000   0.0000   0.0000

          k =-0.5000 0.2500 0.0000 ( 65138 PWs)   bands (ev):

   -92.7082 -92.6615 -92.5634 -92.5148 -92.4587 -92.4149 -92.3974 -92.2767
   -56.0617 -56.0481 -55.9202 -55.9090 -55.9027 -55.8958 -55.8642 -55.8322
   -55.8160 -55.8144 -55.8114 -55.7657 -55.7454 -55.7096 -55.6903 -55.6588
   -55.6502 -55.6031 -55.6031 -55.6001 -55.5917 -55.5520 -55.5277 -55.4420
   -31.2809 -31.2693 -31.1235 -31.0381 -30.9948 -30.9831 -30.8105 -30.7665
   -29.8524 -29.8133 -29.7863 -29.6793 -14.9885 -14.9406 -14.8637 -14.7618
   -14.7231 -14.5978 -14.5076 -14.3745 -14.0715 -14.0399 -14.0279 -13.9846
   -13.9651 -13.9565 -13.9381 -13.9004 -13.8815 -13.8680 -13.8293 -13.8137
   -13.7088 -13.6445 -13.5953 -13.5875 -13.5456 -13.4762 -13.4609 -13.3509
   -13.3036 -13.2072 -13.1710 -13.0740 -13.0335 -13.0227 -12.9940 -12.9657
   -12.9576 -12.9454 -12.8827 -12.8653 -12.7914 -12.7389 -12.7291 -12.6843
   -12.6754 -12.6293 -12.6214 -12.5463 -12.3997 -12.3288 -12.2704 -12.1778
   -12.1502 -11.7782 -11.7654 -11.7512 -11.7392 -11.7177 -11.6876 -11.6073
   -11.5990 -11.5754 -11.5399 -11.5119 -11.5030  -2.4447  -2.4033  -2.2561
    -2.2139  -2.0520  -1.9734  -1.8350  -1.6986  -1.6401  -1.6139  -1.5757
    -1.5384  -1.4572  -1.3416  -1.2846  -1.2617  -1.2342  -1.1592  -1.1306
    -1.1029  -1.0900  -1.0742  -1.0135  -0.9795  -0.9442  -0.9102  -0.8813
    -0.8222  -0.7951  -0.7543  -0.7170  -0.6108  -0.5888  -0.4841  -0.4396
    -0.4005  -0.3314  -0.2661  -0.2329  -0.1273  -0.0939  -0.0296   0.0146
     0.0793   0.1148   0.1434   0.1753   0.2256   0.2648   0.6056   0.6456
     0.6978   0.7187   1.0098   1.0768   1.1465   1.1774   1.3482   1.3815
     1.4197   1.4311   1.4487   1.4661   1.5364   1.5843   1.6220   1.6623
     1.7684   1.8161   1.8405   1.8505   1.8828   1.9145   1.9318   1.9436
     1.9596   1.9849   2.0271   2.0456   2.0801   2.1060   2.1382   2.1932
     2.3183   2.4092   2.4307   2.4476   2.4576   2.5082   2.5470   2.6100
     2.6481   2.6537   2.6961   2.7252   2.7494   2.8290   2.8734   2.8873
     2.8931   2.9150   2.9341   2.9463   2.9622   2.9748   2.9997   3.0120
     3.0209   3.0306   3.0370   3.0493   3.5808   3.6156   3.7690   3.7877
     4.0692   4.1416   4.1986   4.3938   4.7794   4.8769   5.0436   5.0764
     5.4098   5.4274   5.5872   5.6304   5.7401   5.8109   6.3903   6.4876
     6.5155   6.6285   7.3630   7.4197   7.5761   7.7092   7.7497   7.7925
     7.8861   8.0212   8.3195   8.4491   8.4970   8.5248   8.5745   8.5945
     8.6656   8.7057   8.7547

     occupation numbers 
     1.0000   1.0000   1.0000   1.0000   1.0000   1.0000   1.0000   1.0000
     1.0000   1.0000   1.0000   1.0000   1.0000   1.0000   1.0000   1.0000
     1.0000   1.0000   1.0000   1.0000   1.0000   1.0000   1.0000   1.0000
     1.0000   1.0000   1.0000   1.0000   1.0000   1.0000   1.0000   1.0000
     1.0000   1.0000   1.0000   1.0000   1.0000   1.0000   1.0000   1.0000
     1.0000   1.0000   1.0000   1.0000   1.0000   1.0000   1.0000   1.0000
     1.0000   1.0000   1.0000   1.0000   1.0000   1.0000   1.0000   1.0000
     1.0000   1.0000   1.0000   1.0000   1.0000   1.0000   1.0000   1.0000
     1.0000   1.0000   1.0000   1.0000   1.0000   1.0000   1.0000   1.0000
     1.0000   1.0000   1.0000   1.0000   1.0000   1.0000   1.0000   1.0000
     1.0000   1.0000   1.0000   1.0000   1.0000   1.0000   1.0000   1.0000
     1.0000   1.0000   1.0000   1.0000   1.0000   1.0000   1.0000   1.0000
     1.0000   1.0000   1.0000   1.0000   1.0000   1.0000   1.0000   1.0000
     1.0000   1.0000   1.0000   1.0000   1.0000   1.0000   1.0000   1.0000
     1.0000   1.0000   1.0000   1.0000   1.0000   1.0000   1.0000   1.0000
     1.0000   1.0000   1.0000   1.0000   1.0000   1.0000   1.0000   1.0000
     1.0000   1.0000   1.0000   1.0000   1.0000   1.0000   1.0000   1.0000
     1.0000   1.0000   1.0000   1.0000   1.0000   1.0000   1.0000   1.0000
     1.0000   1.0000   1.0000   1.0000   1.0000   1.0000   1.0000   1.0000
     1.0000   1.0000   1.0000   1.0000   1.0000   1.0000   1.0000   1.0000
     1.0000   0.9999   0.9997   0.9996   0.9994   0.9993   0.9983   0.9980
     0.9976   0.9975   0.9973   0.9970   0.9959   0.9950   0.9941   0.9931
     0.9894   0.9872   0.9859   0.9854   0.9835   0.9815   0.9803   0.9795
     0.9783   0.9762   0.9725   0.9707   0.9671   0.9642   0.9603   0.9528
     0.9314   0.9117   0.9065   0.9022   0.8997   0.8858   0.8743   0.8539
     0.8405   0.8385   0.8226   0.8111   0.8013   0.7667   0.7461   0.7394
     0.7366   0.7259   0.7163   0.7102   0.7020   0.6955   0.6825   0.6759
     0.6711   0.6659   0.6625   0.6558   0.3489   0.3300   0.2521   0.2434
     0.1327   0.1110   0.0958   0.0553   0.0151   0.0104   0.0052   0.0045
     0.0010   0.0009   0.0004   0.0003   0.0002   0.0001   0.0000   0.0000
     0.0000   0.0000   0.0000   0.0000   0.0000   0.0000   0.0000   0.0000
     0.0000   0.0000   0.0000   0.0000   0.0000   0.0000   0.0000   0.0000
     0.0000   0.0000   0.0000

     the Fermi energy is     3.3193 ev

!    total energy              =   -4441.66133105 Ry
     estimated scf accuracy    <          6.4E-09 Ry
     smearing contrib. (-TS)   =      -1.15489706 Ry
     internal energy E=F+TS    =   -4440.50643399 Ry

     The total energy is F=E-TS. E is the sum of the following terms:
     one-electron contribution =  -20802.73244474 Ry
     hartree contribution      =   10533.23452008 Ry
     xc contribution           =    -694.18061452 Ry
     ewald contribution        =    6799.34227018 Ry
     one-center paw contrib.   =    -276.17016500 Ry
      -> PAW hartree energy AE =      25.16090984 Ry
      -> PAW hartree energy PS =     -25.04481811 Ry
      -> PAW xc energy AE      =     -16.51724719 Ry
      -> PAW xc energy PS      =       6.87668461 Ry
      -> total E_H with PAW    =   10533.35061181 Ry
      -> total E_XC with PAW   =    -703.82117710 Ry

     convergence has been achieved in  45 iterations

     Writing all to output data dir /bsuhome/zayahcortright/scratch/pwscf.save/
 
     init_run     :      7.73s CPU      8.75s WALL (       1 calls)
     electrons    :    732.55s CPU    811.34s WALL (       1 calls)

     Called by init_run:
     wfcinit      :      6.25s CPU      6.49s WALL (       1 calls)
     wfcinit:atom :      0.04s CPU      0.07s WALL (       5 calls)
     wfcinit:wfcr :      5.93s CPU      6.08s WALL (       5 calls)
     potinit      :      0.16s CPU      0.19s WALL (       1 calls)
     hinit0       :      0.42s CPU      0.92s WALL (       1 calls)

     Called by electrons:
     c_bands      :    589.24s CPU    600.65s WALL (      45 calls)
     sum_band     :    105.71s CPU    142.21s WALL (      45 calls)
     v_of_rho     :      5.01s CPU      5.45s WALL (      46 calls)
     v_h          :      0.41s CPU      0.41s WALL (      46 calls)
     v_xc         :      4.60s CPU      5.03s WALL (      46 calls)
     newd         :     17.68s CPU     47.73s WALL (      46 calls)
     PAW_pot      :      1.52s CPU      1.54s WALL (      46 calls)
     mix_rho      :     12.60s CPU     13.02s WALL (      45 calls)

     Called by c_bands:
     init_us_2    :      6.05s CPU      6.14s WALL (     455 calls)
     init_us_2:cp :      6.05s CPU      6.14s WALL (     455 calls)
     cegterg      :    559.91s CPU    570.94s WALL (     225 calls)

     Called by sum_band:
     sum_band:wei :      0.33s CPU      0.33s WALL (      45 calls)
     sum_band:loo :     84.42s CPU     85.11s WALL (      45 calls)
     sum_band:buf :      1.25s CPU      1.32s WALL (     225 calls)
     sum_band:ini :      2.63s CPU      2.65s WALL (     225 calls)
     sum_band:cal :     17.88s CPU     17.96s WALL (     225 calls)
     sum_band:bec :      0.54s CPU      0.54s WALL (     225 calls)
     addusdens    :     18.30s CPU     54.03s WALL (      45 calls)
                                        0.00s GPU  (      45 calls)
     addusd:skk   :      0.29s CPU      2.33s WALL (     180 calls)
                                        0.00s GPU  (     180 calls)

     Called by *egterg:
     cdiaghg      :     53.34s CPU     53.59s WALL (    1189 calls)
     cegterg:over :     44.02s CPU     44.22s WALL (     964 calls)
     cegterg:upda :     46.05s CPU     46.94s WALL (     964 calls)
     cegterg:last :     65.21s CPU     65.46s WALL (     407 calls)
     cdiaghg:chol :      2.97s CPU      2.99s WALL (    1189 calls)
     cdiaghg:inve :      3.28s CPU      3.30s WALL (    1189 calls)
     cdiaghg:para :      6.90s CPU      6.95s WALL (    2378 calls)
     h_psi        :    285.07s CPU    289.58s WALL (    1194 calls)
     s_psi        :     40.35s CPU     40.48s WALL (    1194 calls)
     g_psi        :      2.15s CPU      2.16s WALL (     964 calls)

     Called by h_psi:
     h_psi:calbec :     42.49s CPU     42.70s WALL (    1194 calls)
     vloc_psi     :    197.32s CPU    199.23s WALL (    1194 calls)
     add_vuspsi   :     40.30s CPU     40.56s WALL (    1194 calls)

     General routines
     calbec       :     60.35s CPU     60.65s WALL (    1419 calls)
     fft          :      4.30s CPU      4.36s WALL (     596 calls)
     ffts         :      4.55s CPU      4.59s WALL (    4797 calls)
     fftw         :    162.51s CPU    163.87s WALL (  306047 calls)
     interpolate  :      0.39s CPU      0.39s WALL (      46 calls)
 
     Parallel routines

     PAW routines
     PAW_pot      :      1.52s CPU      1.54s WALL (      46 calls)
 
     PWSCF        :  12m22.18s CPU  13m45.40s WALL

 
   This run was terminated on:  15:27:53  21Jun2024            

=------------------------------------------------------------------------------=
   JOB DONE.
=------------------------------------------------------------------------------=
