
     Program PWSCF v.7.2 starts on 18Jun2024 at 20:59:23 

     This program is part of the open-source Quantum ESPRESSO suite
     for quantum simulation of materials; please cite
         "P. Giannozzi et al., J. Phys.:Condens. Matter 21 395502 (2009);
         "P. Giannozzi et al., J. Phys.:Condens. Matter 29 465901 (2017);
         "P. Giannozzi et al., J. Chem. Phys. 152 154105 (2020);
          URL http://www.quantum-espresso.org", 
     in publications or presentations arising from this work. More details at
     http://www.quantum-espresso.org/quote

     Parallel version (MPI & OpenMP), running on      48 processor cores
     Number of MPI processes:                48
     Threads/MPI process:                     1

     MPI processes distributed on     1 nodes
     16424 MiB available memory on the printing compute node when the environment starts
 
     Reading input from espresso.pwi
Warning: card &CELL ignored
Warning: card / ignored
Warning: card &FCP ignored
Warning: card / ignored
Warning: card &RISM ignored
Warning: card / ignored

     Current dimensions of program PWSCF are:
     Max number of different atomic species (ntypx) = 10
     Max number of k-points (npk) =  40000
     Max angular momentum in pseudopotentials (lmaxx) =  4
     file O.pbe-n-kjpaw_psl.0.1.UPF: wavefunction(s)  2P renormalized
     signal trapping enabled: kill the code with -SIGUSR1 to stop cleanly the simulation 
 
     K-points division:     npool     =       2
     R & G space division:  proc/nbgrp/npool/nimage =      24
     Subspace diagonalization in iterative solution of the eigenvalue problem:
     one sub-group per band group will be used
     scalapack distributed-memory algorithm (size of sub-group:  3*  3 procs)

 
     Parallelization info
     --------------------
     sticks:   dense  smooth     PW     G-vecs:    dense   smooth      PW
     Min         350     175     47                61430    21716    3036
     Max         351     177     48                61449    21727    3041
     Sum        8421    4205   1137              1474595   521381   72913
 
     Using Slab Decomposition
 


     bravais-lattice index     =            0
     lattice parameter (alat)  =      14.8599  a.u.
     unit-cell volume          =    8305.1283 (a.u.)^3
     number of atoms/cell      =           51
     number of atomic types    =            4
     number of electrons       =       437.00
     number of Kohn-Sham states=          263
     kinetic-energy cutoff     =      60.0000  Ry
     charge density cutoff     =     480.0000  Ry
     scf convergence threshold =      1.0E-08
     mixing beta               =       0.1500
     number of iterations used =            8  local-TF  mixing
     Exchange-correlation= PBE
                           (   1   4   3   4   0   0   0)

     celldm(1)=  14.859904  celldm(2)=   0.000000  celldm(3)=   0.000000
     celldm(4)=   0.000000  celldm(5)=   0.000000  celldm(6)=   0.000000

     crystal axes: (cart. coord. in units of alat)
               a(1) = (   1.000000   0.000000   0.000000 )  
               a(2) = (   0.000000   1.000000   0.000000 )  
               a(3) = (   0.000000   0.000000   2.531036 )  

     reciprocal axes: (cart. coord. in units 2 pi/alat)
               b(1) = (  1.000000  0.000000  0.000000 )  
               b(2) = (  0.000000  1.000000  0.000000 )  
               b(3) = (  0.000000  0.000000  0.395095 )  


     PseudoPot. # 1 for Sr read from file:
     /bsuhome/zayahcortright/q-e/pseudo/Sr_pbe_v1.uspp.F.UPF
     MD5 check sum: 6b418c05fbe9db5448babca5e47b7a5b
     Pseudo is Ultrasoft + core correction, Zval = 10.0
     Generated by new atomic code, or converted to UPF format
     Using radial grid of  883 points,  6 beta functions with: 
                l(1) =   0
                l(2) =   0
                l(3) =   1
                l(4) =   1
                l(5) =   2
                l(6) =   2
     Q(r) pseudized with  6 coefficients,  rinner =    1.400   1.400   1.400
                                                       1.400   1.400

     PseudoPot. # 2 for O  read from file:
     /bsuhome/zayahcortright/q-e/pseudo/O.pbe-n-kjpaw_psl.0.1.UPF
     MD5 check sum: 0234752ac141de4415c5fc33072bef88
     Pseudo is Projector augmented-wave + core cor, Zval =  6.0
     Generated using "atomic" code by A. Dal Corso  v.5.0.99 svn rev. 10869
     Shape of augmentation charge: BESSEL
     Using radial grid of 1095 points,  4 beta functions with: 
                l(1) =   0
                l(2) =   0
                l(3) =   1
                l(4) =   1
     Q(r) pseudized with 0 coefficients 


     PseudoPot. # 3 for Co read from file:
     /bsuhome/zayahcortright/q-e/pseudo/Co_pbe_v1.2.uspp.F.UPF
     MD5 check sum: 5f91765df6ddd3222702df6e7b74a16d
     Pseudo is Ultrasoft + core correction, Zval = 17.0
     Generated by new atomic code, or converted to UPF format
     Using radial grid of  863 points,  6 beta functions with: 
                l(1) =   0
                l(2) =   0
                l(3) =   1
                l(4) =   1
                l(5) =   2
                l(6) =   2
     Q(r) pseudized with  8 coefficients,  rinner =    1.200   1.200   1.200
                                                       1.200   1.200

     PseudoPot. # 4 for H  read from file:
     /bsuhome/zayahcortright/q-e/pseudo/H.pbe-rrkjus_psl.1.0.0.UPF
     MD5 check sum: f52b6d4d1c606e5624b1dc7b2218f220
     Pseudo is Ultrasoft, Zval =  1.0
     Generated using "atomic" code by A. Dal Corso  v.5.1
     Using radial grid of  929 points,  2 beta functions with: 
                l(1) =   0
                l(2) =   0
     Q(r) pseudized with 0 coefficients 


     atomic species   valence    mass     pseudopotential
        Sr            10.00    87.62000     Sr( 1.00)
        O              6.00    15.99900     O ( 1.00)
        Co            17.00    58.93319     Co( 1.00)
        H              1.00     1.00800     H ( 1.00)

     No symmetry found


                                    s                        frac. trans.

      isym =  1     identity                                     

 cryst.   s( 1) = (     1          0          0      )
                  (     0          1          0      )
                  (     0          0          1      )

 cart.    s( 1) = (  1.0000000  0.0000000  0.0000000 )
                  (  0.0000000  1.0000000  0.0000000 )
                  (  0.0000000  0.0000000  1.0000000 )


   Cartesian axes

     site n.     atom                  positions (alat units)
         1           Sr  tau(   1) = (   0.2508693   0.7491307   1.7574407  )
         2           O   tau(   2) = (   0.4985141   0.5014859   1.7715967  )
         3           Sr  tau(   3) = (   0.7482398   0.7454518   1.7648669  )
         4           Sr  tau(   4) = (   0.7441748   0.2558252   1.7667843  )
         5           Sr  tau(   5) = (   0.2508693   0.7491307   1.2696799  )
         6           Sr  tau(   6) = (   0.2508693   0.7491307   0.7632319  )
         7           Co  tau(   7) = (   0.4998914   0.5001086   1.0164559  )
         8           Co  tau(   8) = (   0.4936915   0.5063085   1.5135603  )
         9           O   tau(   9) = (   0.4988895   0.7610401   1.0164559  )
        10           O   tau(  10) = (   0.2389599   0.5011105   1.0164559  )
        11           O   tau(  11) = (   0.0070918   0.7374880   1.0164559  )
        12           O   tau(  12) = (   0.0088340   0.7405089   1.5135603  )
        13           O   tau(  13) = (   0.5066944   0.7415376   1.5135603  )
        14           O   tau(  14) = (   0.2584624   0.4933056   1.5135603  )
        15           O   tau(  15) = (   0.4985141   0.5014859   0.7773880  )
        16           O   tau(  16) = (   0.4985141   0.5014859   1.2555238  )
        17           Sr  tau(  17) = (   0.7482398   0.7454518   0.7706582  )
        18           Sr  tau(  18) = (   0.7482398   0.7454518   1.2622536  )
        19           Sr  tau(  19) = (   0.7441748   0.2558252   0.7725755  )
        20           Sr  tau(  20) = (   0.7441748   0.2558252   1.2603363  )
        21           O   tau(  21) = (   0.7322655   0.0078049   1.5135603  )
        22           O   tau(  22) = (   0.7558175   0.4996027   1.5135603  )
        23           O   tau(  23) = (   0.5003973   0.2441825   1.5135603  )
        24           O   tau(  24) = (   0.7527966   0.4978604   1.0164559  )
        25           O   tau(  25) = (   0.5021396   0.2472034   1.0164559  )
        26           O   tau(  26) = (   0.7517679   0.0000000   1.0164559  )
        27           O   tau(  27) = (   0.0114961   0.4948124   1.7455321  )
        28           O   tau(  28) = (   0.0048226   0.0077944   1.7715967  )
        29           Sr  tau(  29) = (   0.2545482   0.2517602   1.7648669  )
        30           O   tau(  30) = (   0.5048017   0.0015068   1.7786929  )
        31           Co  tau(  31) = (   0.0056869   0.5006215   1.0164559  )
        32           Co  tau(  32) = (   0.0065315   0.4997770   1.5135603  )
        33           Co  tau(  33) = (   0.0061999   0.0064171   1.0164559  )
        34           Co  tau(  34) = (   0.0000000   0.0126169   1.5135603  )
        35           O   tau(  35) = (   0.0114961   0.4948124   1.2815885  )
        36           O   tau(  36) = (   0.0114961   0.4948124   0.7513233  )
        37           O   tau(  37) = (   0.0051979   0.2673486   1.0164559  )
        38           O   tau(  38) = (   0.0130029   0.2478461   1.5135603  )
        39           O   tau(  39) = (   0.0048226   0.0077944   0.7773880  )
        40           O   tau(  40) = (   0.0048226   0.0077944   1.2555238  )
        41           Sr  tau(  41) = (   0.2545482   0.2517602   0.7706582  )
        42           Sr  tau(  42) = (   0.2545482   0.2517602   1.2622536  )
        43           Co  tau(  43) = (   0.4989925   0.0073160   1.5135603  )
        44           Co  tau(  44) = (   0.4998370   0.0064714   1.0164559  )
        45           O   tau(  45) = (   0.5048017   0.0015068   0.7844841  )
        46           O   tau(  46) = (   0.5048017   0.0015068   1.2484277  )
        47           O   tau(  47) = (   0.2621260   0.0059111   1.5135603  )
        48           O   tau(  48) = (   0.2591051   0.0041689   1.0164559  )
        49           O   tau(  49) = (   0.1421646   0.9951520   2.1602013  )
        50           O   tau(  50) = (   0.1421646   0.9951520   2.3186489  )
        51           H   tau(  51) = (   0.1421646   0.9951520   2.4431567  )

   Crystallographic axes

     site n.     atom                  positions (cryst. coord.)
         1           Sr  tau(   1) = (  0.2508693  0.7491307  0.6943562  )
         2           O   tau(   2) = (  0.4985141  0.5014859  0.6999492  )
         3           Sr  tau(   3) = (  0.7482398  0.7454518  0.6972903  )
         4           Sr  tau(   4) = (  0.7441748  0.2558252  0.6980478  )
         5           Sr  tau(   5) = (  0.2508693  0.7491307  0.5016443  )
         6           Sr  tau(   6) = (  0.2508693  0.7491307  0.3015492  )
         7           Co  tau(   7) = (  0.4998914  0.5001086  0.4015968  )
         8           Co  tau(   8) = (  0.4936915  0.5063085  0.5980003  )
         9           O   tau(   9) = (  0.4988895  0.7610401  0.4015968  )
        10           O   tau(  10) = (  0.2389599  0.5011105  0.4015968  )
        11           O   tau(  11) = (  0.0070918  0.7374880  0.4015968  )
        12           O   tau(  12) = (  0.0088340  0.7405089  0.5980003  )
        13           O   tau(  13) = (  0.5066944  0.7415376  0.5980003  )
        14           O   tau(  14) = (  0.2584624  0.4933056  0.5980003  )
        15           O   tau(  15) = (  0.4985141  0.5014859  0.3071422  )
        16           O   tau(  16) = (  0.4985141  0.5014859  0.4960513  )
        17           Sr  tau(  17) = (  0.7482398  0.7454518  0.3044833  )
        18           Sr  tau(  18) = (  0.7482398  0.7454518  0.4987103  )
        19           Sr  tau(  19) = (  0.7441748  0.2558252  0.3052408  )
        20           Sr  tau(  20) = (  0.7441748  0.2558252  0.4979527  )
        21           O   tau(  21) = (  0.7322655  0.0078049  0.5980003  )
        22           O   tau(  22) = (  0.7558175  0.4996027  0.5980003  )
        23           O   tau(  23) = (  0.5003973  0.2441825  0.5980003  )
        24           O   tau(  24) = (  0.7527966  0.4978604  0.4015968  )
        25           O   tau(  25) = (  0.5021396  0.2472034  0.4015968  )
        26           O   tau(  26) = (  0.7517679  0.0000000  0.4015968  )
        27           O   tau(  27) = (  0.0114961  0.4948124  0.6896512  )
        28           O   tau(  28) = (  0.0048226  0.0077944  0.6999492  )
        29           Sr  tau(  29) = (  0.2545482  0.2517602  0.6972903  )
        30           O   tau(  30) = (  0.5048017  0.0015068  0.7027529  )
        31           Co  tau(  31) = (  0.0056869  0.5006215  0.4015968  )
        32           Co  tau(  32) = (  0.0065315  0.4997770  0.5980003  )
        33           Co  tau(  33) = (  0.0061999  0.0064171  0.4015968  )
        34           Co  tau(  34) = (  0.0000000  0.0126169  0.5980003  )
        35           O   tau(  35) = (  0.0114961  0.4948124  0.5063494  )
        36           O   tau(  36) = (  0.0114961  0.4948124  0.2968442  )
        37           O   tau(  37) = (  0.0051979  0.2673486  0.4015968  )
        38           O   tau(  38) = (  0.0130029  0.2478461  0.5980003  )
        39           O   tau(  39) = (  0.0048226  0.0077944  0.3071422  )
        40           O   tau(  40) = (  0.0048226  0.0077944  0.4960513  )
        41           Sr  tau(  41) = (  0.2545482  0.2517602  0.3044833  )
        42           Sr  tau(  42) = (  0.2545482  0.2517602  0.4987103  )
        43           Co  tau(  43) = (  0.4989925  0.0073160  0.5980003  )
        44           Co  tau(  44) = (  0.4998370  0.0064714  0.4015968  )
        45           O   tau(  45) = (  0.5048017  0.0015068  0.3099459  )
        46           O   tau(  46) = (  0.5048017  0.0015068  0.4932477  )
        47           O   tau(  47) = (  0.2621260  0.0059111  0.5980003  )
        48           O   tau(  48) = (  0.2591051  0.0041689  0.4015968  )
        49           O   tau(  49) = (  0.1421646  0.9951520  0.8534850  )
        50           O   tau(  50) = (  0.1421646  0.9951520  0.9160869  )
        51           H   tau(  51) = (  0.1421646  0.9951520  0.9652793  )

     number of k points=    10  Gaussian smearing, width (Ry)=  0.0700
                       cart. coord. in units 2pi/alat
        k(    1) = (   0.0000000   0.0000000   0.0000000), wk =   0.1250000
        k(    2) = (   0.0000000   0.2500000   0.0000000), wk =   0.2500000
        k(    3) = (   0.0000000  -0.5000000   0.0000000), wk =   0.1250000
        k(    4) = (   0.2500000   0.2500000   0.0000000), wk =   0.2500000
        k(    5) = (   0.2500000  -0.5000000   0.0000000), wk =   0.2500000
        k(    6) = (  -0.5000000  -0.5000000   0.0000000), wk =   0.1250000
        k(    7) = (   0.2500000   0.0000000   0.0000000), wk =   0.2500000
        k(    8) = (  -0.5000000   0.0000000   0.0000000), wk =   0.1250000
        k(    9) = (  -0.2500000   0.2500000   0.0000000), wk =   0.2500000
        k(   10) = (  -0.5000000   0.2500000   0.0000000), wk =   0.2500000

                       cryst. coord.
        k(    1) = (   0.0000000   0.0000000   0.0000000), wk =   0.1250000
        k(    2) = (   0.0000000   0.2500000   0.0000000), wk =   0.2500000
        k(    3) = (   0.0000000  -0.5000000   0.0000000), wk =   0.1250000
        k(    4) = (   0.2500000   0.2500000   0.0000000), wk =   0.2500000
        k(    5) = (   0.2500000  -0.5000000   0.0000000), wk =   0.2500000
        k(    6) = (  -0.5000000  -0.5000000   0.0000000), wk =   0.1250000
        k(    7) = (   0.2500000   0.0000000   0.0000000), wk =   0.2500000
        k(    8) = (  -0.5000000   0.0000000   0.0000000), wk =   0.1250000
        k(    9) = (  -0.2500000   0.2500000   0.0000000), wk =   0.2500000
        k(   10) = (  -0.5000000   0.2500000   0.0000000), wk =   0.2500000

     Dense  grid:  1474595 G-vectors     FFT dimensions: ( 108, 108, 270)

     Smooth grid:   521381 G-vectors     FFT dimensions: (  75,  75, 192)

     Dynamical RAM for                 wfc:      10.90 MB

     Dynamical RAM for     wfc (w. buffer):      65.37 MB

     Dynamical RAM for           str. fact:       3.75 MB

     Dynamical RAM for           local pot:       0.00 MB

     Dynamical RAM for          nlocal pot:      24.94 MB

     Dynamical RAM for                qrad:       7.03 MB

     Dynamical RAM for          rho,v,vnew:       6.02 MB

     Dynamical RAM for               rhoin:       2.01 MB

     Dynamical RAM for            rho*nmix:      15.00 MB

     Dynamical RAM for           G-vectors:       3.68 MB

     Dynamical RAM for          h,s,v(r/c):       1.40 MB

     Dynamical RAM for          <psi|beta>:       2.42 MB

     Dynamical RAM for                 psi:      21.79 MB

     Dynamical RAM for                hpsi:      21.79 MB

     Dynamical RAM for                spsi:      21.79 MB

     Dynamical RAM for      wfcinit/wfcrot:      34.89 MB

     Dynamical RAM for           addusdens:     101.73 MB

     Estimated static dynamical RAM per process >     122.82 MB

     Estimated max dynamical RAM per process >     239.55 MB

     Estimated total dynamical RAM >      10.88 GB

     Check: negative core charge=   -0.000004

     Initial potential from superposition of free atoms

     starting charge     428.5961, renormalised to     437.0000

     negative rho (up, down):  7.813E-01 0.000E+00
     Starting wfcs are  381 randomized atomic wfcs
     Checking if some PAW data can be deallocated... 
       PAW data deallocated on   18 nodes for type:  2

     total cpu time spent up to now is        9.2 secs

     Self-consistent Calculation

     iteration #  1     ecut=    60.00 Ry     beta= 0.15
     Davidson diagonalization with overlap

---- Real-time Memory Report at c_bands before calling an iterative solver
             0 MiB given to the printing process from OS
             0 MiB allocation reported by mallinfo(arena+hblkhd)
          6905 MiB available memory on the node where the printing process lives
------------------
     ethr =  1.00E-02,  avg # of iterations =  2.0

     negative rho (up, down):  7.714E-01 0.000E+00

     total cpu time spent up to now is       25.1 secs

     total energy              =   -4489.27203799 Ry
     estimated scf accuracy    <      49.72959088 Ry

     iteration #  2     ecut=    60.00 Ry     beta= 0.15
     Davidson diagonalization with overlap

---- Real-time Memory Report at c_bands before calling an iterative solver
             0 MiB given to the printing process from OS
             0 MiB allocation reported by mallinfo(arena+hblkhd)
          7179 MiB available memory on the node where the printing process lives
------------------
     ethr =  1.00E-02,  avg # of iterations =  1.0

     negative rho (up, down):  7.610E-01 0.000E+00

     total cpu time spent up to now is       38.3 secs

     total energy              =   -4486.78785056 Ry
     estimated scf accuracy    <      35.26051910 Ry

     iteration #  3     ecut=    60.00 Ry     beta= 0.15
     Davidson diagonalization with overlap

---- Real-time Memory Report at c_bands before calling an iterative solver
             0 MiB given to the printing process from OS
             0 MiB allocation reported by mallinfo(arena+hblkhd)
          6377 MiB available memory on the node where the printing process lives
------------------
     ethr =  8.07E-03,  avg # of iterations =  1.0

     negative rho (up, down):  7.562E-01 0.000E+00

     total cpu time spent up to now is       51.5 secs

     total energy              =   -4486.77510490 Ry
     estimated scf accuracy    <      35.54301189 Ry

     iteration #  4     ecut=    60.00 Ry     beta= 0.15
     Davidson diagonalization with overlap

---- Real-time Memory Report at c_bands before calling an iterative solver
             0 MiB given to the printing process from OS
             0 MiB allocation reported by mallinfo(arena+hblkhd)
          6358 MiB available memory on the node where the printing process lives
------------------
     ethr =  8.07E-03,  avg # of iterations =  1.0

     negative rho (up, down):  7.576E-01 0.000E+00

     total cpu time spent up to now is       64.6 secs

     total energy              =   -4486.56500405 Ry
     estimated scf accuracy    <      34.17256244 Ry

     iteration #  5     ecut=    60.00 Ry     beta= 0.15
     Davidson diagonalization with overlap

---- Real-time Memory Report at c_bands before calling an iterative solver
             0 MiB given to the printing process from OS
             0 MiB allocation reported by mallinfo(arena+hblkhd)
          6345 MiB available memory on the node where the printing process lives
------------------
     ethr =  7.82E-03,  avg # of iterations =  1.0

     negative rho (up, down):  7.339E-01 0.000E+00

     total cpu time spent up to now is       77.6 secs

     total energy              =   -4482.44937229 Ry
     estimated scf accuracy    <      22.43700881 Ry

     iteration #  6     ecut=    60.00 Ry     beta= 0.15
     Davidson diagonalization with overlap

---- Real-time Memory Report at c_bands before calling an iterative solver
             0 MiB given to the printing process from OS
             0 MiB allocation reported by mallinfo(arena+hblkhd)
          6326 MiB available memory on the node where the printing process lives
------------------
     ethr =  5.13E-03,  avg # of iterations =  2.0

     negative rho (up, down):  7.492E-01 0.000E+00

     total cpu time spent up to now is       92.1 secs

     total energy              =   -4483.49572106 Ry
     estimated scf accuracy    <      32.27497870 Ry

     iteration #  7     ecut=    60.00 Ry     beta= 0.15
     Davidson diagonalization with overlap

---- Real-time Memory Report at c_bands before calling an iterative solver
             0 MiB given to the printing process from OS
             0 MiB allocation reported by mallinfo(arena+hblkhd)
          6307 MiB available memory on the node where the printing process lives
------------------
     ethr =  5.13E-03,  avg # of iterations =  1.0

     negative rho (up, down):  7.542E-01 0.000E+00

     total cpu time spent up to now is      105.1 secs

     total energy              =   -4483.66962458 Ry
     estimated scf accuracy    <      33.32259497 Ry

     iteration #  8     ecut=    60.00 Ry     beta= 0.15
     Davidson diagonalization with overlap

---- Real-time Memory Report at c_bands before calling an iterative solver
             0 MiB given to the printing process from OS
             0 MiB allocation reported by mallinfo(arena+hblkhd)
          6288 MiB available memory on the node where the printing process lives
------------------
     ethr =  5.13E-03,  avg # of iterations =  1.0

     negative rho (up, down):  7.522E-01 0.000E+00

     total cpu time spent up to now is      118.3 secs

     total energy              =   -4483.83850212 Ry
     estimated scf accuracy    <       6.28999275 Ry

     iteration #  9     ecut=    60.00 Ry     beta= 0.15
     Davidson diagonalization with overlap

---- Real-time Memory Report at c_bands before calling an iterative solver
             0 MiB given to the printing process from OS
             0 MiB allocation reported by mallinfo(arena+hblkhd)
          6268 MiB available memory on the node where the printing process lives
------------------
     ethr =  1.44E-03,  avg # of iterations =  3.4

     negative rho (up, down):  7.667E-01 0.000E+00

     total cpu time spent up to now is      133.6 secs

     total energy              =   -4483.75771345 Ry
     estimated scf accuracy    <       3.87778881 Ry

     iteration # 10     ecut=    60.00 Ry     beta= 0.15
     Davidson diagonalization with overlap

---- Real-time Memory Report at c_bands before calling an iterative solver
             0 MiB given to the printing process from OS
             0 MiB allocation reported by mallinfo(arena+hblkhd)
          6219 MiB available memory on the node where the printing process lives
------------------
     ethr =  8.87E-04,  avg # of iterations = 10.2

     negative rho (up, down):  7.899E-01 0.000E+00

     total cpu time spent up to now is      152.7 secs

     total energy              =   -4483.49536227 Ry
     estimated scf accuracy    <       4.31734628 Ry

     iteration # 11     ecut=    60.00 Ry     beta= 0.15
     Davidson diagonalization with overlap

---- Real-time Memory Report at c_bands before calling an iterative solver
             0 MiB given to the printing process from OS
             0 MiB allocation reported by mallinfo(arena+hblkhd)
          5871 MiB available memory on the node where the printing process lives
------------------
     ethr =  8.87E-04,  avg # of iterations =  6.1

     negative rho (up, down):  7.935E-01 0.000E+00

     total cpu time spent up to now is      169.8 secs

     total energy              =   -4483.20418357 Ry
     estimated scf accuracy    <       4.07657470 Ry

     iteration # 12     ecut=    60.00 Ry     beta= 0.15
     Davidson diagonalization with overlap

---- Real-time Memory Report at c_bands before calling an iterative solver
             0 MiB given to the printing process from OS
             0 MiB allocation reported by mallinfo(arena+hblkhd)
          5800 MiB available memory on the node where the printing process lives
------------------
     ethr =  8.87E-04,  avg # of iterations =  5.8

     negative rho (up, down):  8.029E-01 0.000E+00

     total cpu time spent up to now is      186.2 secs

     total energy              =   -4483.22008169 Ry
     estimated scf accuracy    <       2.03294768 Ry

     iteration # 13     ecut=    60.00 Ry     beta= 0.15
     Davidson diagonalization with overlap

---- Real-time Memory Report at c_bands before calling an iterative solver
             0 MiB given to the printing process from OS
             0 MiB allocation reported by mallinfo(arena+hblkhd)
          5790 MiB available memory on the node where the printing process lives
------------------
     ethr =  4.65E-04,  avg # of iterations =  2.4

     negative rho (up, down):  8.053E-01 0.000E+00

     total cpu time spent up to now is      200.8 secs

     total energy              =   -4483.24358588 Ry
     estimated scf accuracy    <       0.96208475 Ry

     iteration # 14     ecut=    60.00 Ry     beta= 0.15
     Davidson diagonalization with overlap

---- Real-time Memory Report at c_bands before calling an iterative solver
             0 MiB given to the printing process from OS
             0 MiB allocation reported by mallinfo(arena+hblkhd)
          5807 MiB available memory on the node where the printing process lives
------------------
     ethr =  2.20E-04,  avg # of iterations =  9.6

     negative rho (up, down):  8.166E-01 0.000E+00

     total cpu time spent up to now is      218.8 secs

     total energy              =   -4483.09211286 Ry
     estimated scf accuracy    <       0.67030333 Ry

     iteration # 15     ecut=    60.00 Ry     beta= 0.15
     Davidson diagonalization with overlap

---- Real-time Memory Report at c_bands before calling an iterative solver
             0 MiB given to the printing process from OS
             0 MiB allocation reported by mallinfo(arena+hblkhd)
          5750 MiB available memory on the node where the printing process lives
------------------
     ethr =  1.53E-04,  avg # of iterations =  5.9

     negative rho (up, down):  8.187E-01 0.000E+00

     total cpu time spent up to now is      235.4 secs

     total energy              =   -4483.14313939 Ry
     estimated scf accuracy    <       3.79609897 Ry

     iteration # 16     ecut=    60.00 Ry     beta= 0.15
     Davidson diagonalization with overlap

---- Real-time Memory Report at c_bands before calling an iterative solver
             0 MiB given to the printing process from OS
             0 MiB allocation reported by mallinfo(arena+hblkhd)
          5834 MiB available memory on the node where the printing process lives
------------------
     ethr =  1.53E-04,  avg # of iterations =  4.4

     negative rho (up, down):  8.160E-01 0.000E+00

     total cpu time spent up to now is      250.7 secs

     total energy              =   -4483.09370489 Ry
     estimated scf accuracy    <       1.76205924 Ry

     iteration # 17     ecut=    60.00 Ry     beta= 0.15
     Davidson diagonalization with overlap

---- Real-time Memory Report at c_bands before calling an iterative solver
             0 MiB given to the printing process from OS
             0 MiB allocation reported by mallinfo(arena+hblkhd)
          5839 MiB available memory on the node where the printing process lives
------------------
     ethr =  1.53E-04,  avg # of iterations =  1.9

     negative rho (up, down):  8.195E-01 0.000E+00

     total cpu time spent up to now is      264.3 secs

     total energy              =   -4483.05286625 Ry
     estimated scf accuracy    <       0.47618368 Ry

     iteration # 18     ecut=    60.00 Ry     beta= 0.15
     Davidson diagonalization with overlap

---- Real-time Memory Report at c_bands before calling an iterative solver
             0 MiB given to the printing process from OS
             0 MiB allocation reported by mallinfo(arena+hblkhd)
          5822 MiB available memory on the node where the printing process lives
------------------
     ethr =  1.09E-04,  avg # of iterations = 12.2

     negative rho (up, down):  8.192E-01 0.000E+00

     total cpu time spent up to now is      284.1 secs

     total energy              =   -4483.02504801 Ry
     estimated scf accuracy    <       1.78404625 Ry

     iteration # 19     ecut=    60.00 Ry     beta= 0.15
     Davidson diagonalization with overlap

---- Real-time Memory Report at c_bands before calling an iterative solver
             0 MiB given to the printing process from OS
             0 MiB allocation reported by mallinfo(arena+hblkhd)
          5815 MiB available memory on the node where the printing process lives
------------------
     ethr =  1.09E-04,  avg # of iterations =  4.2

     negative rho (up, down):  8.310E-01 0.000E+00

     total cpu time spent up to now is      299.7 secs

     total energy              =   -4483.01877579 Ry
     estimated scf accuracy    <       0.45016385 Ry

     iteration # 20     ecut=    60.00 Ry     beta= 0.15
     Davidson diagonalization with overlap

---- Real-time Memory Report at c_bands before calling an iterative solver
             0 MiB given to the printing process from OS
             0 MiB allocation reported by mallinfo(arena+hblkhd)
          5826 MiB available memory on the node where the printing process lives
------------------
     ethr =  1.03E-04,  avg # of iterations =  6.1

     negative rho (up, down):  8.229E-01 0.000E+00

     total cpu time spent up to now is      316.7 secs

     total energy              =   -4482.97593173 Ry
     estimated scf accuracy    <       0.73502611 Ry

     iteration # 21     ecut=    60.00 Ry     beta= 0.15
     Davidson diagonalization with overlap

---- Real-time Memory Report at c_bands before calling an iterative solver
             0 MiB given to the printing process from OS
             0 MiB allocation reported by mallinfo(arena+hblkhd)
          5845 MiB available memory on the node where the printing process lives
------------------
     ethr =  1.03E-04,  avg # of iterations =  8.4

     negative rho (up, down):  8.390E-01 0.000E+00

     total cpu time spent up to now is      334.1 secs

     total energy              =   -4482.97956994 Ry
     estimated scf accuracy    <       0.08786840 Ry

     iteration # 22     ecut=    60.00 Ry     beta= 0.15
     Davidson diagonalization with overlap

---- Real-time Memory Report at c_bands before calling an iterative solver
             0 MiB given to the printing process from OS
             0 MiB allocation reported by mallinfo(arena+hblkhd)
          5816 MiB available memory on the node where the printing process lives
------------------
     ethr =  2.01E-05,  avg # of iterations = 10.1

     negative rho (up, down):  8.411E-01 0.000E+00

     total cpu time spent up to now is      353.3 secs

     total energy              =   -4482.97750740 Ry
     estimated scf accuracy    <       0.04801136 Ry

     iteration # 23     ecut=    60.00 Ry     beta= 0.15
     Davidson diagonalization with overlap

---- Real-time Memory Report at c_bands before calling an iterative solver
             0 MiB given to the printing process from OS
             0 MiB allocation reported by mallinfo(arena+hblkhd)
          5619 MiB available memory on the node where the printing process lives
------------------
     ethr =  1.10E-05,  avg # of iterations =  2.6

     negative rho (up, down):  8.208E-01 0.000E+00

     total cpu time spent up to now is      368.1 secs

     total energy              =   -4482.97103290 Ry
     estimated scf accuracy    <       0.03261147 Ry

     iteration # 24     ecut=    60.00 Ry     beta= 0.15
     Davidson diagonalization with overlap

---- Real-time Memory Report at c_bands before calling an iterative solver
             0 MiB given to the printing process from OS
             0 MiB allocation reported by mallinfo(arena+hblkhd)
          5627 MiB available memory on the node where the printing process lives
------------------
     ethr =  7.46E-06,  avg # of iterations = 11.9

     negative rho (up, down):  8.217E-01 0.000E+00

     total cpu time spent up to now is      387.9 secs

     total energy              =   -4482.97147241 Ry
     estimated scf accuracy    <       0.01437035 Ry

     iteration # 25     ecut=    60.00 Ry     beta= 0.15
     Davidson diagonalization with overlap

---- Real-time Memory Report at c_bands before calling an iterative solver
             0 MiB given to the printing process from OS
             0 MiB allocation reported by mallinfo(arena+hblkhd)
          5602 MiB available memory on the node where the printing process lives
------------------
     c_bands:  1 eigenvalues not converged
     ethr =  3.29E-06,  avg # of iterations =  5.5

     negative rho (up, down):  8.102E-01 0.000E+00

     total cpu time spent up to now is      404.5 secs

     total energy              =   -4482.97026523 Ry
     estimated scf accuracy    <       0.00983818 Ry

     iteration # 26     ecut=    60.00 Ry     beta= 0.15
     Davidson diagonalization with overlap

---- Real-time Memory Report at c_bands before calling an iterative solver
             0 MiB given to the printing process from OS
             0 MiB allocation reported by mallinfo(arena+hblkhd)
          5585 MiB available memory on the node where the printing process lives
------------------
     ethr =  2.25E-06,  avg # of iterations =  8.5

     negative rho (up, down):  7.953E-01 0.000E+00

     total cpu time spent up to now is      422.0 secs

     total energy              =   -4482.96889996 Ry
     estimated scf accuracy    <       0.00599898 Ry

     iteration # 27     ecut=    60.00 Ry     beta= 0.15
     Davidson diagonalization with overlap

---- Real-time Memory Report at c_bands before calling an iterative solver
             0 MiB given to the printing process from OS
             0 MiB allocation reported by mallinfo(arena+hblkhd)
          5597 MiB available memory on the node where the printing process lives
------------------
     ethr =  1.37E-06,  avg # of iterations = 10.2

     negative rho (up, down):  7.970E-01 0.000E+00

     total cpu time spent up to now is      441.8 secs

     total energy              =   -4482.96935552 Ry
     estimated scf accuracy    <       0.00165397 Ry

     iteration # 28     ecut=    60.00 Ry     beta= 0.15
     Davidson diagonalization with overlap

---- Real-time Memory Report at c_bands before calling an iterative solver
             0 MiB given to the printing process from OS
             0 MiB allocation reported by mallinfo(arena+hblkhd)
          5554 MiB available memory on the node where the printing process lives
------------------
     ethr =  3.78E-07,  avg # of iterations =  4.4

     negative rho (up, down):  7.951E-01 0.000E+00

     total cpu time spent up to now is      457.6 secs

     total energy              =   -4482.96938158 Ry
     estimated scf accuracy    <       0.00102783 Ry

     iteration # 29     ecut=    60.00 Ry     beta= 0.15
     Davidson diagonalization with overlap

---- Real-time Memory Report at c_bands before calling an iterative solver
             0 MiB given to the printing process from OS
             0 MiB allocation reported by mallinfo(arena+hblkhd)
          5517 MiB available memory on the node where the printing process lives
------------------
     ethr =  2.35E-07,  avg # of iterations =  3.4

     negative rho (up, down):  7.933E-01 0.000E+00

     total cpu time spent up to now is      472.7 secs

     total energy              =   -4482.96922179 Ry
     estimated scf accuracy    <       0.00073829 Ry

     iteration # 30     ecut=    60.00 Ry     beta= 0.15
     Davidson diagonalization with overlap

---- Real-time Memory Report at c_bands before calling an iterative solver
             0 MiB given to the printing process from OS
             0 MiB allocation reported by mallinfo(arena+hblkhd)
          5514 MiB available memory on the node where the printing process lives
------------------
     c_bands:  1 eigenvalues not converged
     ethr =  1.69E-07,  avg # of iterations =  7.0

     negative rho (up, down):  7.924E-01 0.000E+00

     total cpu time spent up to now is      489.7 secs

     total energy              =   -4482.96922507 Ry
     estimated scf accuracy    <       0.00044301 Ry

     iteration # 31     ecut=    60.00 Ry     beta= 0.15
     Davidson diagonalization with overlap

---- Real-time Memory Report at c_bands before calling an iterative solver
             0 MiB given to the printing process from OS
             0 MiB allocation reported by mallinfo(arena+hblkhd)
          5523 MiB available memory on the node where the printing process lives
------------------
     c_bands:  1 eigenvalues not converged
     ethr =  1.01E-07,  avg # of iterations =  7.8

     negative rho (up, down):  7.925E-01 0.000E+00

     total cpu time spent up to now is      506.7 secs

     total energy              =   -4482.96916261 Ry
     estimated scf accuracy    <       0.00027473 Ry

     iteration # 32     ecut=    60.00 Ry     beta= 0.15
     Davidson diagonalization with overlap

---- Real-time Memory Report at c_bands before calling an iterative solver
             0 MiB given to the printing process from OS
             0 MiB allocation reported by mallinfo(arena+hblkhd)
          5511 MiB available memory on the node where the printing process lives
------------------
     ethr =  6.29E-08,  avg # of iterations =  5.8

     negative rho (up, down):  7.924E-01 0.000E+00

     total cpu time spent up to now is      523.5 secs

     total energy              =   -4482.96915396 Ry
     estimated scf accuracy    <       0.00013401 Ry

     iteration # 33     ecut=    60.00 Ry     beta= 0.15
     Davidson diagonalization with overlap

---- Real-time Memory Report at c_bands before calling an iterative solver
             0 MiB given to the printing process from OS
             0 MiB allocation reported by mallinfo(arena+hblkhd)
          5520 MiB available memory on the node where the printing process lives
------------------
     ethr =  3.07E-08,  avg # of iterations =  2.7

     negative rho (up, down):  7.924E-01 0.000E+00

     total cpu time spent up to now is      538.2 secs

     total energy              =   -4482.96915914 Ry
     estimated scf accuracy    <       0.00008530 Ry

     iteration # 34     ecut=    60.00 Ry     beta= 0.15
     Davidson diagonalization with overlap

---- Real-time Memory Report at c_bands before calling an iterative solver
             0 MiB given to the printing process from OS
             0 MiB allocation reported by mallinfo(arena+hblkhd)
          5540 MiB available memory on the node where the printing process lives
------------------
     ethr =  1.95E-08,  avg # of iterations =  1.9

     negative rho (up, down):  7.921E-01 0.000E+00

     total cpu time spent up to now is      552.6 secs

     total energy              =   -4482.96918184 Ry
     estimated scf accuracy    <       0.00005955 Ry

     iteration # 35     ecut=    60.00 Ry     beta= 0.15
     Davidson diagonalization with overlap

---- Real-time Memory Report at c_bands before calling an iterative solver
             0 MiB given to the printing process from OS
             0 MiB allocation reported by mallinfo(arena+hblkhd)
          5556 MiB available memory on the node where the printing process lives
------------------
     ethr =  1.36E-08,  avg # of iterations =  3.4

     negative rho (up, down):  7.921E-01 0.000E+00

     total cpu time spent up to now is      567.8 secs

     total energy              =   -4482.96918968 Ry
     estimated scf accuracy    <       0.00002432 Ry

     iteration # 36     ecut=    60.00 Ry     beta= 0.15
     Davidson diagonalization with overlap

---- Real-time Memory Report at c_bands before calling an iterative solver
             0 MiB given to the printing process from OS
             0 MiB allocation reported by mallinfo(arena+hblkhd)
          5567 MiB available memory on the node where the printing process lives
------------------
     ethr =  5.57E-09,  avg # of iterations =  3.1

     negative rho (up, down):  7.922E-01 0.000E+00

     total cpu time spent up to now is      582.7 secs

     total energy              =   -4482.96919185 Ry
     estimated scf accuracy    <       0.00001811 Ry

     iteration # 37     ecut=    60.00 Ry     beta= 0.15
     Davidson diagonalization with overlap

---- Real-time Memory Report at c_bands before calling an iterative solver
             0 MiB given to the printing process from OS
             0 MiB allocation reported by mallinfo(arena+hblkhd)
          5583 MiB available memory on the node where the printing process lives
------------------
     ethr =  4.14E-09,  avg # of iterations =  3.7

     negative rho (up, down):  7.923E-01 0.000E+00

     total cpu time spent up to now is      597.8 secs

     total energy              =   -4482.96919038 Ry
     estimated scf accuracy    <       0.00000962 Ry

     iteration # 38     ecut=    60.00 Ry     beta= 0.15
     Davidson diagonalization with overlap

---- Real-time Memory Report at c_bands before calling an iterative solver
             0 MiB given to the printing process from OS
             0 MiB allocation reported by mallinfo(arena+hblkhd)
          5591 MiB available memory on the node where the printing process lives
------------------
     ethr =  2.20E-09,  avg # of iterations =  5.1

     negative rho (up, down):  7.923E-01 0.000E+00

     total cpu time spent up to now is      614.7 secs

     total energy              =   -4482.96919117 Ry
     estimated scf accuracy    <       0.00000429 Ry

     iteration # 39     ecut=    60.00 Ry     beta= 0.15
     Davidson diagonalization with overlap

---- Real-time Memory Report at c_bands before calling an iterative solver
             0 MiB given to the printing process from OS
             0 MiB allocation reported by mallinfo(arena+hblkhd)
          5600 MiB available memory on the node where the printing process lives
------------------
     ethr =  9.82E-10,  avg # of iterations =  2.9

     negative rho (up, down):  7.924E-01 0.000E+00

     total cpu time spent up to now is      629.2 secs

     total energy              =   -4482.96919222 Ry
     estimated scf accuracy    <       0.00000226 Ry

     iteration # 40     ecut=    60.00 Ry     beta= 0.15
     Davidson diagonalization with overlap

---- Real-time Memory Report at c_bands before calling an iterative solver
             0 MiB given to the printing process from OS
             0 MiB allocation reported by mallinfo(arena+hblkhd)
          5603 MiB available memory on the node where the printing process lives
------------------
     ethr =  5.18E-10,  avg # of iterations =  3.7

     negative rho (up, down):  7.924E-01 0.000E+00

     total cpu time spent up to now is      644.6 secs

     total energy              =   -4482.96919277 Ry
     estimated scf accuracy    <       0.00000206 Ry

     iteration # 41     ecut=    60.00 Ry     beta= 0.15
     Davidson diagonalization with overlap

---- Real-time Memory Report at c_bands before calling an iterative solver
             0 MiB given to the printing process from OS
             0 MiB allocation reported by mallinfo(arena+hblkhd)
          5619 MiB available memory on the node where the printing process lives
------------------
     ethr =  4.72E-10,  avg # of iterations =  3.8

     negative rho (up, down):  7.923E-01 0.000E+00

     total cpu time spent up to now is      659.5 secs

     total energy              =   -4482.96919273 Ry
     estimated scf accuracy    <       0.00000140 Ry

     iteration # 42     ecut=    60.00 Ry     beta= 0.15
     Davidson diagonalization with overlap

---- Real-time Memory Report at c_bands before calling an iterative solver
             0 MiB given to the printing process from OS
             0 MiB allocation reported by mallinfo(arena+hblkhd)
          5621 MiB available memory on the node where the printing process lives
------------------
     ethr =  3.21E-10,  avg # of iterations =  3.6

     negative rho (up, down):  7.923E-01 0.000E+00

     total cpu time spent up to now is      674.6 secs

     total energy              =   -4482.96919275 Ry
     estimated scf accuracy    <       0.00000077 Ry

     iteration # 43     ecut=    60.00 Ry     beta= 0.15
     Davidson diagonalization with overlap

---- Real-time Memory Report at c_bands before calling an iterative solver
             0 MiB given to the printing process from OS
             0 MiB allocation reported by mallinfo(arena+hblkhd)
          5620 MiB available memory on the node where the printing process lives
------------------
     ethr =  1.77E-10,  avg # of iterations =  2.5

     negative rho (up, down):  7.923E-01 0.000E+00

     total cpu time spent up to now is      689.2 secs

     total energy              =   -4482.96919273 Ry
     estimated scf accuracy    <       0.00000065 Ry

     iteration # 44     ecut=    60.00 Ry     beta= 0.15
     Davidson diagonalization with overlap

---- Real-time Memory Report at c_bands before calling an iterative solver
             0 MiB given to the printing process from OS
             0 MiB allocation reported by mallinfo(arena+hblkhd)
          5619 MiB available memory on the node where the printing process lives
------------------
     ethr =  1.48E-10,  avg # of iterations =  1.9

     negative rho (up, down):  7.923E-01 0.000E+00

     total cpu time spent up to now is      703.6 secs

     total energy              =   -4482.96919266 Ry
     estimated scf accuracy    <       0.00000054 Ry

     iteration # 45     ecut=    60.00 Ry     beta= 0.15
     Davidson diagonalization with overlap

---- Real-time Memory Report at c_bands before calling an iterative solver
             0 MiB given to the printing process from OS
             0 MiB allocation reported by mallinfo(arena+hblkhd)
          5647 MiB available memory on the node where the printing process lives
------------------
     ethr =  1.23E-10,  avg # of iterations =  3.1

     negative rho (up, down):  7.923E-01 0.000E+00

     total cpu time spent up to now is      718.6 secs

     total energy              =   -4482.96919256 Ry
     estimated scf accuracy    <       0.00000031 Ry

     iteration # 46     ecut=    60.00 Ry     beta= 0.15
     Davidson diagonalization with overlap

---- Real-time Memory Report at c_bands before calling an iterative solver
             0 MiB given to the printing process from OS
             0 MiB allocation reported by mallinfo(arena+hblkhd)
          5645 MiB available memory on the node where the printing process lives
------------------
     ethr =  7.05E-11,  avg # of iterations =  3.8

     negative rho (up, down):  7.923E-01 0.000E+00

     total cpu time spent up to now is      733.9 secs

     total energy              =   -4482.96919262 Ry
     estimated scf accuracy    <       0.00000013 Ry

     iteration # 47     ecut=    60.00 Ry     beta= 0.15
     Davidson diagonalization with overlap

---- Real-time Memory Report at c_bands before calling an iterative solver
             0 MiB given to the printing process from OS
             0 MiB allocation reported by mallinfo(arena+hblkhd)
          5651 MiB available memory on the node where the printing process lives
------------------
     ethr =  3.04E-11,  avg # of iterations =  2.8

     negative rho (up, down):  7.923E-01 0.000E+00

     total cpu time spent up to now is      748.6 secs

     total energy              =   -4482.96919266 Ry
     estimated scf accuracy    <       0.00000010 Ry

     iteration # 48     ecut=    60.00 Ry     beta= 0.15
     Davidson diagonalization with overlap

---- Real-time Memory Report at c_bands before calling an iterative solver
             0 MiB given to the printing process from OS
             0 MiB allocation reported by mallinfo(arena+hblkhd)
          5647 MiB available memory on the node where the printing process lives
------------------
     ethr =  2.34E-11,  avg # of iterations =  3.4

     negative rho (up, down):  7.923E-01 0.000E+00

     total cpu time spent up to now is      763.8 secs

     total energy              =   -4482.96919271 Ry
     estimated scf accuracy    <       0.00000007 Ry

     iteration # 49     ecut=    60.00 Ry     beta= 0.15
     Davidson diagonalization with overlap

---- Real-time Memory Report at c_bands before calling an iterative solver
             0 MiB given to the printing process from OS
             0 MiB allocation reported by mallinfo(arena+hblkhd)
          5659 MiB available memory on the node where the printing process lives
------------------
     ethr =  1.64E-11,  avg # of iterations =  4.5

     negative rho (up, down):  7.923E-01 0.000E+00

     total cpu time spent up to now is      779.5 secs

     total energy              =   -4482.96919272 Ry
     estimated scf accuracy    <       0.00000005 Ry

     iteration # 50     ecut=    60.00 Ry     beta= 0.15
     Davidson diagonalization with overlap

---- Real-time Memory Report at c_bands before calling an iterative solver
             0 MiB given to the printing process from OS
             0 MiB allocation reported by mallinfo(arena+hblkhd)
          5645 MiB available memory on the node where the printing process lives
------------------
     ethr =  1.03E-11,  avg # of iterations =  4.3

     negative rho (up, down):  7.923E-01 0.000E+00

     total cpu time spent up to now is      795.1 secs

     total energy              =   -4482.96919272 Ry
     estimated scf accuracy    <       0.00000002 Ry

     iteration # 51     ecut=    60.00 Ry     beta= 0.15
     Davidson diagonalization with overlap

---- Real-time Memory Report at c_bands before calling an iterative solver
             0 MiB given to the printing process from OS
             0 MiB allocation reported by mallinfo(arena+hblkhd)
          5647 MiB available memory on the node where the printing process lives
------------------
     ethr =  5.23E-12,  avg # of iterations =  3.9

     negative rho (up, down):  7.923E-01 0.000E+00

     total cpu time spent up to now is      810.5 secs

     total energy              =   -4482.96919272 Ry
     estimated scf accuracy    <       0.00000001 Ry

     iteration # 52     ecut=    60.00 Ry     beta= 0.15
     Davidson diagonalization with overlap

---- Real-time Memory Report at c_bands before calling an iterative solver
             0 MiB given to the printing process from OS
             0 MiB allocation reported by mallinfo(arena+hblkhd)
          5652 MiB available memory on the node where the printing process lives
------------------
     ethr =  3.02E-12,  avg # of iterations =  3.4

     negative rho (up, down):  7.923E-01 0.000E+00

     total cpu time spent up to now is      825.4 secs

     End of self-consistent calculation

          k = 0.0000 0.0000 0.0000 ( 65197 PWs)   bands (ev):

   -92.3279 -92.2720 -92.1816 -92.1325 -92.0732 -92.0341 -92.0171 -91.8946
   -55.6810 -55.6583 -55.5396 -55.5290 -55.5210 -55.5157 -55.4776 -55.4513
   -55.4352 -55.4330 -55.4230 -55.3821 -55.3634 -55.3254 -55.3075 -55.2725
   -55.2679 -55.2232 -55.2207 -55.2199 -55.2114 -55.1692 -55.1478 -55.0616
   -30.9150 -30.8957 -30.8117 -30.7550 -30.7269 -30.6682 -30.5318 -30.4211
   -29.4798 -29.4361 -29.4107 -29.3017 -22.2472 -14.7131 -14.6770 -14.5919
   -14.4609 -14.2795 -14.1551 -13.8542 -13.8389 -13.8048 -13.7693 -13.7631
   -13.7227 -13.7148 -13.6983 -13.6836 -13.6620 -13.6313 -13.5629 -13.4160
   -13.2475 -13.2057 -13.1721 -13.1483 -13.1273 -13.0832 -13.0424 -12.9619
   -12.8895 -12.8224 -12.8031 -12.7477 -12.7375 -12.7128 -12.6972 -12.6850
   -12.6529 -12.6324 -12.6165 -12.6066 -12.5907 -12.5664 -12.5568 -12.5381
   -12.4881 -12.4680 -12.4471 -12.3608 -12.3279 -12.3177 -11.9801 -11.8352
   -11.7135 -11.6400 -11.4936 -11.4190 -11.4078 -11.3856 -11.3679 -11.3039
   -11.2867 -11.2520 -11.2234 -11.1117 -11.0311 -11.0275  -5.8241  -3.1557
    -3.1452  -2.5738  -2.3401  -2.1106  -1.9653  -1.9004  -1.7574  -1.4518
    -1.4376  -1.4159  -1.3350  -1.3159  -1.2478  -1.2321  -1.1899  -1.1438
    -0.9643  -0.7422  -0.7133  -0.5614  -0.5479  -0.5046  -0.4871  -0.4427
    -0.4275  -0.3648  -0.3389  -0.2727  -0.2585  -0.1778  -0.0524  -0.0371
    -0.0085   0.0680   0.0746   0.0880   0.1605   0.2383   0.2604   0.3312
     0.3529   0.4081   0.4971   0.5475   0.5703   0.5769   0.8295   0.8448
     1.0146   1.0862   1.1480   1.1943   1.2851   1.3002   1.3177   1.3845
     1.4130   1.4482   1.5068   1.6424   1.6940   1.7172   1.7327   1.7411
     1.8125   1.8924   1.9814   1.9960   2.0537   2.0771   2.1135   2.1372
     2.1423   2.1982   2.2479   2.2585   2.2883   2.3332   2.3901   2.5189
     2.5959   2.6479   2.6631   2.8105   2.8266   2.8719   2.8844   2.9860
     3.0236   3.0478   3.0607   3.0689   3.0849   3.0967   3.1611   3.2738
     3.3061   3.3213   3.3285   3.3942   3.3984   3.4234   3.4322   3.4399
     3.4499   3.4576   3.4702   3.4760   3.4903   3.4992   3.5066   3.5269
     3.5479   3.5534   3.5646   3.5838   3.7057   3.7572   4.4300   4.7645
     4.7966   5.1487   5.3906   5.4937   5.6826   6.2832   6.3267   6.3661
     6.6212   6.6395   6.6848   6.7344   6.9535   7.1897   7.2609   7.3941
     7.4293   7.6582   7.7593   7.8909   7.9430   7.9688   8.0072   8.0536
     8.3039   8.3624   8.3929   8.4286   8.4593   8.5782   8.6612

     occupation numbers 
     1.0000   1.0000   1.0000   1.0000   1.0000   1.0000   1.0000   1.0000
     1.0000   1.0000   1.0000   1.0000   1.0000   1.0000   1.0000   1.0000
     1.0000   1.0000   1.0000   1.0000   1.0000   1.0000   1.0000   1.0000
     1.0000   1.0000   1.0000   1.0000   1.0000   1.0000   1.0000   1.0000
     1.0000   1.0000   1.0000   1.0000   1.0000   1.0000   1.0000   1.0000
     1.0000   1.0000   1.0000   1.0000   1.0000   1.0000   1.0000   1.0000
     1.0000   1.0000   1.0000   1.0000   1.0000   1.0000   1.0000   1.0000
     1.0000   1.0000   1.0000   1.0000   1.0000   1.0000   1.0000   1.0000
     1.0000   1.0000   1.0000   1.0000   1.0000   1.0000   1.0000   1.0000
     1.0000   1.0000   1.0000   1.0000   1.0000   1.0000   1.0000   1.0000
     1.0000   1.0000   1.0000   1.0000   1.0000   1.0000   1.0000   1.0000
     1.0000   1.0000   1.0000   1.0000   1.0000   1.0000   1.0000   1.0000
     1.0000   1.0000   1.0000   1.0000   1.0000   1.0000   1.0000   1.0000
     1.0000   1.0000   1.0000   1.0000   1.0000   1.0000   1.0000   1.0000
     1.0000   1.0000   1.0000   1.0000   1.0000   1.0000   1.0000   1.0000
     1.0000   1.0000   1.0000   1.0000   1.0000   1.0000   1.0000   1.0000
     1.0000   1.0000   1.0000   1.0000   1.0000   1.0000   1.0000   1.0000
     1.0000   1.0000   1.0000   1.0000   1.0000   1.0000   1.0000   1.0000
     1.0000   1.0000   1.0000   1.0000   1.0000   1.0000   1.0000   1.0000
     1.0000   1.0000   1.0000   1.0000   1.0000   1.0000   1.0000   1.0000
     1.0000   0.9999   0.9999   0.9999   0.9998   0.9998   0.9998   0.9997
     0.9997   0.9996   0.9994   0.9989   0.9985   0.9984   0.9982   0.9982
     0.9974   0.9963   0.9946   0.9943   0.9927   0.9920   0.9907   0.9898
     0.9896   0.9871   0.9844   0.9837   0.9819   0.9787   0.9740   0.9601
     0.9492   0.9406   0.9379   0.9063   0.9023   0.8901   0.8866   0.8549
     0.8418   0.8330   0.8282   0.8251   0.8189   0.8142   0.7876   0.7358
     0.7199   0.7123   0.7086   0.6743   0.6721   0.6585   0.6537   0.6495
     0.6440   0.6397   0.6327   0.6294   0.6213   0.6163   0.6121   0.6006
     0.5884   0.5853   0.5788   0.5676   0.4957   0.4652   0.1387   0.0567
     0.0515   0.0156   0.0060   0.0038   0.0016   0.0001   0.0000   0.0000
     0.0000   0.0000   0.0000   0.0000   0.0000   0.0000   0.0000   0.0000
     0.0000   0.0000   0.0000   0.0000   0.0000   0.0000   0.0000   0.0000
     0.0000   0.0000   0.0000   0.0000   0.0000   0.0000   0.0000

          k = 0.0000 0.2500 0.0000 ( 65257 PWs)   bands (ev):

   -92.3279 -92.2720 -92.1816 -92.1325 -92.0732 -92.0341 -92.0171 -91.8946
   -55.6810 -55.6583 -55.5396 -55.5290 -55.5210 -55.5157 -55.4776 -55.4513
   -55.4352 -55.4330 -55.4230 -55.3821 -55.3634 -55.3254 -55.3075 -55.2725
   -55.2679 -55.2232 -55.2207 -55.2199 -55.2114 -55.1692 -55.1478 -55.0616
   -30.9148 -30.8956 -30.8114 -30.7552 -30.7272 -30.6683 -30.5315 -30.4214
   -29.4792 -29.4358 -29.4113 -29.3020 -22.2472 -14.6761 -14.6509 -14.5668
   -14.4318 -14.3172 -14.1460 -13.9994 -13.8200 -13.7916 -13.7701 -13.7669
   -13.7403 -13.6833 -13.6776 -13.6623 -13.6471 -13.6151 -13.4831 -13.4467
   -13.2844 -13.2722 -13.2149 -13.1804 -13.1402 -13.0999 -13.0628 -12.9816
   -12.9491 -12.9223 -12.8586 -12.7940 -12.7839 -12.7455 -12.7290 -12.6708
   -12.6210 -12.5954 -12.5725 -12.5486 -12.5449 -12.5215 -12.5024 -12.4816
   -12.4508 -12.4358 -12.4209 -12.3590 -12.2395 -12.1707 -12.0414 -11.8865
   -11.7698 -11.7068 -11.4591 -11.4157 -11.3884 -11.3598 -11.3431 -11.2959
   -11.2845 -11.2622 -11.2281 -11.1259 -11.0728 -11.0621  -5.8241  -3.1559
    -3.1452  -2.4386  -2.2157  -2.0787  -1.8967  -1.8531  -1.6884  -1.4720
    -1.3839  -1.3708  -1.3160  -1.2126  -1.1975  -1.1623  -1.1377  -1.0940
    -0.8955  -0.7680  -0.7554  -0.6801  -0.6682  -0.5637  -0.5327  -0.4786
    -0.4542  -0.4092  -0.3478  -0.3230  -0.2889  -0.2604  -0.2426  -0.2089
    -0.1366  -0.0827  -0.0261   0.0845   0.1032   0.1472   0.2651   0.2994
     0.3633   0.4138   0.4798   0.4970   0.5244   0.5798   0.8773   0.9652
     0.9934   1.0848   1.1278   1.1463   1.2764   1.2946   1.3852   1.4108
     1.4424   1.5580   1.6419   1.6703   1.6931   1.7090   1.7407   1.8015
     1.8267   1.8529   1.9031   1.9322   1.9606   2.0360   2.0692   2.1073
     2.1639   2.2133   2.2448   2.2778   2.3148   2.3351   2.4256   2.5527
     2.6258   2.6463   2.7266   2.7697   2.8059   2.8141   2.8810   2.9238
     3.0046   3.0398   3.0556   3.0594   3.0983   3.2350   3.2566   3.2879
     3.3086   3.3274   3.3365   3.3441   3.3527   3.3824   3.3849   3.4019
     3.4052   3.4181   3.4336   3.4440   3.4551   3.4781   3.4885   3.4934
     3.5284   3.5451   3.6060   3.9547   3.9890   4.2478   4.6138   4.7589
     4.9116   5.0914   5.4236   5.5378   5.8114   5.9070   6.1686   6.3215
     6.3442   6.4683   6.5340   6.7496   6.8923   7.0378   7.2579   7.5177
     7.5597   7.7346   7.8044   7.8721   7.9076   7.9334   8.0885   8.1864
     8.2667   8.3725   8.5228   8.5914   8.6137   8.6887   8.9450

     occupation numbers 
     1.0000   1.0000   1.0000   1.0000   1.0000   1.0000   1.0000   1.0000
     1.0000   1.0000   1.0000   1.0000   1.0000   1.0000   1.0000   1.0000
     1.0000   1.0000   1.0000   1.0000   1.0000   1.0000   1.0000   1.0000
     1.0000   1.0000   1.0000   1.0000   1.0000   1.0000   1.0000   1.0000
     1.0000   1.0000   1.0000   1.0000   1.0000   1.0000   1.0000   1.0000
     1.0000   1.0000   1.0000   1.0000   1.0000   1.0000   1.0000   1.0000
     1.0000   1.0000   1.0000   1.0000   1.0000   1.0000   1.0000   1.0000
     1.0000   1.0000   1.0000   1.0000   1.0000   1.0000   1.0000   1.0000
     1.0000   1.0000   1.0000   1.0000   1.0000   1.0000   1.0000   1.0000
     1.0000   1.0000   1.0000   1.0000   1.0000   1.0000   1.0000   1.0000
     1.0000   1.0000   1.0000   1.0000   1.0000   1.0000   1.0000   1.0000
     1.0000   1.0000   1.0000   1.0000   1.0000   1.0000   1.0000   1.0000
     1.0000   1.0000   1.0000   1.0000   1.0000   1.0000   1.0000   1.0000
     1.0000   1.0000   1.0000   1.0000   1.0000   1.0000   1.0000   1.0000
     1.0000   1.0000   1.0000   1.0000   1.0000   1.0000   1.0000   1.0000
     1.0000   1.0000   1.0000   1.0000   1.0000   1.0000   1.0000   1.0000
     1.0000   1.0000   1.0000   1.0000   1.0000   1.0000   1.0000   1.0000
     1.0000   1.0000   1.0000   1.0000   1.0000   1.0000   1.0000   1.0000
     1.0000   1.0000   1.0000   1.0000   1.0000   1.0000   1.0000   1.0000
     1.0000   1.0000   1.0000   1.0000   1.0000   1.0000   1.0000   1.0000
     1.0000   0.9999   0.9999   0.9999   0.9998   0.9998   0.9997   0.9997
     0.9996   0.9993   0.9989   0.9987   0.9985   0.9984   0.9982   0.9976
     0.9973   0.9969   0.9962   0.9956   0.9951   0.9932   0.9922   0.9909
     0.9887   0.9863   0.9846   0.9826   0.9800   0.9785   0.9706   0.9556
     0.9444   0.9409   0.9255   0.9161   0.9075   0.9054   0.8876   0.8750
     0.8486   0.8360   0.8301   0.8287   0.8136   0.7543   0.7441   0.7289
     0.7187   0.7091   0.7045   0.7006   0.6962   0.6805   0.6793   0.6702
     0.6684   0.6614   0.6529   0.6472   0.6411   0.6282   0.6224   0.6196
     0.5997   0.5901   0.5546   0.3518   0.3331   0.2073   0.0870   0.0577
     0.0358   0.0193   0.0052   0.0032   0.0009   0.0005   0.0001   0.0000
     0.0000   0.0000   0.0000   0.0000   0.0000   0.0000   0.0000   0.0000
     0.0000   0.0000   0.0000   0.0000   0.0000   0.0000   0.0000   0.0000
     0.0000   0.0000   0.0000   0.0000   0.0000   0.0000   0.0000

          k = 0.0000-0.5000 0.0000 ( 65180 PWs)   bands (ev):

   -92.3279 -92.2720 -92.1816 -92.1325 -92.0732 -92.0341 -92.0171 -91.8946
   -55.6810 -55.6583 -55.5396 -55.5290 -55.5210 -55.5157 -55.4776 -55.4513
   -55.4352 -55.4330 -55.4230 -55.3821 -55.3634 -55.3254 -55.3075 -55.2725
   -55.2679 -55.2232 -55.2207 -55.2199 -55.2114 -55.1692 -55.1478 -55.0616
   -30.9146 -30.8955 -30.8110 -30.7554 -30.7276 -30.6685 -30.5312 -30.4217
   -29.4786 -29.4355 -29.4119 -29.3023 -22.2472 -14.6441 -14.5954 -14.5437
   -14.4200 -14.3306 -14.1937 -14.0487 -13.9253 -13.7894 -13.7681 -13.7331
   -13.6865 -13.6704 -13.6270 -13.6060 -13.5600 -13.5449 -13.5163 -13.4810
   -13.4650 -13.4169 -13.2166 -13.1624 -13.1495 -13.0900 -13.0831 -12.9945
   -12.9857 -12.9319 -12.9218 -12.8566 -12.7833 -12.7454 -12.7221 -12.7138
   -12.6068 -12.5945 -12.5670 -12.5395 -12.5198 -12.5191 -12.4842 -12.4399
   -12.3998 -12.3649 -12.3423 -12.2890 -12.1525 -12.1050 -11.9621 -11.9599
   -11.8772 -11.8337 -11.4127 -11.4107 -11.3836 -11.3453 -11.3114 -11.3005
   -11.2578 -11.2538 -11.2097 -11.1474 -11.1335 -11.1191  -5.8241  -3.1561
    -3.1452  -2.2242  -2.1639  -2.0126  -1.9399  -1.6612  -1.5770  -1.4488
    -1.3101  -1.2757  -1.2544  -1.1748  -1.1449  -1.0630  -1.0279  -0.9525
    -0.9103  -0.8706  -0.8440  -0.7890  -0.7510  -0.7052  -0.6693  -0.6344
    -0.6007  -0.4903  -0.4448  -0.4134  -0.4122  -0.3262  -0.2923  -0.2707
    -0.2224  -0.1385  -0.0709   0.0087   0.0346   0.1398   0.1877   0.3388
     0.3632   0.3959   0.4530   0.5692   0.6132   0.7609   0.8244   0.8330
     0.9610   0.9961   1.1073   1.2386   1.3467   1.3771   1.4097   1.4171
     1.4594   1.4764   1.5127   1.5282   1.5397   1.6484   1.7071   1.7351
     1.7621   2.0158   2.0507   2.0694   2.1631   2.1915   2.2200   2.2370
     2.2723   2.2806   2.2914   2.3258   2.3666   2.3937   2.4191   2.4346
     2.4637   2.5170   2.5951   2.6190   2.8060   2.9708   2.9790   2.9975
     3.0330   3.0372   3.0480   3.0608   3.0947   3.1029   3.1147   3.1691
     3.1902   3.2648   3.2781   3.3452   3.3547   3.3789   3.3802   3.4009
     3.4039   3.4082   3.4112   3.4154   3.4273   3.4481   3.4490   3.5137
     3.5195   3.5347   3.5890   4.4892   4.4968   4.5294   4.5994   4.9554
     5.1425   5.2350   5.4664   5.5076   5.5853   5.8251   5.9576   5.9999
     6.2223   6.3795   6.3940   6.4292   7.0163   7.0514   7.1624   7.4198
     7.5927   7.6441   7.6689   8.0334   8.0764   8.1147   8.2062   8.2745
     8.4152   8.6322   8.6473   8.7143   8.7482   8.8520   8.9763

     occupation numbers 
     1.0000   1.0000   1.0000   1.0000   1.0000   1.0000   1.0000   1.0000
     1.0000   1.0000   1.0000   1.0000   1.0000   1.0000   1.0000   1.0000
     1.0000   1.0000   1.0000   1.0000   1.0000   1.0000   1.0000   1.0000
     1.0000   1.0000   1.0000   1.0000   1.0000   1.0000   1.0000   1.0000
     1.0000   1.0000   1.0000   1.0000   1.0000   1.0000   1.0000   1.0000
     1.0000   1.0000   1.0000   1.0000   1.0000   1.0000   1.0000   1.0000
     1.0000   1.0000   1.0000   1.0000   1.0000   1.0000   1.0000   1.0000
     1.0000   1.0000   1.0000   1.0000   1.0000   1.0000   1.0000   1.0000
     1.0000   1.0000   1.0000   1.0000   1.0000   1.0000   1.0000   1.0000
     1.0000   1.0000   1.0000   1.0000   1.0000   1.0000   1.0000   1.0000
     1.0000   1.0000   1.0000   1.0000   1.0000   1.0000   1.0000   1.0000
     1.0000   1.0000   1.0000   1.0000   1.0000   1.0000   1.0000   1.0000
     1.0000   1.0000   1.0000   1.0000   1.0000   1.0000   1.0000   1.0000
     1.0000   1.0000   1.0000   1.0000   1.0000   1.0000   1.0000   1.0000
     1.0000   1.0000   1.0000   1.0000   1.0000   1.0000   1.0000   1.0000
     1.0000   1.0000   1.0000   1.0000   1.0000   1.0000   1.0000   1.0000
     1.0000   1.0000   1.0000   1.0000   1.0000   1.0000   1.0000   1.0000
     1.0000   1.0000   1.0000   1.0000   1.0000   1.0000   1.0000   1.0000
     1.0000   1.0000   1.0000   1.0000   1.0000   1.0000   1.0000   1.0000
     1.0000   1.0000   1.0000   1.0000   1.0000   1.0000   1.0000   1.0000
     1.0000   1.0000   0.9999   0.9999   0.9998   0.9997   0.9997   0.9996
     0.9996   0.9995   0.9994   0.9994   0.9993   0.9988   0.9984   0.9982
     0.9980   0.9938   0.9928   0.9922   0.9887   0.9874   0.9859   0.9850
     0.9829   0.9824   0.9817   0.9792   0.9760   0.9737   0.9713   0.9697
     0.9666   0.9603   0.9493   0.9455   0.9074   0.8600   0.8573   0.8510
     0.8384   0.8369   0.8329   0.8281   0.8150   0.8117   0.8070   0.7841
     0.7748   0.7402   0.7337   0.7001   0.6951   0.6824   0.6817   0.6707
     0.6691   0.6668   0.6651   0.6629   0.6564   0.6450   0.6444   0.6081
     0.6048   0.5961   0.5646   0.1201   0.1179   0.1086   0.0905   0.0310
     0.0160   0.0113   0.0043   0.0036   0.0025   0.0008   0.0004   0.0003
     0.0001   0.0000   0.0000   0.0000   0.0000   0.0000   0.0000   0.0000
     0.0000   0.0000   0.0000   0.0000   0.0000   0.0000   0.0000   0.0000
     0.0000   0.0000   0.0000   0.0000   0.0000   0.0000   0.0000

          k = 0.2500 0.2500 0.0000 ( 65198 PWs)   bands (ev):

   -92.3279 -92.2720 -92.1816 -92.1325 -92.0732 -92.0341 -92.0171 -91.8946
   -55.6810 -55.6583 -55.5396 -55.5290 -55.5210 -55.5157 -55.4776 -55.4513
   -55.4352 -55.4330 -55.4230 -55.3821 -55.3634 -55.3254 -55.3075 -55.2725
   -55.2679 -55.2232 -55.2207 -55.2199 -55.2114 -55.1692 -55.1478 -55.0616
   -30.9131 -30.8973 -30.8113 -30.7548 -30.7271 -30.6687 -30.5316 -30.4215
   -29.4783 -29.4368 -29.4109 -29.3024 -22.2472 -14.6482 -14.6149 -14.5391
   -14.4215 -14.3091 -14.1846 -14.1048 -13.9063 -13.7683 -13.7437 -13.7329
   -13.6987 -13.6679 -13.6464 -13.6235 -13.5938 -13.5773 -13.4761 -13.4609
   -13.3003 -13.2876 -13.2563 -13.2365 -13.2029 -13.1494 -13.1155 -13.0634
   -12.9791 -12.9416 -12.8688 -12.7837 -12.7580 -12.7364 -12.6934 -12.6654
   -12.6567 -12.6056 -12.5865 -12.5805 -12.5436 -12.5263 -12.4712 -12.4410
   -12.3874 -12.3814 -12.3592 -12.3502 -12.1933 -12.0900 -12.0762 -11.9157
   -11.7991 -11.7545 -11.4313 -11.3992 -11.3888 -11.3816 -11.3190 -11.2841
   -11.2774 -11.2421 -11.2346 -11.1424 -11.1010 -11.0835  -5.8241  -3.1559
    -3.1454  -2.3006  -2.0900  -1.9729  -1.8799  -1.7571  -1.6916  -1.4970
    -1.3494  -1.3289  -1.3025  -1.2074  -1.1721  -1.0801  -1.0531  -1.0032
    -0.8705  -0.8232  -0.7516  -0.7058  -0.6624  -0.6374  -0.6119  -0.5709
    -0.5543  -0.4647  -0.4152  -0.3535  -0.3039  -0.2745  -0.2203  -0.2103
    -0.1475  -0.0969  -0.0451  -0.0061   0.0749   0.1283   0.1578   0.2002
     0.2535   0.3128   0.3613   0.3888   0.4566   0.5032   0.7714   0.9151
     0.9563   1.0048   1.0503   1.1073   1.1683   1.2188   1.2572   1.5314
     1.6042   1.6785   1.7045   1.7473   1.7843   1.8189   1.8550   1.8735
     1.9016   1.9380   1.9495   1.9687   2.0083   2.0513   2.0895   2.1315
     2.1725   2.1852   2.2141   2.2544   2.3053   2.3359   2.4674   2.5327
     2.5739   2.6045   2.6613   2.7306   2.7607   2.7986   2.8191   2.8342
     2.9473   2.9820   3.0573   3.0709   3.0967   3.2457   3.2630   3.2697
     3.2852   3.2983   3.3119   3.3251   3.3330   3.3424   3.3560   3.3678
     3.3877   3.3938   3.4047   3.4245   3.4393   3.4490   3.4799   3.7820
     3.8730   3.9086   3.9721   3.9939   4.2178   4.3236   4.6498   4.8083
     4.9869   5.1473   5.3357   5.5709   5.9191   5.9601   5.9959   6.1279
     6.2106   6.2615   6.3676   6.4091   6.9246   6.9871   7.0661   7.1886
     7.7148   7.8121   7.8533   7.8988   8.0346   8.1443   8.1998   8.2738
     8.3464   8.4471   8.5172   8.6827   8.7227   8.7851   8.9223

     occupation numbers 
     1.0000   1.0000   1.0000   1.0000   1.0000   1.0000   1.0000   1.0000
     1.0000   1.0000   1.0000   1.0000   1.0000   1.0000   1.0000   1.0000
     1.0000   1.0000   1.0000   1.0000   1.0000   1.0000   1.0000   1.0000
     1.0000   1.0000   1.0000   1.0000   1.0000   1.0000   1.0000   1.0000
     1.0000   1.0000   1.0000   1.0000   1.0000   1.0000   1.0000   1.0000
     1.0000   1.0000   1.0000   1.0000   1.0000   1.0000   1.0000   1.0000
     1.0000   1.0000   1.0000   1.0000   1.0000   1.0000   1.0000   1.0000
     1.0000   1.0000   1.0000   1.0000   1.0000   1.0000   1.0000   1.0000
     1.0000   1.0000   1.0000   1.0000   1.0000   1.0000   1.0000   1.0000
     1.0000   1.0000   1.0000   1.0000   1.0000   1.0000   1.0000   1.0000
     1.0000   1.0000   1.0000   1.0000   1.0000   1.0000   1.0000   1.0000
     1.0000   1.0000   1.0000   1.0000   1.0000   1.0000   1.0000   1.0000
     1.0000   1.0000   1.0000   1.0000   1.0000   1.0000   1.0000   1.0000
     1.0000   1.0000   1.0000   1.0000   1.0000   1.0000   1.0000   1.0000
     1.0000   1.0000   1.0000   1.0000   1.0000   1.0000   1.0000   1.0000
     1.0000   1.0000   1.0000   1.0000   1.0000   1.0000   1.0000   1.0000
     1.0000   1.0000   1.0000   1.0000   1.0000   1.0000   1.0000   1.0000
     1.0000   1.0000   1.0000   1.0000   1.0000   1.0000   1.0000   1.0000
     1.0000   1.0000   1.0000   1.0000   1.0000   1.0000   1.0000   1.0000
     1.0000   1.0000   1.0000   1.0000   1.0000   1.0000   1.0000   1.0000
     1.0000   1.0000   1.0000   0.9999   0.9999   0.9999   0.9999   0.9994
     0.9991   0.9986   0.9985   0.9981   0.9978   0.9974   0.9969   0.9966
     0.9962   0.9955   0.9953   0.9949   0.9940   0.9928   0.9916   0.9900
     0.9883   0.9877   0.9862   0.9840   0.9807   0.9785   0.9662   0.9583
     0.9525   0.9479   0.9382   0.9247   0.9181   0.9093   0.9042   0.9003
     0.8676   0.8563   0.8294   0.8243   0.8142   0.7493   0.7411   0.7378
     0.7303   0.7238   0.7170   0.7104   0.7063   0.7015   0.6945   0.6883
     0.6778   0.6745   0.6686   0.6579   0.6498   0.6445   0.6272   0.4506
     0.3977   0.3775   0.3423   0.3304   0.2203   0.1766   0.0789   0.0497
     0.0279   0.0157   0.0075   0.0027   0.0005   0.0004   0.0003   0.0002
     0.0001   0.0001   0.0000   0.0000   0.0000   0.0000   0.0000   0.0000
     0.0000   0.0000   0.0000   0.0000   0.0000   0.0000   0.0000   0.0000
     0.0000   0.0000   0.0000   0.0000   0.0000   0.0000   0.0000

          k = 0.2500-0.5000 0.0000 ( 65138 PWs)   bands (ev):

   -92.3279 -92.2720 -92.1816 -92.1325 -92.0732 -92.0341 -92.0171 -91.8946
   -55.6810 -55.6583 -55.5396 -55.5290 -55.5210 -55.5157 -55.4776 -55.4513
   -55.4352 -55.4330 -55.4230 -55.3821 -55.3634 -55.3254 -55.3075 -55.2725
   -55.2679 -55.2232 -55.2207 -55.2199 -55.2114 -55.1692 -55.1478 -55.0616
   -30.9129 -30.8972 -30.8109 -30.7551 -30.7275 -30.6688 -30.5313 -30.4218
   -29.4776 -29.4365 -29.4115 -29.3027 -22.2472 -14.6137 -14.5684 -14.5005
   -14.3887 -14.3552 -14.2336 -14.1506 -14.0213 -13.7681 -13.7073 -13.6622
   -13.6308 -13.6117 -13.5946 -13.5773 -13.5455 -13.5327 -13.4975 -13.4556
   -13.4430 -13.4123 -13.3003 -13.2522 -13.2210 -13.1726 -13.1413 -13.1038
   -13.0364 -12.9932 -12.8443 -12.7805 -12.7694 -12.7224 -12.6894 -12.6671
   -12.6266 -12.6074 -12.5812 -12.5505 -12.5355 -12.5162 -12.4821 -12.4534
   -12.4116 -12.3715 -12.2929 -12.2615 -12.1592 -12.0846 -11.9595 -11.9348
   -11.8681 -11.8375 -11.4067 -11.3949 -11.3838 -11.3567 -11.3252 -11.2969
   -11.2558 -11.2278 -11.2058 -11.1605 -11.1345 -11.1232  -5.8241  -3.1560
    -3.1454  -2.0830  -2.0162  -1.8867  -1.8090  -1.6818  -1.5971  -1.4733
    -1.3218  -1.2698  -1.2470  -1.1834  -1.1701  -1.0738  -1.0068  -0.9210
    -0.8742  -0.8644  -0.7990  -0.7588  -0.7228  -0.6761  -0.6395  -0.6043
    -0.5634  -0.5533  -0.5073  -0.4793  -0.4386  -0.4076  -0.3396  -0.2402
    -0.2002  -0.1238  -0.0606  -0.0143   0.0317   0.0550   0.0992   0.2634
     0.2738   0.3758   0.4196   0.4277   0.4756   0.4982   0.5409   0.5662
     0.6426   0.8975   0.9895   1.0703   1.1352   1.3865   1.4155   1.5035
     1.5301   1.7009   1.7315   1.7763   1.7990   1.8181   1.8377   1.8972
     1.9399   1.9791   2.0575   2.1330   2.1761   2.2014   2.2128   2.2470
     2.2611   2.2704   2.3105   2.3271   2.3430   2.3791   2.3978   2.4258
     2.4569   2.5150   2.5507   2.6263   2.7739   2.9247   2.9409   2.9583
     2.9833   3.0087   3.0354   3.0538   3.0627   3.0751   3.0902   3.1050
     3.1964   3.2432   3.2643   3.2661   3.2824   3.3030   3.3172   3.3355
     3.3432   3.3719   3.3848   3.4012   3.4102   3.4188   3.4298   3.9457
     3.9514   4.1130   4.1606   4.4956   4.5386   4.5463   4.6669   5.0211
     5.1733   5.2653   5.4734   5.5012   5.6265   5.6844   5.8890   5.9260
     6.0952   6.1346   6.2844   6.4798   6.5763   6.6492   7.0984   7.2934
     7.5111   7.6363   7.9654   8.0828   8.1724   8.2115   8.3366   8.3981
     8.5183   8.5715   8.6660   8.7840   8.8634   8.9216   8.9580

     occupation numbers 
     1.0000   1.0000   1.0000   1.0000   1.0000   1.0000   1.0000   1.0000
     1.0000   1.0000   1.0000   1.0000   1.0000   1.0000   1.0000   1.0000
     1.0000   1.0000   1.0000   1.0000   1.0000   1.0000   1.0000   1.0000
     1.0000   1.0000   1.0000   1.0000   1.0000   1.0000   1.0000   1.0000
     1.0000   1.0000   1.0000   1.0000   1.0000   1.0000   1.0000   1.0000
     1.0000   1.0000   1.0000   1.0000   1.0000   1.0000   1.0000   1.0000
     1.0000   1.0000   1.0000   1.0000   1.0000   1.0000   1.0000   1.0000
     1.0000   1.0000   1.0000   1.0000   1.0000   1.0000   1.0000   1.0000
     1.0000   1.0000   1.0000   1.0000   1.0000   1.0000   1.0000   1.0000
     1.0000   1.0000   1.0000   1.0000   1.0000   1.0000   1.0000   1.0000
     1.0000   1.0000   1.0000   1.0000   1.0000   1.0000   1.0000   1.0000
     1.0000   1.0000   1.0000   1.0000   1.0000   1.0000   1.0000   1.0000
     1.0000   1.0000   1.0000   1.0000   1.0000   1.0000   1.0000   1.0000
     1.0000   1.0000   1.0000   1.0000   1.0000   1.0000   1.0000   1.0000
     1.0000   1.0000   1.0000   1.0000   1.0000   1.0000   1.0000   1.0000
     1.0000   1.0000   1.0000   1.0000   1.0000   1.0000   1.0000   1.0000
     1.0000   1.0000   1.0000   1.0000   1.0000   1.0000   1.0000   1.0000
     1.0000   1.0000   1.0000   1.0000   1.0000   1.0000   1.0000   1.0000
     1.0000   1.0000   1.0000   1.0000   1.0000   1.0000   1.0000   1.0000
     1.0000   1.0000   1.0000   1.0000   1.0000   1.0000   1.0000   1.0000
     1.0000   1.0000   1.0000   1.0000   0.9999   0.9997   0.9997   0.9994
     0.9994   0.9985   0.9983   0.9978   0.9976   0.9974   0.9971   0.9963
     0.9955   0.9947   0.9926   0.9899   0.9881   0.9869   0.9863   0.9844
     0.9836   0.9830   0.9803   0.9791   0.9779   0.9749   0.9733   0.9706
     0.9674   0.9606   0.9558   0.9443   0.9151   0.8747   0.8697   0.8641
     0.8559   0.8471   0.8376   0.8308   0.8274   0.8227   0.8168   0.8109
     0.7720   0.7505   0.7404   0.7396   0.7316   0.7215   0.7143   0.7050
     0.7011   0.6861   0.6793   0.6705   0.6657   0.6610   0.6550   0.3567
     0.3536   0.2691   0.2463   0.1183   0.1061   0.1040   0.0752   0.0248
     0.0143   0.0100   0.0042   0.0037   0.0021   0.0016   0.0006   0.0005
     0.0002   0.0001   0.0001   0.0000   0.0000   0.0000   0.0000   0.0000
     0.0000   0.0000   0.0000   0.0000   0.0000   0.0000   0.0000   0.0000
     0.0000   0.0000   0.0000   0.0000   0.0000   0.0000   0.0000

          k =-0.5000-0.5000 0.0000 ( 65132 PWs)   bands (ev):

   -92.3279 -92.2720 -92.1816 -92.1325 -92.0732 -92.0341 -92.0171 -91.8946
   -55.6810 -55.6583 -55.5396 -55.5290 -55.5210 -55.5157 -55.4776 -55.4513
   -55.4352 -55.4330 -55.4230 -55.3821 -55.3634 -55.3254 -55.3075 -55.2725
   -55.2679 -55.2232 -55.2207 -55.2199 -55.2114 -55.1692 -55.1478 -55.0615
   -30.9107 -30.8994 -30.8108 -30.7547 -30.7274 -30.6692 -30.5314 -30.4219
   -29.4766 -29.4375 -29.4111 -29.3032 -22.2472 -14.5675 -14.5408 -14.4239
   -14.4127 -14.3222 -14.2799 -14.2553 -14.1203 -13.7680 -13.6200 -13.6102
   -13.5725 -13.5568 -13.5381 -13.5292 -13.4929 -13.4843 -13.4736 -13.4654
   -13.4506 -13.3706 -13.3628 -13.3441 -13.3178 -13.3001 -13.2174 -13.1977
   -13.0865 -13.0425 -12.7955 -12.7652 -12.6989 -12.6904 -12.6649 -12.6577
   -12.6225 -12.6194 -12.6110 -12.5917 -12.5300 -12.5028 -12.4775 -12.4714
   -12.4265 -12.3827 -12.2427 -12.2351 -12.1756 -12.0656 -11.9559 -11.9063
   -11.8604 -11.8433 -11.4029 -11.3910 -11.3732 -11.3564 -11.3218 -11.3037
   -11.2695 -11.2081 -11.1881 -11.1825 -11.1322 -11.1290  -5.8240  -3.1560
    -3.1456  -1.8601  -1.7835  -1.7734  -1.6990  -1.6610  -1.5829  -1.5152
    -1.3897  -1.2721  -1.2424  -1.2038  -1.1453  -1.0739  -1.0603  -0.9884
    -0.9459  -0.8308  -0.8036  -0.7548  -0.7218  -0.6580  -0.6150  -0.5954
    -0.5843  -0.5321  -0.4831  -0.4725  -0.3572  -0.2993  -0.2528  -0.2043
    -0.1806  -0.1693  -0.1319  -0.0924  -0.0596  -0.0442   0.0427   0.1060
     0.1587   0.1772   0.2547   0.3018   0.3163   0.3743   0.3938   0.4135
     0.4304   0.8641   0.9027   1.0116   1.0524   1.4213   1.4343   1.4655
     1.5058   1.7830   1.8028   1.8096   1.8477   1.9827   2.0794   2.1045
     2.1388   2.1480   2.1773   2.1883   2.2201   2.2258   2.2336   2.2495
     2.3122   2.3149   2.3420   2.3459   2.3724   2.3821   2.4216   2.4535
     2.4630   2.4995   2.5236   2.5972   2.6658   2.9356   2.9685   2.9849
     3.0082   3.0112   3.0381   3.0491   3.0660   3.0688   3.0821   3.0956
     3.1019   3.1195   3.1321   3.1968   3.2004   3.2217   3.2349   3.2456
     3.2646   3.2705   3.2802   3.3800   3.3845   3.4143   3.4247   4.3736
     4.3871   4.4135   4.4155   4.6902   4.7620   4.7898   5.0294   5.1498
[...]
     0.0000   0.0000   0.0000   0.0000   0.0000   0.0000   0.0000   0.0000
     0.0000   0.0000   0.0000   0.0000   0.0000   0.0000   0.0000

          k =-0.5000 0.0000 0.0000 ( 65180 PWs)   bands (ev):

   -92.3279 -92.2720 -92.1816 -92.1325 -92.0732 -92.0341 -92.0171 -91.8946
   -55.6810 -55.6583 -55.5396 -55.5290 -55.5210 -55.5157 -55.4776 -55.4513
   -55.4352 -55.4330 -55.4230 -55.3821 -55.3634 -55.3254 -55.3075 -55.2725
   -55.2679 -55.2232 -55.2207 -55.2199 -55.2114 -55.1692 -55.1478 -55.0616
   -30.9111 -30.8997 -30.8115 -30.7543 -30.7267 -30.6689 -30.5320 -30.4213
   -29.4779 -29.4381 -29.4099 -29.3025 -22.2472 -14.6478 -14.5988 -14.5367
   -14.4341 -14.3226 -14.1793 -14.0391 -13.9059 -13.7700 -13.7679 -13.7618
   -13.7398 -13.6901 -13.6287 -13.5952 -13.5522 -13.5472 -13.5326 -13.4741
   -13.4721 -13.3736 -13.1880 -13.1742 -13.1288 -13.1203 -13.0954 -12.9991
   -12.9750 -12.9069 -12.8889 -12.8833 -12.8006 -12.6925 -12.6885 -12.6838
   -12.6666 -12.6494 -12.6062 -12.5926 -12.5779 -12.5559 -12.4545 -12.3694
   -12.3384 -12.3305 -12.2776 -12.2684 -12.1785 -12.1607 -12.0220 -11.9657
   -11.8541 -11.8151 -11.4102 -11.3890 -11.3821 -11.3669 -11.3492 -11.3080
   -11.2448 -11.2277 -11.1956 -11.1496 -11.1402 -11.1244  -5.8240  -3.1557
    -3.1456  -2.2139  -2.1749  -2.0099  -1.9711  -1.6599  -1.5849  -1.4344
    -1.3168  -1.2788  -1.2326  -1.1840  -1.1581  -1.0370  -0.9913  -0.9779
    -0.8943  -0.8592  -0.8460  -0.8117  -0.7573  -0.6869  -0.6562  -0.6316
    -0.5375  -0.4864  -0.4381  -0.4061  -0.3840  -0.3559  -0.3072  -0.2825
    -0.2458  -0.1521  -0.0760  -0.0175   0.0471   0.1996   0.2496   0.3108
     0.3296   0.3866   0.4210   0.5467   0.5881   0.6349   0.8085   0.9063
     0.9516   1.0291   1.0878   1.2240   1.2357   1.3629   1.3944   1.4487
     1.4715   1.5145   1.5258   1.5700   1.5978   1.6597   1.7072   1.7547
     1.7640   2.0586   2.0626   2.0731   2.0928   2.2155   2.2249   2.2304
     2.2503   2.2816   2.2943   2.3308   2.3607   2.3775   2.4463   2.4491
     2.5072   2.5223   2.5867   2.6906   2.7853   2.8676   2.8824   2.9636
     2.9975   3.0233   3.0581   3.0844   3.0981   3.1044   3.1083   3.1369
     3.2052   3.2491   3.2917   3.3229   3.3698   3.3732   3.3746   3.3870
     3.4011   3.4134   3.4280   3.4313   3.4517   3.4582   3.4792   3.5001
     3.5044   3.6314   3.6384   4.4403   4.4704   4.5348   4.6605   4.9987
     5.1409   5.2545   5.3126   5.4443   5.7197   5.8792   5.9572   5.9895
     6.1645   6.3576   6.3940   6.4635   6.9860   7.0533   7.1573   7.4609
     7.5052   7.6518   7.7877   7.9336   7.9926   8.1020   8.2045   8.3703
     8.5185   8.6504   8.6955   8.7282   8.7347   8.8710   8.9467

     occupation numbers 
     1.0000   1.0000   1.0000   1.0000   1.0000   1.0000   1.0000   1.0000
     1.0000   1.0000   1.0000   1.0000   1.0000   1.0000   1.0000   1.0000
     1.0000   1.0000   1.0000   1.0000   1.0000   1.0000   1.0000   1.0000
     1.0000   1.0000   1.0000   1.0000   1.0000   1.0000   1.0000   1.0000
     1.0000   1.0000   1.0000   1.0000   1.0000   1.0000   1.0000   1.0000
     1.0000   1.0000   1.0000   1.0000   1.0000   1.0000   1.0000   1.0000
     1.0000   1.0000   1.0000   1.0000   1.0000   1.0000   1.0000   1.0000
     1.0000   1.0000   1.0000   1.0000   1.0000   1.0000   1.0000   1.0000
     1.0000   1.0000   1.0000   1.0000   1.0000   1.0000   1.0000   1.0000
     1.0000   1.0000   1.0000   1.0000   1.0000   1.0000   1.0000   1.0000
     1.0000   1.0000   1.0000   1.0000   1.0000   1.0000   1.0000   1.0000
     1.0000   1.0000   1.0000   1.0000   1.0000   1.0000   1.0000   1.0000
     1.0000   1.0000   1.0000   1.0000   1.0000   1.0000   1.0000   1.0000
     1.0000   1.0000   1.0000   1.0000   1.0000   1.0000   1.0000   1.0000
     1.0000   1.0000   1.0000   1.0000   1.0000   1.0000   1.0000   1.0000
     1.0000   1.0000   1.0000   1.0000   1.0000   1.0000   1.0000   1.0000
     1.0000   1.0000   1.0000   1.0000   1.0000   1.0000   1.0000   1.0000
     1.0000   1.0000   1.0000   1.0000   1.0000   1.0000   1.0000   1.0000
     1.0000   1.0000   1.0000   1.0000   1.0000   1.0000   1.0000   1.0000
     1.0000   1.0000   1.0000   1.0000   1.0000   1.0000   1.0000   1.0000
     1.0000   1.0000   0.9999   0.9999   0.9999   0.9997   0.9997   0.9996
     0.9995   0.9994   0.9994   0.9992   0.9991   0.9988   0.9984   0.9981
     0.9980   0.9926   0.9924   0.9921   0.9914   0.9862   0.9857   0.9854
     0.9842   0.9823   0.9815   0.9789   0.9765   0.9751   0.9685   0.9682
     0.9615   0.9596   0.9506   0.9327   0.9124   0.8914   0.8872   0.8624
     0.8510   0.8420   0.8291   0.8191   0.8136   0.8111   0.8096   0.7978
     0.7680   0.7477   0.7271   0.7114   0.6872   0.6855   0.6847   0.6781
     0.6706   0.6640   0.6560   0.6542   0.6430   0.6393   0.6276   0.6158
     0.6134   0.5396   0.5356   0.1353   0.1258   0.1071   0.0766   0.0268
     0.0161   0.0104   0.0083   0.0048   0.0013   0.0006   0.0004   0.0003
     0.0001   0.0000   0.0000   0.0000   0.0000   0.0000   0.0000   0.0000
     0.0000   0.0000   0.0000   0.0000   0.0000   0.0000   0.0000   0.0000
     0.0000   0.0000   0.0000   0.0000   0.0000   0.0000   0.0000

          k =-0.2500 0.2500 0.0000 ( 65198 PWs)   bands (ev):

   -92.3279 -92.2720 -92.1816 -92.1325 -92.0732 -92.0341 -92.0171 -91.8946
   -55.6810 -55.6583 -55.5396 -55.5290 -55.5210 -55.5157 -55.4776 -55.4513
   -55.4352 -55.4330 -55.4230 -55.3821 -55.3634 -55.3254 -55.3075 -55.2725
   -55.2679 -55.2232 -55.2207 -55.2199 -55.2114 -55.1692 -55.1478 -55.0616
   -30.9131 -30.8973 -30.8113 -30.7548 -30.7271 -30.6687 -30.5316 -30.4215
   -29.4783 -29.4368 -29.4109 -29.3024 -22.2472 -14.6496 -14.6138 -14.5377
   -14.4194 -14.3158 -14.1887 -14.0967 -13.8979 -13.7682 -13.7515 -13.7210
   -13.7127 -13.6629 -13.6397 -13.6243 -13.6132 -13.5757 -13.4726 -13.4617
   -13.3090 -13.2831 -13.2554 -13.2341 -13.2040 -13.1353 -13.1064 -13.0731
   -12.9895 -12.9417 -12.8621 -12.7860 -12.7561 -12.7337 -12.6827 -12.6661
   -12.6392 -12.6157 -12.5931 -12.5778 -12.5630 -12.5355 -12.4843 -12.4302
   -12.4081 -12.3771 -12.3559 -12.3290 -12.1734 -12.0974 -12.0797 -11.9215
   -11.8023 -11.7499 -11.4306 -11.4087 -11.3816 -11.3694 -11.3286 -11.2938
   -11.2707 -11.2494 -11.2268 -11.1422 -11.0964 -11.0868  -5.8241  -3.1559
    -3.1454  -2.2989  -2.0890  -1.9686  -1.8818  -1.7613  -1.6942  -1.4947
    -1.3460  -1.3267  -1.3004  -1.2080  -1.1708  -1.0797  -1.0467  -1.0207
    -0.8761  -0.8215  -0.7546  -0.7253  -0.6662  -0.6428  -0.6023  -0.5732
    -0.5333  -0.4713  -0.4246  -0.3649  -0.2949  -0.2707  -0.2167  -0.1886
    -0.1440  -0.0878  -0.0479  -0.0005   0.0930   0.1316   0.1361   0.1869
     0.2511   0.3134   0.3640   0.3923   0.4602   0.5012   0.7532   0.9172
     0.9639   0.9975   1.0548   1.1086   1.1683   1.2263   1.2551   1.5386
     1.6555   1.6942   1.7244   1.7343   1.7768   1.7942   1.8377   1.8677
     1.8852   1.9111   1.9489   1.9615   2.0109   2.0255   2.0701   2.1424
     2.1634   2.1850   2.2205   2.2516   2.2871   2.3409   2.4569   2.5612
     2.6003   2.6428   2.6637   2.7292   2.7737   2.7994   2.8205   2.8450
     2.9485   2.9805   3.0574   3.0688   3.0987   3.2522   3.2610   3.2745
     3.2850   3.2952   3.3085   3.3149   3.3321   3.3410   3.3571   3.3665
     3.3795   3.3889   3.3952   3.4266   3.4387   3.4481   3.4818   3.7751
     3.8560   3.9118   3.9763   4.0013   4.2024   4.3320   4.6489   4.8090
     4.9829   5.1493   5.3459   5.5726   5.9196   5.9526   5.9995   6.1334
     6.2074   6.2590   6.3634   6.4148   6.9239   6.9764   7.0674   7.2095
     7.7151   7.8067   7.8524   7.9047   7.9936   8.1464   8.1933   8.3077
     8.3584   8.4481   8.4971   8.6880   8.7274   8.7874   8.9391

     occupation numbers 
     1.0000   1.0000   1.0000   1.0000   1.0000   1.0000   1.0000   1.0000
     1.0000   1.0000   1.0000   1.0000   1.0000   1.0000   1.0000   1.0000
     1.0000   1.0000   1.0000   1.0000   1.0000   1.0000   1.0000   1.0000
     1.0000   1.0000   1.0000   1.0000   1.0000   1.0000   1.0000   1.0000
     1.0000   1.0000   1.0000   1.0000   1.0000   1.0000   1.0000   1.0000
     1.0000   1.0000   1.0000   1.0000   1.0000   1.0000   1.0000   1.0000
     1.0000   1.0000   1.0000   1.0000   1.0000   1.0000   1.0000   1.0000
     1.0000   1.0000   1.0000   1.0000   1.0000   1.0000   1.0000   1.0000
     1.0000   1.0000   1.0000   1.0000   1.0000   1.0000   1.0000   1.0000
     1.0000   1.0000   1.0000   1.0000   1.0000   1.0000   1.0000   1.0000
     1.0000   1.0000   1.0000   1.0000   1.0000   1.0000   1.0000   1.0000
     1.0000   1.0000   1.0000   1.0000   1.0000   1.0000   1.0000   1.0000
     1.0000   1.0000   1.0000   1.0000   1.0000   1.0000   1.0000   1.0000
     1.0000   1.0000   1.0000   1.0000   1.0000   1.0000   1.0000   1.0000
     1.0000   1.0000   1.0000   1.0000   1.0000   1.0000   1.0000   1.0000
     1.0000   1.0000   1.0000   1.0000   1.0000   1.0000   1.0000   1.0000
     1.0000   1.0000   1.0000   1.0000   1.0000   1.0000   1.0000   1.0000
     1.0000   1.0000   1.0000   1.0000   1.0000   1.0000   1.0000   1.0000
     1.0000   1.0000   1.0000   1.0000   1.0000   1.0000   1.0000   1.0000
     1.0000   1.0000   1.0000   1.0000   1.0000   1.0000   1.0000   1.0000
     1.0000   1.0000   1.0000   0.9999   0.9999   0.9999   0.9999   0.9993
     0.9988   0.9985   0.9983   0.9982   0.9978   0.9977   0.9971   0.9967
     0.9965   0.9960   0.9953   0.9950   0.9939   0.9935   0.9922   0.9896
     0.9887   0.9877   0.9859   0.9842   0.9819   0.9781   0.9674   0.9544
     0.9485   0.9415   0.9378   0.9250   0.9151   0.9091   0.9038   0.8975
     0.8673   0.8568   0.8294   0.8251   0.8134   0.7462   0.7420   0.7355
     0.7304   0.7253   0.7187   0.7155   0.7068   0.7022   0.6939   0.6889
     0.6821   0.6771   0.6737   0.6568   0.6501   0.6450   0.6261   0.4547
     0.4075   0.3757   0.3400   0.3265   0.2271   0.1734   0.0791   0.0496
     0.0282   0.0156   0.0072   0.0027   0.0005   0.0004   0.0003   0.0001
     0.0001   0.0001   0.0000   0.0000   0.0000   0.0000   0.0000   0.0000
     0.0000   0.0000   0.0000   0.0000   0.0000   0.0000   0.0000   0.0000
     0.0000   0.0000   0.0000   0.0000   0.0000   0.0000   0.0000

          k =-0.5000 0.2500 0.0000 ( 65138 PWs)   bands (ev):

   -92.3279 -92.2720 -92.1816 -92.1325 -92.0732 -92.0341 -92.0171 -91.8946
   -55.6810 -55.6583 -55.5396 -55.5290 -55.5210 -55.5157 -55.4776 -55.4513
   -55.4352 -55.4330 -55.4230 -55.3821 -55.3634 -55.3254 -55.3075 -55.2725
   -55.2679 -55.2232 -55.2207 -55.2199 -55.2114 -55.1692 -55.1478 -55.0615
   -30.9109 -30.8995 -30.8111 -30.7545 -30.7270 -30.6691 -30.5317 -30.4216
   -29.4773 -29.4378 -29.4105 -29.3028 -22.2472 -14.6153 -14.5722 -14.4937
   -14.3990 -14.3534 -14.2255 -14.1433 -14.0181 -13.7681 -13.7019 -13.6722
   -13.6593 -13.6150 -13.5996 -13.5683 -13.5391 -13.5313 -13.5088 -13.4728
   -13.4541 -13.3602 -13.2727 -13.2354 -13.2218 -13.2120 -13.1576 -13.1055
   -13.0257 -12.9774 -12.8382 -12.8033 -12.7473 -12.7079 -12.6700 -12.6573
   -12.6519 -12.6207 -12.6054 -12.5815 -12.5734 -12.5395 -12.4647 -12.4102
   -12.3842 -12.3592 -12.2598 -12.2522 -12.1768 -12.1071 -11.9678 -11.9610
   -11.8515 -11.8276 -11.4030 -11.3902 -11.3761 -11.3645 -11.3430 -11.3128
   -11.2324 -11.2234 -11.2006 -11.1640 -11.1358 -11.1269  -5.8240  -3.1558
    -3.1456  -2.0722  -2.0296  -1.8798  -1.8381  -1.6792  -1.6036  -1.4587
    -1.3233  -1.2674  -1.2396  -1.2003  -1.1605  -1.0808  -0.9664  -0.9096
    -0.8863  -0.8615  -0.7863  -0.7557  -0.7194  -0.6996  -0.6391  -0.6127
    -0.5711  -0.5358  -0.5072  -0.4505  -0.4246  -0.3829  -0.3491  -0.2451
    -0.2191  -0.1355  -0.0701  -0.0386   0.0160   0.1045   0.1335   0.2380
     0.2655   0.3288   0.3728   0.3976   0.4806   0.5140   0.5463   0.5999
     0.6362   0.9371   0.9858   1.0617   1.0952   1.3708   1.4296   1.5043
     1.5311   1.7126   1.7495   1.7870   1.8025   1.8201   1.8382   1.9065
     1.9473   1.9839   2.0123   2.1201   2.1594   2.2030   2.2123   2.2456
     2.2736   2.2892   2.3040   2.3263   2.3490   2.3919   2.4177   2.4483
     2.4717   2.4969   2.5654   2.6819   2.7834   2.8116   2.8816   2.9240
     2.9804   3.0203   3.0279   3.0561   3.0634   3.0960   3.0984   3.1233
     3.2053   3.2462   3.2594   3.2670   3.2874   3.3112   3.3238   3.3381
     3.3501   3.3695   3.3833   3.3948   3.4022   3.4128   3.4253   3.9487
     3.9814   4.1446   4.1650   4.4451   4.4973   4.5495   4.7543   5.0578
     5.1537   5.2620   5.3542   5.4523   5.7348   5.7682   5.8429   5.9577
     6.0573   6.1110   6.2718   6.4882   6.5690   6.6658   7.0889   7.2592
     7.5333   7.6570   7.9796   8.0695   8.1788   8.2105   8.3199   8.3604
     8.5195   8.5781   8.6947   8.8145   8.8295   8.9316   8.9883

     occupation numbers 
     1.0000   1.0000   1.0000   1.0000   1.0000   1.0000   1.0000   1.0000
     1.0000   1.0000   1.0000   1.0000   1.0000   1.0000   1.0000   1.0000
     1.0000   1.0000   1.0000   1.0000   1.0000   1.0000   1.0000   1.0000
     1.0000   1.0000   1.0000   1.0000   1.0000   1.0000   1.0000   1.0000
     1.0000   1.0000   1.0000   1.0000   1.0000   1.0000   1.0000   1.0000
     1.0000   1.0000   1.0000   1.0000   1.0000   1.0000   1.0000   1.0000
     1.0000   1.0000   1.0000   1.0000   1.0000   1.0000   1.0000   1.0000
     1.0000   1.0000   1.0000   1.0000   1.0000   1.0000   1.0000   1.0000
     1.0000   1.0000   1.0000   1.0000   1.0000   1.0000   1.0000   1.0000
     1.0000   1.0000   1.0000   1.0000   1.0000   1.0000   1.0000   1.0000
     1.0000   1.0000   1.0000   1.0000   1.0000   1.0000   1.0000   1.0000
     1.0000   1.0000   1.0000   1.0000   1.0000   1.0000   1.0000   1.0000
     1.0000   1.0000   1.0000   1.0000   1.0000   1.0000   1.0000   1.0000
     1.0000   1.0000   1.0000   1.0000   1.0000   1.0000   1.0000   1.0000
     1.0000   1.0000   1.0000   1.0000   1.0000   1.0000   1.0000   1.0000
     1.0000   1.0000   1.0000   1.0000   1.0000   1.0000   1.0000   1.0000
     1.0000   1.0000   1.0000   1.0000   1.0000   1.0000   1.0000   1.0000
     1.0000   1.0000   1.0000   1.0000   1.0000   1.0000   1.0000   1.0000
     1.0000   1.0000   1.0000   1.0000   1.0000   1.0000   1.0000   1.0000
     1.0000   1.0000   1.0000   1.0000   1.0000   1.0000   1.0000   1.0000
     1.0000   1.0000   1.0000   1.0000   0.9999   0.9997   0.9996   0.9994
     0.9994   0.9984   0.9981   0.9977   0.9976   0.9974   0.9971   0.9961
     0.9953   0.9946   0.9939   0.9905   0.9889   0.9868   0.9863   0.9845
     0.9828   0.9818   0.9808   0.9792   0.9775   0.9738   0.9714   0.9683
     0.9657   0.9628   0.9538   0.9344   0.9129   0.9061   0.8874   0.8749
     0.8568   0.8430   0.8403   0.8299   0.8272   0.8145   0.8136   0.8034
     0.7680   0.7491   0.7428   0.7391   0.7292   0.7173   0.7110   0.7037
     0.6975   0.6874   0.6801   0.6740   0.6700   0.6643   0.6575   0.3551
     0.3372   0.2538   0.2442   0.1338   0.1178   0.1032   0.0585   0.0218
     0.0154   0.0101   0.0070   0.0046   0.0012   0.0011   0.0007   0.0004
     0.0002   0.0002   0.0001   0.0000   0.0000   0.0000   0.0000   0.0000
     0.0000   0.0000   0.0000   0.0000   0.0000   0.0000   0.0000   0.0000
     0.0000   0.0000   0.0000   0.0000   0.0000   0.0000   0.0000

     the Fermi energy is     3.6984 ev

!    total energy              =   -4482.96919272 Ry
     estimated scf accuracy    <          8.3E-09 Ry
     smearing contrib. (-TS)   =      -1.17278337 Ry
     internal energy E=F+TS    =   -4481.79640935 Ry

     The total energy is F=E-TS. E is the sum of the following terms:
     one-electron contribution =  -20252.58143026 Ry
     hartree contribution      =   10266.10972330 Ry
     xc contribution           =    -701.57849693 Ry
     ewald contribution        =    6491.91136037 Ry
     one-center paw contrib.   =    -285.65756584 Ry
      -> PAW hartree energy AE =      25.18765534 Ry
      -> PAW hartree energy PS =     -25.07133148 Ry
      -> PAW xc energy AE      =     -16.52091680 Ry
      -> PAW xc energy PS      =       6.88057951 Ry
      -> total E_H with PAW    =   10266.22604715 Ry
      -> total E_XC with PAW   =    -711.21883421 Ry

     convergence has been achieved in  52 iterations

     Writing all to output data dir /bsuhome/zayahcortright/scratch/pwscf.save/
 
     init_run     :      7.85s CPU      8.59s WALL (       1 calls)
     electrons    :    782.35s CPU    816.53s WALL (       1 calls)

     Called by init_run:
     wfcinit      :      6.23s CPU      6.45s WALL (       1 calls)
     wfcinit:atom :      0.05s CPU      0.08s WALL (       5 calls)
     wfcinit:wfcr :      5.91s CPU      6.03s WALL (       5 calls)
     potinit      :      0.18s CPU      0.21s WALL (       1 calls)
     hinit0       :      0.46s CPU      0.74s WALL (       1 calls)

     Called by electrons:
     c_bands      :    626.78s CPU    634.00s WALL (      52 calls)
     sum_band     :    116.93s CPU    132.40s WALL (      52 calls)
     v_of_rho     :      5.86s CPU      6.16s WALL (      53 calls)
     v_h          :      0.48s CPU      0.49s WALL (      53 calls)
     v_xc         :      5.38s CPU      5.67s WALL (      53 calls)
     newd         :     17.40s CPU     28.15s WALL (      53 calls)
     PAW_pot      :      1.70s CPU      1.74s WALL (      53 calls)
     mix_rho      :     13.28s CPU     13.66s WALL (      52 calls)

     Called by c_bands:
     init_us_2    :      7.14s CPU      7.26s WALL (     525 calls)
     init_us_2:cp :      7.13s CPU      7.25s WALL (     525 calls)
     cegterg      :    589.13s CPU    595.94s WALL (     260 calls)

     Called by sum_band:
     sum_band:wei :      0.36s CPU      0.37s WALL (      52 calls)
     sum_band:loo :     98.42s CPU     99.21s WALL (      52 calls)
     sum_band:buf :      1.40s CPU      1.44s WALL (     260 calls)
     sum_band:ini :      3.23s CPU      3.25s WALL (     260 calls)
     sum_band:cal :     21.27s CPU     21.36s WALL (     260 calls)
     sum_band:bec :      0.62s CPU      0.64s WALL (     260 calls)
     addusdens    :     16.44s CPU     31.06s WALL (      52 calls)
                                        0.00s GPU  (      52 calls)
     addusd:skk   :      0.35s CPU      1.04s WALL (     208 calls)
                                        0.00s GPU  (     208 calls)

     Called by *egterg:
     cdiaghg      :     62.37s CPU     62.63s WALL (    1444 calls)
     cegterg:over :     44.94s CPU     45.12s WALL (    1184 calls)
     cegterg:upda :     32.82s CPU     33.42s WALL (    1184 calls)
     cegterg:last :     67.97s CPU     68.20s WALL (     485 calls)
     cdiaghg:chol :      3.61s CPU      3.63s WALL (    1444 calls)
     cdiaghg:inve :      3.81s CPU      3.82s WALL (    1444 calls)
     cdiaghg:para :      7.40s CPU      7.44s WALL (    2888 calls)
     h_psi        :    319.65s CPU    322.93s WALL (    1449 calls)
     s_psi        :     43.83s CPU     43.96s WALL (    1449 calls)
     g_psi        :      1.11s CPU      1.12s WALL (    1184 calls)

     Called by h_psi:
     h_psi:calbec :     49.81s CPU     50.02s WALL (    1449 calls)
     vloc_psi     :    223.22s CPU    225.31s WALL (    1449 calls)
     add_vuspsi   :     43.56s CPU     43.78s WALL (    1449 calls)

     General routines
     calbec       :     71.07s CPU     71.38s WALL (    1709 calls)
     fft          :      4.19s CPU      4.25s WALL (     687 calls)
     ffts         :      4.98s CPU      5.03s WALL (    5516 calls)
     fftw         :    192.05s CPU    193.61s WALL (  358262 calls)
     interpolate  :      0.47s CPU      0.48s WALL (      53 calls)
 
     Parallel routines

     PAW routines
     PAW_pot      :      1.70s CPU      1.74s WALL (      53 calls)
 
     PWSCF        :  13m11.94s CPU  13m51.90s WALL

 
   This run was terminated on:  21:13:14  18Jun2024            

=------------------------------------------------------------------------------=
   JOB DONE.
=------------------------------------------------------------------------------=
