
     Program PWSCF v.7.2 starts on 21Jun2024 at 12:57: 7 

     This program is part of the open-source Quantum ESPRESSO suite
     for quantum simulation of materials; please cite
         "P. Giannozzi et al., J. Phys.:Condens. Matter 21 395502 (2009);
         "P. Giannozzi et al., J. Phys.:Condens. Matter 29 465901 (2017);
         "P. Giannozzi et al., J. Chem. Phys. 152 154105 (2020);
          URL http://www.quantum-espresso.org", 
     in publications or presentations arising from this work. More details at
     http://www.quantum-espresso.org/quote

     Parallel version (MPI & OpenMP), running on      48 processor cores
     Number of MPI processes:                48
     Threads/MPI process:                     1

     MPI processes distributed on     1 nodes
     180169 MiB available memory on the printing compute node when the environment starts
 
     Reading input from espresso.pwi
Warning: card &CELL ignored
Warning: card / ignored
Warning: card &FCP ignored
Warning: card / ignored
Warning: card &RISM ignored
Warning: card / ignored

     Current dimensions of program PWSCF are:
     Max number of different atomic species (ntypx) = 10
     Max number of k-points (npk) =  40000
     Max angular momentum in pseudopotentials (lmaxx) =  4
     file O.pbe-n-kjpaw_psl.0.1.UPF: wavefunction(s)  2P renormalized
     signal trapping enabled: kill the code with -SIGUSR1 to stop cleanly the simulation 
 
     K-points division:     npool     =       2
     R & G space division:  proc/nbgrp/npool/nimage =      24
     Subspace diagonalization in iterative solution of the eigenvalue problem:
     one sub-group per band group will be used
     scalapack distributed-memory algorithm (size of sub-group:  3*  3 procs)

 
     Parallelization info
     --------------------
     sticks:   dense  smooth     PW     G-vecs:    dense   smooth      PW
     Min         350     175     47                61430    21716    3036
     Max         351     177     48                61449    21727    3041
     Sum        8421    4205   1137              1474595   521381   72913
 
     Using Slab Decomposition
 


     bravais-lattice index     =            0
     lattice parameter (alat)  =      14.8599  a.u.
     unit-cell volume          =    8305.1283 (a.u.)^3
     number of atoms/cell      =           49
     number of atomic types    =            4
     number of electrons       =       425.00
     number of Kohn-Sham states=          256
     kinetic-energy cutoff     =      60.0000  Ry
     charge density cutoff     =     480.0000  Ry
     scf convergence threshold =      1.0E-08
     mixing beta               =       0.1500
     number of iterations used =            8  local-TF  mixing
     Exchange-correlation= PBE
                           (   1   4   3   4   0   0   0)

     celldm(1)=  14.859904  celldm(2)=   0.000000  celldm(3)=   0.000000
     celldm(4)=   0.000000  celldm(5)=   0.000000  celldm(6)=   0.000000

     crystal axes: (cart. coord. in units of alat)
               a(1) = (   1.000000   0.000000   0.000000 )  
               a(2) = (   0.000000   1.000000   0.000000 )  
               a(3) = (   0.000000   0.000000   2.531036 )  

     reciprocal axes: (cart. coord. in units 2 pi/alat)
               b(1) = (  1.000000  0.000000  0.000000 )  
               b(2) = (  0.000000  1.000000  0.000000 )  
               b(3) = (  0.000000  0.000000  0.395095 )  


     PseudoPot. # 1 for Sr read from file:
     /bsuhome/zayahcortright/q-e/pseudo/Sr_pbe_v1.uspp.F.UPF
     MD5 check sum: 6b418c05fbe9db5448babca5e47b7a5b
     Pseudo is Ultrasoft + core correction, Zval = 10.0
     Generated by new atomic code, or converted to UPF format
     Using radial grid of  883 points,  6 beta functions with: 
                l(1) =   0
                l(2) =   0
                l(3) =   1
                l(4) =   1
                l(5) =   2
                l(6) =   2
     Q(r) pseudized with  6 coefficients,  rinner =    1.400   1.400   1.400
                                                       1.400   1.400

     PseudoPot. # 2 for O  read from file:
     /bsuhome/zayahcortright/q-e/pseudo/O.pbe-n-kjpaw_psl.0.1.UPF
     MD5 check sum: 0234752ac141de4415c5fc33072bef88
     Pseudo is Projector augmented-wave + core cor, Zval =  6.0
     Generated using "atomic" code by A. Dal Corso  v.5.0.99 svn rev. 10869
     Shape of augmentation charge: BESSEL
     Using radial grid of 1095 points,  4 beta functions with: 
                l(1) =   0
                l(2) =   0
                l(3) =   1
                l(4) =   1
     Q(r) pseudized with 0 coefficients 


     PseudoPot. # 3 for Co read from file:
     /bsuhome/zayahcortright/q-e/pseudo/Co_pbe_v1.2.uspp.F.UPF
     MD5 check sum: 5f91765df6ddd3222702df6e7b74a16d
     Pseudo is Ultrasoft + core correction, Zval = 17.0
     Generated by new atomic code, or converted to UPF format
     Using radial grid of  863 points,  6 beta functions with: 
                l(1) =   0
                l(2) =   0
                l(3) =   1
                l(4) =   1
                l(5) =   2
                l(6) =   2
     Q(r) pseudized with  8 coefficients,  rinner =    1.200   1.200   1.200
                                                       1.200   1.200

     PseudoPot. # 4 for H  read from file:
     /bsuhome/zayahcortright/q-e/pseudo/H.pbe-rrkjus_psl.1.0.0.UPF
     MD5 check sum: f52b6d4d1c606e5624b1dc7b2218f220
     Pseudo is Ultrasoft, Zval =  1.0
     Generated using "atomic" code by A. Dal Corso  v.5.1
     Using radial grid of  929 points,  2 beta functions with: 
                l(1) =   0
                l(2) =   0
     Q(r) pseudized with 0 coefficients 


     atomic species   valence    mass     pseudopotential
        Sr            10.00    87.62000     Sr( 1.00)
        O              6.00    15.99900     O ( 1.00)
        Co            17.00    58.93319     Co( 1.00)
        H              1.00     1.00800     H ( 1.00)

     No symmetry found


                                    s                        frac. trans.

      isym =  1     identity                                     

 cryst.   s( 1) = (     1          0          0      )
                  (     0          1          0      )
                  (     0          0          1      )

 cart.    s( 1) = (  1.0000000  0.0000000  0.0000000 )
                  (  0.0000000  1.0000000  0.0000000 )
                  (  0.0000000  0.0000000  1.0000000 )


   Cartesian axes

     site n.     atom                  positions (alat units)
         1           Sr  tau(   1) = (   0.2508693   0.7491307   1.7574407  )
         2           O   tau(   2) = (   0.4985141   0.5014859   1.7715967  )
         3           Sr  tau(   3) = (   0.7482398   0.7454518   1.7648669  )
         4           Sr  tau(   4) = (   0.7441748   0.2558252   1.7667843  )
         5           Sr  tau(   5) = (   0.2508693   0.7491307   1.2696799  )
         6           Sr  tau(   6) = (   0.2508693   0.7491307   0.7632319  )
         7           Co  tau(   7) = (   0.4998914   0.5001086   1.0164559  )
         8           Co  tau(   8) = (   0.4936915   0.5063085   1.5135603  )
         9           O   tau(   9) = (   0.4988895   0.7610401   1.0164559  )
        10           O   tau(  10) = (   0.2389599   0.5011105   1.0164559  )
        11           O   tau(  11) = (   0.0070918   0.7374880   1.0164559  )
        12           O   tau(  12) = (   0.0088340   0.7405089   1.5135603  )
        13           O   tau(  13) = (   0.5066944   0.7415376   1.5135603  )
        14           O   tau(  14) = (   0.2584624   0.4933056   1.5135603  )
        15           O   tau(  15) = (   0.4985141   0.5014859   0.7773880  )
        16           O   tau(  16) = (   0.4985141   0.5014859   1.2555238  )
        17           Sr  tau(  17) = (   0.7482398   0.7454518   0.7706582  )
        18           Sr  tau(  18) = (   0.7482398   0.7454518   1.2622536  )
        19           Sr  tau(  19) = (   0.7441748   0.2558252   0.7725755  )
        20           Sr  tau(  20) = (   0.7441748   0.2558252   1.2603363  )
        21           O   tau(  21) = (   0.7322655   0.0078049   1.5135603  )
        22           O   tau(  22) = (   0.7558175   0.4996027   1.5135603  )
        23           O   tau(  23) = (   0.5003973   0.2441825   1.5135603  )
        24           O   tau(  24) = (   0.7527966   0.4978604   1.0164559  )
        25           O   tau(  25) = (   0.5021396   0.2472034   1.0164559  )
        26           O   tau(  26) = (   0.7517679   0.0000000   1.0164559  )
        27           O   tau(  27) = (   0.0114961   0.4948124   1.7455321  )
        28           O   tau(  28) = (   0.0048226   0.0077944   1.7715967  )
        29           Sr  tau(  29) = (   0.2545482   0.2517602   1.7648669  )
        30           O   tau(  30) = (   0.5048017   0.0015068   1.7786929  )
        31           Co  tau(  31) = (   0.0056869   0.5006215   1.0164559  )
        32           Co  tau(  32) = (   0.0065315   0.4997770   1.5135603  )
        33           Co  tau(  33) = (   0.0061999   0.0064171   1.0164559  )
        34           Co  tau(  34) = (   0.0000000   0.0126169   1.5135603  )
        35           O   tau(  35) = (   0.0114961   0.4948124   1.2815885  )
        36           O   tau(  36) = (   0.0114961   0.4948124   0.7513233  )
        37           O   tau(  37) = (   0.0051979   0.2673486   1.0164559  )
        38           O   tau(  38) = (   0.0130029   0.2478461   1.5135603  )
        39           O   tau(  39) = (   0.0048226   0.0077944   0.7773880  )
        40           O   tau(  40) = (   0.0048226   0.0077944   1.2555238  )
        41           Sr  tau(  41) = (   0.2545482   0.2517602   0.7706582  )
        42           Sr  tau(  42) = (   0.2545482   0.2517602   1.2622536  )
        43           Co  tau(  43) = (   0.4989925   0.0073160   1.5135603  )
        44           Co  tau(  44) = (   0.4998370   0.0064714   1.0164559  )
        45           O   tau(  45) = (   0.5048017   0.0015068   0.7844841  )
        46           O   tau(  46) = (   0.5048017   0.0015068   1.2484277  )
        47           O   tau(  47) = (   0.2621260   0.0059111   1.5135603  )
        48           O   tau(  48) = (   0.2591051   0.0041689   1.0164559  )
        49           H   tau(  49) = (   0.0000000   0.7108228   2.1602013  )

   Crystallographic axes

     site n.     atom                  positions (cryst. coord.)
         1           Sr  tau(   1) = (  0.2508693  0.7491307  0.6943562  )
         2           O   tau(   2) = (  0.4985141  0.5014859  0.6999492  )
         3           Sr  tau(   3) = (  0.7482398  0.7454518  0.6972903  )
         4           Sr  tau(   4) = (  0.7441748  0.2558252  0.6980478  )
         5           Sr  tau(   5) = (  0.2508693  0.7491307  0.5016443  )
         6           Sr  tau(   6) = (  0.2508693  0.7491307  0.3015492  )
         7           Co  tau(   7) = (  0.4998914  0.5001086  0.4015968  )
         8           Co  tau(   8) = (  0.4936915  0.5063085  0.5980003  )
         9           O   tau(   9) = (  0.4988895  0.7610401  0.4015968  )
        10           O   tau(  10) = (  0.2389599  0.5011105  0.4015968  )
        11           O   tau(  11) = (  0.0070918  0.7374880  0.4015968  )
        12           O   tau(  12) = (  0.0088340  0.7405089  0.5980003  )
        13           O   tau(  13) = (  0.5066944  0.7415376  0.5980003  )
        14           O   tau(  14) = (  0.2584624  0.4933056  0.5980003  )
        15           O   tau(  15) = (  0.4985141  0.5014859  0.3071422  )
        16           O   tau(  16) = (  0.4985141  0.5014859  0.4960513  )
        17           Sr  tau(  17) = (  0.7482398  0.7454518  0.3044833  )
        18           Sr  tau(  18) = (  0.7482398  0.7454518  0.4987103  )
        19           Sr  tau(  19) = (  0.7441748  0.2558252  0.3052408  )
        20           Sr  tau(  20) = (  0.7441748  0.2558252  0.4979527  )
        21           O   tau(  21) = (  0.7322655  0.0078049  0.5980003  )
        22           O   tau(  22) = (  0.7558175  0.4996027  0.5980003  )
        23           O   tau(  23) = (  0.5003973  0.2441825  0.5980003  )
        24           O   tau(  24) = (  0.7527966  0.4978604  0.4015968  )
        25           O   tau(  25) = (  0.5021396  0.2472034  0.4015968  )
        26           O   tau(  26) = (  0.7517679  0.0000000  0.4015968  )
        27           O   tau(  27) = (  0.0114961  0.4948124  0.6896512  )
        28           O   tau(  28) = (  0.0048226  0.0077944  0.6999492  )
        29           Sr  tau(  29) = (  0.2545482  0.2517602  0.6972903  )
        30           O   tau(  30) = (  0.5048017  0.0015068  0.7027529  )
        31           Co  tau(  31) = (  0.0056869  0.5006215  0.4015968  )
        32           Co  tau(  32) = (  0.0065315  0.4997770  0.5980003  )
        33           Co  tau(  33) = (  0.0061999  0.0064171  0.4015968  )
        34           Co  tau(  34) = (  0.0000000  0.0126169  0.5980003  )
        35           O   tau(  35) = (  0.0114961  0.4948124  0.5063494  )
        36           O   tau(  36) = (  0.0114961  0.4948124  0.2968442  )
        37           O   tau(  37) = (  0.0051979  0.2673486  0.4015968  )
        38           O   tau(  38) = (  0.0130029  0.2478461  0.5980003  )
        39           O   tau(  39) = (  0.0048226  0.0077944  0.3071422  )
        40           O   tau(  40) = (  0.0048226  0.0077944  0.4960513  )
        41           Sr  tau(  41) = (  0.2545482  0.2517602  0.3044833  )
        42           Sr  tau(  42) = (  0.2545482  0.2517602  0.4987103  )
        43           Co  tau(  43) = (  0.4989925  0.0073160  0.5980003  )
        44           Co  tau(  44) = (  0.4998370  0.0064714  0.4015968  )
        45           O   tau(  45) = (  0.5048017  0.0015068  0.3099459  )
        46           O   tau(  46) = (  0.5048017  0.0015068  0.4932477  )
        47           O   tau(  47) = (  0.2621260  0.0059111  0.5980003  )
        48           O   tau(  48) = (  0.2591051  0.0041689  0.4015968  )
        49           H   tau(  49) = (  0.0000000  0.7108228  0.8534850  )

     number of k points=    10  Gaussian smearing, width (Ry)=  0.0700
                       cart. coord. in units 2pi/alat
        k(    1) = (   0.0000000   0.0000000   0.0000000), wk =   0.1250000
        k(    2) = (   0.0000000   0.2500000   0.0000000), wk =   0.2500000
        k(    3) = (   0.0000000  -0.5000000   0.0000000), wk =   0.1250000
        k(    4) = (   0.2500000   0.2500000   0.0000000), wk =   0.2500000
        k(    5) = (   0.2500000  -0.5000000   0.0000000), wk =   0.2500000
        k(    6) = (  -0.5000000  -0.5000000   0.0000000), wk =   0.1250000
        k(    7) = (   0.2500000   0.0000000   0.0000000), wk =   0.2500000
        k(    8) = (  -0.5000000   0.0000000   0.0000000), wk =   0.1250000
        k(    9) = (  -0.2500000   0.2500000   0.0000000), wk =   0.2500000
        k(   10) = (  -0.5000000   0.2500000   0.0000000), wk =   0.2500000

                       cryst. coord.
        k(    1) = (   0.0000000   0.0000000   0.0000000), wk =   0.1250000
        k(    2) = (   0.0000000   0.2500000   0.0000000), wk =   0.2500000
        k(    3) = (   0.0000000  -0.5000000   0.0000000), wk =   0.1250000
        k(    4) = (   0.2500000   0.2500000   0.0000000), wk =   0.2500000
        k(    5) = (   0.2500000  -0.5000000   0.0000000), wk =   0.2500000
        k(    6) = (  -0.5000000  -0.5000000   0.0000000), wk =   0.1250000
        k(    7) = (   0.2500000   0.0000000   0.0000000), wk =   0.2500000
        k(    8) = (  -0.5000000   0.0000000   0.0000000), wk =   0.1250000
        k(    9) = (  -0.2500000   0.2500000   0.0000000), wk =   0.2500000
        k(   10) = (  -0.5000000   0.2500000   0.0000000), wk =   0.2500000

     Dense  grid:  1474595 G-vectors     FFT dimensions: ( 108, 108, 270)

     Smooth grid:   521381 G-vectors     FFT dimensions: (  75,  75, 192)

     Dynamical RAM for                 wfc:      10.61 MB

     Dynamical RAM for     wfc (w. buffer):      63.63 MB

     Dynamical RAM for           str. fact:       3.75 MB

     Dynamical RAM for           local pot:       0.00 MB

     Dynamical RAM for          nlocal pot:      24.28 MB

     Dynamical RAM for                qrad:       7.03 MB

     Dynamical RAM for          rho,v,vnew:       6.02 MB

     Dynamical RAM for               rhoin:       2.01 MB

     Dynamical RAM for            rho*nmix:      15.00 MB

     Dynamical RAM for           G-vectors:       3.68 MB

     Dynamical RAM for          h,s,v(r/c):       1.32 MB

     Dynamical RAM for          <psi|beta>:       2.29 MB

     Dynamical RAM for                 psi:      21.21 MB

     Dynamical RAM for                hpsi:      21.21 MB

     Dynamical RAM for                spsi:      21.21 MB

     Dynamical RAM for      wfcinit/wfcrot:      34.09 MB

     Dynamical RAM for           addusdens:     100.79 MB

     Estimated static dynamical RAM per process >     120.42 MB

     Estimated max dynamical RAM per process >     236.21 MB

     Estimated total dynamical RAM >      10.72 GB

     Check: negative core charge=   -0.000004

     Initial potential from superposition of free atoms

     starting charge     416.5961, renormalised to     425.0000

     negative rho (up, down):  7.826E-01 0.000E+00
     Starting wfcs are  373 randomized atomic wfcs
     Checking if some PAW data can be deallocated... 
       PAW data deallocated on   20 nodes for type:  2

     total cpu time spent up to now is        8.9 secs

     Self-consistent Calculation

     iteration #  1     ecut=    60.00 Ry     beta= 0.15
     Davidson diagonalization with overlap

---- Real-time Memory Report at c_bands before calling an iterative solver
             0 MiB given to the printing process from OS
             0 MiB allocation reported by mallinfo(arena+hblkhd)
        170490 MiB available memory on the node where the printing process lives
------------------
     ethr =  1.00E-02,  avg # of iterations =  2.0

     negative rho (up, down):  7.718E-01 0.000E+00

     total cpu time spent up to now is       23.2 secs

     total energy              =   -4404.75870345 Ry
     estimated scf accuracy    <      42.20744991 Ry

     iteration #  2     ecut=    60.00 Ry     beta= 0.15
     Davidson diagonalization with overlap

---- Real-time Memory Report at c_bands before calling an iterative solver
             0 MiB given to the printing process from OS
             0 MiB allocation reported by mallinfo(arena+hblkhd)
        170728 MiB available memory on the node where the printing process lives
------------------
     ethr =  9.93E-03,  avg # of iterations =  1.0

     negative rho (up, down):  7.532E-01 0.000E+00

     total cpu time spent up to now is       35.3 secs

     total energy              =   -4400.02941985 Ry
     estimated scf accuracy    <      26.66159242 Ry

     iteration #  3     ecut=    60.00 Ry     beta= 0.15
     Davidson diagonalization with overlap

---- Real-time Memory Report at c_bands before calling an iterative solver
             0 MiB given to the printing process from OS
             0 MiB allocation reported by mallinfo(arena+hblkhd)
        169977 MiB available memory on the node where the printing process lives
------------------
     ethr =  6.27E-03,  avg # of iterations =  2.0

     negative rho (up, down):  7.544E-01 0.000E+00

     total cpu time spent up to now is       48.5 secs

     total energy              =   -4402.38843660 Ry
     estimated scf accuracy    <      49.25695349 Ry

     iteration #  4     ecut=    60.00 Ry     beta= 0.15
     Davidson diagonalization with overlap

---- Real-time Memory Report at c_bands before calling an iterative solver
             0 MiB given to the printing process from OS
             0 MiB allocation reported by mallinfo(arena+hblkhd)
        169846 MiB available memory on the node where the printing process lives
------------------
     ethr =  6.27E-03,  avg # of iterations =  1.0

     negative rho (up, down):  7.411E-01 0.000E+00

     total cpu time spent up to now is       61.0 secs

     total energy              =   -4401.65100066 Ry
     estimated scf accuracy    <      29.37052499 Ry

     iteration #  5     ecut=    60.00 Ry     beta= 0.15
     Davidson diagonalization with overlap

---- Real-time Memory Report at c_bands before calling an iterative solver
             0 MiB given to the printing process from OS
             0 MiB allocation reported by mallinfo(arena+hblkhd)
        169821 MiB available memory on the node where the printing process lives
------------------
     ethr =  6.27E-03,  avg # of iterations =  1.0

     negative rho (up, down):  7.471E-01 0.000E+00

     total cpu time spent up to now is       73.1 secs

     total energy              =   -4399.82372686 Ry
     estimated scf accuracy    <      44.01634366 Ry

     iteration #  6     ecut=    60.00 Ry     beta= 0.15
     Davidson diagonalization with overlap

---- Real-time Memory Report at c_bands before calling an iterative solver
             0 MiB given to the printing process from OS
             0 MiB allocation reported by mallinfo(arena+hblkhd)
        169810 MiB available memory on the node where the printing process lives
------------------
     ethr =  6.27E-03,  avg # of iterations =  1.0

     negative rho (up, down):  7.422E-01 0.000E+00

     total cpu time spent up to now is       85.0 secs

     total energy              =   -4400.65042802 Ry
     estimated scf accuracy    <      11.98187933 Ry

     iteration #  7     ecut=    60.00 Ry     beta= 0.15
     Davidson diagonalization with overlap

---- Real-time Memory Report at c_bands before calling an iterative solver
             0 MiB given to the printing process from OS
             0 MiB allocation reported by mallinfo(arena+hblkhd)
        169788 MiB available memory on the node where the printing process lives
------------------
     ethr =  2.82E-03,  avg # of iterations =  1.1

     negative rho (up, down):  7.444E-01 0.000E+00

     total cpu time spent up to now is       97.1 secs

     total energy              =   -4400.81609146 Ry
     estimated scf accuracy    <       4.06591182 Ry

     iteration #  8     ecut=    60.00 Ry     beta= 0.15
     Davidson diagonalization with overlap

---- Real-time Memory Report at c_bands before calling an iterative solver
             0 MiB given to the printing process from OS
             0 MiB allocation reported by mallinfo(arena+hblkhd)
        169772 MiB available memory on the node where the printing process lives
------------------
     ethr =  9.57E-04,  avg # of iterations =  2.0

     negative rho (up, down):  7.540E-01 0.000E+00

     total cpu time spent up to now is      109.8 secs

     total energy              =   -4400.30092183 Ry
     estimated scf accuracy    <       3.40624055 Ry

     iteration #  9     ecut=    60.00 Ry     beta= 0.15
     Davidson diagonalization with overlap

---- Real-time Memory Report at c_bands before calling an iterative solver
             0 MiB given to the printing process from OS
             0 MiB allocation reported by mallinfo(arena+hblkhd)
        169748 MiB available memory on the node where the printing process lives
------------------
     ethr =  8.01E-04,  avg # of iterations =  3.9

     negative rho (up, down):  7.760E-01 0.000E+00

     total cpu time spent up to now is      124.5 secs

     total energy              =   -4399.78141625 Ry
     estimated scf accuracy    <      45.31301084 Ry

     iteration # 10     ecut=    60.00 Ry     beta= 0.15
     Davidson diagonalization with overlap

---- Real-time Memory Report at c_bands before calling an iterative solver
             0 MiB given to the printing process from OS
             0 MiB allocation reported by mallinfo(arena+hblkhd)
        169628 MiB available memory on the node where the printing process lives
------------------
     ethr =  8.01E-04,  avg # of iterations =  9.6

     negative rho (up, down):  7.782E-01 0.000E+00

     total cpu time spent up to now is      142.7 secs

     total energy              =   -4399.81794553 Ry
     estimated scf accuracy    <      11.55379054 Ry

     iteration # 11     ecut=    60.00 Ry     beta= 0.15
     Davidson diagonalization with overlap

---- Real-time Memory Report at c_bands before calling an iterative solver
             0 MiB given to the printing process from OS
             0 MiB allocation reported by mallinfo(arena+hblkhd)
        169270 MiB available memory on the node where the printing process lives
------------------
     ethr =  8.01E-04,  avg # of iterations =  1.1

     negative rho (up, down):  7.814E-01 0.000E+00

     total cpu time spent up to now is      154.9 secs

     total energy              =   -4400.12353680 Ry
     estimated scf accuracy    <       1.25083222 Ry

     iteration # 12     ecut=    60.00 Ry     beta= 0.15
     Davidson diagonalization with overlap

---- Real-time Memory Report at c_bands before calling an iterative solver
             0 MiB given to the printing process from OS
             0 MiB allocation reported by mallinfo(arena+hblkhd)
        169287 MiB available memory on the node where the printing process lives
------------------
     ethr =  2.94E-04,  avg # of iterations =  1.9

     negative rho (up, down):  7.893E-01 0.000E+00

     total cpu time spent up to now is      167.6 secs

     total energy              =   -4400.10650498 Ry
     estimated scf accuracy    <       0.81146416 Ry

     iteration # 13     ecut=    60.00 Ry     beta= 0.15
     Davidson diagonalization with overlap

---- Real-time Memory Report at c_bands before calling an iterative solver
             0 MiB given to the printing process from OS
             0 MiB allocation reported by mallinfo(arena+hblkhd)
        169304 MiB available memory on the node where the printing process lives
------------------
     ethr =  1.91E-04,  avg # of iterations =  5.8

     negative rho (up, down):  8.003E-01 0.000E+00

     total cpu time spent up to now is      182.5 secs

     total energy              =   -4400.10556884 Ry
     estimated scf accuracy    <       1.70178124 Ry

     iteration # 14     ecut=    60.00 Ry     beta= 0.15
     Davidson diagonalization with overlap

---- Real-time Memory Report at c_bands before calling an iterative solver
             0 MiB given to the printing process from OS
             0 MiB allocation reported by mallinfo(arena+hblkhd)
        169279 MiB available memory on the node where the printing process lives
------------------
     ethr =  1.91E-04,  avg # of iterations =  5.2

     negative rho (up, down):  8.045E-01 0.000E+00

     total cpu time spent up to now is      197.3 secs

     total energy              =   -4400.01529457 Ry
     estimated scf accuracy    <       1.94270927 Ry

     iteration # 15     ecut=    60.00 Ry     beta= 0.15
     Davidson diagonalization with overlap

---- Real-time Memory Report at c_bands before calling an iterative solver
             0 MiB given to the printing process from OS
             0 MiB allocation reported by mallinfo(arena+hblkhd)
        169276 MiB available memory on the node where the printing process lives
------------------
     ethr =  1.91E-04,  avg # of iterations =  2.9

     negative rho (up, down):  8.082E-01 0.000E+00

     total cpu time spent up to now is      210.9 secs

     total energy              =   -4400.05163003 Ry
     estimated scf accuracy    <       0.36891150 Ry

     iteration # 16     ecut=    60.00 Ry     beta= 0.15
     Davidson diagonalization with overlap

---- Real-time Memory Report at c_bands before calling an iterative solver
             0 MiB given to the printing process from OS
             0 MiB allocation reported by mallinfo(arena+hblkhd)
        169268 MiB available memory on the node where the printing process lives
------------------
     c_bands:  1 eigenvalues not converged
     ethr =  8.68E-05,  avg # of iterations = 10.7

     negative rho (up, down):  8.123E-01 0.000E+00

     total cpu time spent up to now is      228.0 secs

     total energy              =   -4400.02437631 Ry
     estimated scf accuracy    <       0.31290659 Ry

     iteration # 17     ecut=    60.00 Ry     beta= 0.15
     Davidson diagonalization with overlap

---- Real-time Memory Report at c_bands before calling an iterative solver
             0 MiB given to the printing process from OS
             0 MiB allocation reported by mallinfo(arena+hblkhd)
        169234 MiB available memory on the node where the printing process lives
------------------
     ethr =  7.36E-05,  avg # of iterations =  5.4

     negative rho (up, down):  8.199E-01 0.000E+00

     total cpu time spent up to now is      243.2 secs

     total energy              =   -4399.95146598 Ry
     estimated scf accuracy    <       0.25915512 Ry

     iteration # 18     ecut=    60.00 Ry     beta= 0.15
     Davidson diagonalization with overlap

---- Real-time Memory Report at c_bands before calling an iterative solver
             0 MiB given to the printing process from OS
             0 MiB allocation reported by mallinfo(arena+hblkhd)
        169282 MiB available memory on the node where the printing process lives
------------------
     c_bands:  3 eigenvalues not converged
     ethr =  6.10E-05,  avg # of iterations = 12.6

     negative rho (up, down):  8.218E-01 0.000E+00

     total cpu time spent up to now is      262.7 secs

     total energy              =   -4399.95029593 Ry
     estimated scf accuracy    <       0.12939534 Ry

     iteration # 19     ecut=    60.00 Ry     beta= 0.15
     Davidson diagonalization with overlap

---- Real-time Memory Report at c_bands before calling an iterative solver
             0 MiB given to the printing process from OS
             0 MiB allocation reported by mallinfo(arena+hblkhd)
        169179 MiB available memory on the node where the printing process lives
------------------
     c_bands:  2 eigenvalues not converged
     c_bands:  1 eigenvalues not converged
     ethr =  3.04E-05,  avg # of iterations =  7.8

     negative rho (up, down):  8.201E-01 0.000E+00

     total cpu time spent up to now is      279.3 secs

     total energy              =   -4399.94619819 Ry
     estimated scf accuracy    <       0.10947114 Ry

     iteration # 20     ecut=    60.00 Ry     beta= 0.15
     Davidson diagonalization with overlap

---- Real-time Memory Report at c_bands before calling an iterative solver
             0 MiB given to the printing process from OS
             0 MiB allocation reported by mallinfo(arena+hblkhd)
        169155 MiB available memory on the node where the printing process lives
------------------
     ethr =  2.58E-05,  avg # of iterations =  4.0

     negative rho (up, down):  8.129E-01 0.000E+00

     total cpu time spent up to now is      294.5 secs

     total energy              =   -4399.93220484 Ry
     estimated scf accuracy    <       0.08312579 Ry

     iteration # 21     ecut=    60.00 Ry     beta= 0.15
     Davidson diagonalization with overlap

---- Real-time Memory Report at c_bands before calling an iterative solver
             0 MiB given to the printing process from OS
             0 MiB allocation reported by mallinfo(arena+hblkhd)
        169186 MiB available memory on the node where the printing process lives
------------------
     ethr =  1.96E-05,  avg # of iterations =  8.3

     negative rho (up, down):  8.119E-01 0.000E+00

     total cpu time spent up to now is      311.2 secs

     total energy              =   -4399.92661559 Ry
     estimated scf accuracy    <       0.05247930 Ry

     iteration # 22     ecut=    60.00 Ry     beta= 0.15
     Davidson diagonalization with overlap

---- Real-time Memory Report at c_bands before calling an iterative solver
             0 MiB given to the printing process from OS
             0 MiB allocation reported by mallinfo(arena+hblkhd)
        169220 MiB available memory on the node where the printing process lives
------------------
     ethr =  1.23E-05,  avg # of iterations = 10.7

     negative rho (up, down):  7.983E-01 0.000E+00

     total cpu time spent up to now is      329.4 secs

     total energy              =   -4399.92402821 Ry
     estimated scf accuracy    <       0.03013997 Ry

     iteration # 23     ecut=    60.00 Ry     beta= 0.15
     Davidson diagonalization with overlap

---- Real-time Memory Report at c_bands before calling an iterative solver
             0 MiB given to the printing process from OS
             0 MiB allocation reported by mallinfo(arena+hblkhd)
        169173 MiB available memory on the node where the printing process lives
------------------
     ethr =  7.09E-06,  avg # of iterations =  2.5

     negative rho (up, down):  7.916E-01 0.000E+00

     total cpu time spent up to now is      343.6 secs

     total energy              =   -4399.92200921 Ry
     estimated scf accuracy    <       0.01959704 Ry

     iteration # 24     ecut=    60.00 Ry     beta= 0.15
     Davidson diagonalization with overlap

---- Real-time Memory Report at c_bands before calling an iterative solver
             0 MiB given to the printing process from OS
             0 MiB allocation reported by mallinfo(arena+hblkhd)
        169170 MiB available memory on the node where the printing process lives
------------------
     ethr =  4.61E-06,  avg # of iterations = 10.4

     negative rho (up, down):  7.934E-01 0.000E+00

     total cpu time spent up to now is      361.7 secs

     total energy              =   -4399.92233387 Ry
     estimated scf accuracy    <       0.01068285 Ry

     iteration # 25     ecut=    60.00 Ry     beta= 0.15
     Davidson diagonalization with overlap

---- Real-time Memory Report at c_bands before calling an iterative solver
             0 MiB given to the printing process from OS
             0 MiB allocation reported by mallinfo(arena+hblkhd)
        169117 MiB available memory on the node where the printing process lives
------------------
     ethr =  2.51E-06,  avg # of iterations =  3.6

     negative rho (up, down):  7.928E-01 0.000E+00

     total cpu time spent up to now is      376.5 secs

     total energy              =   -4399.92160428 Ry
     estimated scf accuracy    <       0.00864167 Ry

     iteration # 26     ecut=    60.00 Ry     beta= 0.15
     Davidson diagonalization with overlap

---- Real-time Memory Report at c_bands before calling an iterative solver
             0 MiB given to the printing process from OS
             0 MiB allocation reported by mallinfo(arena+hblkhd)
        169156 MiB available memory on the node where the printing process lives
------------------
     c_bands:  1 eigenvalues not converged
     ethr =  2.03E-06,  avg # of iterations =  9.5

     negative rho (up, down):  7.918E-01 0.000E+00

     total cpu time spent up to now is      393.4 secs

     total energy              =   -4399.92112695 Ry
     estimated scf accuracy    <       0.00595135 Ry

     iteration # 27     ecut=    60.00 Ry     beta= 0.15
     Davidson diagonalization with overlap

---- Real-time Memory Report at c_bands before calling an iterative solver
             0 MiB given to the printing process from OS
             0 MiB allocation reported by mallinfo(arena+hblkhd)
        169151 MiB available memory on the node where the printing process lives
------------------
     ethr =  1.40E-06,  avg # of iterations =  3.3

     negative rho (up, down):  7.947E-01 0.000E+00

     total cpu time spent up to now is      408.2 secs

     total energy              =   -4399.92084537 Ry
     estimated scf accuracy    <       0.00337273 Ry

     iteration # 28     ecut=    60.00 Ry     beta= 0.15
     Davidson diagonalization with overlap

---- Real-time Memory Report at c_bands before calling an iterative solver
             0 MiB given to the printing process from OS
             0 MiB allocation reported by mallinfo(arena+hblkhd)
        169156 MiB available memory on the node where the printing process lives
------------------
     c_bands:  1 eigenvalues not converged
     c_bands:  1 eigenvalues not converged
     ethr =  7.94E-07,  avg # of iterations = 11.9

     negative rho (up, down):  7.958E-01 0.000E+00

     total cpu time spent up to now is      428.3 secs

     total energy              =   -4399.92089902 Ry
     estimated scf accuracy    <       0.00107864 Ry

     iteration # 29     ecut=    60.00 Ry     beta= 0.15
     Davidson diagonalization with overlap

---- Real-time Memory Report at c_bands before calling an iterative solver
             0 MiB given to the printing process from OS
             0 MiB allocation reported by mallinfo(arena+hblkhd)
        169093 MiB available memory on the node where the printing process lives
------------------
     c_bands:  1 eigenvalues not converged
     ethr =  2.54E-07,  avg # of iterations =  9.5

     negative rho (up, down):  7.953E-01 0.000E+00

     total cpu time spent up to now is      446.2 secs

     total energy              =   -4399.92092429 Ry
     estimated scf accuracy    <       0.00040973 Ry

     iteration # 30     ecut=    60.00 Ry     beta= 0.15
     Davidson diagonalization with overlap

---- Real-time Memory Report at c_bands before calling an iterative solver
             0 MiB given to the printing process from OS
             0 MiB allocation reported by mallinfo(arena+hblkhd)
        169068 MiB available memory on the node where the printing process lives
------------------
     ethr =  9.64E-08,  avg # of iterations =  2.8

     negative rho (up, down):  7.950E-01 0.000E+00

     total cpu time spent up to now is      460.6 secs

     total energy              =   -4399.92091510 Ry
     estimated scf accuracy    <       0.00025504 Ry

     iteration # 31     ecut=    60.00 Ry     beta= 0.15
     Davidson diagonalization with overlap

---- Real-time Memory Report at c_bands before calling an iterative solver
             0 MiB given to the printing process from OS
             0 MiB allocation reported by mallinfo(arena+hblkhd)
        169071 MiB available memory on the node where the printing process lives
------------------
     ethr =  6.00E-08,  avg # of iterations =  2.1

     negative rho (up, down):  7.928E-01 0.000E+00

     total cpu time spent up to now is      474.6 secs

     total energy              =   -4399.92089460 Ry
     estimated scf accuracy    <       0.00017520 Ry

     iteration # 32     ecut=    60.00 Ry     beta= 0.15
     Davidson diagonalization with overlap

---- Real-time Memory Report at c_bands before calling an iterative solver
             0 MiB given to the printing process from OS
             0 MiB allocation reported by mallinfo(arena+hblkhd)
        169070 MiB available memory on the node where the printing process lives
------------------
     ethr =  4.12E-08,  avg # of iterations =  3.8

     negative rho (up, down):  7.928E-01 0.000E+00

     total cpu time spent up to now is      489.0 secs

     total energy              =   -4399.92089621 Ry
     estimated scf accuracy    <       0.00006265 Ry

     iteration # 33     ecut=    60.00 Ry     beta= 0.15
     Davidson diagonalization with overlap

---- Real-time Memory Report at c_bands before calling an iterative solver
             0 MiB given to the printing process from OS
             0 MiB allocation reported by mallinfo(arena+hblkhd)
        169115 MiB available memory on the node where the printing process lives
------------------
     ethr =  1.47E-08,  avg # of iterations =  2.9

     negative rho (up, down):  7.926E-01 0.000E+00

     total cpu time spent up to now is      503.9 secs

     total energy              =   -4399.92089669 Ry
     estimated scf accuracy    <       0.00002838 Ry

     iteration # 34     ecut=    60.00 Ry     beta= 0.15
     Davidson diagonalization with overlap

---- Real-time Memory Report at c_bands before calling an iterative solver
             0 MiB given to the printing process from OS
             0 MiB allocation reported by mallinfo(arena+hblkhd)
        169110 MiB available memory on the node where the printing process lives
------------------
     ethr =  6.68E-09,  avg # of iterations =  2.9

     negative rho (up, down):  7.925E-01 0.000E+00

     total cpu time spent up to now is      518.1 secs

     total energy              =   -4399.92089689 Ry
     estimated scf accuracy    <       0.00001667 Ry

     iteration # 35     ecut=    60.00 Ry     beta= 0.15
     Davidson diagonalization with overlap

---- Real-time Memory Report at c_bands before calling an iterative solver
             0 MiB given to the printing process from OS
             0 MiB allocation reported by mallinfo(arena+hblkhd)
        169111 MiB available memory on the node where the printing process lives
------------------
     ethr =  3.92E-09,  avg # of iterations =  2.3

     negative rho (up, down):  7.924E-01 0.000E+00

     total cpu time spent up to now is      531.4 secs

     total energy              =   -4399.92089904 Ry
     estimated scf accuracy    <       0.00001231 Ry

     iteration # 36     ecut=    60.00 Ry     beta= 0.15
     Davidson diagonalization with overlap

---- Real-time Memory Report at c_bands before calling an iterative solver
             0 MiB given to the printing process from OS
             0 MiB allocation reported by mallinfo(arena+hblkhd)
        169179 MiB available memory on the node where the printing process lives
------------------
     ethr =  2.90E-09,  avg # of iterations =  2.3

     negative rho (up, down):  7.924E-01 0.000E+00

     total cpu time spent up to now is      545.8 secs

     total energy              =   -4399.92089983 Ry
     estimated scf accuracy    <       0.00000715 Ry

     iteration # 37     ecut=    60.00 Ry     beta= 0.15
     Davidson diagonalization with overlap

---- Real-time Memory Report at c_bands before calling an iterative solver
             0 MiB given to the printing process from OS
             0 MiB allocation reported by mallinfo(arena+hblkhd)
        169162 MiB available memory on the node where the printing process lives
------------------
     ethr =  1.68E-09,  avg # of iterations =  3.0

     negative rho (up, down):  7.924E-01 0.000E+00

     total cpu time spent up to now is      560.0 secs

     total energy              =   -4399.92090027 Ry
     estimated scf accuracy    <       0.00000424 Ry

     iteration # 38     ecut=    60.00 Ry     beta= 0.15
     Davidson diagonalization with overlap

---- Real-time Memory Report at c_bands before calling an iterative solver
             0 MiB given to the printing process from OS
             0 MiB allocation reported by mallinfo(arena+hblkhd)
        169157 MiB available memory on the node where the printing process lives
------------------
     ethr =  9.98E-10,  avg # of iterations =  2.3

     negative rho (up, down):  7.923E-01 0.000E+00

     total cpu time spent up to now is      574.0 secs

     total energy              =   -4399.92089981 Ry
     estimated scf accuracy    <       0.00000327 Ry

     iteration # 39     ecut=    60.00 Ry     beta= 0.15
     Davidson diagonalization with overlap

---- Real-time Memory Report at c_bands before calling an iterative solver
             0 MiB given to the printing process from OS
             0 MiB allocation reported by mallinfo(arena+hblkhd)
        169165 MiB available memory on the node where the printing process lives
------------------
     ethr =  7.69E-10,  avg # of iterations =  2.8

     negative rho (up, down):  7.924E-01 0.000E+00

     total cpu time spent up to now is      588.3 secs

     total energy              =   -4399.92089980 Ry
     estimated scf accuracy    <       0.00000206 Ry

     iteration # 40     ecut=    60.00 Ry     beta= 0.15
     Davidson diagonalization with overlap

---- Real-time Memory Report at c_bands before calling an iterative solver
             0 MiB given to the printing process from OS
             0 MiB allocation reported by mallinfo(arena+hblkhd)
        169164 MiB available memory on the node where the printing process lives
------------------
     ethr =  4.84E-10,  avg # of iterations =  2.2

     negative rho (up, down):  7.924E-01 0.000E+00

     total cpu time spent up to now is      602.4 secs

     total energy              =   -4399.92090080 Ry
     estimated scf accuracy    <       0.00000124 Ry

     iteration # 41     ecut=    60.00 Ry     beta= 0.15
     Davidson diagonalization with overlap

---- Real-time Memory Report at c_bands before calling an iterative solver
             0 MiB given to the printing process from OS
             0 MiB allocation reported by mallinfo(arena+hblkhd)
        169164 MiB available memory on the node where the printing process lives
------------------
     ethr =  2.91E-10,  avg # of iterations =  2.2

     negative rho (up, down):  7.924E-01 0.000E+00

     total cpu time spent up to now is      616.3 secs

     total energy              =   -4399.92090188 Ry
     estimated scf accuracy    <       0.00000088 Ry

     iteration # 42     ecut=    60.00 Ry     beta= 0.15
     Davidson diagonalization with overlap

---- Real-time Memory Report at c_bands before calling an iterative solver
             0 MiB given to the printing process from OS
             0 MiB allocation reported by mallinfo(arena+hblkhd)
        169167 MiB available memory on the node where the printing process lives
------------------
     ethr =  2.08E-10,  avg # of iterations =  2.9

     negative rho (up, down):  7.924E-01 0.000E+00

     total cpu time spent up to now is      630.6 secs

     total energy              =   -4399.92090290 Ry
     estimated scf accuracy    <       0.00000065 Ry

     iteration # 43     ecut=    60.00 Ry     beta= 0.15
     Davidson diagonalization with overlap

---- Real-time Memory Report at c_bands before calling an iterative solver
             0 MiB given to the printing process from OS
             0 MiB allocation reported by mallinfo(arena+hblkhd)
        169171 MiB available memory on the node where the printing process lives
------------------
     ethr =  1.54E-10,  avg # of iterations =  3.7

     negative rho (up, down):  7.924E-01 0.000E+00

     total cpu time spent up to now is      645.3 secs

     total energy              =   -4399.92090324 Ry
     estimated scf accuracy    <       0.00000039 Ry

     iteration # 44     ecut=    60.00 Ry     beta= 0.15
     Davidson diagonalization with overlap

---- Real-time Memory Report at c_bands before calling an iterative solver
             0 MiB given to the printing process from OS
             0 MiB allocation reported by mallinfo(arena+hblkhd)
        169169 MiB available memory on the node where the printing process lives
------------------
     ethr =  9.21E-11,  avg # of iterations =  3.7

     negative rho (up, down):  7.924E-01 0.000E+00

     total cpu time spent up to now is      660.1 secs

     total energy              =   -4399.92090321 Ry
     estimated scf accuracy    <       0.00000022 Ry

     iteration # 45     ecut=    60.00 Ry     beta= 0.15
     Davidson diagonalization with overlap

---- Real-time Memory Report at c_bands before calling an iterative solver
             0 MiB given to the printing process from OS
             0 MiB allocation reported by mallinfo(arena+hblkhd)
        169168 MiB available memory on the node where the printing process lives
------------------
     ethr =  5.12E-11,  avg # of iterations =  3.8

     negative rho (up, down):  7.924E-01 0.000E+00

     total cpu time spent up to now is      674.8 secs

     total energy              =   -4399.92090318 Ry
     estimated scf accuracy    <       0.00000011 Ry

     iteration # 46     ecut=    60.00 Ry     beta= 0.15
     Davidson diagonalization with overlap

---- Real-time Memory Report at c_bands before calling an iterative solver
             0 MiB given to the printing process from OS
             0 MiB allocation reported by mallinfo(arena+hblkhd)
        169153 MiB available memory on the node where the printing process lives
------------------
     ethr =  2.63E-11,  avg # of iterations =  2.3

     negative rho (up, down):  7.924E-01 0.000E+00

     total cpu time spent up to now is      688.8 secs

     total energy              =   -4399.92090319 Ry
     estimated scf accuracy    <       0.00000008 Ry

     iteration # 47     ecut=    60.00 Ry     beta= 0.15
     Davidson diagonalization with overlap

---- Real-time Memory Report at c_bands before calling an iterative solver
             0 MiB given to the printing process from OS
             0 MiB allocation reported by mallinfo(arena+hblkhd)
        169161 MiB available memory on the node where the printing process lives
------------------
     ethr =  1.91E-11,  avg # of iterations =  2.1

     negative rho (up, down):  7.924E-01 0.000E+00

     total cpu time spent up to now is      702.6 secs

     total energy              =   -4399.92090324 Ry
     estimated scf accuracy    <       0.00000006 Ry

     iteration # 48     ecut=    60.00 Ry     beta= 0.15
     Davidson diagonalization with overlap

---- Real-time Memory Report at c_bands before calling an iterative solver
             0 MiB given to the printing process from OS
             0 MiB allocation reported by mallinfo(arena+hblkhd)
        169170 MiB available memory on the node where the printing process lives
------------------
     ethr =  1.44E-11,  avg # of iterations =  2.3

     negative rho (up, down):  7.924E-01 0.000E+00

     total cpu time spent up to now is      716.6 secs

     total energy              =   -4399.92090327 Ry
     estimated scf accuracy    <       0.00000003 Ry

     iteration # 49     ecut=    60.00 Ry     beta= 0.15
     Davidson diagonalization with overlap

---- Real-time Memory Report at c_bands before calling an iterative solver
             0 MiB given to the printing process from OS
             0 MiB allocation reported by mallinfo(arena+hblkhd)
        169167 MiB available memory on the node where the printing process lives
------------------
     ethr =  7.63E-12,  avg # of iterations =  2.8

     negative rho (up, down):  7.924E-01 0.000E+00

     total cpu time spent up to now is      730.5 secs

     total energy              =   -4399.92090330 Ry
     estimated scf accuracy    <       0.00000001 Ry

     iteration # 50     ecut=    60.00 Ry     beta= 0.15
     Davidson diagonalization with overlap

---- Real-time Memory Report at c_bands before calling an iterative solver
             0 MiB given to the printing process from OS
             0 MiB allocation reported by mallinfo(arena+hblkhd)
        169163 MiB available memory on the node where the printing process lives
------------------
     ethr =  2.59E-12,  avg # of iterations =  3.7

     negative rho (up, down):  7.924E-01 0.000E+00

     total cpu time spent up to now is      744.5 secs

     End of self-consistent calculation

          k = 0.0000 0.0000 0.0000 ( 65197 PWs)   bands (ev):

   -92.7387 -92.6876 -92.5933 -92.5444 -92.4874 -92.4452 -92.4281 -92.3055
   -56.0921 -56.0739 -55.9503 -55.9395 -55.9325 -55.9263 -55.8925 -55.8623
   -55.8467 -55.8447 -55.8374 -55.7951 -55.7748 -55.7387 -55.7199 -55.6873
   -55.6799 -55.6337 -55.6318 -55.6305 -55.6221 -55.5803 -55.5584 -55.4718
   -31.3140 -31.2945 -31.1536 -31.0894 -31.0668 -31.0012 -30.8657 -30.8232
   -29.8859 -29.8424 -29.8177 -29.7095 -15.1192 -15.0765 -14.9948 -14.8653
   -14.6716 -14.5508 -14.2565 -14.2346 -14.2069 -14.1623 -14.1202 -14.1091
   -14.0932 -14.0776 -14.0500 -14.0199 -13.9675 -13.8170 -13.6369 -13.6050
   -13.5748 -13.5402 -13.5252 -13.4751 -13.4408 -13.3584 -13.2870 -13.1755
   -13.1468 -13.1341 -13.1117 -13.1008 -13.0932 -13.0420 -13.0366 -13.0243
   -12.9919 -12.9600 -12.9388 -12.9065 -12.8943 -12.8899 -12.8306 -12.8053
   -12.7964 -12.7296 -12.6994 -12.6876 -12.3793 -12.2332 -12.0803 -12.0057
   -11.8996 -11.8251 -11.8144 -11.7917 -11.7741 -11.7104 -11.6935 -11.6581
   -11.6293 -11.5186 -11.4382 -11.4346  -2.9797  -2.7475  -2.5180  -2.3704
    -2.3081  -2.1657  -1.8582  -1.8439  -1.8244  -1.7385  -1.7207  -1.6529
    -1.6364  -1.5955  -1.5506  -1.3700  -1.1438  -1.1148  -0.9687  -0.9544
    -0.9076  -0.8900  -0.8445  -0.8277  -0.7717  -0.7452  -0.6734  -0.6617
    -0.5848  -0.4537  -0.4404  -0.4111  -0.3303  -0.3105  -0.2867  -0.2379
    -0.1656  -0.1310  -0.0672  -0.0469   0.0136   0.0954   0.1413   0.1647
     0.1730   0.4323   0.4476   0.6209   0.6846   0.7477   0.7942   0.8856
     0.8983   0.9154   0.9835   1.0110   1.0455   1.1031   1.2355   1.2921
     1.3146   1.3372   1.3473   1.4118   1.4832   1.5893   1.6047   1.6591
     1.6742   1.7173   1.7385   1.7477   1.8013   1.8576   1.8657   1.8971
     1.9299   1.9870   2.1184   2.2010   2.2458   2.2656   2.4096   2.4247
     2.4715   2.4748   2.5853   2.6191   2.6465   2.6639   2.6705   2.7314
     2.7973   2.8687   2.9034   2.9130   2.9205   2.9875   2.9945   3.0152
     3.0232   3.0331   3.0445   3.0510   3.0649   3.0710   3.0817   3.0908
     3.0981   3.1186   3.1397   3.1448   3.1568   3.1791   3.2974   3.4051
     4.0720   4.3862   4.7322   4.8524   4.9987   5.8694   5.9426   5.9523
     5.9831   6.2772   6.3234   6.4633   6.4729   6.7457   6.9870   7.0784
     7.1581   7.2818   7.4607   7.5792   7.6332   7.6517   7.6927   7.8687
     7.9569   8.0884   8.1019   8.2267   8.5126   8.6728   8.7381   8.8595

     occupation numbers 
     1.0000   1.0000   1.0000   1.0000   1.0000   1.0000   1.0000   1.0000
     1.0000   1.0000   1.0000   1.0000   1.0000   1.0000   1.0000   1.0000
     1.0000   1.0000   1.0000   1.0000   1.0000   1.0000   1.0000   1.0000
     1.0000   1.0000   1.0000   1.0000   1.0000   1.0000   1.0000   1.0000
     1.0000   1.0000   1.0000   1.0000   1.0000   1.0000   1.0000   1.0000
     1.0000   1.0000   1.0000   1.0000   1.0000   1.0000   1.0000   1.0000
     1.0000   1.0000   1.0000   1.0000   1.0000   1.0000   1.0000   1.0000
     1.0000   1.0000   1.0000   1.0000   1.0000   1.0000   1.0000   1.0000
     1.0000   1.0000   1.0000   1.0000   1.0000   1.0000   1.0000   1.0000
     1.0000   1.0000   1.0000   1.0000   1.0000   1.0000   1.0000   1.0000
     1.0000   1.0000   1.0000   1.0000   1.0000   1.0000   1.0000   1.0000
     1.0000   1.0000   1.0000   1.0000   1.0000   1.0000   1.0000   1.0000
     1.0000   1.0000   1.0000   1.0000   1.0000   1.0000   1.0000   1.0000
     1.0000   1.0000   1.0000   1.0000   1.0000   1.0000   1.0000   1.0000
     1.0000   1.0000   1.0000   1.0000   1.0000   1.0000   1.0000   1.0000
     1.0000   1.0000   1.0000   1.0000   1.0000   1.0000   1.0000   1.0000
     1.0000   1.0000   1.0000   1.0000   1.0000   1.0000   1.0000   1.0000
     1.0000   1.0000   1.0000   1.0000   1.0000   1.0000   1.0000   1.0000
     1.0000   1.0000   1.0000   1.0000   1.0000   1.0000   1.0000   1.0000
     1.0000   1.0000   1.0000   1.0000   0.9999   0.9999   0.9999   0.9998
     0.9998   0.9998   0.9997   0.9996   0.9996   0.9994   0.9989   0.9985
     0.9983   0.9981   0.9980   0.9973   0.9963   0.9942   0.9938   0.9922
     0.9917   0.9902   0.9893   0.9889   0.9864   0.9832   0.9827   0.9806
     0.9782   0.9734   0.9589   0.9469   0.9393   0.9357   0.9041   0.9003
     0.8876   0.8866   0.8519   0.8400   0.8299   0.8233   0.8207   0.7961
     0.7673   0.7336   0.7165   0.7116   0.7078   0.6727   0.6690   0.6578
     0.6534   0.6479   0.6416   0.6380   0.6302   0.6268   0.6208   0.6156
     0.6115   0.5998   0.5876   0.5847   0.5777   0.5647   0.4949   0.4315
     0.1224   0.0516   0.0160   0.0101   0.0056   0.0001   0.0000   0.0000
     0.0000   0.0000   0.0000   0.0000   0.0000   0.0000   0.0000   0.0000
     0.0000   0.0000   0.0000   0.0000   0.0000   0.0000   0.0000   0.0000
     0.0000   0.0000   0.0000   0.0000   0.0000   0.0000   0.0000   0.0000

          k = 0.0000 0.2500 0.0000 ( 65257 PWs)   bands (ev):

   -92.7387 -92.6876 -92.5933 -92.5444 -92.4874 -92.4452 -92.4281 -92.3055
   -56.0921 -56.0739 -55.9503 -55.9395 -55.9325 -55.9263 -55.8925 -55.8623
   -55.8467 -55.8447 -55.8374 -55.7951 -55.7748 -55.7387 -55.7199 -55.6873
   -55.6799 -55.6337 -55.6318 -55.6305 -55.6221 -55.5803 -55.5584 -55.4718
   -31.3138 -31.2944 -31.1538 -31.0891 -31.0669 -31.0015 -30.8649 -30.8239
   -29.8853 -29.8421 -29.8183 -29.7098 -15.0825 -15.0505 -14.9701 -14.8356
   -14.7130 -14.5401 -14.4027 -14.2227 -14.1858 -14.1658 -14.1388 -14.0793
   -14.0751 -14.0600 -14.0366 -13.9931 -13.8868 -13.8466 -13.6849 -13.6619
   -13.6154 -13.5800 -13.5292 -13.4926 -13.4534 -13.3795 -13.3441 -13.2862
   -13.2123 -13.1839 -13.1448 -13.1255 -13.0818 -13.0247 -12.9998 -12.9726
   -12.9485 -12.9349 -12.9035 -12.8583 -12.8424 -12.8363 -12.8264 -12.7800
   -12.7693 -12.7229 -12.6064 -12.5349 -12.4406 -12.2844 -12.1385 -12.0745
   -11.8651 -11.8219 -11.7944 -11.7664 -11.7498 -11.7021 -11.6910 -11.6685
   -11.6336 -11.5330 -11.4799 -11.4693  -2.8444  -2.6232  -2.4855  -2.3030
    -2.2598  -2.0964  -1.8758  -1.7924  -1.7794  -1.7189  -1.6190  -1.6029
    -1.5690  -1.5425  -1.4984  -1.3013  -1.1716  -1.1602  -1.0826  -1.0731
    -0.9690  -0.9394  -0.8826  -0.8561  -0.8160  -0.7509  -0.7246  -0.6925
    -0.6626  -0.6459  -0.6118  -0.5394  -0.4873  -0.4150  -0.3096  -0.2820
    -0.2447  -0.1322  -0.0970  -0.0311   0.0159   0.0784   0.0925   0.1206
     0.1774   0.4788   0.5677   0.5998   0.6868   0.7313   0.7498   0.8717
     0.8891   0.9842   1.0108   1.0378   1.1527   1.2464   1.2677   1.2928
     1.3128   1.3364   1.3960   1.4244   1.4512   1.4992   1.5333   1.5643
     1.6476   1.6828   1.7130   1.7699   1.8210   1.8564   1.8861   1.9168
     1.9327   2.0250   2.1548   2.2263   2.2494   2.3215   2.3656   2.4049
     2.4117   2.4778   2.5166   2.6015   2.6351   2.6548   2.7574   2.8336
     2.8546   2.8817   2.9065   2.9206   2.9294   2.9360   2.9446   2.9755
     2.9791   2.9953   3.0073   3.0096   3.0301   3.0412   3.0486   3.0695
     3.0803   3.0874   3.1206   3.1374   3.1970   3.5593   3.6129   3.8464
     4.2601   4.3822   4.6749   5.0010   5.0303   5.6113   5.7721   5.9301
     5.9837   6.0565   6.0926   6.1536   6.5799   6.9090   7.0620   7.1076
     7.2652   7.3066   7.4556   7.4715   7.6173   7.7534   7.8932   7.9668
     8.0145   8.1036   8.1857   8.2731   8.3800   8.6496   8.7991   8.8712

     occupation numbers 
     1.0000   1.0000   1.0000   1.0000   1.0000   1.0000   1.0000   1.0000
     1.0000   1.0000   1.0000   1.0000   1.0000   1.0000   1.0000   1.0000
     1.0000   1.0000   1.0000   1.0000   1.0000   1.0000   1.0000   1.0000
     1.0000   1.0000   1.0000   1.0000   1.0000   1.0000   1.0000   1.0000
     1.0000   1.0000   1.0000   1.0000   1.0000   1.0000   1.0000   1.0000
     1.0000   1.0000   1.0000   1.0000   1.0000   1.0000   1.0000   1.0000
     1.0000   1.0000   1.0000   1.0000   1.0000   1.0000   1.0000   1.0000
     1.0000   1.0000   1.0000   1.0000   1.0000   1.0000   1.0000   1.0000
     1.0000   1.0000   1.0000   1.0000   1.0000   1.0000   1.0000   1.0000
     1.0000   1.0000   1.0000   1.0000   1.0000   1.0000   1.0000   1.0000
     1.0000   1.0000   1.0000   1.0000   1.0000   1.0000   1.0000   1.0000
     1.0000   1.0000   1.0000   1.0000   1.0000   1.0000   1.0000   1.0000
     1.0000   1.0000   1.0000   1.0000   1.0000   1.0000   1.0000   1.0000
     1.0000   1.0000   1.0000   1.0000   1.0000   1.0000   1.0000   1.0000
     1.0000   1.0000   1.0000   1.0000   1.0000   1.0000   1.0000   1.0000
     1.0000   1.0000   1.0000   1.0000   1.0000   1.0000   1.0000   1.0000
     1.0000   1.0000   1.0000   1.0000   1.0000   1.0000   1.0000   1.0000
     1.0000   1.0000   1.0000   1.0000   1.0000   1.0000   1.0000   1.0000
     1.0000   1.0000   1.0000   1.0000   1.0000   1.0000   1.0000   1.0000
     1.0000   1.0000   1.0000   1.0000   0.9999   0.9999   0.9999   0.9998
     0.9998   0.9997   0.9996   0.9996   0.9992   0.9988   0.9987   0.9985
     0.9983   0.9981   0.9975   0.9972   0.9968   0.9961   0.9954   0.9948
     0.9926   0.9915   0.9904   0.9879   0.9854   0.9833   0.9814   0.9792
     0.9780   0.9697   0.9539   0.9427   0.9386   0.9245   0.9148   0.9053
     0.9036   0.8858   0.8742   0.8463   0.8341   0.8268   0.7850   0.7505
     0.7405   0.7273   0.7149   0.7077   0.7033   0.6998   0.6954   0.6791
     0.6772   0.6685   0.6620   0.6608   0.6496   0.6435   0.6393   0.6277
     0.6216   0.6176   0.5986   0.5889   0.5543   0.3440   0.3152   0.2039
     0.0746   0.0522   0.0198   0.0055   0.0049   0.0003   0.0001   0.0000
     0.0000   0.0000   0.0000   0.0000   0.0000   0.0000   0.0000   0.0000
     0.0000   0.0000   0.0000   0.0000   0.0000   0.0000   0.0000   0.0000
     0.0000   0.0000   0.0000   0.0000   0.0000   0.0000   0.0000   0.0000

          k = 0.0000-0.5000 0.0000 ( 65180 PWs)   bands (ev):

   -92.7387 -92.6876 -92.5933 -92.5444 -92.4874 -92.4452 -92.4281 -92.3055
   -56.0921 -56.0739 -55.9503 -55.9395 -55.9325 -55.9263 -55.8925 -55.8623
   -55.8467 -55.8447 -55.8374 -55.7951 -55.7748 -55.7387 -55.7199 -55.6873
   -55.6799 -55.6337 -55.6318 -55.6305 -55.6221 -55.5803 -55.5584 -55.4718
   -31.3136 -31.2943 -31.1540 -31.0888 -31.0670 -31.0019 -30.8641 -30.8247
   -29.8846 -29.8418 -29.8190 -29.7101 -15.0479 -14.9989 -14.9479 -14.8155
   -14.7352 -14.5938 -14.4483 -14.3139 -14.1949 -14.1245 -14.0794 -14.0743
   -14.0233 -14.0080 -13.9632 -13.9365 -13.9154 -13.8757 -13.8294 -13.8114
   -13.6212 -13.5622 -13.5344 -13.4940 -13.4543 -13.3953 -13.3594 -13.3192
   -13.2965 -13.2543 -13.1455 -13.1258 -13.0703 -13.0075 -12.9958 -12.9892
   -12.9657 -12.9187 -12.8594 -12.8363 -12.8195 -12.7674 -12.7558 -12.7423
   -12.7277 -12.6886 -12.5517 -12.4556 -12.3594 -12.3019 -12.2544 -12.2212
   -11.8188 -11.8166 -11.7895 -11.7527 -11.7180 -11.7069 -11.6633 -11.6595
   -11.6149 -11.5550 -11.5410 -11.5266  -2.6295  -2.5706  -2.4201  -2.3478
    -2.0649  -1.9830  -1.8559  -1.7182  -1.6780  -1.6615  -1.5829  -1.5499
    -1.4706  -1.4342  -1.3563  -1.3168  -1.2781  -1.2507  -1.1927  -1.1567
    -1.1073  -1.0714  -1.0410  -1.0052  -0.8965  -0.8516  -0.8164  -0.8141
    -0.7281  -0.6956  -0.6741  -0.6270  -0.5372  -0.4703  -0.3809  -0.3469
    -0.2513  -0.2132  -0.0676  -0.0191  -0.0025   0.0502   0.1650   0.2223
     0.3539   0.4235   0.4304   0.5580   0.6108   0.7036   0.8361   0.9420
     0.9749   1.0135   1.0225   1.0590   1.0740   1.1101   1.1269   1.1375
     1.2473   1.3073   1.3420   1.3690   1.6334   1.6541   1.6759   1.7683
     1.7941   1.8288   1.8421   1.8726   1.8851   1.8933   1.9214   1.9675
     1.9926   2.0254   2.0300   2.0600   2.1134   2.1998   2.2283   2.4021
     2.5639   2.5697   2.5938   2.6301   2.6381   2.6445   2.6827   2.7056
     2.7559   2.7605   2.7829   2.8692   2.8873   2.9438   2.9460   2.9730
     2.9790   2.9924   2.9956   3.0005   3.0071   3.0133   3.0321   3.0398
     3.0428   3.1055   3.1109   3.1271   3.1820   4.0867   4.0984   4.1407
     4.2344   4.7026   4.8635   4.9970   5.1399   5.3938   5.4332   5.5569
     5.7017   5.9906   6.0075   6.0738   6.8340   6.8751   6.9324   7.1997
     7.3057   7.3590   7.4545   7.4866   7.6657   7.7204   7.8309   7.8769
     8.1435   8.2529   8.3754   8.4669   8.6282   8.7774   8.7982   8.8465

     occupation numbers 
     1.0000   1.0000   1.0000   1.0000   1.0000   1.0000   1.0000   1.0000
     1.0000   1.0000   1.0000   1.0000   1.0000   1.0000   1.0000   1.0000
     1.0000   1.0000   1.0000   1.0000   1.0000   1.0000   1.0000   1.0000
     1.0000   1.0000   1.0000   1.0000   1.0000   1.0000   1.0000   1.0000
     1.0000   1.0000   1.0000   1.0000   1.0000   1.0000   1.0000   1.0000
     1.0000   1.0000   1.0000   1.0000   1.0000   1.0000   1.0000   1.0000
     1.0000   1.0000   1.0000   1.0000   1.0000   1.0000   1.0000   1.0000
     1.0000   1.0000   1.0000   1.0000   1.0000   1.0000   1.0000   1.0000
     1.0000   1.0000   1.0000   1.0000   1.0000   1.0000   1.0000   1.0000
     1.0000   1.0000   1.0000   1.0000   1.0000   1.0000   1.0000   1.0000
     1.0000   1.0000   1.0000   1.0000   1.0000   1.0000   1.0000   1.0000
     1.0000   1.0000   1.0000   1.0000   1.0000   1.0000   1.0000   1.0000
     1.0000   1.0000   1.0000   1.0000   1.0000   1.0000   1.0000   1.0000
     1.0000   1.0000   1.0000   1.0000   1.0000   1.0000   1.0000   1.0000
     1.0000   1.0000   1.0000   1.0000   1.0000   1.0000   1.0000   1.0000
     1.0000   1.0000   1.0000   1.0000   1.0000   1.0000   1.0000   1.0000
     1.0000   1.0000   1.0000   1.0000   1.0000   1.0000   1.0000   1.0000
     1.0000   1.0000   1.0000   1.0000   1.0000   1.0000   1.0000   1.0000
     1.0000   1.0000   1.0000   1.0000   1.0000   1.0000   1.0000   1.0000
     1.0000   1.0000   1.0000   1.0000   1.0000   0.9999   0.9999   0.9998
     0.9997   0.9996   0.9996   0.9995   0.9995   0.9994   0.9993   0.9993
     0.9988   0.9984   0.9981   0.9978   0.9930   0.9924   0.9917   0.9880
     0.9868   0.9849   0.9842   0.9823   0.9814   0.9809   0.9788   0.9751
     0.9729   0.9697   0.9692   0.9660   0.9595   0.9471   0.9423   0.9060
     0.8591   0.8572   0.8490   0.8360   0.8331   0.8307   0.8159   0.8068
     0.7857   0.7837   0.7738   0.7334   0.7245   0.6958   0.6946   0.6804
     0.6773   0.6701   0.6684   0.6657   0.6622   0.6588   0.6485   0.6442
     0.6425   0.6073   0.6042   0.5949   0.5630   0.1181   0.1147   0.1029
     0.0802   0.0179   0.0097   0.0056   0.0030   0.0009   0.0007   0.0004
     0.0002   0.0000   0.0000   0.0000   0.0000   0.0000   0.0000   0.0000
     0.0000   0.0000   0.0000   0.0000   0.0000   0.0000   0.0000   0.0000
     0.0000   0.0000   0.0000   0.0000   0.0000   0.0000   0.0000   0.0000

          k = 0.2500 0.2500 0.0000 ( 65198 PWs)   bands (ev):

   -92.7387 -92.6876 -92.5933 -92.5444 -92.4874 -92.4452 -92.4281 -92.3055
   -56.0921 -56.0739 -55.9503 -55.9395 -55.9325 -55.9263 -55.8925 -55.8623
   -55.8467 -55.8447 -55.8374 -55.7951 -55.7748 -55.7387 -55.7199 -55.6873
   -55.6799 -55.6337 -55.6318 -55.6305 -55.6221 -55.5803 -55.5584 -55.4718
   -31.3122 -31.2961 -31.1535 -31.0890 -31.0673 -31.0013 -30.8651 -30.8241
   -29.8843 -29.8431 -29.8179 -29.7102 -15.0539 -15.0153 -14.9423 -14.8250
   -14.7052 -14.5813 -14.5080 -14.3000 -14.1457 -14.1319 -14.0969 -14.0659
   -14.0464 -14.0199 -13.9822 -13.9542 -13.8781 -13.8604 -13.7010 -13.6864
   -13.6575 -13.6371 -13.5744 -13.5481 -13.4888 -13.4630 -13.3449 -13.2997
   -13.2661 -13.1779 -13.1380 -13.0862 -13.0571 -13.0508 -13.0107 -12.9840
   -12.9548 -12.9296 -12.8935 -12.8422 -12.8308 -12.7872 -12.7786 -12.7509
   -12.7325 -12.7161 -12.5416 -12.4891 -12.4462 -12.3134 -12.1708 -12.1217
   -11.8372 -11.8056 -11.7948 -11.7877 -11.7249 -11.6906 -11.6839 -11.6484
   -11.6405 -11.5496 -11.5082 -11.4907  -2.7061  -2.4974  -2.3796  -2.2846
    -2.1646  -2.0996  -1.9005  -1.7572  -1.7377  -1.7063  -1.6134  -1.5792
    -1.4854  -1.4582  -1.4079  -1.2767  -1.2288  -1.1548  -1.1105  -1.0656
    -1.0421  -1.0182  -0.9762  -0.9604  -0.8697  -0.8200  -0.7530  -0.7046
    -0.6760  -0.6265  -0.6135  -0.5492  -0.4985  -0.4372  -0.4079  -0.3178
    -0.2698  -0.2393  -0.2019  -0.1461  -0.0775  -0.0363  -0.0080   0.0611
     0.1014   0.3711   0.5197   0.5540   0.6122   0.6514   0.7088   0.7592
     0.8246   0.8633   1.1364   1.2026   1.2758   1.3000   1.3518   1.3806
     1.4174   1.4538   1.4708   1.4987   1.5418   1.5515   1.5673   1.6141
     1.6511   1.6894   1.7422   1.7795   1.7949   1.8222   1.8605   1.9142
     1.9393   2.0662   2.1353   2.1719   2.1970   2.2646   2.3261   2.3565
     2.3929   2.4172   2.4286   2.5437   2.5818   2.6606   2.7700   2.8383
     2.8596   2.8636   2.8785   2.8936   2.9083   2.9185   2.9250   2.9368
     2.9494   2.9654   2.9806   2.9868   2.9989   3.0225   3.0322   3.0410
     3.0726   3.3732   3.4650   3.5145   3.5772   3.5968   3.8301   3.9164
     4.2632   4.4724   4.6837   4.9397   5.1538   5.6120   5.6694   5.7374
     5.7985   5.8602   6.0631   6.1592   6.1918   6.8139   6.8798   7.0732
     7.2276   7.5268   7.5767   7.6823   7.7434   7.8403   7.9537   8.0882
     8.2123   8.2528   8.2697   8.3263   8.4076   8.4381   8.7295   8.8689

     occupation numbers 
     1.0000   1.0000   1.0000   1.0000   1.0000   1.0000   1.0000   1.0000
     1.0000   1.0000   1.0000   1.0000   1.0000   1.0000   1.0000   1.0000
     1.0000   1.0000   1.0000   1.0000   1.0000   1.0000   1.0000   1.0000
     1.0000   1.0000   1.0000   1.0000   1.0000   1.0000   1.0000   1.0000
     1.0000   1.0000   1.0000   1.0000   1.0000   1.0000   1.0000   1.0000
     1.0000   1.0000   1.0000   1.0000   1.0000   1.0000   1.0000   1.0000
     1.0000   1.0000   1.0000   1.0000   1.0000   1.0000   1.0000   1.0000
     1.0000   1.0000   1.0000   1.0000   1.0000   1.0000   1.0000   1.0000
     1.0000   1.0000   1.0000   1.0000   1.0000   1.0000   1.0000   1.0000
     1.0000   1.0000   1.0000   1.0000   1.0000   1.0000   1.0000   1.0000
     1.0000   1.0000   1.0000   1.0000   1.0000   1.0000   1.0000   1.0000
     1.0000   1.0000   1.0000   1.0000   1.0000   1.0000   1.0000   1.0000
     1.0000   1.0000   1.0000   1.0000   1.0000   1.0000   1.0000   1.0000
     1.0000   1.0000   1.0000   1.0000   1.0000   1.0000   1.0000   1.0000
     1.0000   1.0000   1.0000   1.0000   1.0000   1.0000   1.0000   1.0000
     1.0000   1.0000   1.0000   1.0000   1.0000   1.0000   1.0000   1.0000
     1.0000   1.0000   1.0000   1.0000   1.0000   1.0000   1.0000   1.0000
     1.0000   1.0000   1.0000   1.0000   1.0000   1.0000   1.0000   1.0000
     1.0000   1.0000   1.0000   1.0000   1.0000   1.0000   1.0000   1.0000
     1.0000   1.0000   1.0000   1.0000   1.0000   1.0000   0.9999   0.9999
     0.9999   0.9998   0.9993   0.9990   0.9986   0.9984   0.9980   0.9977
     0.9973   0.9968   0.9965   0.9961   0.9953   0.9951   0.9947   0.9936
     0.9925   0.9912   0.9892   0.9875   0.9867   0.9853   0.9830   0.9794
     0.9775   0.9653   0.9566   0.9514   0.9475   0.9358   0.9236   0.9169
     0.9083   0.9022   0.8993   0.8657   0.8531   0.8246   0.7795   0.7483
     0.7380   0.7361   0.7288   0.7213   0.7140   0.7088   0.7055   0.6994
     0.6929   0.6845   0.6764   0.6731   0.6666   0.6537   0.6484   0.6436
     0.6259   0.4502   0.3968   0.3688   0.3343   0.3237   0.2108   0.1757
     0.0740   0.0394   0.0192   0.0071   0.0028   0.0003   0.0002   0.0001
     0.0001   0.0001   0.0000   0.0000   0.0000   0.0000   0.0000   0.0000
     0.0000   0.0000   0.0000   0.0000   0.0000   0.0000   0.0000   0.0000
     0.0000   0.0000   0.0000   0.0000   0.0000   0.0000   0.0000   0.0000

          k = 0.2500-0.5000 0.0000 ( 65138 PWs)   bands (ev):

   -92.7387 -92.6876 -92.5933 -92.5444 -92.4874 -92.4452 -92.4281 -92.3055
   -56.0921 -56.0739 -55.9503 -55.9395 -55.9325 -55.9263 -55.8925 -55.8623
   -55.8467 -55.8447 -55.8374 -55.7951 -55.7748 -55.7387 -55.7199 -55.6873
   -55.6799 -55.6337 -55.6318 -55.6305 -55.6221 -55.5803 -55.5584 -55.4718
   -31.3120 -31.2960 -31.1537 -31.0886 -31.0674 -31.0017 -30.8643 -30.8249
   -29.8837 -29.8428 -29.8186 -29.7105 -15.0175 -14.9720 -14.9048 -14.7852
   -14.7579 -14.6355 -14.5492 -14.4136 -14.1106 -14.0578 -14.0301 -14.0099
   -13.9917 -13.9810 -13.9473 -13.9250 -13.8906 -13.8557 -13.8247 -13.7955
   -13.7035 -13.6544 -13.5926 -13.5757 -13.5097 -13.4978 -13.3982 -13.3575
   -13.2431 -13.1788 -13.1548 -13.0695 -13.0514 -13.0237 -13.0050 -12.9807
   -12.9514 -12.9446 -12.8560 -12.8412 -12.8247 -12.7866 -12.7711 -12.7262
   -12.6921 -12.6609 -12.5582 -12.4398 -12.3568 -12.2847 -12.2434 -12.2172
   -11.8128 -11.8008 -11.7901 -11.7631 -11.7310 -11.7034 -11.6609 -11.6345
   -11.6116 -11.5680 -11.5421 -11.5306  -2.4874  -2.4226  -2.2940  -2.2167
    -2.0854  -2.0029  -1.8803  -1.7291  -1.6743  -1.6526  -1.5901  -1.5774
    -1.4814  -1.4127  -1.3283  -1.2783  -1.2687  -1.2060  -1.1631  -1.1291
    -1.0810  -1.0433  -1.0093  -0.9698  -0.9588  -0.9126  -0.8835  -0.8401
    -0.8107  -0.7429  -0.6396  -0.6037  -0.5232  -0.4577  -0.4075  -0.3677
    -0.3476  -0.2912  -0.1339  -0.1259  -0.0083   0.0161   0.0252   0.0704
     0.1015   0.1372   0.1670   0.2375   0.5129   0.6062   0.6688   0.7265
     0.9984   1.0173   1.1093   1.1325   1.2997   1.3364   1.3742   1.3977
     1.4123   1.4342   1.4973   1.5471   1.5809   1.6558   1.7475   1.7827
     1.8055   1.8146   1.8497   1.8678   1.8696   1.9142   1.9276   1.9458
     1.9856   1.9965   2.0215   2.0541   2.1126   2.1543   2.2323   2.3678
     2.5172   2.5354   2.5525   2.5818   2.6034   2.6309   2.6533   2.6653
     2.6813   2.7542   2.7900   2.8462   2.8570   2.8734   2.8815   2.8958
     2.9096   2.9275   2.9402   2.9718   2.9844   2.9950   3.0029   3.0141
     3.0228   3.5406   3.5629   3.7048   3.7562   4.0884   4.1460   4.1489
     4.2865   4.7222   4.8851   5.0310   5.1057   5.2681   5.4053   5.5837
     5.6254   5.7345   5.7549   6.1803   6.3805   6.4694   6.7169   7.0655
     7.4528   7.5465   7.6757   7.7039   7.7852   7.8482   8.0094   8.1891
     8.3566   8.3858   8.4219   8.5205   8.5343   8.6142   8.6815   8.7434

     occupation numbers 
     1.0000   1.0000   1.0000   1.0000   1.0000   1.0000   1.0000   1.0000
     1.0000   1.0000   1.0000   1.0000   1.0000   1.0000   1.0000   1.0000
     1.0000   1.0000   1.0000   1.0000   1.0000   1.0000   1.0000   1.0000
     1.0000   1.0000   1.0000   1.0000   1.0000   1.0000   1.0000   1.0000
     1.0000   1.0000   1.0000   1.0000   1.0000   1.0000   1.0000   1.0000
     1.0000   1.0000   1.0000   1.0000   1.0000   1.0000   1.0000   1.0000
     1.0000   1.0000   1.0000   1.0000   1.0000   1.0000   1.0000   1.0000
     1.0000   1.0000   1.0000   1.0000   1.0000   1.0000   1.0000   1.0000
     1.0000   1.0000   1.0000   1.0000   1.0000   1.0000   1.0000   1.0000
     1.0000   1.0000   1.0000   1.0000   1.0000   1.0000   1.0000   1.0000
     1.0000   1.0000   1.0000   1.0000   1.0000   1.0000   1.0000   1.0000
     1.0000   1.0000   1.0000   1.0000   1.0000   1.0000   1.0000   1.0000
     1.0000   1.0000   1.0000   1.0000   1.0000   1.0000   1.0000   1.0000
     1.0000   1.0000   1.0000   1.0000   1.0000   1.0000   1.0000   1.0000
     1.0000   1.0000   1.0000   1.0000   1.0000   1.0000   1.0000   1.0000
     1.0000   1.0000   1.0000   1.0000   1.0000   1.0000   1.0000   1.0000
     1.0000   1.0000   1.0000   1.0000   1.0000   1.0000   1.0000   1.0000
     1.0000   1.0000   1.0000   1.0000   1.0000   1.0000   1.0000   1.0000
     1.0000   1.0000   1.0000   1.0000   1.0000   1.0000   1.0000   1.0000
     1.0000   1.0000   1.0000   1.0000   1.0000   1.0000   0.9999   0.9999
     0.9997   0.9996   0.9994   0.9993   0.9984   0.9981   0.9978   0.9975
     0.9973   0.9971   0.9961   0.9952   0.9944   0.9923   0.9890   0.9873
     0.9862   0.9857   0.9837   0.9826   0.9825   0.9794   0.9784   0.9769
     0.9735   0.9725   0.9701   0.9666   0.9596   0.9540   0.9417   0.9143
     0.8741   0.8684   0.8629   0.8531   0.8456   0.8357   0.8274   0.8228
     0.8165   0.7864   0.7706   0.7445   0.7393   0.7313   0.7274   0.7202
     0.7133   0.7042   0.6977   0.6811   0.6744   0.6687   0.6644   0.6583
     0.6536   0.3543   0.3420   0.2684   0.2439   0.1176   0.1015   0.1008
     0.0693   0.0167   0.0089   0.0048   0.0035   0.0016   0.0008   0.0003
     0.0003   0.0001   0.0001   0.0000   0.0000   0.0000   0.0000   0.0000
     0.0000   0.0000   0.0000   0.0000   0.0000   0.0000   0.0000   0.0000
     0.0000   0.0000   0.0000   0.0000   0.0000   0.0000   0.0000   0.0000

          k =-0.5000-0.5000 0.0000 ( 65132 PWs)   bands (ev):

   -92.7387 -92.6876 -92.5933 -92.5444 -92.4874 -92.4452 -92.4281 -92.3055
   -56.0921 -56.0739 -55.9503 -55.9395 -55.9325 -55.9263 -55.8925 -55.8623
   -55.8467 -55.8447 -55.8374 -55.7951 -55.7748 -55.7387 -55.7199 -55.6873
   -55.6799 -55.6337 -55.6318 -55.6305 -55.6221 -55.5803 -55.5584 -55.4718
   -31.3098 -31.2981 -31.1533 -31.0885 -31.0678 -31.0015 -30.8644 -30.8251
   -29.8826 -29.8438 -29.8182 -29.7110 -14.9713 -14.9451 -14.8270 -14.8160
   -14.7216 -14.6841 -14.6481 -14.5151 -14.0217 -14.0092 -13.9744 -13.9569
   -13.9405 -13.9240 -13.8961 -13.8870 -13.8754 -13.8593 -13.8426 -13.7708
   -13.7634 -13.7308 -13.6987 -13.6821 -13.5949 -13.5615 -13.4415 -13.4055
   -13.1933 -13.1522 -13.0882 -13.0625 -13.0383 -13.0213 -13.0131 -13.0064
   -12.9901 -12.9168 -12.8521 -12.8341 -12.8230 -12.7928 -12.7850 -12.7502
   -12.6421 -12.6342 -12.5745 -12.4247 -12.3532 -12.2665 -12.2323 -12.2138
   -11.8096 -11.7971 -11.7790 -11.7626 -11.7271 -11.7092 -11.6758 -11.6152
   -11.5944 -11.5899 -11.5396 -11.5363  -2.2622  -2.1878  -2.1793  -2.1062
    -2.0676  -1.9894  -1.9217  -1.7949  -1.6796  -1.6498  -1.6080  -1.5535
    -1.4807  -1.4673  -1.3957  -1.3532  -1.2356  -1.2062  -1.1576  -1.1301
    -1.0658  -1.0197  -1.0010  -0.9888  -0.9341  -0.8905  -0.8733  -0.7616
    -0.7040  -0.6593  -0.6088  -0.5799  -0.5657  -0.5344  -0.4940  -0.4549
    -0.4468  -0.3608  -0.2937  -0.2483  -0.2232  -0.1487  -0.0915  -0.0838
    -0.0231   0.0102   0.0178   0.0302   0.4860   0.5232   0.6155   0.6379
     1.0272   1.0395   1.0742   1.1143   1.3852   1.4043   1.4103   1.4539
     1.5788   1.6749   1.7013   1.7373   1.7586   1.7798   1.7888   1.8206
     1.8298   1.8424   1.8559   1.9098   1.9120   1.9405   1.9506   1.9737
     1.9866   2.0243   2.0527   2.0657   2.0965   2.1289   2.1942   2.2619
     2.5319   2.5606   2.5786   2.5998   2.6096   2.6366   2.6423   2.6620
     2.6701   2.6901   2.7045   2.7223   2.7606   2.7900   2.7943   2.8144
     2.8280   2.8462   2.8639   2.8702   2.8932   2.9805   2.9871   3.0071
     3.0228   3.9698   4.0039   4.0120   4.0387   4.2812   4.3576   4.3807
     4.6207   4.7434   4.8260   4.9557   5.0433   5.0557   5.1705   5.2650
     5.4040   5.8364   5.8791   5.9303   6.0181   6.4625   6.5623   6.6352
     7.7052   7.8622   7.9018   7.9233   7.9439   7.9530   8.0008   8.0597
     8.2397   8.3587   8.5560   8.5845   8.5915   8.6271   8.6323   8.7060

     occupation numbers 
     1.0000   1.0000   1.0000   1.0000   1.0000   1.0000   1.0000   1.0000
     1.0000   1.0000   1.0000   1.0000   1.0000   1.0000   1.0000   1.0000
     1.0000   1.0000   1.0000   1.0000   1.0000   1.0000   1.0000   1.0000
     1.0000   1.0000   1.0000   1.0000   1.0000   1.0000   1.0000   1.0000
     1.0000   1.0000   1.0000   1.0000   1.0000   1.0000   1.0000   1.0000
     1.0000   1.0000   1.0000   1.0000   1.0000   1.0000   1.0000   1.0000
     1.0000   1.0000   1.0000   1.0000   1.0000   1.0000   1.0000   1.0000
     1.0000   1.0000   1.0000   1.0000   1.0000   1.0000   1.0000   1.0000
     1.0000   1.0000   1.0000   1.0000   1.0000   1.0000   1.0000   1.0000
     1.0000   1.0000   1.0000   1.0000   1.0000   1.0000   1.0000   1.0000
     1.0000   1.0000   1.0000   1.0000   1.0000   1.0000   1.0000   1.0000
     1.0000   1.0000   1.0000   1.0000   1.0000   1.0000   1.0000   1.0000
     1.0000   1.0000   1.0000   1.0000   1.0000   1.0000   1.0000   1.0000
     1.0000   1.0000   1.0000   1.0000   1.0000   1.0000   1.0000   1.0000
     1.0000   1.0000   1.0000   1.0000   1.0000   1.0000   1.0000   1.0000
     1.0000   1.0000   1.0000   1.0000   1.0000   1.0000   1.0000   1.0000
     1.0000   1.0000   1.0000   1.0000   1.0000   1.0000   1.0000   1.0000
     1.0000   1.0000   1.0000   1.0000   1.0000   1.0000   1.0000   1.0000
     1.0000   1.0000   1.0000   1.0000   1.0000   1.0000   1.0000   1.0000
     1.0000   1.0000   1.0000   1.0000   1.0000   1.0000   1.0000   1.0000
     0.9996   0.9996   0.9995   0.9994   0.9976   0.9974   0.9974   0.9968
     0.9944   0.9917   0.9908   0.9894   0.9885   0.9875   0.9870   0.9854
     0.9849   0.9841   0.9833   0.9797   0.9795   0.9774   0.9765   0.9746
     0.9734   0.9698   0.9668   0.9653   0.9617   0.9575   0.9480   0.9364
     0.8695   0.8602   0.8542   0.8469   0.8434   0.8336   0.8315   0.8240
[...]
     0.7438   0.7309   0.7163   0.7145   0.7039   0.6986   0.6911   0.6796
     0.6776   0.6632   0.6572   0.6530   0.6468   0.6348   0.6218   0.6193
     0.6152   0.6094   0.6053   0.5998   0.5280   0.3549   0.3191   0.2040
     0.0792   0.0465   0.0218   0.0055   0.0048   0.0003   0.0001   0.0000
     0.0000   0.0000   0.0000   0.0000   0.0000   0.0000   0.0000   0.0000
     0.0000   0.0000   0.0000   0.0000   0.0000   0.0000   0.0000   0.0000
     0.0000   0.0000   0.0000   0.0000   0.0000   0.0000   0.0000   0.0000

          k =-0.5000 0.0000 0.0000 ( 65180 PWs)   bands (ev):

   -92.7387 -92.6876 -92.5933 -92.5444 -92.4874 -92.4452 -92.4281 -92.3055
   -56.0921 -56.0739 -55.9503 -55.9395 -55.9325 -55.9263 -55.8925 -55.8623
   -55.8467 -55.8447 -55.8374 -55.7951 -55.7748 -55.7387 -55.7199 -55.6873
   -55.6799 -55.6337 -55.6318 -55.6305 -55.6221 -55.5803 -55.5584 -55.4718
   -31.3102 -31.2984 -31.1529 -31.0892 -31.0675 -31.0008 -30.8660 -30.8235
   -29.8839 -29.8444 -29.8169 -29.7103 -15.0529 -15.0013 -14.9395 -14.8300
   -14.7272 -14.5826 -14.4388 -14.2931 -14.1694 -14.1559 -14.1456 -14.0813
   -14.0294 -13.9976 -13.9469 -13.9380 -13.9248 -13.8747 -13.8548 -13.7561
   -13.5926 -13.5569 -13.5313 -13.5239 -13.4634 -13.4014 -13.3548 -13.3045
   -13.2807 -13.2732 -13.0927 -13.0904 -13.0758 -13.0499 -13.0418 -12.9839
   -12.9815 -12.9618 -12.8937 -12.8767 -12.8093 -12.7388 -12.7018 -12.6880
   -12.6772 -12.6678 -12.5777 -12.5026 -12.3645 -12.3619 -12.2345 -12.1918
   -11.8163 -11.7948 -11.7881 -11.7735 -11.7552 -11.7137 -11.6517 -11.6341
   -11.6011 -11.5568 -11.5476 -11.5319  -2.6197  -2.5811  -2.4177  -2.3785
    -2.0648  -1.9884  -1.8420  -1.7240  -1.6843  -1.6377  -1.5910  -1.5664
    -1.4434  -1.3989  -1.3828  -1.3008  -1.2655  -1.2495  -1.2188  -1.1602
    -1.0921  -1.0634  -1.0335  -0.9389  -0.8921  -0.8421  -0.8106  -0.7895
    -0.7568  -0.7108  -0.6859  -0.6484  -0.5455  -0.4796  -0.4063  -0.3472
    -0.1935  -0.1467  -0.0947  -0.0549  -0.0044   0.0191   0.1537   0.1899
     0.2308   0.4019   0.5013   0.5485   0.6384   0.6924   0.8197   0.8305
     0.9635   0.9923   1.0473   1.0780   1.1160   1.1236   1.1717   1.1946
     1.2617   1.3096   1.3570   1.3665   1.6626   1.6701   1.6848   1.7102
     1.8170   1.8305   1.8395   1.8504   1.8833   1.8957   1.9308   1.9587
     1.9769   2.0396   2.0506   2.1054   2.1239   2.1830   2.2948   2.3856
     2.4635   2.4774   2.5611   2.5886   2.6107   2.6657   2.6920   2.7000
     2.7312   2.7870   2.8056   2.8503   2.8936   2.9160   2.9634   2.9669
     2.9717   2.9794   2.9951   3.0100   3.0200   3.0289   3.0465   3.0488
     3.0722   3.0914   3.0962   3.2235   3.2353   4.0370   4.0925   4.1526
     4.2727   4.7544   4.8254   5.0128   5.0301   5.4668   5.4814   5.5774
     5.6131   5.9956   6.0063   6.1054   6.6529   6.7747   6.9885   7.2564
     7.2927   7.3551   7.4145   7.5763   7.7442   7.8135   7.8570   7.9879
     8.1380   8.2123   8.3812   8.4830   8.6028   8.7272   8.7468   8.8546

     occupation numbers 
     1.0000   1.0000   1.0000   1.0000   1.0000   1.0000   1.0000   1.0000
     1.0000   1.0000   1.0000   1.0000   1.0000   1.0000   1.0000   1.0000
     1.0000   1.0000   1.0000   1.0000   1.0000   1.0000   1.0000   1.0000
     1.0000   1.0000   1.0000   1.0000   1.0000   1.0000   1.0000   1.0000
     1.0000   1.0000   1.0000   1.0000   1.0000   1.0000   1.0000   1.0000
     1.0000   1.0000   1.0000   1.0000   1.0000   1.0000   1.0000   1.0000
     1.0000   1.0000   1.0000   1.0000   1.0000   1.0000   1.0000   1.0000
     1.0000   1.0000   1.0000   1.0000   1.0000   1.0000   1.0000   1.0000
     1.0000   1.0000   1.0000   1.0000   1.0000   1.0000   1.0000   1.0000
     1.0000   1.0000   1.0000   1.0000   1.0000   1.0000   1.0000   1.0000
     1.0000   1.0000   1.0000   1.0000   1.0000   1.0000   1.0000   1.0000
     1.0000   1.0000   1.0000   1.0000   1.0000   1.0000   1.0000   1.0000
     1.0000   1.0000   1.0000   1.0000   1.0000   1.0000   1.0000   1.0000
     1.0000   1.0000   1.0000   1.0000   1.0000   1.0000   1.0000   1.0000
     1.0000   1.0000   1.0000   1.0000   1.0000   1.0000   1.0000   1.0000
     1.0000   1.0000   1.0000   1.0000   1.0000   1.0000   1.0000   1.0000
     1.0000   1.0000   1.0000   1.0000   1.0000   1.0000   1.0000   1.0000
     1.0000   1.0000   1.0000   1.0000   1.0000   1.0000   1.0000   1.0000
     1.0000   1.0000   1.0000   1.0000   1.0000   1.0000   1.0000   1.0000
     1.0000   1.0000   1.0000   1.0000   1.0000   0.9999   0.9999   0.9999
     0.9997   0.9997   0.9996   0.9995   0.9994   0.9993   0.9992   0.9991
     0.9987   0.9984   0.9979   0.9978   0.9921   0.9919   0.9914   0.9905
     0.9856   0.9848   0.9843   0.9837   0.9816   0.9807   0.9781   0.9759
     0.9743   0.9682   0.9670   0.9606   0.9582   0.9497   0.9300   0.9101
     0.8898   0.8859   0.8601   0.8508   0.8430   0.8226   0.8122   0.8090
     0.7962   0.7719   0.7635   0.7426   0.7213   0.7101   0.6855   0.6837
     0.6811   0.6770   0.6687   0.6606   0.6552   0.6503   0.6405   0.6392
     0.6262   0.6153   0.6126   0.5387   0.5317   0.1333   0.1164   0.0998
     0.0720   0.0148   0.0113   0.0052   0.0049   0.0006   0.0006   0.0003
     0.0003   0.0000   0.0000   0.0000   0.0000   0.0000   0.0000   0.0000
     0.0000   0.0000   0.0000   0.0000   0.0000   0.0000   0.0000   0.0000
     0.0000   0.0000   0.0000   0.0000   0.0000   0.0000   0.0000   0.0000

          k =-0.2500 0.2500 0.0000 ( 65198 PWs)   bands (ev):

   -92.7387 -92.6876 -92.5933 -92.5444 -92.4874 -92.4452 -92.4281 -92.3055
   -56.0921 -56.0739 -55.9503 -55.9395 -55.9325 -55.9263 -55.8925 -55.8623
   -55.8467 -55.8447 -55.8374 -55.7951 -55.7748 -55.7387 -55.7199 -55.6873
   -55.6799 -55.6337 -55.6318 -55.6305 -55.6221 -55.5803 -55.5584 -55.4718
   -31.3122 -31.2961 -31.1535 -31.0890 -31.0673 -31.0013 -30.8651 -30.8241
   -29.8843 -29.8431 -29.8179 -29.7102 -15.0553 -15.0143 -14.9405 -14.8237
   -14.7112 -14.5858 -14.5001 -14.2910 -14.1524 -14.1229 -14.1089 -14.0629
   -14.0381 -14.0216 -13.9984 -13.9556 -13.8741 -13.8607 -13.7093 -13.6830
   -13.6533 -13.6339 -13.5807 -13.5347 -13.4797 -13.4713 -13.3493 -13.3037
   -13.2598 -13.1821 -13.1391 -13.0768 -13.0580 -13.0422 -13.0194 -12.9834
   -12.9649 -12.9288 -12.8876 -12.8499 -12.8247 -12.8062 -12.7810 -12.7367
   -12.7281 -12.7164 -12.5433 -12.4788 -12.4481 -12.3191 -12.1718 -12.1200
   -11.8364 -11.8149 -11.7881 -11.7757 -11.7345 -11.7004 -11.6768 -11.6557
   -11.6330 -11.5493 -11.5035 -11.4940  -2.7044  -2.4964  -2.3755  -2.2862
    -2.1688  -2.1022  -1.8981  -1.7542  -1.7353  -1.7042  -1.6141  -1.5781
    -1.4854  -1.4513  -1.4254  -1.2829  -1.2266  -1.1575  -1.1302  -1.0692
    -1.0483  -1.0081  -0.9794  -0.9393  -0.8758  -0.8289  -0.7626  -0.6970
    -0.6722  -0.6214  -0.5923  -0.5473  -0.4881  -0.4404  -0.4024  -0.3001
    -0.2702  -0.2577  -0.2135  -0.1493  -0.0800  -0.0357   0.0002   0.0650
     0.0996   0.3514   0.5238   0.5620   0.6013   0.6577   0.7084   0.7623
     0.8314   0.8608   1.1439   1.2536   1.2920   1.3265   1.3325   1.3740
     1.3899   1.4362   1.4667   1.4805   1.5070   1.5521   1.5663   1.6097
     1.6307   1.6739   1.7531   1.7721   1.7939   1.8259   1.8585   1.8955
     1.9463   2.0549   2.1660   2.1952   2.2425   2.2617   2.3243   2.3684
     2.3952   2.4174   2.4402   2.5444   2.5799   2.6623   2.7687   2.8466
     2.8564   2.8675   2.8781   2.8877   2.9015   2.9120   2.9271   2.9390
     2.9499   2.9620   2.9719   2.9828   2.9893   3.0228   3.0327   3.0399
     3.0746   3.3665   3.4474   3.5169   3.5841   3.6013   3.8161   3.9246
     4.2629   4.4700   4.6853   4.9486   5.1541   5.6128   5.6676   5.7418
     5.7964   5.8612   6.0708   6.1553   6.1902   6.7746   6.8787   7.0800
     7.2749   7.5401   7.5838   7.6442   7.7603   7.8574   7.9288   8.0904
     8.1862   8.2181   8.2979   8.3300   8.4171   8.4432   8.7226   8.8707

     occupation numbers 
     1.0000   1.0000   1.0000   1.0000   1.0000   1.0000   1.0000   1.0000
     1.0000   1.0000   1.0000   1.0000   1.0000   1.0000   1.0000   1.0000
     1.0000   1.0000   1.0000   1.0000   1.0000   1.0000   1.0000   1.0000
     1.0000   1.0000   1.0000   1.0000   1.0000   1.0000   1.0000   1.0000
     1.0000   1.0000   1.0000   1.0000   1.0000   1.0000   1.0000   1.0000
     1.0000   1.0000   1.0000   1.0000   1.0000   1.0000   1.0000   1.0000
     1.0000   1.0000   1.0000   1.0000   1.0000   1.0000   1.0000   1.0000
     1.0000   1.0000   1.0000   1.0000   1.0000   1.0000   1.0000   1.0000
     1.0000   1.0000   1.0000   1.0000   1.0000   1.0000   1.0000   1.0000
     1.0000   1.0000   1.0000   1.0000   1.0000   1.0000   1.0000   1.0000
     1.0000   1.0000   1.0000   1.0000   1.0000   1.0000   1.0000   1.0000
     1.0000   1.0000   1.0000   1.0000   1.0000   1.0000   1.0000   1.0000
     1.0000   1.0000   1.0000   1.0000   1.0000   1.0000   1.0000   1.0000
     1.0000   1.0000   1.0000   1.0000   1.0000   1.0000   1.0000   1.0000
     1.0000   1.0000   1.0000   1.0000   1.0000   1.0000   1.0000   1.0000
     1.0000   1.0000   1.0000   1.0000   1.0000   1.0000   1.0000   1.0000
     1.0000   1.0000   1.0000   1.0000   1.0000   1.0000   1.0000   1.0000
     1.0000   1.0000   1.0000   1.0000   1.0000   1.0000   1.0000   1.0000
     1.0000   1.0000   1.0000   1.0000   1.0000   1.0000   1.0000   1.0000
     1.0000   1.0000   1.0000   1.0000   1.0000   1.0000   0.9999   0.9999
     0.9999   0.9998   0.9993   0.9987   0.9985   0.9982   0.9982   0.9978
     0.9976   0.9970   0.9966   0.9964   0.9959   0.9950   0.9947   0.9937
     0.9931   0.9918   0.9887   0.9878   0.9868   0.9851   0.9832   0.9807
     0.9769   0.9665   0.9523   0.9478   0.9399   0.9364   0.9240   0.9142
     0.9077   0.9022   0.8962   0.8655   0.8538   0.8239   0.7800   0.7443
     0.7396   0.7342   0.7290   0.7243   0.7174   0.7121   0.7044   0.6983
     0.6926   0.6863   0.6810   0.6752   0.6718   0.6536   0.6482   0.6442
     0.6248   0.4541   0.4069   0.3674   0.3305   0.3214   0.2168   0.1726
     0.0740   0.0397   0.0191   0.0069   0.0028   0.0003   0.0002   0.0001
     0.0001   0.0001   0.0000   0.0000   0.0000   0.0000   0.0000   0.0000
     0.0000   0.0000   0.0000   0.0000   0.0000   0.0000   0.0000   0.0000
     0.0000   0.0000   0.0000   0.0000   0.0000   0.0000   0.0000   0.0000

          k =-0.5000 0.2500 0.0000 ( 65138 PWs)   bands (ev):

   -92.7387 -92.6876 -92.5933 -92.5444 -92.4874 -92.4452 -92.4281 -92.3055
   -56.0921 -56.0739 -55.9503 -55.9395 -55.9325 -55.9263 -55.8925 -55.8623
   -55.8467 -55.8447 -55.8374 -55.7951 -55.7748 -55.7387 -55.7199 -55.6873
   -55.6799 -55.6337 -55.6318 -55.6305 -55.6221 -55.5803 -55.5584 -55.4718
   -31.3100 -31.2983 -31.1531 -31.0888 -31.0677 -31.0012 -30.8652 -30.8243
   -29.8833 -29.8441 -29.8175 -29.7106 -15.0201 -14.9750 -14.8966 -14.7960
   -14.7563 -14.6293 -14.5414 -14.4099 -14.1030 -14.0714 -14.0598 -14.0163
   -13.9930 -13.9706 -13.9329 -13.9222 -13.9041 -13.8625 -13.8511 -13.7466
   -13.6750 -13.6259 -13.6201 -13.6014 -13.5142 -13.5050 -13.3943 -13.3451
   -13.2364 -13.2004 -13.1043 -13.0643 -13.0537 -13.0472 -13.0186 -12.9872
   -12.9755 -12.9354 -12.9056 -12.8413 -12.8245 -12.7596 -12.7370 -12.7227
   -12.6592 -12.6512 -12.5759 -12.4595 -12.3585 -12.3190 -12.2290 -12.2010
   -11.8093 -11.7965 -11.7821 -11.7703 -11.7488 -11.7185 -11.6385 -11.6304
   -11.6066 -11.5714 -11.5431 -11.5344  -2.4772  -2.4353  -2.2874  -2.2452
    -2.0843  -2.0070  -1.8662  -1.7300  -1.6723  -1.6456  -1.6070  -1.5691
    -1.4884  -1.3730  -1.3159  -1.2928  -1.2660  -1.1894  -1.1617  -1.1229
    -1.1059  -1.0451  -1.0154  -0.9766  -0.9416  -0.9128  -0.8546  -0.8280
    -0.7868  -0.7510  -0.6459  -0.6214  -0.5280  -0.4722  -0.4379  -0.3782
    -0.2984  -0.2665  -0.1626  -0.1300  -0.0660  -0.0223   0.0148   0.0806
     0.1100   0.1427   0.1940   0.2323   0.5519   0.6006   0.6642   0.6840
     0.9749   1.0377   1.1097   1.1378   1.3133   1.3481   1.3861   1.3988
     1.4164   1.4340   1.5035   1.5487   1.5871   1.6211   1.7300   1.7755
     1.8060   1.8165   1.8479   1.8780   1.8939   1.9058   1.9251   1.9499
     1.9923   2.0132   2.0467   2.0711   2.1003   2.1615   2.2825   2.3796
     2.4089   2.4762   2.5149   2.5777   2.6095   2.6198   2.6538   2.6911
     2.7135   2.7659   2.8042   2.8531   2.8546   2.8606   2.8825   2.9051
     2.9161   2.9334   2.9441   2.9666   2.9794   2.9892   2.9992   3.0056
     3.0195   3.5539   3.5805   3.7396   3.7569   4.0411   4.1049   4.1651
     4.3612   4.7489   4.8429   5.0135   5.0471   5.3739   5.3963   5.5584
     5.6207   5.7120   5.7627   6.2129   6.3705   6.4728   6.6040   7.0981
     7.4641   7.5431   7.6885   7.7646   7.8168   7.8612   7.9936   8.1804
     8.3769   8.4147   8.4448   8.4994   8.5465   8.6000   8.6528   8.7248

     occupation numbers 
     1.0000   1.0000   1.0000   1.0000   1.0000   1.0000   1.0000   1.0000
     1.0000   1.0000   1.0000   1.0000   1.0000   1.0000   1.0000   1.0000
     1.0000   1.0000   1.0000   1.0000   1.0000   1.0000   1.0000   1.0000
     1.0000   1.0000   1.0000   1.0000   1.0000   1.0000   1.0000   1.0000
     1.0000   1.0000   1.0000   1.0000   1.0000   1.0000   1.0000   1.0000
     1.0000   1.0000   1.0000   1.0000   1.0000   1.0000   1.0000   1.0000
     1.0000   1.0000   1.0000   1.0000   1.0000   1.0000   1.0000   1.0000
     1.0000   1.0000   1.0000   1.0000   1.0000   1.0000   1.0000   1.0000
     1.0000   1.0000   1.0000   1.0000   1.0000   1.0000   1.0000   1.0000
     1.0000   1.0000   1.0000   1.0000   1.0000   1.0000   1.0000   1.0000
     1.0000   1.0000   1.0000   1.0000   1.0000   1.0000   1.0000   1.0000
     1.0000   1.0000   1.0000   1.0000   1.0000   1.0000   1.0000   1.0000
     1.0000   1.0000   1.0000   1.0000   1.0000   1.0000   1.0000   1.0000
     1.0000   1.0000   1.0000   1.0000   1.0000   1.0000   1.0000   1.0000
     1.0000   1.0000   1.0000   1.0000   1.0000   1.0000   1.0000   1.0000
     1.0000   1.0000   1.0000   1.0000   1.0000   1.0000   1.0000   1.0000
     1.0000   1.0000   1.0000   1.0000   1.0000   1.0000   1.0000   1.0000
     1.0000   1.0000   1.0000   1.0000   1.0000   1.0000   1.0000   1.0000
     1.0000   1.0000   1.0000   1.0000   1.0000   1.0000   1.0000   1.0000
     1.0000   1.0000   1.0000   1.0000   1.0000   1.0000   1.0000   0.9999
     0.9997   0.9996   0.9994   0.9993   0.9983   0.9980   0.9976   0.9975
     0.9973   0.9971   0.9960   0.9951   0.9942   0.9934   0.9897   0.9877
     0.9862   0.9856   0.9838   0.9819   0.9808   0.9800   0.9786   0.9766
     0.9729   0.9709   0.9674   0.9647   0.9612   0.9529   0.9324   0.9115
     0.9043   0.8862   0.8748   0.8545   0.8435   0.8397   0.8272   0.8126
     0.8035   0.7813   0.7641   0.7412   0.7405   0.7376   0.7269   0.7156
     0.7100   0.7012   0.6956   0.6839   0.6770   0.6718   0.6664   0.6630
     0.6554   0.3469   0.3325   0.2516   0.2435   0.1320   0.1128   0.0966
     0.0557   0.0151   0.0105   0.0052   0.0045   0.0010   0.0009   0.0004
     0.0003   0.0002   0.0001   0.0000   0.0000   0.0000   0.0000   0.0000
     0.0000   0.0000   0.0000   0.0000   0.0000   0.0000   0.0000   0.0000
     0.0000   0.0000   0.0000   0.0000   0.0000   0.0000   0.0000   0.0000

     the Fermi energy is     3.2888 ev

!    total energy              =   -4399.92090330 Ry
     estimated scf accuracy    <          6.2E-09 Ry
     smearing contrib. (-TS)   =      -1.14690452 Ry
     internal energy E=F+TS    =   -4398.77399878 Ry

     The total energy is F=E-TS. E is the sum of the following terms:
     one-electron contribution =  -21252.06940522 Ry
     hartree contribution      =   10753.59517667 Ry
     xc contribution           =    -686.72662314 Ry
     ewald contribution        =    7053.07194511 Ry
     one-center paw contrib.   =    -266.64509222 Ry
      -> PAW hartree energy AE =      25.17281956 Ry
      -> PAW hartree energy PS =     -25.05661495 Ry
      -> PAW xc energy AE      =     -16.51889884 Ry
      -> PAW xc energy PS      =       6.87843159 Ry
      -> total E_H with PAW    =   10753.71138129 Ry
      -> total E_XC with PAW   =    -696.36709039 Ry

     convergence has been achieved in  50 iterations

     Writing all to output data dir /bsuhome/zayahcortright/scratch/pwscf.save/
 
     init_run     :      7.75s CPU      8.06s WALL (       1 calls)
     electrons    :    723.32s CPU    735.77s WALL (       1 calls)

     Called by init_run:
     wfcinit      :      6.08s CPU      6.20s WALL (       1 calls)
     wfcinit:atom :      0.05s CPU      0.07s WALL (       5 calls)
     wfcinit:wfcr :      5.73s CPU      5.80s WALL (       5 calls)
     potinit      :      0.16s CPU      0.18s WALL (       1 calls)
     hinit0       :      0.65s CPU      0.75s WALL (       1 calls)

     Called by electrons:
     c_bands      :    571.60s CPU    576.38s WALL (      50 calls)
     sum_band     :    114.22s CPU    118.64s WALL (      50 calls)
     v_of_rho     :      5.56s CPU      5.85s WALL (      51 calls)
     v_h          :      0.49s CPU      0.50s WALL (      51 calls)
     v_xc         :      5.07s CPU      5.35s WALL (      51 calls)
     newd         :     17.12s CPU     19.64s WALL (      51 calls)
     PAW_pot      :      1.64s CPU      1.67s WALL (      51 calls)
     mix_rho      :     12.87s CPU     13.14s WALL (      50 calls)

     Called by c_bands:
     init_us_2    :      6.97s CPU      7.00s WALL (     505 calls)
     init_us_2:cp :      6.97s CPU      7.00s WALL (     505 calls)
     cegterg      :    539.22s CPU    543.85s WALL (     250 calls)

     Called by sum_band:
     sum_band:wei :      0.36s CPU      0.36s WALL (      50 calls)
     sum_band:loo :     93.56s CPU     94.25s WALL (      50 calls)
     sum_band:buf :      1.47s CPU      1.49s WALL (     250 calls)
     sum_band:ini :      3.24s CPU      3.25s WALL (     250 calls)
     sum_band:cal :     18.62s CPU     18.67s WALL (     250 calls)
     sum_band:bec :      0.57s CPU      0.57s WALL (     250 calls)
     addusdens    :     18.72s CPU     22.43s WALL (      50 calls)
                                        0.00s GPU  (      50 calls)
     addusd:skk   :      0.37s CPU      0.71s WALL (     200 calls)
                                        0.00s GPU  (     200 calls)

     Called by *egterg:
     cdiaghg      :     57.74s CPU     57.96s WALL (    1378 calls)
     cegterg:over :     39.48s CPU     39.60s WALL (    1128 calls)
     cegterg:upda :     28.41s CPU     28.72s WALL (    1128 calls)
     cegterg:last :     58.73s CPU     58.90s WALL (     459 calls)
     cdiaghg:chol :      3.29s CPU      3.31s WALL (    1378 calls)
     cdiaghg:inve :      3.37s CPU      3.38s WALL (    1378 calls)
     cdiaghg:para :      7.37s CPU      7.40s WALL (    2756 calls)
     h_psi        :    300.04s CPU    302.80s WALL (    1383 calls)
     s_psi        :     39.05s CPU     39.15s WALL (    1383 calls)
     g_psi        :      1.11s CPU      1.12s WALL (    1128 calls)

     Called by h_psi:
     h_psi:calbec :     43.40s CPU     43.53s WALL (    1383 calls)
     vloc_psi     :    214.57s CPU    216.64s WALL (    1383 calls)
     add_vuspsi   :     38.80s CPU     38.92s WALL (    1383 calls)

     General routines
     calbec       :     62.02s CPU     62.20s WALL (    1633 calls)
     fft          :      3.59s CPU      3.64s WALL (     661 calls)
     ffts         :      4.83s CPU      4.86s WALL (    5358 calls)
     fftw         :    182.54s CPU    184.03s WALL (  334806 calls)
     interpolate  :      0.41s CPU      0.42s WALL (      51 calls)
 
     Parallel routines

     PAW routines
     PAW_pot      :      1.64s CPU      1.67s WALL (      51 calls)
 
     PWSCF        :  12m12.96s CPU  12m28.75s WALL

 
   This run was terminated on:  13: 9:36  21Jun2024            

=------------------------------------------------------------------------------=
   JOB DONE.
=------------------------------------------------------------------------------=
