
     Program PWSCF v.7.2 starts on 18Jun2024 at 19:48:56 

     This program is part of the open-source Quantum ESPRESSO suite
     for quantum simulation of materials; please cite
         "P. Giannozzi et al., J. Phys.:Condens. Matter 21 395502 (2009);
         "P. Giannozzi et al., J. Phys.:Condens. Matter 29 465901 (2017);
         "P. Giannozzi et al., J. Chem. Phys. 152 154105 (2020);
          URL http://www.quantum-espresso.org", 
     in publications or presentations arising from this work. More details at
     http://www.quantum-espresso.org/quote

     Parallel version (MPI & OpenMP), running on      48 processor cores
     Number of MPI processes:                48
     Threads/MPI process:                     1

     MPI processes distributed on     1 nodes
     16423 MiB available memory on the printing compute node when the environment starts
 
     Reading input from espresso.pwi
Warning: card &CELL ignored
Warning: card / ignored
Warning: card &FCP ignored
Warning: card / ignored
Warning: card &RISM ignored
Warning: card / ignored

     Current dimensions of program PWSCF are:
     Max number of different atomic species (ntypx) = 10
     Max number of k-points (npk) =  40000
     Max angular momentum in pseudopotentials (lmaxx) =  4
     file O.pbe-n-kjpaw_psl.0.1.UPF: wavefunction(s)  2P renormalized
     signal trapping enabled: kill the code with -SIGUSR1 to stop cleanly the simulation 
 
     K-points division:     npool     =       2
     R & G space division:  proc/nbgrp/npool/nimage =      24
     Subspace diagonalization in iterative solution of the eigenvalue problem:
     one sub-group per band group will be used
     scalapack distributed-memory algorithm (size of sub-group:  3*  3 procs)

 
     Parallelization info
     --------------------
     sticks:   dense  smooth     PW     G-vecs:    dense   smooth      PW
     Min         350     175     47                61430    21716    3036
     Max         351     177     48                61449    21727    3041
     Sum        8421    4205   1137              1474595   521381   72913
 
     Using Slab Decomposition
 


     bravais-lattice index     =            0
     lattice parameter (alat)  =      14.8599  a.u.
     unit-cell volume          =    8305.1283 (a.u.)^3
     number of atoms/cell      =           51
     number of atomic types    =            4
     number of electrons       =       437.00
     number of Kohn-Sham states=          263
     kinetic-energy cutoff     =      60.0000  Ry
     charge density cutoff     =     480.0000  Ry
     scf convergence threshold =      1.0E-08
     mixing beta               =       0.1500
     number of iterations used =            8  local-TF  mixing
     Exchange-correlation= PBE
                           (   1   4   3   4   0   0   0)

     celldm(1)=  14.859904  celldm(2)=   0.000000  celldm(3)=   0.000000
     celldm(4)=   0.000000  celldm(5)=   0.000000  celldm(6)=   0.000000

     crystal axes: (cart. coord. in units of alat)
               a(1) = (   1.000000   0.000000   0.000000 )  
               a(2) = (   0.000000   1.000000   0.000000 )  
               a(3) = (   0.000000   0.000000   2.531036 )  

     reciprocal axes: (cart. coord. in units 2 pi/alat)
               b(1) = (  1.000000  0.000000  0.000000 )  
               b(2) = (  0.000000  1.000000  0.000000 )  
               b(3) = (  0.000000  0.000000  0.395095 )  


     PseudoPot. # 1 for Sr read from file:
     /bsuhome/zayahcortright/q-e/pseudo/Sr_pbe_v1.uspp.F.UPF
     MD5 check sum: 6b418c05fbe9db5448babca5e47b7a5b
     Pseudo is Ultrasoft + core correction, Zval = 10.0
     Generated by new atomic code, or converted to UPF format
     Using radial grid of  883 points,  6 beta functions with: 
                l(1) =   0
                l(2) =   0
                l(3) =   1
                l(4) =   1
                l(5) =   2
                l(6) =   2
     Q(r) pseudized with  6 coefficients,  rinner =    1.400   1.400   1.400
                                                       1.400   1.400

     PseudoPot. # 2 for O  read from file:
     /bsuhome/zayahcortright/q-e/pseudo/O.pbe-n-kjpaw_psl.0.1.UPF
     MD5 check sum: 0234752ac141de4415c5fc33072bef88
     Pseudo is Projector augmented-wave + core cor, Zval =  6.0
     Generated using "atomic" code by A. Dal Corso  v.5.0.99 svn rev. 10869
     Shape of augmentation charge: BESSEL
     Using radial grid of 1095 points,  4 beta functions with: 
                l(1) =   0
                l(2) =   0
                l(3) =   1
                l(4) =   1
     Q(r) pseudized with 0 coefficients 


     PseudoPot. # 3 for Co read from file:
     /bsuhome/zayahcortright/q-e/pseudo/Co_pbe_v1.2.uspp.F.UPF
     MD5 check sum: 5f91765df6ddd3222702df6e7b74a16d
     Pseudo is Ultrasoft + core correction, Zval = 17.0
     Generated by new atomic code, or converted to UPF format
     Using radial grid of  863 points,  6 beta functions with: 
                l(1) =   0
                l(2) =   0
                l(3) =   1
                l(4) =   1
                l(5) =   2
                l(6) =   2
     Q(r) pseudized with  8 coefficients,  rinner =    1.200   1.200   1.200
                                                       1.200   1.200

     PseudoPot. # 4 for H  read from file:
     /bsuhome/zayahcortright/q-e/pseudo/H.pbe-rrkjus_psl.1.0.0.UPF
     MD5 check sum: f52b6d4d1c606e5624b1dc7b2218f220
     Pseudo is Ultrasoft, Zval =  1.0
     Generated using "atomic" code by A. Dal Corso  v.5.1
     Using radial grid of  929 points,  2 beta functions with: 
                l(1) =   0
                l(2) =   0
     Q(r) pseudized with 0 coefficients 


     atomic species   valence    mass     pseudopotential
        Sr            10.00    87.62000     Sr( 1.00)
        O              6.00    15.99900     O ( 1.00)
        Co            17.00    58.93319     Co( 1.00)
        H              1.00     1.00800     H ( 1.00)

     No symmetry found


                                    s                        frac. trans.

      isym =  1     identity                                     

 cryst.   s( 1) = (     1          0          0      )
                  (     0          1          0      )
                  (     0          0          1      )

 cart.    s( 1) = (  1.0000000  0.0000000  0.0000000 )
                  (  0.0000000  1.0000000  0.0000000 )
                  (  0.0000000  0.0000000  1.0000000 )


   Cartesian axes

     site n.     atom                  positions (alat units)
         1           Sr  tau(   1) = (   0.2508693   0.7491307   1.7574407  )
         2           O   tau(   2) = (   0.4985141   0.5014859   1.7715967  )
         3           Sr  tau(   3) = (   0.7482398   0.7454518   1.7648669  )
         4           Sr  tau(   4) = (   0.7441748   0.2558252   1.7667843  )
         5           Sr  tau(   5) = (   0.2508693   0.7491307   1.2696799  )
         6           Sr  tau(   6) = (   0.2508693   0.7491307   0.7632319  )
         7           Co  tau(   7) = (   0.4998914   0.5001086   1.0164559  )
         8           Co  tau(   8) = (   0.4936915   0.5063085   1.5135603  )
         9           O   tau(   9) = (   0.4988895   0.7610401   1.0164559  )
        10           O   tau(  10) = (   0.2389599   0.5011105   1.0164559  )
        11           O   tau(  11) = (   0.0070918   0.7374880   1.0164559  )
        12           O   tau(  12) = (   0.0088340   0.7405089   1.5135603  )
        13           O   tau(  13) = (   0.5066944   0.7415376   1.5135603  )
        14           O   tau(  14) = (   0.2584624   0.4933056   1.5135603  )
        15           O   tau(  15) = (   0.4985141   0.5014859   0.7773880  )
        16           O   tau(  16) = (   0.4985141   0.5014859   1.2555238  )
        17           Sr  tau(  17) = (   0.7482398   0.7454518   0.7706582  )
        18           Sr  tau(  18) = (   0.7482398   0.7454518   1.2622536  )
        19           Sr  tau(  19) = (   0.7441748   0.2558252   0.7725755  )
        20           Sr  tau(  20) = (   0.7441748   0.2558252   1.2603363  )
        21           O   tau(  21) = (   0.7322655   0.0078049   1.5135603  )
        22           O   tau(  22) = (   0.7558175   0.4996027   1.5135603  )
        23           O   tau(  23) = (   0.5003973   0.2441825   1.5135603  )
        24           O   tau(  24) = (   0.7527966   0.4978604   1.0164559  )
        25           O   tau(  25) = (   0.5021396   0.2472034   1.0164559  )
        26           O   tau(  26) = (   0.7517679   0.0000000   1.0164559  )
        27           O   tau(  27) = (   0.0114961   0.4948124   1.7455321  )
        28           O   tau(  28) = (   0.0048226   0.0077944   1.7715967  )
        29           Sr  tau(  29) = (   0.2545482   0.2517602   1.7648669  )
        30           O   tau(  30) = (   0.5048017   0.0015068   1.7786929  )
        31           Co  tau(  31) = (   0.0056869   0.5006215   1.0164559  )
        32           Co  tau(  32) = (   0.0065315   0.4997770   1.5135603  )
        33           Co  tau(  33) = (   0.0061999   0.0064171   1.0164559  )
        34           Co  tau(  34) = (   0.0000000   0.0126169   1.5135603  )
        35           O   tau(  35) = (   0.0114961   0.4948124   1.2815885  )
        36           O   tau(  36) = (   0.0114961   0.4948124   0.7513233  )
        37           O   tau(  37) = (   0.0051979   0.2673486   1.0164559  )
        38           O   tau(  38) = (   0.0130029   0.2478461   1.5135603  )
        39           O   tau(  39) = (   0.0048226   0.0077944   0.7773880  )
        40           O   tau(  40) = (   0.0048226   0.0077944   1.2555238  )
        41           Sr  tau(  41) = (   0.2545482   0.2517602   0.7706582  )
        42           Sr  tau(  42) = (   0.2545482   0.2517602   1.2622536  )
        43           Co  tau(  43) = (   0.4989925   0.0073160   1.5135603  )
        44           Co  tau(  44) = (   0.4998370   0.0064714   1.0164559  )
        45           O   tau(  45) = (   0.5048017   0.0015068   0.7844841  )
        46           O   tau(  46) = (   0.5048017   0.0015068   1.2484277  )
        47           O   tau(  47) = (   0.2621260   0.0059111   1.5135603  )
        48           O   tau(  48) = (   0.2591051   0.0041689   1.0164559  )
        49           O   tau(  49) = (   0.1421646   0.2843291   2.1602013  )
        50           O   tau(  50) = (   0.1421646   0.2843291   2.3186489  )
        51           H   tau(  51) = (   0.1421646   0.2843291   2.4431567  )

   Crystallographic axes

     site n.     atom                  positions (cryst. coord.)
         1           Sr  tau(   1) = (  0.2508693  0.7491307  0.6943562  )
         2           O   tau(   2) = (  0.4985141  0.5014859  0.6999492  )
         3           Sr  tau(   3) = (  0.7482398  0.7454518  0.6972903  )
         4           Sr  tau(   4) = (  0.7441748  0.2558252  0.6980478  )
         5           Sr  tau(   5) = (  0.2508693  0.7491307  0.5016443  )
         6           Sr  tau(   6) = (  0.2508693  0.7491307  0.3015492  )
         7           Co  tau(   7) = (  0.4998914  0.5001086  0.4015968  )
         8           Co  tau(   8) = (  0.4936915  0.5063085  0.5980003  )
         9           O   tau(   9) = (  0.4988895  0.7610401  0.4015968  )
        10           O   tau(  10) = (  0.2389599  0.5011105  0.4015968  )
        11           O   tau(  11) = (  0.0070918  0.7374880  0.4015968  )
        12           O   tau(  12) = (  0.0088340  0.7405089  0.5980003  )
        13           O   tau(  13) = (  0.5066944  0.7415376  0.5980003  )
        14           O   tau(  14) = (  0.2584624  0.4933056  0.5980003  )
        15           O   tau(  15) = (  0.4985141  0.5014859  0.3071422  )
        16           O   tau(  16) = (  0.4985141  0.5014859  0.4960513  )
        17           Sr  tau(  17) = (  0.7482398  0.7454518  0.3044833  )
        18           Sr  tau(  18) = (  0.7482398  0.7454518  0.4987103  )
        19           Sr  tau(  19) = (  0.7441748  0.2558252  0.3052408  )
        20           Sr  tau(  20) = (  0.7441748  0.2558252  0.4979527  )
        21           O   tau(  21) = (  0.7322655  0.0078049  0.5980003  )
        22           O   tau(  22) = (  0.7558175  0.4996027  0.5980003  )
        23           O   tau(  23) = (  0.5003973  0.2441825  0.5980003  )
        24           O   tau(  24) = (  0.7527966  0.4978604  0.4015968  )
        25           O   tau(  25) = (  0.5021396  0.2472034  0.4015968  )
        26           O   tau(  26) = (  0.7517679  0.0000000  0.4015968  )
        27           O   tau(  27) = (  0.0114961  0.4948124  0.6896512  )
        28           O   tau(  28) = (  0.0048226  0.0077944  0.6999492  )
        29           Sr  tau(  29) = (  0.2545482  0.2517602  0.6972903  )
        30           O   tau(  30) = (  0.5048017  0.0015068  0.7027529  )
        31           Co  tau(  31) = (  0.0056869  0.5006215  0.4015968  )
        32           Co  tau(  32) = (  0.0065315  0.4997770  0.5980003  )
        33           Co  tau(  33) = (  0.0061999  0.0064171  0.4015968  )
        34           Co  tau(  34) = (  0.0000000  0.0126169  0.5980003  )
        35           O   tau(  35) = (  0.0114961  0.4948124  0.5063494  )
        36           O   tau(  36) = (  0.0114961  0.4948124  0.2968442  )
        37           O   tau(  37) = (  0.0051979  0.2673486  0.4015968  )
        38           O   tau(  38) = (  0.0130029  0.2478461  0.5980003  )
        39           O   tau(  39) = (  0.0048226  0.0077944  0.3071422  )
        40           O   tau(  40) = (  0.0048226  0.0077944  0.4960513  )
        41           Sr  tau(  41) = (  0.2545482  0.2517602  0.3044833  )
        42           Sr  tau(  42) = (  0.2545482  0.2517602  0.4987103  )
        43           Co  tau(  43) = (  0.4989925  0.0073160  0.5980003  )
        44           Co  tau(  44) = (  0.4998370  0.0064714  0.4015968  )
        45           O   tau(  45) = (  0.5048017  0.0015068  0.3099459  )
        46           O   tau(  46) = (  0.5048017  0.0015068  0.4932477  )
        47           O   tau(  47) = (  0.2621260  0.0059111  0.5980003  )
        48           O   tau(  48) = (  0.2591051  0.0041689  0.4015968  )
        49           O   tau(  49) = (  0.1421646  0.2843291  0.8534850  )
        50           O   tau(  50) = (  0.1421646  0.2843291  0.9160869  )
        51           H   tau(  51) = (  0.1421646  0.2843291  0.9652793  )

     number of k points=    10  Gaussian smearing, width (Ry)=  0.0700
                       cart. coord. in units 2pi/alat
        k(    1) = (   0.0000000   0.0000000   0.0000000), wk =   0.1250000
        k(    2) = (   0.0000000   0.2500000   0.0000000), wk =   0.2500000
        k(    3) = (   0.0000000  -0.5000000   0.0000000), wk =   0.1250000
        k(    4) = (   0.2500000   0.2500000   0.0000000), wk =   0.2500000
        k(    5) = (   0.2500000  -0.5000000   0.0000000), wk =   0.2500000
        k(    6) = (  -0.5000000  -0.5000000   0.0000000), wk =   0.1250000
        k(    7) = (   0.2500000   0.0000000   0.0000000), wk =   0.2500000
        k(    8) = (  -0.5000000   0.0000000   0.0000000), wk =   0.1250000
        k(    9) = (  -0.2500000   0.2500000   0.0000000), wk =   0.2500000
        k(   10) = (  -0.5000000   0.2500000   0.0000000), wk =   0.2500000

                       cryst. coord.
        k(    1) = (   0.0000000   0.0000000   0.0000000), wk =   0.1250000
        k(    2) = (   0.0000000   0.2500000   0.0000000), wk =   0.2500000
        k(    3) = (   0.0000000  -0.5000000   0.0000000), wk =   0.1250000
        k(    4) = (   0.2500000   0.2500000   0.0000000), wk =   0.2500000
        k(    5) = (   0.2500000  -0.5000000   0.0000000), wk =   0.2500000
        k(    6) = (  -0.5000000  -0.5000000   0.0000000), wk =   0.1250000
        k(    7) = (   0.2500000   0.0000000   0.0000000), wk =   0.2500000
        k(    8) = (  -0.5000000   0.0000000   0.0000000), wk =   0.1250000
        k(    9) = (  -0.2500000   0.2500000   0.0000000), wk =   0.2500000
        k(   10) = (  -0.5000000   0.2500000   0.0000000), wk =   0.2500000

     Dense  grid:  1474595 G-vectors     FFT dimensions: ( 108, 108, 270)

     Smooth grid:   521381 G-vectors     FFT dimensions: (  75,  75, 192)

     Dynamical RAM for                 wfc:      10.90 MB

     Dynamical RAM for     wfc (w. buffer):      65.37 MB

     Dynamical RAM for           str. fact:       3.75 MB

     Dynamical RAM for           local pot:       0.00 MB

     Dynamical RAM for          nlocal pot:      24.94 MB

     Dynamical RAM for                qrad:       7.03 MB

     Dynamical RAM for          rho,v,vnew:       6.02 MB

     Dynamical RAM for               rhoin:       2.01 MB

     Dynamical RAM for            rho*nmix:      15.00 MB

     Dynamical RAM for           G-vectors:       3.68 MB

     Dynamical RAM for          h,s,v(r/c):       1.40 MB

     Dynamical RAM for          <psi|beta>:       2.42 MB

     Dynamical RAM for                 psi:      21.79 MB

     Dynamical RAM for                hpsi:      21.79 MB

     Dynamical RAM for                spsi:      21.79 MB

     Dynamical RAM for      wfcinit/wfcrot:      34.89 MB

     Dynamical RAM for           addusdens:     101.73 MB

     Estimated static dynamical RAM per process >     122.82 MB

     Estimated max dynamical RAM per process >     239.55 MB

     Estimated total dynamical RAM >      10.88 GB

     Check: negative core charge=   -0.000004

     Initial potential from superposition of free atoms

     starting charge     428.5961, renormalised to     437.0000

     negative rho (up, down):  7.813E-01 0.000E+00
     Starting wfcs are  381 randomized atomic wfcs
     Checking if some PAW data can be deallocated... 
       PAW data deallocated on   18 nodes for type:  2

     total cpu time spent up to now is        8.9 secs

     Self-consistent Calculation

     iteration #  1     ecut=    60.00 Ry     beta= 0.15
     Davidson diagonalization with overlap

---- Real-time Memory Report at c_bands before calling an iterative solver
             0 MiB given to the printing process from OS
             0 MiB allocation reported by mallinfo(arena+hblkhd)
          6902 MiB available memory on the node where the printing process lives
------------------
     ethr =  1.00E-02,  avg # of iterations =  2.0

     negative rho (up, down):  7.716E-01 0.000E+00

     total cpu time spent up to now is       24.8 secs

     total energy              =   -4489.30188290 Ry
     estimated scf accuracy    <      49.71352396 Ry

     iteration #  2     ecut=    60.00 Ry     beta= 0.15
     Davidson diagonalization with overlap

---- Real-time Memory Report at c_bands before calling an iterative solver
             0 MiB given to the printing process from OS
             0 MiB allocation reported by mallinfo(arena+hblkhd)
          7214 MiB available memory on the node where the printing process lives
------------------
     ethr =  1.00E-02,  avg # of iterations =  1.0

     negative rho (up, down):  7.614E-01 0.000E+00

     total cpu time spent up to now is       37.7 secs

     total energy              =   -4486.82029721 Ry
     estimated scf accuracy    <      35.31620733 Ry

     iteration #  3     ecut=    60.00 Ry     beta= 0.15
     Davidson diagonalization with overlap

---- Real-time Memory Report at c_bands before calling an iterative solver
             0 MiB given to the printing process from OS
             0 MiB allocation reported by mallinfo(arena+hblkhd)
          6419 MiB available memory on the node where the printing process lives
------------------
     ethr =  8.08E-03,  avg # of iterations =  1.0

     negative rho (up, down):  7.563E-01 0.000E+00

     total cpu time spent up to now is       50.8 secs

     total energy              =   -4486.75872403 Ry
     estimated scf accuracy    <      35.09772982 Ry

     iteration #  4     ecut=    60.00 Ry     beta= 0.15
     Davidson diagonalization with overlap

---- Real-time Memory Report at c_bands before calling an iterative solver
             0 MiB given to the printing process from OS
             0 MiB allocation reported by mallinfo(arena+hblkhd)
          6385 MiB available memory on the node where the printing process lives
------------------
     ethr =  8.03E-03,  avg # of iterations =  1.0

     negative rho (up, down):  7.574E-01 0.000E+00

     total cpu time spent up to now is       63.7 secs

     total energy              =   -4486.64604476 Ry
     estimated scf accuracy    <      34.29329839 Ry

     iteration #  5     ecut=    60.00 Ry     beta= 0.15
     Davidson diagonalization with overlap

---- Real-time Memory Report at c_bands before calling an iterative solver
             0 MiB given to the printing process from OS
             0 MiB allocation reported by mallinfo(arena+hblkhd)
          6372 MiB available memory on the node where the printing process lives
------------------
     ethr =  7.85E-03,  avg # of iterations =  1.0

     negative rho (up, down):  7.339E-01 0.000E+00

     total cpu time spent up to now is       76.7 secs

     total energy              =   -4482.79327166 Ry
     estimated scf accuracy    <      23.37954268 Ry

     iteration #  6     ecut=    60.00 Ry     beta= 0.15
     Davidson diagonalization with overlap

---- Real-time Memory Report at c_bands before calling an iterative solver
             0 MiB given to the printing process from OS
             0 MiB allocation reported by mallinfo(arena+hblkhd)
          6348 MiB available memory on the node where the printing process lives
------------------
     ethr =  5.35E-03,  avg # of iterations =  2.0

     negative rho (up, down):  7.478E-01 0.000E+00

     total cpu time spent up to now is       90.9 secs

     total energy              =   -4484.00631505 Ry
     estimated scf accuracy    <      40.80635716 Ry

     iteration #  7     ecut=    60.00 Ry     beta= 0.15
     Davidson diagonalization with overlap

---- Real-time Memory Report at c_bands before calling an iterative solver
             0 MiB given to the printing process from OS
             0 MiB allocation reported by mallinfo(arena+hblkhd)
          6330 MiB available memory on the node where the printing process lives
------------------
     ethr =  5.35E-03,  avg # of iterations =  1.0

     negative rho (up, down):  7.530E-01 0.000E+00

     total cpu time spent up to now is      103.7 secs

     total energy              =   -4483.47546219 Ry
     estimated scf accuracy    <      41.42063950 Ry

     iteration #  8     ecut=    60.00 Ry     beta= 0.15
     Davidson diagonalization with overlap

---- Real-time Memory Report at c_bands before calling an iterative solver
             0 MiB given to the printing process from OS
             0 MiB allocation reported by mallinfo(arena+hblkhd)
          6311 MiB available memory on the node where the printing process lives
------------------
     ethr =  5.35E-03,  avg # of iterations =  1.0

     negative rho (up, down):  7.503E-01 0.000E+00

     total cpu time spent up to now is      116.6 secs

     total energy              =   -4483.83828254 Ry
     estimated scf accuracy    <       5.94117790 Ry

     iteration #  9     ecut=    60.00 Ry     beta= 0.15
     Davidson diagonalization with overlap

---- Real-time Memory Report at c_bands before calling an iterative solver
             0 MiB given to the printing process from OS
             0 MiB allocation reported by mallinfo(arena+hblkhd)
          6291 MiB available memory on the node where the printing process lives
------------------
     ethr =  1.36E-03,  avg # of iterations =  4.8

     negative rho (up, down):  7.642E-01 0.000E+00

     total cpu time spent up to now is      132.2 secs

     total energy              =   -4483.70174055 Ry
     estimated scf accuracy    <       3.52642713 Ry

     iteration # 10     ecut=    60.00 Ry     beta= 0.15
     Davidson diagonalization with overlap

---- Real-time Memory Report at c_bands before calling an iterative solver
             0 MiB given to the printing process from OS
             0 MiB allocation reported by mallinfo(arena+hblkhd)
          6247 MiB available memory on the node where the printing process lives
------------------
     ethr =  8.07E-04,  avg # of iterations = 10.8

     negative rho (up, down):  7.822E-01 0.000E+00

     total cpu time spent up to now is      151.3 secs

     total energy              =   -4483.52966348 Ry
     estimated scf accuracy    <       4.37920688 Ry

     iteration # 11     ecut=    60.00 Ry     beta= 0.15
     Davidson diagonalization with overlap

---- Real-time Memory Report at c_bands before calling an iterative solver
             0 MiB given to the printing process from OS
             0 MiB allocation reported by mallinfo(arena+hblkhd)
          5878 MiB available memory on the node where the printing process lives
------------------
     ethr =  8.07E-04,  avg # of iterations =  6.0

     negative rho (up, down):  7.882E-01 0.000E+00

     total cpu time spent up to now is      167.8 secs

     total energy              =   -4483.27540176 Ry
     estimated scf accuracy    <       4.24358429 Ry

     iteration # 12     ecut=    60.00 Ry     beta= 0.15
     Davidson diagonalization with overlap

---- Real-time Memory Report at c_bands before calling an iterative solver
             0 MiB given to the printing process from OS
             0 MiB allocation reported by mallinfo(arena+hblkhd)
          5877 MiB available memory on the node where the printing process lives
------------------
     ethr =  8.07E-04,  avg # of iterations =  9.2

     negative rho (up, down):  7.998E-01 0.000E+00

     total cpu time spent up to now is      186.0 secs

     total energy              =   -4483.20349757 Ry
     estimated scf accuracy    <       2.12459512 Ry

     iteration # 13     ecut=    60.00 Ry     beta= 0.15
     Davidson diagonalization with overlap

---- Real-time Memory Report at c_bands before calling an iterative solver
             0 MiB given to the printing process from OS
             0 MiB allocation reported by mallinfo(arena+hblkhd)
          5801 MiB available memory on the node where the printing process lives
------------------
     ethr =  4.86E-04,  avg # of iterations =  3.6

     negative rho (up, down):  7.990E-01 0.000E+00

     total cpu time spent up to now is      201.3 secs

     total energy              =   -4483.28218060 Ry
     estimated scf accuracy    <       1.43157018 Ry

     iteration # 14     ecut=    60.00 Ry     beta= 0.15
     Davidson diagonalization with overlap

---- Real-time Memory Report at c_bands before calling an iterative solver
             0 MiB given to the printing process from OS
             0 MiB allocation reported by mallinfo(arena+hblkhd)
          5808 MiB available memory on the node where the printing process lives
------------------
     ethr =  3.28E-04,  avg # of iterations =  4.3

     negative rho (up, down):  8.103E-01 0.000E+00

     total cpu time spent up to now is      216.7 secs

     total energy              =   -4483.15823959 Ry
     estimated scf accuracy    <       0.87005049 Ry

     iteration # 15     ecut=    60.00 Ry     beta= 0.15
     Davidson diagonalization with overlap

---- Real-time Memory Report at c_bands before calling an iterative solver
             0 MiB given to the printing process from OS
             0 MiB allocation reported by mallinfo(arena+hblkhd)
          5814 MiB available memory on the node where the printing process lives
------------------
     ethr =  1.99E-04,  avg # of iterations =  5.8

     negative rho (up, down):  8.167E-01 0.000E+00

     total cpu time spent up to now is      232.7 secs

     total energy              =   -4483.15036017 Ry
     estimated scf accuracy    <       1.91167403 Ry

     iteration # 16     ecut=    60.00 Ry     beta= 0.15
     Davidson diagonalization with overlap

---- Real-time Memory Report at c_bands before calling an iterative solver
             0 MiB given to the printing process from OS
             0 MiB allocation reported by mallinfo(arena+hblkhd)
          5833 MiB available memory on the node where the printing process lives
------------------
     ethr =  1.99E-04,  avg # of iterations =  2.8

     negative rho (up, down):  8.138E-01 0.000E+00

     total cpu time spent up to now is      247.5 secs

     total energy              =   -4483.11609278 Ry
     estimated scf accuracy    <       1.38091691 Ry

     iteration # 17     ecut=    60.00 Ry     beta= 0.15
     Davidson diagonalization with overlap

---- Real-time Memory Report at c_bands before calling an iterative solver
             0 MiB given to the printing process from OS
             0 MiB allocation reported by mallinfo(arena+hblkhd)
          5840 MiB available memory on the node where the printing process lives
------------------
     ethr =  1.99E-04,  avg # of iterations =  5.4

     negative rho (up, down):  8.175E-01 0.000E+00

     total cpu time spent up to now is      263.5 secs

     total energy              =   -4483.09126018 Ry
     estimated scf accuracy    <       0.44191395 Ry

     iteration # 18     ecut=    60.00 Ry     beta= 0.15
     Davidson diagonalization with overlap

---- Real-time Memory Report at c_bands before calling an iterative solver
             0 MiB given to the printing process from OS
             0 MiB allocation reported by mallinfo(arena+hblkhd)
          5875 MiB available memory on the node where the printing process lives
------------------
     c_bands:  1 eigenvalues not converged
     ethr =  1.01E-04,  avg # of iterations = 10.4

     negative rho (up, down):  8.195E-01 0.000E+00

     total cpu time spent up to now is      282.8 secs

     total energy              =   -4483.05212633 Ry
     estimated scf accuracy    <       0.52335532 Ry

     iteration # 19     ecut=    60.00 Ry     beta= 0.15
     Davidson diagonalization with overlap

---- Real-time Memory Report at c_bands before calling an iterative solver
             0 MiB given to the printing process from OS
             0 MiB allocation reported by mallinfo(arena+hblkhd)
          5856 MiB available memory on the node where the printing process lives
------------------
     c_bands:  1 eigenvalues not converged
     ethr =  1.01E-04,  avg # of iterations =  9.3

     negative rho (up, down):  8.233E-01 0.000E+00

     total cpu time spent up to now is      301.4 secs

     total energy              =   -4483.03508920 Ry
     estimated scf accuracy    <       0.37477689 Ry

     iteration # 20     ecut=    60.00 Ry     beta= 0.15
     Davidson diagonalization with overlap

---- Real-time Memory Report at c_bands before calling an iterative solver
             0 MiB given to the printing process from OS
             0 MiB allocation reported by mallinfo(arena+hblkhd)
          5807 MiB available memory on the node where the printing process lives
------------------
     ethr =  8.58E-05,  avg # of iterations =  4.8

     negative rho (up, down):  8.271E-01 0.000E+00

     total cpu time spent up to now is      317.4 secs

     total energy              =   -4483.00946417 Ry
     estimated scf accuracy    <       0.31232923 Ry

     iteration # 21     ecut=    60.00 Ry     beta= 0.15
     Davidson diagonalization with overlap

---- Real-time Memory Report at c_bands before calling an iterative solver
             0 MiB given to the printing process from OS
             0 MiB allocation reported by mallinfo(arena+hblkhd)
          5821 MiB available memory on the node where the printing process lives
------------------
     ethr =  7.15E-05,  avg # of iterations =  9.3

     negative rho (up, down):  8.299E-01 0.000E+00

     total cpu time spent up to now is      335.2 secs

     total energy              =   -4482.97784988 Ry
     estimated scf accuracy    <       0.33151813 Ry

     iteration # 22     ecut=    60.00 Ry     beta= 0.15
     Davidson diagonalization with overlap

---- Real-time Memory Report at c_bands before calling an iterative solver
             0 MiB given to the printing process from OS
             0 MiB allocation reported by mallinfo(arena+hblkhd)
          5822 MiB available memory on the node where the printing process lives
------------------
     ethr =  7.15E-05,  avg # of iterations =  6.5

     negative rho (up, down):  8.381E-01 0.000E+00

     total cpu time spent up to now is      352.2 secs

     total energy              =   -4482.98527394 Ry
     estimated scf accuracy    <       0.07374519 Ry

     iteration # 23     ecut=    60.00 Ry     beta= 0.15
     Davidson diagonalization with overlap

---- Real-time Memory Report at c_bands before calling an iterative solver
             0 MiB given to the printing process from OS
             0 MiB allocation reported by mallinfo(arena+hblkhd)
          5777 MiB available memory on the node where the printing process lives
------------------
     ethr =  1.69E-05,  avg # of iterations = 10.8

     negative rho (up, down):  8.341E-01 0.000E+00

     total cpu time spent up to now is      371.6 secs

     total energy              =   -4482.97899981 Ry
     estimated scf accuracy    <       0.04197592 Ry

     iteration # 24     ecut=    60.00 Ry     beta= 0.15
     Davidson diagonalization with overlap

---- Real-time Memory Report at c_bands before calling an iterative solver
             0 MiB given to the printing process from OS
             0 MiB allocation reported by mallinfo(arena+hblkhd)
          5687 MiB available memory on the node where the printing process lives
------------------
     ethr =  9.61E-06,  avg # of iterations =  9.5

     negative rho (up, down):  8.322E-01 0.000E+00

     total cpu time spent up to now is      390.0 secs

     total energy              =   -4482.97956544 Ry
     estimated scf accuracy    <       0.02215757 Ry

     iteration # 25     ecut=    60.00 Ry     beta= 0.15
     Davidson diagonalization with overlap

---- Real-time Memory Report at c_bands before calling an iterative solver
             0 MiB given to the printing process from OS
             0 MiB allocation reported by mallinfo(arena+hblkhd)
          5612 MiB available memory on the node where the printing process lives
------------------
     ethr =  5.07E-06,  avg # of iterations =  8.7

     negative rho (up, down):  8.222E-01 0.000E+00

     total cpu time spent up to now is      408.1 secs

     total energy              =   -4482.97899748 Ry
     estimated scf accuracy    <       0.01033828 Ry

     iteration # 26     ecut=    60.00 Ry     beta= 0.15
     Davidson diagonalization with overlap

---- Real-time Memory Report at c_bands before calling an iterative solver
             0 MiB given to the printing process from OS
             0 MiB allocation reported by mallinfo(arena+hblkhd)
          5642 MiB available memory on the node where the printing process lives
------------------
     c_bands:  1 eigenvalues not converged
     ethr =  2.37E-06,  avg # of iterations =  9.1

     negative rho (up, down):  8.065E-01 0.000E+00

     total cpu time spent up to now is      426.3 secs

     total energy              =   -4482.97822279 Ry
     estimated scf accuracy    <       0.00749984 Ry

     iteration # 27     ecut=    60.00 Ry     beta= 0.15
     Davidson diagonalization with overlap

---- Real-time Memory Report at c_bands before calling an iterative solver
             0 MiB given to the printing process from OS
             0 MiB allocation reported by mallinfo(arena+hblkhd)
          5630 MiB available memory on the node where the printing process lives
------------------
     ethr =  1.72E-06,  avg # of iterations =  6.3

     negative rho (up, down):  7.974E-01 0.000E+00

     total cpu time spent up to now is      443.2 secs

     total energy              =   -4482.97747694 Ry
     estimated scf accuracy    <       0.00582437 Ry

     iteration # 28     ecut=    60.00 Ry     beta= 0.15
     Davidson diagonalization with overlap

---- Real-time Memory Report at c_bands before calling an iterative solver
             0 MiB given to the printing process from OS
             0 MiB allocation reported by mallinfo(arena+hblkhd)
          5614 MiB available memory on the node where the printing process lives
------------------
     ethr =  1.33E-06,  avg # of iterations =  6.2

     negative rho (up, down):  7.931E-01 0.000E+00

     total cpu time spent up to now is      460.3 secs

     total energy              =   -4482.97706059 Ry
     estimated scf accuracy    <       0.00283277 Ry

     iteration # 29     ecut=    60.00 Ry     beta= 0.15
     Davidson diagonalization with overlap

---- Real-time Memory Report at c_bands before calling an iterative solver
             0 MiB given to the printing process from OS
             0 MiB allocation reported by mallinfo(arena+hblkhd)
          5619 MiB available memory on the node where the printing process lives
------------------
     ethr =  6.48E-07,  avg # of iterations =  9.1

     negative rho (up, down):  7.932E-01 0.000E+00

     total cpu time spent up to now is      479.1 secs

     total energy              =   -4482.97712148 Ry
     estimated scf accuracy    <       0.00106297 Ry

     iteration # 30     ecut=    60.00 Ry     beta= 0.15
     Davidson diagonalization with overlap

---- Real-time Memory Report at c_bands before calling an iterative solver
             0 MiB given to the printing process from OS
             0 MiB allocation reported by mallinfo(arena+hblkhd)
          5591 MiB available memory on the node where the printing process lives
------------------
     ethr =  2.43E-07,  avg # of iterations =  3.0

     negative rho (up, down):  7.929E-01 0.000E+00

     total cpu time spent up to now is      494.0 secs

     total energy              =   -4482.97708770 Ry
     estimated scf accuracy    <       0.00056637 Ry

     iteration # 31     ecut=    60.00 Ry     beta= 0.15
     Davidson diagonalization with overlap

---- Real-time Memory Report at c_bands before calling an iterative solver
             0 MiB given to the printing process from OS
             0 MiB allocation reported by mallinfo(arena+hblkhd)
          5593 MiB available memory on the node where the printing process lives
------------------
     ethr =  1.30E-07,  avg # of iterations =  4.0

     negative rho (up, down):  7.924E-01 0.000E+00

     total cpu time spent up to now is      509.4 secs

     total energy              =   -4482.97707382 Ry
     estimated scf accuracy    <       0.00026774 Ry

     iteration # 32     ecut=    60.00 Ry     beta= 0.15
     Davidson diagonalization with overlap

---- Real-time Memory Report at c_bands before calling an iterative solver
             0 MiB given to the printing process from OS
             0 MiB allocation reported by mallinfo(arena+hblkhd)
          5596 MiB available memory on the node where the printing process lives
------------------
     ethr =  6.13E-08,  avg # of iterations =  3.4

     negative rho (up, down):  7.925E-01 0.000E+00

     total cpu time spent up to now is      524.7 secs

     total energy              =   -4482.97707752 Ry
     estimated scf accuracy    <       0.00011672 Ry

     iteration # 33     ecut=    60.00 Ry     beta= 0.15
     Davidson diagonalization with overlap

---- Real-time Memory Report at c_bands before calling an iterative solver
             0 MiB given to the printing process from OS
             0 MiB allocation reported by mallinfo(arena+hblkhd)
          5681 MiB available memory on the node where the printing process lives
------------------
     ethr =  2.67E-08,  avg # of iterations =  2.6

     negative rho (up, down):  7.926E-01 0.000E+00

     total cpu time spent up to now is      539.4 secs

     total energy              =   -4482.97706204 Ry
     estimated scf accuracy    <       0.00008124 Ry

     iteration # 34     ecut=    60.00 Ry     beta= 0.15
     Davidson diagonalization with overlap

---- Real-time Memory Report at c_bands before calling an iterative solver
             0 MiB given to the printing process from OS
             0 MiB allocation reported by mallinfo(arena+hblkhd)
          5666 MiB available memory on the node where the printing process lives
------------------
     ethr =  1.86E-08,  avg # of iterations =  4.2

     negative rho (up, down):  7.925E-01 0.000E+00

     total cpu time spent up to now is      555.4 secs

     total energy              =   -4482.97706481 Ry
     estimated scf accuracy    <       0.00004869 Ry

     iteration # 35     ecut=    60.00 Ry     beta= 0.15
     Davidson diagonalization with overlap

---- Real-time Memory Report at c_bands before calling an iterative solver
             0 MiB given to the printing process from OS
             0 MiB allocation reported by mallinfo(arena+hblkhd)
          5664 MiB available memory on the node where the printing process lives
------------------
     ethr =  1.11E-08,  avg # of iterations =  3.8

     negative rho (up, down):  7.924E-01 0.000E+00

     total cpu time spent up to now is      570.7 secs

     total energy              =   -4482.97707266 Ry
     estimated scf accuracy    <       0.00003062 Ry

     iteration # 36     ecut=    60.00 Ry     beta= 0.15
     Davidson diagonalization with overlap

---- Real-time Memory Report at c_bands before calling an iterative solver
             0 MiB given to the printing process from OS
             0 MiB allocation reported by mallinfo(arena+hblkhd)
          5666 MiB available memory on the node where the printing process lives
------------------
     ethr =  7.01E-09,  avg # of iterations =  2.5

     negative rho (up, down):  7.922E-01 0.000E+00

     total cpu time spent up to now is      585.5 secs

     total energy              =   -4482.97708423 Ry
     estimated scf accuracy    <       0.00002285 Ry

     iteration # 37     ecut=    60.00 Ry     beta= 0.15
     Davidson diagonalization with overlap

---- Real-time Memory Report at c_bands before calling an iterative solver
             0 MiB given to the printing process from OS
             0 MiB allocation reported by mallinfo(arena+hblkhd)
          5678 MiB available memory on the node where the printing process lives
------------------
     ethr =  5.23E-09,  avg # of iterations =  3.8

     negative rho (up, down):  7.921E-01 0.000E+00

     total cpu time spent up to now is      600.9 secs

     total energy              =   -4482.97708934 Ry
     estimated scf accuracy    <       0.00000934 Ry

     iteration # 38     ecut=    60.00 Ry     beta= 0.15
     Davidson diagonalization with overlap

---- Real-time Memory Report at c_bands before calling an iterative solver
             0 MiB given to the printing process from OS
             0 MiB allocation reported by mallinfo(arena+hblkhd)
          5682 MiB available memory on the node where the printing process lives
------------------
     ethr =  2.14E-09,  avg # of iterations =  3.5

     negative rho (up, down):  7.922E-01 0.000E+00

     total cpu time spent up to now is      616.2 secs

     total energy              =   -4482.97709029 Ry
     estimated scf accuracy    <       0.00000558 Ry

     iteration # 39     ecut=    60.00 Ry     beta= 0.15
     Davidson diagonalization with overlap

---- Real-time Memory Report at c_bands before calling an iterative solver
             0 MiB given to the printing process from OS
             0 MiB allocation reported by mallinfo(arena+hblkhd)
          5680 MiB available memory on the node where the printing process lives
------------------
     ethr =  1.28E-09,  avg # of iterations =  4.8

     negative rho (up, down):  7.922E-01 0.000E+00

     total cpu time spent up to now is      632.0 secs

     total energy              =   -4482.97709035 Ry
     estimated scf accuracy    <       0.00000333 Ry

     iteration # 40     ecut=    60.00 Ry     beta= 0.15
     Davidson diagonalization with overlap

---- Real-time Memory Report at c_bands before calling an iterative solver
             0 MiB given to the printing process from OS
             0 MiB allocation reported by mallinfo(arena+hblkhd)
          5679 MiB available memory on the node where the printing process lives
------------------
     ethr =  7.63E-10,  avg # of iterations =  3.6

     negative rho (up, down):  7.923E-01 0.000E+00

     total cpu time spent up to now is      647.2 secs

     total energy              =   -4482.97709025 Ry
     estimated scf accuracy    <       0.00000286 Ry

     iteration # 41     ecut=    60.00 Ry     beta= 0.15
     Davidson diagonalization with overlap

---- Real-time Memory Report at c_bands before calling an iterative solver
             0 MiB given to the printing process from OS
             0 MiB allocation reported by mallinfo(arena+hblkhd)
          5689 MiB available memory on the node where the printing process lives
------------------
     ethr =  6.54E-10,  avg # of iterations =  2.5

     negative rho (up, down):  7.923E-01 0.000E+00

     total cpu time spent up to now is      662.0 secs

     total energy              =   -4482.97709027 Ry
     estimated scf accuracy    <       0.00000231 Ry

     iteration # 42     ecut=    60.00 Ry     beta= 0.15
     Davidson diagonalization with overlap

---- Real-time Memory Report at c_bands before calling an iterative solver
             0 MiB given to the printing process from OS
             0 MiB allocation reported by mallinfo(arena+hblkhd)
          5701 MiB available memory on the node where the printing process lives
------------------
     ethr =  5.29E-10,  avg # of iterations =  2.6

     negative rho (up, down):  7.923E-01 0.000E+00

     total cpu time spent up to now is      676.8 secs

     total energy              =   -4482.97709019 Ry
     estimated scf accuracy    <       0.00000209 Ry

     iteration # 43     ecut=    60.00 Ry     beta= 0.15
     Davidson diagonalization with overlap

---- Real-time Memory Report at c_bands before calling an iterative solver
             0 MiB given to the printing process from OS
             0 MiB allocation reported by mallinfo(arena+hblkhd)
          5696 MiB available memory on the node where the printing process lives
------------------
     ethr =  4.77E-10,  avg # of iterations =  3.7

     negative rho (up, down):  7.923E-01 0.000E+00

     total cpu time spent up to now is      691.9 secs

     total energy              =   -4482.97709019 Ry
     estimated scf accuracy    <       0.00000177 Ry

     iteration # 44     ecut=    60.00 Ry     beta= 0.15
     Davidson diagonalization with overlap

---- Real-time Memory Report at c_bands before calling an iterative solver
             0 MiB given to the printing process from OS
             0 MiB allocation reported by mallinfo(arena+hblkhd)
          5699 MiB available memory on the node where the printing process lives
------------------
     ethr =  4.04E-10,  avg # of iterations =  1.3

     negative rho (up, down):  7.922E-01 0.000E+00

     total cpu time spent up to now is      705.5 secs

     total energy              =   -4482.97709016 Ry
     estimated scf accuracy    <       0.00000160 Ry

     iteration # 45     ecut=    60.00 Ry     beta= 0.15
     Davidson diagonalization with overlap

---- Real-time Memory Report at c_bands before calling an iterative solver
             0 MiB given to the printing process from OS
             0 MiB allocation reported by mallinfo(arena+hblkhd)
          5709 MiB available memory on the node where the printing process lives
------------------
     ethr =  3.66E-10,  avg # of iterations =  2.3

     negative rho (up, down):  7.922E-01 0.000E+00

     total cpu time spent up to now is      720.2 secs

     total energy              =   -4482.97709019 Ry
     estimated scf accuracy    <       0.00000126 Ry

     iteration # 46     ecut=    60.00 Ry     beta= 0.15
     Davidson diagonalization with overlap

---- Real-time Memory Report at c_bands before calling an iterative solver
             0 MiB given to the printing process from OS
             0 MiB allocation reported by mallinfo(arena+hblkhd)
          5711 MiB available memory on the node where the printing process lives
------------------
     ethr =  2.87E-10,  avg # of iterations =  4.0

     negative rho (up, down):  7.922E-01 0.000E+00

     total cpu time spent up to now is      735.8 secs

     total energy              =   -4482.97709018 Ry
     estimated scf accuracy    <       0.00000039 Ry

     iteration # 47     ecut=    60.00 Ry     beta= 0.15
     Davidson diagonalization with overlap

---- Real-time Memory Report at c_bands before calling an iterative solver
             0 MiB given to the printing process from OS
             0 MiB allocation reported by mallinfo(arena+hblkhd)
          5704 MiB available memory on the node where the printing process lives
------------------
     ethr =  8.89E-11,  avg # of iterations =  4.0

     negative rho (up, down):  7.923E-01 0.000E+00

     total cpu time spent up to now is      751.5 secs

     total energy              =   -4482.97709016 Ry
     estimated scf accuracy    <       0.00000017 Ry

     iteration # 48     ecut=    60.00 Ry     beta= 0.15
     Davidson diagonalization with overlap

---- Real-time Memory Report at c_bands before calling an iterative solver
             0 MiB given to the printing process from OS
             0 MiB allocation reported by mallinfo(arena+hblkhd)
          5700 MiB available memory on the node where the printing process lives
------------------
     ethr =  3.95E-11,  avg # of iterations =  4.2

     negative rho (up, down):  7.923E-01 0.000E+00

     total cpu time spent up to now is      767.1 secs

     total energy              =   -4482.97709013 Ry
     estimated scf accuracy    <       0.00000009 Ry

     iteration # 49     ecut=    60.00 Ry     beta= 0.15
     Davidson diagonalization with overlap

---- Real-time Memory Report at c_bands before calling an iterative solver
             0 MiB given to the printing process from OS
             0 MiB allocation reported by mallinfo(arena+hblkhd)
          5694 MiB available memory on the node where the printing process lives
------------------
     ethr =  2.08E-11,  avg # of iterations =  4.5

     negative rho (up, down):  7.923E-01 0.000E+00

     total cpu time spent up to now is      783.9 secs

     total energy              =   -4482.97709015 Ry
     estimated scf accuracy    <       0.00000003 Ry

     iteration # 50     ecut=    60.00 Ry     beta= 0.15
     Davidson diagonalization with overlap

---- Real-time Memory Report at c_bands before calling an iterative solver
             0 MiB given to the printing process from OS
             0 MiB allocation reported by mallinfo(arena+hblkhd)
          5686 MiB available memory on the node where the printing process lives
------------------
     ethr =  6.45E-12,  avg # of iterations =  4.8

     negative rho (up, down):  7.923E-01 0.000E+00

     total cpu time spent up to now is      800.7 secs

     End of self-consistent calculation

          k = 0.0000 0.0000 0.0000 ( 65197 PWs)   bands (ev):

   -92.3465 -92.2928 -92.2006 -92.1516 -92.0934 -92.0528 -92.0355 -91.9132
   -55.6996 -55.6791 -55.5584 -55.5476 -55.5402 -55.5344 -55.4973 -55.4702
   -55.4536 -55.4518 -55.4439 -55.4018 -55.3827 -55.3451 -55.3267 -55.2931
   -55.2868 -55.2418 -55.2406 -55.2386 -55.2301 -55.1875 -55.1663 -55.0795
   -30.9339 -30.9147 -30.8408 -30.7736 -30.7059 -30.6872 -30.6128 -30.3056
   -29.4984 -29.4541 -29.4282 -29.3195 -22.2571 -14.7313 -14.6915 -14.6089
   -14.4785 -14.2926 -14.1703 -13.8726 -13.8552 -13.8234 -13.7872 -13.7800
   -13.7381 -13.7252 -13.7155 -13.6968 -13.6823 -13.6476 -13.5817 -13.4329
   -13.2577 -13.2224 -13.1895 -13.1603 -13.1431 -13.0983 -13.0593 -12.9807
   -12.9080 -12.8410 -12.8182 -12.7667 -12.7568 -12.7317 -12.7142 -12.7002
   -12.6694 -12.6508 -12.6338 -12.6194 -12.6082 -12.5814 -12.5688 -12.5554
   -12.5241 -12.5004 -12.4832 -12.2909 -12.2866 -12.2466 -11.9988 -11.8541
   -11.7039 -11.6312 -11.5115 -11.4374 -11.4259 -11.4033 -11.3855 -11.3218
   -11.3045 -11.2700 -11.2416 -11.1289 -11.0490 -11.0455  -5.9540  -3.1603
    -3.1544  -2.5915  -2.3582  -2.1289  -1.9822  -1.9185  -1.7758  -1.4691
    -1.4547  -1.4343  -1.3506  -1.3331  -1.2650  -1.2491  -1.2076  -1.1625
    -0.9818  -0.7585  -0.7288  -0.5798  -0.5659  -0.5217  -0.5030  -0.4596
    -0.4443  -0.3833  -0.3569  -0.2882  -0.2760  -0.1961  -0.0702  -0.0555
    -0.0255   0.0563   0.0688   0.0837   0.1420   0.2206   0.2465   0.3134
     0.3346   0.3903   0.4719   0.5295   0.5506   0.5578   0.8146   0.8284
     0.9984   1.0699   1.1310   1.1746   1.2669   1.2810   1.2976   1.3671
     1.3964   1.4304   1.4893   1.6244   1.6759   1.6983   1.7180   1.7267
     1.7945   1.8738   1.9682   1.9832   2.0359   2.0598   2.0972   2.1200
     2.1275   2.1812   2.2392   2.2411   2.2705   2.3054   2.3724   2.5020
     2.5819   2.6308   2.6447   2.7920   2.8072   2.8558   2.8657   2.9657
     3.0059   3.0260   3.0349   3.0498   3.0566   3.0685   3.1463   3.2562
     3.2904   3.3031   3.3098   3.3766   3.3805   3.4047   3.4137   3.4210
     3.4298   3.4402   3.4523   3.4586   3.4719   3.4809   3.4881   3.5088
     3.5299   3.5351   3.5467   3.5647   3.6875   3.7390   4.4149   4.7500
     4.7872   5.1347   5.3809   5.4549   5.7192   6.2775   6.3165   6.3448
     6.6246   6.6328   6.6667   6.7158   6.9776   7.1317   7.2125   7.3292
     7.6411   7.6597   7.8369   7.8866   7.9236   7.9378   7.9780   8.0533
     8.3117   8.3578   8.3757   8.4014   8.5305   8.6254   8.6679

     occupation numbers 
     1.0000   1.0000   1.0000   1.0000   1.0000   1.0000   1.0000   1.0000
     1.0000   1.0000   1.0000   1.0000   1.0000   1.0000   1.0000   1.0000
     1.0000   1.0000   1.0000   1.0000   1.0000   1.0000   1.0000   1.0000
     1.0000   1.0000   1.0000   1.0000   1.0000   1.0000   1.0000   1.0000
     1.0000   1.0000   1.0000   1.0000   1.0000   1.0000   1.0000   1.0000
     1.0000   1.0000   1.0000   1.0000   1.0000   1.0000   1.0000   1.0000
     1.0000   1.0000   1.0000   1.0000   1.0000   1.0000   1.0000   1.0000
     1.0000   1.0000   1.0000   1.0000   1.0000   1.0000   1.0000   1.0000
     1.0000   1.0000   1.0000   1.0000   1.0000   1.0000   1.0000   1.0000
     1.0000   1.0000   1.0000   1.0000   1.0000   1.0000   1.0000   1.0000
     1.0000   1.0000   1.0000   1.0000   1.0000   1.0000   1.0000   1.0000
     1.0000   1.0000   1.0000   1.0000   1.0000   1.0000   1.0000   1.0000
     1.0000   1.0000   1.0000   1.0000   1.0000   1.0000   1.0000   1.0000
     1.0000   1.0000   1.0000   1.0000   1.0000   1.0000   1.0000   1.0000
     1.0000   1.0000   1.0000   1.0000   1.0000   1.0000   1.0000   1.0000
     1.0000   1.0000   1.0000   1.0000   1.0000   1.0000   1.0000   1.0000
     1.0000   1.0000   1.0000   1.0000   1.0000   1.0000   1.0000   1.0000
     1.0000   1.0000   1.0000   1.0000   1.0000   1.0000   1.0000   1.0000
     1.0000   1.0000   1.0000   1.0000   1.0000   1.0000   1.0000   1.0000
     1.0000   1.0000   1.0000   1.0000   1.0000   1.0000   1.0000   1.0000
     1.0000   0.9999   0.9999   0.9999   0.9998   0.9998   0.9998   0.9997
     0.9997   0.9996   0.9994   0.9989   0.9985   0.9984   0.9982   0.9981
     0.9974   0.9963   0.9945   0.9941   0.9927   0.9919   0.9906   0.9897
     0.9894   0.9870   0.9838   0.9837   0.9818   0.9794   0.9739   0.9598
     0.9485   0.9403   0.9379   0.9063   0.9025   0.8894   0.8866   0.8555
     0.8415   0.8342   0.8309   0.8252   0.8226   0.8180   0.7859   0.7353
     0.7185   0.7120   0.7086   0.6737   0.6716   0.6585   0.6536   0.6496
     0.6447   0.6390   0.6322   0.6287   0.6212   0.6162   0.6121   0.6002
     0.5881   0.5850   0.5783   0.5678   0.4955   0.4650   0.1375   0.0560
     0.0501   0.0154   0.0058   0.0042   0.0012   0.0001   0.0000   0.0000
     0.0000   0.0000   0.0000   0.0000   0.0000   0.0000   0.0000   0.0000
     0.0000   0.0000   0.0000   0.0000   0.0000   0.0000   0.0000   0.0000
     0.0000   0.0000   0.0000   0.0000   0.0000   0.0000   0.0000

          k = 0.0000 0.2500 0.0000 ( 65257 PWs)   bands (ev):

   -92.3465 -92.2928 -92.2006 -92.1516 -92.0934 -92.0528 -92.0355 -91.9132
   -55.6996 -55.6791 -55.5584 -55.5476 -55.5402 -55.5344 -55.4973 -55.4702
   -55.4536 -55.4518 -55.4439 -55.4018 -55.3827 -55.3451 -55.3267 -55.2931
   -55.2868 -55.2418 -55.2406 -55.2386 -55.2301 -55.1875 -55.1663 -55.0795
   -30.9337 -30.9146 -30.8406 -30.7738 -30.7062 -30.6873 -30.6127 -30.3057
   -29.4978 -29.4538 -29.4288 -29.3199 -22.2572 -14.6946 -14.6649 -14.5839
   -14.4492 -14.3320 -14.1605 -14.0168 -13.8379 -13.8082 -13.7893 -13.7827
   -13.7571 -13.6999 -13.6935 -13.6764 -13.6628 -13.6287 -13.5014 -13.4640
   -13.3017 -13.2844 -13.2323 -13.1957 -13.1509 -13.1137 -13.0769 -13.0002
   -12.9676 -12.9378 -12.8774 -12.8131 -12.8028 -12.7644 -12.7473 -12.6746
   -12.6364 -12.6144 -12.5920 -12.5875 -12.5659 -12.5471 -12.5237 -12.5200
   -12.4541 -12.4436 -12.4053 -12.2497 -12.2236 -12.1711 -12.0601 -11.9054
   -11.7576 -11.6939 -11.4769 -11.4341 -11.4064 -11.3775 -11.3607 -11.3138
   -11.3024 -11.2800 -11.2465 -11.1431 -11.0906 -11.0800  -5.9540  -3.1603
    -3.1546  -2.4562  -2.2339  -2.0967  -1.9143  -1.8708  -1.7065  -1.4882
    -1.4020  -1.3890  -1.3310  -1.2300  -1.2152  -1.1806  -1.1549  -1.1114
    -0.9129  -0.7846  -0.7728  -0.6964  -0.6859  -0.5815  -0.5510  -0.4954
    -0.4706  -0.4273  -0.3650  -0.3404  -0.3059  -0.2777  -0.2598  -0.2264
    -0.1542  -0.1004  -0.0348   0.0712   0.0955   0.1336   0.2505   0.2853
     0.3443   0.3976   0.4546   0.4747   0.5059   0.5622   0.8610   0.9492
     0.9801   1.0657   1.1097   1.1293   1.2563   1.2754   1.3671   1.3934
     1.4250   1.5398   1.6269   1.6522   1.6769   1.6936   1.7223   1.7839
     1.8089   1.8364   1.8850   1.9154   1.9448   2.0246   2.0587   2.0892
     2.1481   2.1976   2.2272   2.2594   2.2940   2.3152   2.4061   2.5391
     2.6101   2.6283   2.7087   2.7510   2.7890   2.7947   2.8629   2.9055
     2.9838   3.0199   3.0304   3.0470   3.0539   3.2166   3.2378   3.2705
     3.2922   3.3095   3.3183   3.3258   3.3344   3.3642   3.3663   3.3842
     3.3875   3.3996   3.4159   3.4267   3.4371   3.4596   3.4702   3.4751
     3.5108   3.5271   3.5872   3.9383   3.9691   4.2282   4.6001   4.7418
     4.9050   5.0815   5.4031   5.4865   5.8504   5.9208   6.1598   6.2990
     6.3370   6.4491   6.5187   6.7431   6.9041   7.0413   7.2525   7.5386
     7.5837   7.6983   7.7856   7.8727   7.9123   7.9486   8.0828   8.2322
     8.3011   8.4550   8.5168   8.5839   8.6403   8.6873   8.9200

     occupation numbers 
     1.0000   1.0000   1.0000   1.0000   1.0000   1.0000   1.0000   1.0000
     1.0000   1.0000   1.0000   1.0000   1.0000   1.0000   1.0000   1.0000
     1.0000   1.0000   1.0000   1.0000   1.0000   1.0000   1.0000   1.0000
     1.0000   1.0000   1.0000   1.0000   1.0000   1.0000   1.0000   1.0000
     1.0000   1.0000   1.0000   1.0000   1.0000   1.0000   1.0000   1.0000
     1.0000   1.0000   1.0000   1.0000   1.0000   1.0000   1.0000   1.0000
     1.0000   1.0000   1.0000   1.0000   1.0000   1.0000   1.0000   1.0000
     1.0000   1.0000   1.0000   1.0000   1.0000   1.0000   1.0000   1.0000
     1.0000   1.0000   1.0000   1.0000   1.0000   1.0000   1.0000   1.0000
     1.0000   1.0000   1.0000   1.0000   1.0000   1.0000   1.0000   1.0000
     1.0000   1.0000   1.0000   1.0000   1.0000   1.0000   1.0000   1.0000
     1.0000   1.0000   1.0000   1.0000   1.0000   1.0000   1.0000   1.0000
     1.0000   1.0000   1.0000   1.0000   1.0000   1.0000   1.0000   1.0000
     1.0000   1.0000   1.0000   1.0000   1.0000   1.0000   1.0000   1.0000
     1.0000   1.0000   1.0000   1.0000   1.0000   1.0000   1.0000   1.0000
     1.0000   1.0000   1.0000   1.0000   1.0000   1.0000   1.0000   1.0000
     1.0000   1.0000   1.0000   1.0000   1.0000   1.0000   1.0000   1.0000
     1.0000   1.0000   1.0000   1.0000   1.0000   1.0000   1.0000   1.0000
     1.0000   1.0000   1.0000   1.0000   1.0000   1.0000   1.0000   1.0000
     1.0000   1.0000   1.0000   1.0000   1.0000   1.0000   1.0000   1.0000
     1.0000   0.9999   0.9999   0.9999   0.9998   0.9998   0.9997   0.9997
     0.9996   0.9993   0.9988   0.9987   0.9985   0.9984   0.9982   0.9976
     0.9973   0.9969   0.9962   0.9956   0.9950   0.9930   0.9920   0.9909
     0.9885   0.9861   0.9845   0.9825   0.9802   0.9786   0.9707   0.9548
     0.9439   0.9408   0.9253   0.9161   0.9070   0.9056   0.8874   0.8749
     0.8493   0.8364   0.8325   0.8263   0.8236   0.7542   0.7442   0.7283
     0.7175   0.7088   0.7043   0.7004   0.6960   0.6804   0.6792   0.6697
     0.6679   0.6613   0.6524   0.6465   0.6407   0.6282   0.6222   0.6194
     0.5991   0.5897   0.5547   0.3505   0.3338   0.2077   0.0859   0.0574
     0.0344   0.0187   0.0053   0.0037   0.0006   0.0004   0.0001   0.0001
     0.0000   0.0000   0.0000   0.0000   0.0000   0.0000   0.0000   0.0000
     0.0000   0.0000   0.0000   0.0000   0.0000   0.0000   0.0000   0.0000
     0.0000   0.0000   0.0000   0.0000   0.0000   0.0000   0.0000

          k = 0.0000-0.5000 0.0000 ( 65180 PWs)   bands (ev):

   -92.3465 -92.2928 -92.2006 -92.1516 -92.0934 -92.0528 -92.0355 -91.9132
   -55.6996 -55.6791 -55.5584 -55.5476 -55.5402 -55.5344 -55.4973 -55.4702
   -55.4536 -55.4518 -55.4439 -55.4018 -55.3827 -55.3451 -55.3267 -55.2931
   -55.2868 -55.2418 -55.2406 -55.2386 -55.2301 -55.1875 -55.1663 -55.0795
   -30.9335 -30.9145 -30.8404 -30.7740 -30.7064 -30.6874 -30.6126 -30.3058
   -29.4972 -29.4535 -29.4295 -29.3202 -22.2571 -14.6605 -14.6128 -14.5587
   -14.4375 -14.3463 -14.2130 -14.0588 -13.9450 -13.8080 -13.7866 -13.7477
   -13.7015 -13.6889 -13.6435 -13.6244 -13.5752 -13.5571 -13.5313 -13.4997
   -13.4800 -13.4300 -13.2348 -13.1765 -13.1582 -13.1085 -13.0901 -13.0132
   -13.0014 -12.9549 -12.9406 -12.8755 -12.8075 -12.7646 -12.7420 -12.7091
   -12.6232 -12.6137 -12.5869 -12.5848 -12.5472 -12.5377 -12.5250 -12.4117
   -12.3838 -12.3614 -12.3080 -12.2487 -12.1712 -12.1110 -11.9978 -11.9807
   -11.8483 -11.8006 -11.4311 -11.4286 -11.4014 -11.3629 -11.3290 -11.3181
   -11.2761 -11.2721 -11.2282 -11.1645 -11.1510 -11.1369  -5.9540  -3.1603
    -3.1548  -2.2411  -2.1825  -2.0305  -1.9584  -1.6773  -1.5950  -1.4656
    -1.3288  -1.2893  -1.2722  -1.1934  -1.1639  -1.0799  -1.0460  -0.9687
    -0.9282  -0.8891  -0.8627  -0.8037  -0.7688  -0.7231  -0.6870  -0.6518
    -0.6198  -0.5078  -0.4633  -0.4304  -0.4275  -0.3425  -0.3103  -0.2886
    -0.2413  -0.1537  -0.0872  -0.0003   0.0307   0.1273   0.1663   0.3202
     0.3530   0.3813   0.4271   0.5407   0.6028   0.7423   0.8083   0.8157
     0.9444   0.9849   1.0781   1.2232   1.3271   1.3591   1.3963   1.4040
     1.4379   1.4595   1.4950   1.5088   1.5238   1.6313   1.6907   1.7221
     1.7451   2.0075   2.0375   2.0541   2.1410   2.1716   2.2060   2.2207
     2.2568   2.2662   2.2712   2.3040   2.3494   2.3748   2.3991   2.4171
     2.4444   2.4980   2.5802   2.6081   2.7828   2.9533   2.9627   2.9761
     3.0166   3.0202   3.0290   3.0321   3.0543   3.0832   3.0974   3.1510
     3.1714   3.2456   3.2624   3.3306   3.3356   3.3617   3.3629   3.3821
     3.3843   3.3890   3.3946   3.3969   3.4091   3.4300   3.4304   3.4964
     3.5006   3.5167   3.5714   4.4673   4.4700   4.5177   4.5841   4.9936
     5.1007   5.2292   5.3163   5.5316   5.6544   5.8212   5.9008   6.0329
     6.2045   6.3727   6.3888   6.4624   7.0135   7.0692   7.1184   7.4363
     7.5527   7.6180   7.7462   7.9992   8.0605   8.1671   8.2042   8.4117
     8.4632   8.6124   8.6924   8.7052   8.8040   8.8497   8.9443

     occupation numbers 
     1.0000   1.0000   1.0000   1.0000   1.0000   1.0000   1.0000   1.0000
     1.0000   1.0000   1.0000   1.0000   1.0000   1.0000   1.0000   1.0000
     1.0000   1.0000   1.0000   1.0000   1.0000   1.0000   1.0000   1.0000
     1.0000   1.0000   1.0000   1.0000   1.0000   1.0000   1.0000   1.0000
     1.0000   1.0000   1.0000   1.0000   1.0000   1.0000   1.0000   1.0000
     1.0000   1.0000   1.0000   1.0000   1.0000   1.0000   1.0000   1.0000
     1.0000   1.0000   1.0000   1.0000   1.0000   1.0000   1.0000   1.0000
     1.0000   1.0000   1.0000   1.0000   1.0000   1.0000   1.0000   1.0000
     1.0000   1.0000   1.0000   1.0000   1.0000   1.0000   1.0000   1.0000
     1.0000   1.0000   1.0000   1.0000   1.0000   1.0000   1.0000   1.0000
     1.0000   1.0000   1.0000   1.0000   1.0000   1.0000   1.0000   1.0000
     1.0000   1.0000   1.0000   1.0000   1.0000   1.0000   1.0000   1.0000
     1.0000   1.0000   1.0000   1.0000   1.0000   1.0000   1.0000   1.0000
     1.0000   1.0000   1.0000   1.0000   1.0000   1.0000   1.0000   1.0000
     1.0000   1.0000   1.0000   1.0000   1.0000   1.0000   1.0000   1.0000
     1.0000   1.0000   1.0000   1.0000   1.0000   1.0000   1.0000   1.0000
     1.0000   1.0000   1.0000   1.0000   1.0000   1.0000   1.0000   1.0000
     1.0000   1.0000   1.0000   1.0000   1.0000   1.0000   1.0000   1.0000
     1.0000   1.0000   1.0000   1.0000   1.0000   1.0000   1.0000   1.0000
     1.0000   1.0000   1.0000   1.0000   1.0000   1.0000   1.0000   1.0000
     1.0000   1.0000   0.9999   0.9999   0.9998   0.9997   0.9997   0.9996
     0.9996   0.9995   0.9994   0.9994   0.9993   0.9988   0.9984   0.9982
     0.9980   0.9935   0.9926   0.9921   0.9888   0.9874   0.9857   0.9849
     0.9827   0.9821   0.9818   0.9795   0.9759   0.9737   0.9714   0.9696
     0.9667   0.9604   0.9487   0.9442   0.9086   0.8596   0.8565   0.8520
     0.8376   0.8363   0.8331   0.8319   0.8235   0.8122   0.8064   0.7838
     0.7749   0.7404   0.7323   0.6980   0.6954   0.6817   0.6811   0.6708
     0.6696   0.6671   0.6640   0.6628   0.6561   0.6446   0.6444   0.6073
     0.6049   0.5957   0.5639   0.1211   0.1203   0.1067   0.0897   0.0255
     0.0174   0.0107   0.0075   0.0030   0.0017   0.0007   0.0005   0.0002
     0.0001   0.0000   0.0000   0.0000   0.0000   0.0000   0.0000   0.0000
     0.0000   0.0000   0.0000   0.0000   0.0000   0.0000   0.0000   0.0000
     0.0000   0.0000   0.0000   0.0000   0.0000   0.0000   0.0000

          k = 0.2500 0.2500 0.0000 ( 65198 PWs)   bands (ev):

   -92.3465 -92.2928 -92.2006 -92.1516 -92.0934 -92.0528 -92.0355 -91.9132
   -55.6996 -55.6791 -55.5584 -55.5476 -55.5402 -55.5344 -55.4973 -55.4702
   -55.4536 -55.4518 -55.4439 -55.4018 -55.3827 -55.3451 -55.3267 -55.2931
   -55.2868 -55.2418 -55.2406 -55.2386 -55.2301 -55.1875 -55.1663 -55.0795
   -30.9320 -30.9163 -30.8405 -30.7735 -30.7061 -30.6877 -30.6128 -30.3058
   -29.4968 -29.4548 -29.4284 -29.3203 -22.2572 -14.6662 -14.6292 -14.5560
   -14.4392 -14.3239 -14.1993 -14.1226 -13.9229 -13.7868 -13.7610 -13.7504
   -13.7163 -13.6855 -13.6633 -13.6344 -13.6097 -13.5898 -13.4938 -13.4784
   -13.3181 -13.3051 -13.2723 -13.2547 -13.2081 -13.1659 -13.1251 -13.0820
   -12.9972 -12.9585 -12.8871 -12.8038 -12.7795 -12.7545 -12.7060 -12.6789
   -12.6685 -12.6264 -12.6041 -12.5938 -12.5617 -12.5280 -12.5165 -12.4719
   -12.4001 -12.3761 -12.3702 -12.2505 -12.2003 -12.1086 -12.0557 -11.9346
   -11.7811 -11.7457 -11.4493 -11.4173 -11.4068 -11.3997 -11.3369 -11.3016
   -11.2952 -11.2602 -11.2527 -11.1597 -11.1188 -11.1014  -5.9540  -3.1604
    -3.1546  -2.3181  -2.1082  -1.9910  -1.8967  -1.7750  -1.7098  -1.5132
    -1.3671  -1.3474  -1.3181  -1.2247  -1.1907  -1.0979  -1.0699  -1.0207
    -0.8885  -0.8403  -0.7684  -0.7235  -0.6786  -0.6549  -0.6299  -0.5883
    -0.5723  -0.4827  -0.4330  -0.3688  -0.3204  -0.2915  -0.2384  -0.2285
    -0.1641  -0.1130  -0.0555  -0.0225   0.0628   0.1133   0.1428   0.1831
     0.2369   0.3008   0.3457   0.3705   0.4382   0.4781   0.7546   0.9020
     0.9392   0.9894   1.0330   1.0846   1.1408   1.2030   1.2427   1.5165
     1.5872   1.6616   1.6868   1.7319   1.7660   1.8021   1.8388   1.8564
     1.8847   1.9233   1.9342   1.9516   1.9935   2.0316   2.0734   2.1193
     2.1538   2.1711   2.1951   2.2381   2.2872   2.3162   2.4473   2.5180
     2.5574   2.5859   2.6446   2.7099   2.7425   2.7805   2.8029   2.8149
     2.9276   2.9662   3.0273   3.0486   3.0627   3.2276   3.2451   3.2511
     3.2672   3.2810   3.2943   3.3066   3.3146   3.3247   3.3382   3.3498
     3.3693   3.3761   3.3866   3.4071   3.4212   3.4311   3.4614   3.7634
     3.8540   3.8931   3.9560   3.9693   4.2006   4.3048   4.6347   4.7948
     4.9780   5.1303   5.3193   5.5323   5.9248   5.9718   6.0038   6.1191
     6.1919   6.2419   6.3387   6.4233   6.9000   7.0214   7.1164   7.2182
     7.6907   7.7644   7.8772   7.9466   8.0175   8.1252   8.2115   8.3261
     8.3763   8.4486   8.5562   8.6948   8.7204   8.7812   8.8855

     occupation numbers 
     1.0000   1.0000   1.0000   1.0000   1.0000   1.0000   1.0000   1.0000
     1.0000   1.0000   1.0000   1.0000   1.0000   1.0000   1.0000   1.0000
     1.0000   1.0000   1.0000   1.0000   1.0000   1.0000   1.0000   1.0000
     1.0000   1.0000   1.0000   1.0000   1.0000   1.0000   1.0000   1.0000
     1.0000   1.0000   1.0000   1.0000   1.0000   1.0000   1.0000   1.0000
     1.0000   1.0000   1.0000   1.0000   1.0000   1.0000   1.0000   1.0000
     1.0000   1.0000   1.0000   1.0000   1.0000   1.0000   1.0000   1.0000
     1.0000   1.0000   1.0000   1.0000   1.0000   1.0000   1.0000   1.0000
     1.0000   1.0000   1.0000   1.0000   1.0000   1.0000   1.0000   1.0000
     1.0000   1.0000   1.0000   1.0000   1.0000   1.0000   1.0000   1.0000
     1.0000   1.0000   1.0000   1.0000   1.0000   1.0000   1.0000   1.0000
     1.0000   1.0000   1.0000   1.0000   1.0000   1.0000   1.0000   1.0000
     1.0000   1.0000   1.0000   1.0000   1.0000   1.0000   1.0000   1.0000
     1.0000   1.0000   1.0000   1.0000   1.0000   1.0000   1.0000   1.0000
     1.0000   1.0000   1.0000   1.0000   1.0000   1.0000   1.0000   1.0000
     1.0000   1.0000   1.0000   1.0000   1.0000   1.0000   1.0000   1.0000
     1.0000   1.0000   1.0000   1.0000   1.0000   1.0000   1.0000   1.0000
     1.0000   1.0000   1.0000   1.0000   1.0000   1.0000   1.0000   1.0000
     1.0000   1.0000   1.0000   1.0000   1.0000   1.0000   1.0000   1.0000
     1.0000   1.0000   1.0000   1.0000   1.0000   1.0000   1.0000   1.0000
     1.0000   1.0000   1.0000   0.9999   0.9999   0.9999   0.9999   0.9993
     0.9991   0.9986   0.9985   0.9981   0.9978   0.9973   0.9969   0.9966
     0.9962   0.9954   0.9952   0.9949   0.9939   0.9928   0.9915   0.9898
     0.9883   0.9875   0.9863   0.9839   0.9807   0.9786   0.9664   0.9577
     0.9522   0.9479   0.9379   0.9251   0.9180   0.9091   0.9036   0.9005
     0.8680   0.8553   0.8337   0.8257   0.8202   0.7491   0.7407   0.7378
     0.7299   0.7232   0.7165   0.7103   0.7062   0.7010   0.6940   0.6880
     0.6776   0.6740   0.6684   0.6572   0.6495   0.6441   0.6272   0.4506
     0.3980   0.3757   0.3409   0.3337   0.2197   0.1767   0.0781   0.0489
     0.0269   0.0156   0.0075   0.0030   0.0004   0.0003   0.0003   0.0001
     0.0001   0.0001   0.0000   0.0000   0.0000   0.0000   0.0000   0.0000
     0.0000   0.0000   0.0000   0.0000   0.0000   0.0000   0.0000   0.0000
     0.0000   0.0000   0.0000   0.0000   0.0000   0.0000   0.0000

          k = 0.2500-0.5000 0.0000 ( 65138 PWs)   bands (ev):

   -92.3465 -92.2928 -92.2006 -92.1516 -92.0934 -92.0528 -92.0355 -91.9132
   -55.6996 -55.6791 -55.5584 -55.5476 -55.5402 -55.5344 -55.4973 -55.4702
   -55.4536 -55.4518 -55.4439 -55.4018 -55.3827 -55.3451 -55.3267 -55.2931
   -55.2868 -55.2418 -55.2406 -55.2386 -55.2301 -55.1875 -55.1663 -55.0795
   -30.9318 -30.9162 -30.8403 -30.7737 -30.7063 -30.6878 -30.6127 -30.3059
   -29.4962 -29.4544 -29.4291 -29.3206 -22.2571 -14.6297 -14.5858 -14.5154
   -14.4070 -14.3705 -14.2524 -14.1631 -14.0395 -13.7861 -13.7253 -13.6781
   -13.6486 -13.6271 -13.6118 -13.5953 -13.5601 -13.5447 -13.5140 -13.4743
   -13.4610 -13.4227 -13.3183 -13.2708 -13.2256 -13.1910 -13.1463 -13.1224
   -13.0543 -13.0147 -12.8631 -12.7995 -12.7907 -12.7467 -12.6875 -12.6784
   -12.6445 -12.6230 -12.5995 -12.5811 -12.5683 -12.5310 -12.5189 -12.4410
   -12.4200 -12.3124 -12.2819 -12.2501 -12.1779 -12.0815 -11.9784 -11.9656
   -11.8396 -11.8070 -11.4249 -11.4129 -11.4017 -11.3746 -11.3434 -11.3144
   -11.2741 -11.2454 -11.2240 -11.1777 -11.1522 -11.1411  -5.9540  -3.1604
    -3.1548  -2.0995  -2.0347  -1.9044  -1.8274  -1.6981  -1.6150  -1.4902
    -1.3399  -1.2849  -1.2641  -1.2022  -1.1886  -1.0907  -1.0253  -0.9395
    -0.8907  -0.8816  -0.8171  -0.7751  -0.7411  -0.6937  -0.6572  -0.6220
    -0.5813  -0.5696  -0.5255  -0.4973  -0.4553  -0.4250  -0.3570  -0.2551
    -0.2189  -0.1396  -0.0750  -0.0249   0.0171   0.0368   0.0895   0.2485
     0.2547   0.3651   0.3981   0.4077   0.4546   0.4828   0.5191   0.5518
     0.6251   0.8875   0.9800   1.0432   1.1045   1.3768   1.3959   1.4875
     1.5158   1.6843   1.7172   1.7588   1.7830   1.7999   1.8201   1.8811
     1.9277   1.9628   2.0363   2.1225   2.1605   2.1822   2.1971   2.2288
     2.2466   2.2517   2.2936   2.3088   2.3270   2.3583   2.3779   2.4080
     2.4372   2.4963   2.5359   2.6120   2.7517   2.9061   2.9217   2.9394
     2.9674   2.9912   3.0178   3.0273   3.0437   3.0506   3.0599   3.0811
     3.1772   3.2251   3.2468   3.2500   3.2641   3.2849   3.2987   3.3174
     3.3246   3.3571   3.3685   3.3837   3.3912   3.4001   3.4109   3.9216
     3.9380   4.0945   4.1441   4.4694   4.5230   4.5277   4.6509   5.0507
     5.1333   5.2688   5.3539   5.4990   5.6244   5.7206   5.8675   5.9253
     6.0657   6.1340   6.2916   6.5265   6.5533   6.6634   7.1276   7.2669
     7.5492   7.7286   7.9602   8.0661   8.1654   8.1936   8.3235   8.3982
     8.5209   8.6318   8.6844   8.8029   8.8655   8.9340   8.9792

     occupation numbers 
     1.0000   1.0000   1.0000   1.0000   1.0000   1.0000   1.0000   1.0000
     1.0000   1.0000   1.0000   1.0000   1.0000   1.0000   1.0000   1.0000
     1.0000   1.0000   1.0000   1.0000   1.0000   1.0000   1.0000   1.0000
     1.0000   1.0000   1.0000   1.0000   1.0000   1.0000   1.0000   1.0000
     1.0000   1.0000   1.0000   1.0000   1.0000   1.0000   1.0000   1.0000
     1.0000   1.0000   1.0000   1.0000   1.0000   1.0000   1.0000   1.0000
     1.0000   1.0000   1.0000   1.0000   1.0000   1.0000   1.0000   1.0000
     1.0000   1.0000   1.0000   1.0000   1.0000   1.0000   1.0000   1.0000
     1.0000   1.0000   1.0000   1.0000   1.0000   1.0000   1.0000   1.0000
     1.0000   1.0000   1.0000   1.0000   1.0000   1.0000   1.0000   1.0000
     1.0000   1.0000   1.0000   1.0000   1.0000   1.0000   1.0000   1.0000
     1.0000   1.0000   1.0000   1.0000   1.0000   1.0000   1.0000   1.0000
     1.0000   1.0000   1.0000   1.0000   1.0000   1.0000   1.0000   1.0000
     1.0000   1.0000   1.0000   1.0000   1.0000   1.0000   1.0000   1.0000
     1.0000   1.0000   1.0000   1.0000   1.0000   1.0000   1.0000   1.0000
     1.0000   1.0000   1.0000   1.0000   1.0000   1.0000   1.0000   1.0000
     1.0000   1.0000   1.0000   1.0000   1.0000   1.0000   1.0000   1.0000
     1.0000   1.0000   1.0000   1.0000   1.0000   1.0000   1.0000   1.0000
     1.0000   1.0000   1.0000   1.0000   1.0000   1.0000   1.0000   1.0000
     1.0000   1.0000   1.0000   1.0000   1.0000   1.0000   1.0000   1.0000
     1.0000   1.0000   1.0000   1.0000   0.9999   0.9997   0.9997   0.9994
     0.9993   0.9985   0.9982   0.9978   0.9976   0.9974   0.9971   0.9962
     0.9954   0.9946   0.9927   0.9896   0.9880   0.9869   0.9862   0.9844
     0.9833   0.9830   0.9802   0.9791   0.9777   0.9751   0.9734   0.9705
     0.9675   0.9606   0.9553   0.9436   0.9159   0.8747   0.8699   0.8642
     0.8550   0.8467   0.8372   0.8337   0.8276   0.8249   0.8214   0.8130
     0.7722   0.7502   0.7399   0.7383   0.7315   0.7212   0.7142   0.7047
     0.7010   0.6841   0.6780   0.6699   0.6659   0.6611   0.6551   0.3598
     0.3507   0.2690   0.2453   0.1205   0.1053   0.1040   0.0747   0.0209
     0.0155   0.0092   0.0065   0.0035   0.0019   0.0012   0.0006   0.0004
     0.0002   0.0001   0.0001   0.0000   0.0000   0.0000   0.0000   0.0000
     0.0000   0.0000   0.0000   0.0000   0.0000   0.0000   0.0000   0.0000
     0.0000   0.0000   0.0000   0.0000   0.0000   0.0000   0.0000

          k =-0.5000-0.5000 0.0000 ( 65132 PWs)   bands (ev):

   -92.3465 -92.2928 -92.2006 -92.1516 -92.0934 -92.0528 -92.0355 -91.9132
   -55.6996 -55.6791 -55.5584 -55.5476 -55.5402 -55.5344 -55.4973 -55.4702
   -55.4536 -55.4518 -55.4439 -55.4018 -55.3827 -55.3451 -55.3267 -55.2931
   -55.2868 -55.2418 -55.2406 -55.2386 -55.2301 -55.1875 -55.1663 -55.0795
   -30.9296 -30.9184 -30.8401 -30.7733 -30.7062 -30.6882 -30.6128 -30.3060
   -29.4952 -29.4554 -29.4287 -29.3210 -22.2571 -14.5826 -14.5582 -14.4422
   -14.4279 -14.3369 -14.2979 -14.2713 -14.1373 -13.7859 -13.6374 -13.6283
   -13.5897 -13.5747 -13.5547 -13.5383 -13.5119 -13.5026 -13.4883 -13.4838
   -13.4685 -13.3880 -13.3816 -13.3598 -13.3193 -13.3171 -13.2220 -13.2159
   -13.1017 -13.0647 -12.8150 -12.7860 -12.7199 -12.7075 -12.6819 -12.6570
   -12.6407 -12.6328 -12.6229 -12.6092 -12.5539 -12.5316 -12.5012 -12.4819
   -12.4538 -12.2693 -12.2577 -12.2466 -12.1944 -12.0550 -11.9749 -11.9341
   -11.8296 -11.8164 -11.4207 -11.4093 -11.3916 -11.3742 -11.3402 -11.3218
   -11.2868 -11.2251 -11.2060 -11.2002 -11.1502 -11.1470  -5.9540  -3.1606
    -3.1548  -1.8754  -1.8002  -1.7918  -1.7176  -1.6786  -1.6005  -1.5325
    -1.4068  -1.2899  -1.2607  -1.2195  -1.1634  -1.0923  -1.0774  -1.0070
    -0.9643  -0.8485  -0.8196  -0.7723  -0.7403  -0.6762  -0.6320  -0.6135
    -0.6019  -0.5482  -0.5013  -0.4888  -0.3748  -0.3172  -0.2689  -0.2222
    -0.1970  -0.1828  -0.1487  -0.1097  -0.0719  -0.0616   0.0255   0.0905
     0.1404   0.1616   0.2372   0.2892   0.2965   0.3586   0.3855   0.3954
     0.4071   0.8554   0.8979   0.9868   1.0120   1.4057   1.4194   1.4529
     1.4923   1.7676   1.7854   1.7934   1.8332   1.9661   2.0612   2.0872
     2.1228   2.1365   2.1595   2.1720   2.2024   2.2092   2.2210   2.2318
     2.2928   2.2974   2.3226   2.3265   2.3536   2.3632   2.4059   2.4336
     2.4461   2.4812   2.5058   2.5801   2.6467   2.9170   2.9508   2.9671
     2.9888   2.9948   3.0219   3.0294   3.0364   3.0466   3.0555   3.0652
     3.0836   3.1022   3.1149   3.1786   3.1818   3.2039   3.2170   3.2275
     3.2482   3.2533   3.2613   3.3645   3.3695   3.3948   3.4059   4.3469
     4.3738   4.3859   4.4073   4.6714   4.7414   4.7713   5.0109   5.1331
     5.1771   5.2173   5.3354   5.3969   5.4348   5.5570   5.5676   5.7569
     5.9764   5.9925   6.1281   6.3016   6.5264   6.7150   6.7424   7.3004
     7.5282   7.5543   7.6589   8.2752   8.2939   8.3695   8.4785   8.5487
     8.6535   8.8175   8.8700   8.8902   8.9130   8.9541   9.0348

     occupation numbers 
     1.0000   1.0000   1.0000   1.0000   1.0000   1.0000   1.0000   1.0000
     1.0000   1.0000   1.0000   1.0000   1.0000   1.0000   1.0000   1.0000
     1.0000   1.0000   1.0000   1.0000   1.0000   1.0000   1.0000   1.0000
     1.0000   1.0000   1.0000   1.0000   1.0000   1.0000   1.0000   1.0000
     1.0000   1.0000   1.0000   1.0000   1.0000   1.0000   1.0000   1.0000
     1.0000   1.0000   1.0000   1.0000   1.0000   1.0000   1.0000   1.0000
     1.0000   1.0000   1.0000   1.0000   1.0000   1.0000   1.0000   1.0000
     1.0000   1.0000   1.0000   1.0000   1.0000   1.0000   1.0000   1.0000
     1.0000   1.0000   1.0000   1.0000   1.0000   1.0000   1.0000   1.0000
     1.0000   1.0000   1.0000   1.0000   1.0000   1.0000   1.0000   1.0000
     1.0000   1.0000   1.0000   1.0000   1.0000   1.0000   1.0000   1.0000
     1.0000   1.0000   1.0000   1.0000   1.0000   1.0000   1.0000   1.0000
     1.0000   1.0000   1.0000   1.0000   1.0000   1.0000   1.0000   1.0000
     1.0000   1.0000   1.0000   1.0000   1.0000   1.0000   1.0000   1.0000
[...]
     0.0000   0.0000   0.0000   0.0000   0.0000   0.0000   0.0000   0.0000
     0.0000   0.0000   0.0000   0.0000   0.0000   0.0000   0.0000

          k =-0.5000 0.0000 0.0000 ( 65180 PWs)   bands (ev):

   -92.3465 -92.2928 -92.2006 -92.1516 -92.0934 -92.0528 -92.0355 -91.9132
   -55.6996 -55.6791 -55.5584 -55.5476 -55.5402 -55.5344 -55.4973 -55.4702
   -55.4536 -55.4518 -55.4439 -55.4018 -55.3827 -55.3451 -55.3267 -55.2931
   -55.2868 -55.2418 -55.2406 -55.2386 -55.2301 -55.1875 -55.1663 -55.0795
   -30.9300 -30.9187 -30.8406 -30.7729 -30.7058 -30.6879 -30.6130 -30.3058
   -29.4964 -29.4561 -29.4274 -29.3204 -22.2571 -14.6655 -14.6140 -14.5534
   -14.4493 -14.3399 -14.1967 -14.0544 -13.9201 -13.7921 -13.7824 -13.7760
   -13.7584 -13.7088 -13.6468 -13.6123 -13.5640 -13.5630 -13.5460 -13.4923
   -13.4871 -13.3881 -13.2064 -13.1810 -13.1470 -13.1387 -13.1042 -13.0177
   -12.9955 -12.9256 -12.9083 -12.9021 -12.8116 -12.7106 -12.7070 -12.6952
   -12.6821 -12.6676 -12.6132 -12.6052 -12.5942 -12.5711 -12.5115 -12.3605
   -12.3376 -12.2963 -12.2876 -12.2505 -12.1973 -12.1433 -12.0287 -11.9847
   -11.8373 -11.7933 -11.4284 -11.4070 -11.4003 -11.3847 -11.3670 -11.3260
   -11.2626 -11.2454 -11.2135 -11.1671 -11.1579 -11.1423  -5.9540  -3.1606
    -3.1544  -2.2314  -2.1928  -2.0279  -1.9893  -1.6768  -1.6007  -1.4523
    -1.3349  -1.2957  -1.2497  -1.2017  -1.1765  -1.0549  -1.0096  -0.9952
    -0.9119  -0.8775  -0.8622  -0.8299  -0.7740  -0.7044  -0.6746  -0.6472
    -0.5547  -0.5043  -0.4553  -0.4238  -0.4021  -0.3724  -0.3245  -0.3000
    -0.2623  -0.1635  -0.0955  -0.0271   0.0336   0.1851   0.2295   0.2924
     0.3225   0.3750   0.4027   0.5302   0.5688   0.6115   0.7903   0.8884
     0.9345   1.0083   1.0680   1.2056   1.2161   1.3463   1.3775   1.4316
     1.4584   1.4943   1.5090   1.5531   1.5809   1.6437   1.6905   1.7386
     1.7466   2.0397   2.0461   2.0619   2.0838   2.1996   2.2109   2.2144
     2.2313   2.2650   2.2764   2.3107   2.3410   2.3592   2.4278   2.4318
     2.4908   2.5036   2.5689   2.6725   2.7683   2.8497   2.8648   2.9458
     2.9790   3.0061   3.0291   3.0477   3.0743   3.0844   3.0911   3.1204
     3.1870   3.2312   3.2780   3.3046   3.3512   3.3551   3.3566   3.3683
     3.3828   3.3948   3.4093   3.4133   3.4338   3.4397   3.4606   3.4816
     3.4862   3.6128   3.6190   4.4094   4.4614   4.5220   4.6377   4.9966
     5.1254   5.2333   5.2993   5.4344   5.7099   5.8588   5.9347   5.9789
     6.1842   6.3749   6.3884   6.4694   6.9634   7.0848   7.1742   7.4673
     7.4991   7.6281   7.7522   7.9467   8.0811   8.1834   8.2721   8.3394
     8.5140   8.5849   8.6687   8.7261   8.7852   8.8540   8.9390

     occupation numbers 
     1.0000   1.0000   1.0000   1.0000   1.0000   1.0000   1.0000   1.0000
     1.0000   1.0000   1.0000   1.0000   1.0000   1.0000   1.0000   1.0000
     1.0000   1.0000   1.0000   1.0000   1.0000   1.0000   1.0000   1.0000
     1.0000   1.0000   1.0000   1.0000   1.0000   1.0000   1.0000   1.0000
     1.0000   1.0000   1.0000   1.0000   1.0000   1.0000   1.0000   1.0000
     1.0000   1.0000   1.0000   1.0000   1.0000   1.0000   1.0000   1.0000
     1.0000   1.0000   1.0000   1.0000   1.0000   1.0000   1.0000   1.0000
     1.0000   1.0000   1.0000   1.0000   1.0000   1.0000   1.0000   1.0000
     1.0000   1.0000   1.0000   1.0000   1.0000   1.0000   1.0000   1.0000
     1.0000   1.0000   1.0000   1.0000   1.0000   1.0000   1.0000   1.0000
     1.0000   1.0000   1.0000   1.0000   1.0000   1.0000   1.0000   1.0000
     1.0000   1.0000   1.0000   1.0000   1.0000   1.0000   1.0000   1.0000
     1.0000   1.0000   1.0000   1.0000   1.0000   1.0000   1.0000   1.0000
     1.0000   1.0000   1.0000   1.0000   1.0000   1.0000   1.0000   1.0000
     1.0000   1.0000   1.0000   1.0000   1.0000   1.0000   1.0000   1.0000
     1.0000   1.0000   1.0000   1.0000   1.0000   1.0000   1.0000   1.0000
     1.0000   1.0000   1.0000   1.0000   1.0000   1.0000   1.0000   1.0000
     1.0000   1.0000   1.0000   1.0000   1.0000   1.0000   1.0000   1.0000
     1.0000   1.0000   1.0000   1.0000   1.0000   1.0000   1.0000   1.0000
     1.0000   1.0000   1.0000   1.0000   1.0000   1.0000   1.0000   1.0000
     1.0000   1.0000   0.9999   0.9999   0.9999   0.9997   0.9997   0.9996
     0.9995   0.9994   0.9994   0.9992   0.9991   0.9988   0.9984   0.9980
     0.9980   0.9926   0.9924   0.9919   0.9911   0.9860   0.9854   0.9852
     0.9843   0.9822   0.9814   0.9790   0.9766   0.9751   0.9685   0.9681
     0.9613   0.9596   0.9505   0.9326   0.9121   0.8911   0.8869   0.8621
     0.8510   0.8414   0.8330   0.8260   0.8157   0.8117   0.8090   0.7969
     0.7679   0.7473   0.7246   0.7113   0.6872   0.6852   0.6844   0.6782
     0.6704   0.6639   0.6560   0.6539   0.6426   0.6393   0.6276   0.6157
     0.6132   0.5396   0.5360   0.1393   0.1229   0.1056   0.0775   0.0253
     0.0159   0.0105   0.0081   0.0046   0.0013   0.0006   0.0004   0.0003
     0.0001   0.0000   0.0000   0.0000   0.0000   0.0000   0.0000   0.0000
     0.0000   0.0000   0.0000   0.0000   0.0000   0.0000   0.0000   0.0000
     0.0000   0.0000   0.0000   0.0000   0.0000   0.0000   0.0000

          k =-0.2500 0.2500 0.0000 ( 65198 PWs)   bands (ev):

   -92.3465 -92.2928 -92.2006 -92.1516 -92.0934 -92.0528 -92.0355 -91.9132
   -55.6996 -55.6791 -55.5584 -55.5476 -55.5402 -55.5344 -55.4973 -55.4702
   -55.4536 -55.4518 -55.4439 -55.4018 -55.3827 -55.3451 -55.3267 -55.2931
   -55.2868 -55.2418 -55.2406 -55.2386 -55.2301 -55.1875 -55.1663 -55.0795
   -30.9320 -30.9163 -30.8405 -30.7735 -30.7061 -30.6877 -30.6128 -30.3058
   -29.4968 -29.4548 -29.4284 -29.3203 -22.2572 -14.6676 -14.6280 -14.5549
   -14.4369 -14.3302 -14.2046 -14.1142 -13.9136 -13.7870 -13.7689 -13.7395
   -13.7282 -13.6805 -13.6553 -13.6378 -13.6260 -13.5924 -13.4899 -13.4789
   -13.3273 -13.3004 -13.2710 -13.2505 -13.2098 -13.1509 -13.1149 -13.0917
   -13.0058 -12.9648 -12.8805 -12.8055 -12.7768 -12.7508 -12.6984 -12.6741
   -12.6537 -12.6299 -12.6185 -12.5903 -12.5831 -12.5428 -12.5296 -12.4689
   -12.4266 -12.3493 -12.3427 -12.2496 -12.1540 -12.1113 -12.0984 -11.9403
   -11.7953 -11.7278 -11.4485 -11.4270 -11.3994 -11.3874 -11.3466 -11.3113
   -11.2887 -11.2673 -11.2449 -11.1595 -11.1141 -11.1048  -5.9540  -3.1605
    -3.1546  -2.3164  -2.1071  -1.9868  -1.8984  -1.7793  -1.7125  -1.5107
    -1.3639  -1.3450  -1.3161  -1.2253  -1.1896  -1.0974  -1.0642  -1.0377
    -0.8941  -0.8393  -0.7709  -0.7418  -0.6825  -0.6608  -0.6202  -0.5913
    -0.5511  -0.4892  -0.4422  -0.3800  -0.3120  -0.2879  -0.2341  -0.2065
    -0.1613  -0.1031  -0.0579  -0.0179   0.0812   0.1149   0.1228   0.1713
     0.2339   0.3003   0.3467   0.3763   0.4414   0.4759   0.7365   0.9030
     0.9471   0.9822   1.0388   1.0836   1.1439   1.2108   1.2392   1.5236
     1.6384   1.6771   1.7103   1.7167   1.7595   1.7762   1.8209   1.8513
     1.8673   1.8935   1.9336   1.9474   1.9923   2.0099   2.0534   2.1285
     2.1480   2.1712   2.2003   2.2343   2.2719   2.3185   2.4356   2.5490
     2.5823   2.6255   2.6460   2.7096   2.7543   2.7824   2.8031   2.8259
     2.9283   2.9653   3.0265   3.0523   3.0597   3.2349   3.2426   3.2565
     3.2666   3.2774   3.2908   3.2971   3.3149   3.3228   3.3390   3.3485
     3.3611   3.3706   3.3772   3.4092   3.4203   3.4301   3.4634   3.7565
     3.8370   3.8955   3.9561   3.9823   4.1844   4.3134   4.6326   4.7962
     4.9725   5.1352   5.3293   5.5331   5.9097   5.9663   6.0190   6.1310
     6.1892   6.2359   6.3484   6.4157   6.9447   6.9824   7.0814   7.2309
     7.7068   7.8184   7.8510   7.9281   7.9750   8.1629   8.2037   8.3040
     8.4227   8.4442   8.5393   8.7015   8.7204   8.7954   8.8579

     occupation numbers 
     1.0000   1.0000   1.0000   1.0000   1.0000   1.0000   1.0000   1.0000
     1.0000   1.0000   1.0000   1.0000   1.0000   1.0000   1.0000   1.0000
     1.0000   1.0000   1.0000   1.0000   1.0000   1.0000   1.0000   1.0000
     1.0000   1.0000   1.0000   1.0000   1.0000   1.0000   1.0000   1.0000
     1.0000   1.0000   1.0000   1.0000   1.0000   1.0000   1.0000   1.0000
     1.0000   1.0000   1.0000   1.0000   1.0000   1.0000   1.0000   1.0000
     1.0000   1.0000   1.0000   1.0000   1.0000   1.0000   1.0000   1.0000
     1.0000   1.0000   1.0000   1.0000   1.0000   1.0000   1.0000   1.0000
     1.0000   1.0000   1.0000   1.0000   1.0000   1.0000   1.0000   1.0000
     1.0000   1.0000   1.0000   1.0000   1.0000   1.0000   1.0000   1.0000
     1.0000   1.0000   1.0000   1.0000   1.0000   1.0000   1.0000   1.0000
     1.0000   1.0000   1.0000   1.0000   1.0000   1.0000   1.0000   1.0000
     1.0000   1.0000   1.0000   1.0000   1.0000   1.0000   1.0000   1.0000
     1.0000   1.0000   1.0000   1.0000   1.0000   1.0000   1.0000   1.0000
     1.0000   1.0000   1.0000   1.0000   1.0000   1.0000   1.0000   1.0000
     1.0000   1.0000   1.0000   1.0000   1.0000   1.0000   1.0000   1.0000
     1.0000   1.0000   1.0000   1.0000   1.0000   1.0000   1.0000   1.0000
     1.0000   1.0000   1.0000   1.0000   1.0000   1.0000   1.0000   1.0000
     1.0000   1.0000   1.0000   1.0000   1.0000   1.0000   1.0000   1.0000
     1.0000   1.0000   1.0000   1.0000   1.0000   1.0000   1.0000   1.0000
     1.0000   1.0000   1.0000   0.9999   0.9999   0.9999   0.9999   0.9993
     0.9988   0.9985   0.9983   0.9982   0.9978   0.9976   0.9971   0.9967
     0.9964   0.9960   0.9952   0.9949   0.9939   0.9934   0.9921   0.9894
     0.9885   0.9875   0.9860   0.9841   0.9817   0.9784   0.9677   0.9534
     0.9484   0.9413   0.9376   0.9252   0.9153   0.9087   0.9035   0.8976
     0.8678   0.8556   0.8340   0.8243   0.8214   0.7456   0.7419   0.7352
     0.7303   0.7249   0.7183   0.7151   0.7060   0.7020   0.6936   0.6886
     0.6820   0.6769   0.6734   0.6561   0.6500   0.6446   0.6260   0.4547
     0.4077   0.3744   0.3408   0.3266   0.2268   0.1734   0.0786   0.0487
     0.0275   0.0153   0.0072   0.0030   0.0005   0.0003   0.0003   0.0001
     0.0001   0.0001   0.0000   0.0000   0.0000   0.0000   0.0000   0.0000
     0.0000   0.0000   0.0000   0.0000   0.0000   0.0000   0.0000   0.0000
     0.0000   0.0000   0.0000   0.0000   0.0000   0.0000   0.0000

          k =-0.5000 0.2500 0.0000 ( 65138 PWs)   bands (ev):

   -92.3465 -92.2928 -92.2006 -92.1516 -92.0934 -92.0528 -92.0355 -91.9132
   -55.6996 -55.6791 -55.5584 -55.5476 -55.5402 -55.5344 -55.4973 -55.4702
   -55.4536 -55.4518 -55.4439 -55.4018 -55.3827 -55.3451 -55.3267 -55.2931
   -55.2868 -55.2418 -55.2406 -55.2386 -55.2301 -55.1875 -55.1663 -55.0795
   -30.9298 -30.9185 -30.8403 -30.7731 -30.7060 -30.6881 -30.6129 -30.3059
   -29.4958 -29.4558 -29.4280 -29.3207 -22.2571 -14.6326 -14.5876 -14.5103
   -14.4148 -14.3699 -14.2433 -14.1591 -14.0337 -13.7863 -13.7189 -13.6899
   -13.6775 -13.6326 -13.6152 -13.5854 -13.5502 -13.5488 -13.5224 -13.4879
   -13.4724 -13.3760 -13.2907 -13.2424 -13.2399 -13.2285 -13.1634 -13.1243
   -13.0453 -12.9959 -12.8572 -12.8225 -12.7656 -12.7227 -12.6853 -12.6723
   -12.6615 -12.6365 -12.6206 -12.6005 -12.5899 -12.5455 -12.5209 -12.4154
   -12.3934 -12.2796 -12.2728 -12.2489 -12.1956 -12.0946 -11.9811 -11.9790
   -11.8333 -11.8029 -11.4211 -11.4082 -11.3943 -11.3826 -11.3608 -11.3308
   -11.2502 -11.2408 -11.2185 -11.1816 -11.1538 -11.1448  -5.9540  -3.1606
    -3.1546  -2.0894  -2.0472  -1.8977  -1.8562  -1.6964  -1.6195  -1.4766
    -1.3412  -1.2838  -1.2571  -1.2179  -1.1790  -1.0989  -0.9843  -0.9274
    -0.9044  -0.8788  -0.8022  -0.7737  -0.7367  -0.7176  -0.6569  -0.6286
    -0.5892  -0.5539  -0.5252  -0.4678  -0.4419  -0.4004  -0.3657  -0.2613
    -0.2360  -0.1462  -0.0887  -0.0534   0.0040   0.0862   0.1165   0.2221
     0.2502   0.3135   0.3563   0.3900   0.4643   0.4925   0.5236   0.5814
     0.6186   0.9232   0.9777   1.0386   1.0611   1.3549   1.4160   1.4893
     1.5176   1.6966   1.7323   1.7697   1.7842   1.8020   1.8197   1.8890
     1.9316   1.9686   1.9992   2.1060   2.1490   2.1858   2.1942   2.2264
     2.2587   2.2727   2.2845   2.3067   2.3310   2.3726   2.3993   2.4297
     2.4540   2.4805   2.5464   2.6646   2.7649   2.7947   2.8637   2.9056
     2.9628   3.0024   3.0099   3.0265   3.0444   3.0525   3.0846   3.1045
     3.1867   3.2281   3.2435   3.2490   3.2699   3.2924   3.3052   3.3199
     3.3325   3.3527   3.3665   3.3768   3.3843   3.3939   3.4065   3.9293
     3.9641   4.1256   4.1461   4.4184   4.4829   4.5343   4.7337   5.0634
     5.1316   5.2450   5.3396   5.4299   5.7232   5.7622   5.8328   5.8940
     6.0435   6.1335   6.2906   6.5331   6.5611   6.6652   7.1265   7.2751
     7.5521   7.7173   7.9661   8.0539   8.1862   8.1955   8.3118   8.3646
     8.5301   8.6635   8.7195   8.8167   8.8434   8.9218   8.9436

     occupation numbers 
     1.0000   1.0000   1.0000   1.0000   1.0000   1.0000   1.0000   1.0000
     1.0000   1.0000   1.0000   1.0000   1.0000   1.0000   1.0000   1.0000
     1.0000   1.0000   1.0000   1.0000   1.0000   1.0000   1.0000   1.0000
     1.0000   1.0000   1.0000   1.0000   1.0000   1.0000   1.0000   1.0000
     1.0000   1.0000   1.0000   1.0000   1.0000   1.0000   1.0000   1.0000
     1.0000   1.0000   1.0000   1.0000   1.0000   1.0000   1.0000   1.0000
     1.0000   1.0000   1.0000   1.0000   1.0000   1.0000   1.0000   1.0000
     1.0000   1.0000   1.0000   1.0000   1.0000   1.0000   1.0000   1.0000
     1.0000   1.0000   1.0000   1.0000   1.0000   1.0000   1.0000   1.0000
     1.0000   1.0000   1.0000   1.0000   1.0000   1.0000   1.0000   1.0000
     1.0000   1.0000   1.0000   1.0000   1.0000   1.0000   1.0000   1.0000
     1.0000   1.0000   1.0000   1.0000   1.0000   1.0000   1.0000   1.0000
     1.0000   1.0000   1.0000   1.0000   1.0000   1.0000   1.0000   1.0000
     1.0000   1.0000   1.0000   1.0000   1.0000   1.0000   1.0000   1.0000
     1.0000   1.0000   1.0000   1.0000   1.0000   1.0000   1.0000   1.0000
     1.0000   1.0000   1.0000   1.0000   1.0000   1.0000   1.0000   1.0000
     1.0000   1.0000   1.0000   1.0000   1.0000   1.0000   1.0000   1.0000
     1.0000   1.0000   1.0000   1.0000   1.0000   1.0000   1.0000   1.0000
     1.0000   1.0000   1.0000   1.0000   1.0000   1.0000   1.0000   1.0000
     1.0000   1.0000   1.0000   1.0000   1.0000   1.0000   1.0000   1.0000
     1.0000   1.0000   1.0000   1.0000   0.9999   0.9997   0.9996   0.9994
     0.9993   0.9984   0.9981   0.9977   0.9976   0.9974   0.9971   0.9961
     0.9953   0.9945   0.9937   0.9903   0.9885   0.9867   0.9863   0.9845
     0.9826   0.9817   0.9809   0.9793   0.9774   0.9739   0.9714   0.9683
     0.9656   0.9625   0.9538   0.9341   0.9129   0.9056   0.8872   0.8748
     0.8565   0.8428   0.8401   0.8340   0.8273   0.8242   0.8116   0.8035
     0.7680   0.7488   0.7415   0.7388   0.7286   0.7174   0.7110   0.7035
     0.6970   0.6864   0.6791   0.6736   0.6696   0.6644   0.6576   0.3555
     0.3364   0.2540   0.2443   0.1364   0.1165   0.1022   0.0588   0.0200
     0.0155   0.0101   0.0069   0.0047   0.0012   0.0010   0.0007   0.0005
     0.0002   0.0001   0.0001   0.0000   0.0000   0.0000   0.0000   0.0000
     0.0000   0.0000   0.0000   0.0000   0.0000   0.0000   0.0000   0.0000
     0.0000   0.0000   0.0000   0.0000   0.0000   0.0000   0.0000

     the Fermi energy is     3.6798 ev

!    total energy              =   -4482.97709017 Ry
     estimated scf accuracy    <          7.0E-09 Ry
     smearing contrib. (-TS)   =      -1.17212049 Ry
     internal energy E=F+TS    =   -4481.80496968 Ry

     The total energy is F=E-TS. E is the sum of the following terms:
     one-electron contribution =  -20252.90271612 Ry
     hartree contribution      =   10266.00268368 Ry
     xc contribution           =    -701.58730799 Ry
     ewald contribution        =    6492.33615551 Ry
     one-center paw contrib.   =    -285.65378475 Ry
      -> PAW hartree energy AE =      25.17694259 Ry
      -> PAW hartree energy PS =     -25.06071999 Ry
      -> PAW xc energy AE      =     -16.51942232 Ry
      -> PAW xc energy PS      =       6.87900294 Ry
      -> total E_H with PAW    =   10266.11890628 Ry
      -> total E_XC with PAW   =    -711.22772738 Ry

     convergence has been achieved in  50 iterations

     Writing all to output data dir /bsuhome/zayahcortright/scratch/pwscf.save/
 
     init_run     :      8.01s CPU      8.54s WALL (       1 calls)
     electrons    :    754.00s CPU    791.97s WALL (       1 calls)

     Called by init_run:
     wfcinit      :      6.27s CPU      6.48s WALL (       1 calls)
     wfcinit:atom :      0.04s CPU      0.06s WALL (       5 calls)
     wfcinit:wfcr :      5.95s CPU      6.08s WALL (       5 calls)
     potinit      :      0.17s CPU      0.19s WALL (       1 calls)
     hinit0       :      0.66s CPU      0.75s WALL (       1 calls)

     Called by electrons:
     c_bands      :    604.80s CPU    611.65s WALL (      50 calls)
     sum_band     :    112.35s CPU    130.24s WALL (      50 calls)
     v_of_rho     :      5.49s CPU      5.88s WALL (      51 calls)
     v_h          :      0.47s CPU      0.47s WALL (      51 calls)
     v_xc         :      5.02s CPU      5.41s WALL (      51 calls)
     newd         :     16.98s CPU     29.46s WALL (      51 calls)
     PAW_pot      :      1.61s CPU      1.64s WALL (      51 calls)
     mix_rho      :     12.40s CPU     12.76s WALL (      50 calls)

     Called by c_bands:
     init_us_2    :      7.30s CPU      7.38s WALL (     505 calls)
     init_us_2:cp :      7.30s CPU      7.37s WALL (     505 calls)
     cegterg      :    568.35s CPU    574.86s WALL (     250 calls)

     Called by sum_band:
     sum_band:wei :      0.35s CPU      0.35s WALL (      50 calls)
     sum_band:loo :     94.63s CPU     95.39s WALL (      50 calls)
     sum_band:buf :      1.56s CPU      1.61s WALL (     250 calls)
     sum_band:ini :      3.34s CPU      3.35s WALL (     250 calls)
     sum_band:cal :     21.06s CPU     21.14s WALL (     250 calls)
     sum_band:bec :      0.67s CPU      0.69s WALL (     250 calls)
     addusdens    :     16.07s CPU     33.16s WALL (      50 calls)
                                        0.00s GPU  (      50 calls)
     addusd:skk   :      0.30s CPU      0.95s WALL (     200 calls)
                                        0.00s GPU  (     200 calls)

     Called by *egterg:
     cdiaghg      :     63.25s CPU     63.50s WALL (    1427 calls)
     cegterg:over :     42.73s CPU     42.91s WALL (    1177 calls)
     cegterg:upda :     31.51s CPU     32.05s WALL (    1177 calls)
     cegterg:last :     64.83s CPU     65.04s WALL (     463 calls)
     cdiaghg:chol :      3.70s CPU      3.73s WALL (    1427 calls)
     cdiaghg:inve :      3.91s CPU      3.93s WALL (    1427 calls)
     cdiaghg:para :      8.00s CPU      8.04s WALL (    2854 calls)
     h_psi        :    306.23s CPU    309.37s WALL (    1432 calls)
     s_psi        :     43.20s CPU     43.34s WALL (    1432 calls)
     g_psi        :      1.14s CPU      1.14s WALL (    1177 calls)

     Called by h_psi:
     h_psi:calbec :     48.71s CPU     48.90s WALL (    1432 calls)
     vloc_psi     :    211.47s CPU    213.48s WALL (    1432 calls)
     add_vuspsi   :     43.02s CPU     43.23s WALL (    1432 calls)

     General routines
     calbec       :     69.76s CPU     70.03s WALL (    1682 calls)
     fft          :      3.61s CPU      3.66s WALL (     661 calls)
     ffts         :      4.62s CPU      4.66s WALL (    5196 calls)
     fftw         :    182.46s CPU    184.02s WALL (  344612 calls)
     interpolate  :      0.42s CPU      0.42s WALL (      51 calls)
 
     Parallel routines

     PAW routines
     PAW_pot      :      1.61s CPU      1.64s WALL (      51 calls)
 
     PWSCF        :  12m43.63s CPU  13m26.22s WALL

 
   This run was terminated on:  20: 2:22  18Jun2024            

=------------------------------------------------------------------------------=
   JOB DONE.
=------------------------------------------------------------------------------=
