
     Program PWSCF v.7.2 starts on 21Jun2024 at 16:12:52 

     This program is part of the open-source Quantum ESPRESSO suite
     for quantum simulation of materials; please cite
         "P. Giannozzi et al., J. Phys.:Condens. Matter 21 395502 (2009);
         "P. Giannozzi et al., J. Phys.:Condens. Matter 29 465901 (2017);
         "P. Giannozzi et al., J. Chem. Phys. 152 154105 (2020);
          URL http://www.quantum-espresso.org", 
     in publications or presentations arising from this work. More details at
     http://www.quantum-espresso.org/quote

     Parallel version (MPI & OpenMP), running on      48 processor cores
     Number of MPI processes:                48
     Threads/MPI process:                     1

     MPI processes distributed on     1 nodes
     180158 MiB available memory on the printing compute node when the environment starts
 
     Reading input from espresso.pwi
Warning: card &CELL ignored
Warning: card / ignored
Warning: card &FCP ignored
Warning: card / ignored
Warning: card &RISM ignored
Warning: card / ignored

     Current dimensions of program PWSCF are:
     Max number of different atomic species (ntypx) = 10
     Max number of k-points (npk) =  40000
     Max angular momentum in pseudopotentials (lmaxx) =  4
     file O.pbe-n-kjpaw_psl.0.1.UPF: wavefunction(s)  2P renormalized
     signal trapping enabled: kill the code with -SIGUSR1 to stop cleanly the simulation 
 
     K-points division:     npool     =       2
     R & G space division:  proc/nbgrp/npool/nimage =      24
     Subspace diagonalization in iterative solution of the eigenvalue problem:
     one sub-group per band group will be used
     scalapack distributed-memory algorithm (size of sub-group:  3*  3 procs)

 
     Parallelization info
     --------------------
     sticks:   dense  smooth     PW     G-vecs:    dense   smooth      PW
     Min         350     175     47                61430    21716    3036
     Max         351     177     48                61449    21727    3041
     Sum        8421    4205   1137              1474595   521381   72913
 
     Using Slab Decomposition
 


     bravais-lattice index     =            0
     lattice parameter (alat)  =      14.8599  a.u.
     unit-cell volume          =    8305.1283 (a.u.)^3
     number of atoms/cell      =           49
     number of atomic types    =            4
     number of electrons       =       425.00
     number of Kohn-Sham states=          256
     kinetic-energy cutoff     =      60.0000  Ry
     charge density cutoff     =     480.0000  Ry
     scf convergence threshold =      1.0E-08
     mixing beta               =       0.1500
     number of iterations used =            8  local-TF  mixing
     Exchange-correlation= PBE
                           (   1   4   3   4   0   0   0)

     celldm(1)=  14.859904  celldm(2)=   0.000000  celldm(3)=   0.000000
     celldm(4)=   0.000000  celldm(5)=   0.000000  celldm(6)=   0.000000

     crystal axes: (cart. coord. in units of alat)
               a(1) = (   1.000000   0.000000   0.000000 )  
               a(2) = (   0.000000   1.000000   0.000000 )  
               a(3) = (   0.000000   0.000000   2.531036 )  

     reciprocal axes: (cart. coord. in units 2 pi/alat)
               b(1) = (  1.000000  0.000000  0.000000 )  
               b(2) = (  0.000000  1.000000  0.000000 )  
               b(3) = (  0.000000  0.000000  0.395095 )  


     PseudoPot. # 1 for Sr read from file:
     /bsuhome/zayahcortright/q-e/pseudo/Sr_pbe_v1.uspp.F.UPF
     MD5 check sum: 6b418c05fbe9db5448babca5e47b7a5b
     Pseudo is Ultrasoft + core correction, Zval = 10.0
     Generated by new atomic code, or converted to UPF format
     Using radial grid of  883 points,  6 beta functions with: 
                l(1) =   0
                l(2) =   0
                l(3) =   1
                l(4) =   1
                l(5) =   2
                l(6) =   2
     Q(r) pseudized with  6 coefficients,  rinner =    1.400   1.400   1.400
                                                       1.400   1.400

     PseudoPot. # 2 for O  read from file:
     /bsuhome/zayahcortright/q-e/pseudo/O.pbe-n-kjpaw_psl.0.1.UPF
     MD5 check sum: 0234752ac141de4415c5fc33072bef88
     Pseudo is Projector augmented-wave + core cor, Zval =  6.0
     Generated using "atomic" code by A. Dal Corso  v.5.0.99 svn rev. 10869
     Shape of augmentation charge: BESSEL
     Using radial grid of 1095 points,  4 beta functions with: 
                l(1) =   0
                l(2) =   0
                l(3) =   1
                l(4) =   1
     Q(r) pseudized with 0 coefficients 


     PseudoPot. # 3 for Co read from file:
     /bsuhome/zayahcortright/q-e/pseudo/Co_pbe_v1.2.uspp.F.UPF
     MD5 check sum: 5f91765df6ddd3222702df6e7b74a16d
     Pseudo is Ultrasoft + core correction, Zval = 17.0
     Generated by new atomic code, or converted to UPF format
     Using radial grid of  863 points,  6 beta functions with: 
                l(1) =   0
                l(2) =   0
                l(3) =   1
                l(4) =   1
                l(5) =   2
                l(6) =   2
     Q(r) pseudized with  8 coefficients,  rinner =    1.200   1.200   1.200
                                                       1.200   1.200

     PseudoPot. # 4 for H  read from file:
     /bsuhome/zayahcortright/q-e/pseudo/H.pbe-rrkjus_psl.1.0.0.UPF
     MD5 check sum: f52b6d4d1c606e5624b1dc7b2218f220
     Pseudo is Ultrasoft, Zval =  1.0
     Generated using "atomic" code by A. Dal Corso  v.5.1
     Using radial grid of  929 points,  2 beta functions with: 
                l(1) =   0
                l(2) =   0
     Q(r) pseudized with 0 coefficients 


     atomic species   valence    mass     pseudopotential
        Sr            10.00    87.62000     Sr( 1.00)
        O              6.00    15.99900     O ( 1.00)
        Co            17.00    58.93319     Co( 1.00)
        H              1.00     1.00800     H ( 1.00)

     No symmetry found


                                    s                        frac. trans.

      isym =  1     identity                                     

 cryst.   s( 1) = (     1          0          0      )
                  (     0          1          0      )
                  (     0          0          1      )

 cart.    s( 1) = (  1.0000000  0.0000000  0.0000000 )
                  (  0.0000000  1.0000000  0.0000000 )
                  (  0.0000000  0.0000000  1.0000000 )


   Cartesian axes

     site n.     atom                  positions (alat units)
         1           Sr  tau(   1) = (   0.2508693   0.7491307   1.7574407  )
         2           O   tau(   2) = (   0.4985141   0.5014859   1.7715967  )
         3           Sr  tau(   3) = (   0.7482398   0.7454518   1.7648669  )
         4           Sr  tau(   4) = (   0.7441748   0.2558252   1.7667843  )
         5           Sr  tau(   5) = (   0.2508693   0.7491307   1.2696799  )
         6           Sr  tau(   6) = (   0.2508693   0.7491307   0.7632319  )
         7           Co  tau(   7) = (   0.4998914   0.5001086   1.0164559  )
         8           Co  tau(   8) = (   0.4936915   0.5063085   1.5135603  )
         9           O   tau(   9) = (   0.4988895   0.7610401   1.0164559  )
        10           O   tau(  10) = (   0.2389599   0.5011105   1.0164559  )
        11           O   tau(  11) = (   0.0070918   0.7374880   1.0164559  )
        12           O   tau(  12) = (   0.0088340   0.7405089   1.5135603  )
        13           O   tau(  13) = (   0.5066944   0.7415376   1.5135603  )
        14           O   tau(  14) = (   0.2584624   0.4933056   1.5135603  )
        15           O   tau(  15) = (   0.4985141   0.5014859   0.7773880  )
        16           O   tau(  16) = (   0.4985141   0.5014859   1.2555238  )
        17           Sr  tau(  17) = (   0.7482398   0.7454518   0.7706582  )
        18           Sr  tau(  18) = (   0.7482398   0.7454518   1.2622536  )
        19           Sr  tau(  19) = (   0.7441748   0.2558252   0.7725755  )
        20           Sr  tau(  20) = (   0.7441748   0.2558252   1.2603363  )
        21           O   tau(  21) = (   0.7322655   0.0078049   1.5135603  )
        22           O   tau(  22) = (   0.7558175   0.4996027   1.5135603  )
        23           O   tau(  23) = (   0.5003973   0.2441825   1.5135603  )
        24           O   tau(  24) = (   0.7527966   0.4978604   1.0164559  )
        25           O   tau(  25) = (   0.5021396   0.2472034   1.0164559  )
        26           O   tau(  26) = (   0.7517679   0.0000000   1.0164559  )
        27           O   tau(  27) = (   0.0114961   0.4948124   1.7455321  )
        28           O   tau(  28) = (   0.0048226   0.0077944   1.7715967  )
        29           Sr  tau(  29) = (   0.2545482   0.2517602   1.7648669  )
        30           O   tau(  30) = (   0.5048017   0.0015068   1.7786929  )
        31           Co  tau(  31) = (   0.0056869   0.5006215   1.0164559  )
        32           Co  tau(  32) = (   0.0065315   0.4997770   1.5135603  )
        33           Co  tau(  33) = (   0.0061999   0.0064171   1.0164559  )
        34           Co  tau(  34) = (   0.0000000   0.0126169   1.5135603  )
        35           O   tau(  35) = (   0.0114961   0.4948124   1.2815885  )
        36           O   tau(  36) = (   0.0114961   0.4948124   0.7513233  )
        37           O   tau(  37) = (   0.0051979   0.2673486   1.0164559  )
        38           O   tau(  38) = (   0.0130029   0.2478461   1.5135603  )
        39           O   tau(  39) = (   0.0048226   0.0077944   0.7773880  )
        40           O   tau(  40) = (   0.0048226   0.0077944   1.2555238  )
        41           Sr  tau(  41) = (   0.2545482   0.2517602   0.7706582  )
        42           Sr  tau(  42) = (   0.2545482   0.2517602   1.2622536  )
        43           Co  tau(  43) = (   0.4989925   0.0073160   1.5135603  )
        44           Co  tau(  44) = (   0.4998370   0.0064714   1.0164559  )
        45           O   tau(  45) = (   0.5048017   0.0015068   0.7844841  )
        46           O   tau(  46) = (   0.5048017   0.0015068   1.2484277  )
        47           O   tau(  47) = (   0.2621260   0.0059111   1.5135603  )
        48           O   tau(  48) = (   0.2591051   0.0041689   1.0164559  )
        49           H   tau(  49) = (   0.2843291   0.7108228   2.1602013  )

   Crystallographic axes

     site n.     atom                  positions (cryst. coord.)
         1           Sr  tau(   1) = (  0.2508693  0.7491307  0.6943562  )
         2           O   tau(   2) = (  0.4985141  0.5014859  0.6999492  )
         3           Sr  tau(   3) = (  0.7482398  0.7454518  0.6972903  )
         4           Sr  tau(   4) = (  0.7441748  0.2558252  0.6980478  )
         5           Sr  tau(   5) = (  0.2508693  0.7491307  0.5016443  )
         6           Sr  tau(   6) = (  0.2508693  0.7491307  0.3015492  )
         7           Co  tau(   7) = (  0.4998914  0.5001086  0.4015968  )
         8           Co  tau(   8) = (  0.4936915  0.5063085  0.5980003  )
         9           O   tau(   9) = (  0.4988895  0.7610401  0.4015968  )
        10           O   tau(  10) = (  0.2389599  0.5011105  0.4015968  )
        11           O   tau(  11) = (  0.0070918  0.7374880  0.4015968  )
        12           O   tau(  12) = (  0.0088340  0.7405089  0.5980003  )
        13           O   tau(  13) = (  0.5066944  0.7415376  0.5980003  )
        14           O   tau(  14) = (  0.2584624  0.4933056  0.5980003  )
        15           O   tau(  15) = (  0.4985141  0.5014859  0.3071422  )
        16           O   tau(  16) = (  0.4985141  0.5014859  0.4960513  )
        17           Sr  tau(  17) = (  0.7482398  0.7454518  0.3044833  )
        18           Sr  tau(  18) = (  0.7482398  0.7454518  0.4987103  )
        19           Sr  tau(  19) = (  0.7441748  0.2558252  0.3052408  )
        20           Sr  tau(  20) = (  0.7441748  0.2558252  0.4979527  )
        21           O   tau(  21) = (  0.7322655  0.0078049  0.5980003  )
        22           O   tau(  22) = (  0.7558175  0.4996027  0.5980003  )
        23           O   tau(  23) = (  0.5003973  0.2441825  0.5980003  )
        24           O   tau(  24) = (  0.7527966  0.4978604  0.4015968  )
        25           O   tau(  25) = (  0.5021396  0.2472034  0.4015968  )
        26           O   tau(  26) = (  0.7517679  0.0000000  0.4015968  )
        27           O   tau(  27) = (  0.0114961  0.4948124  0.6896512  )
        28           O   tau(  28) = (  0.0048226  0.0077944  0.6999492  )
        29           Sr  tau(  29) = (  0.2545482  0.2517602  0.6972903  )
        30           O   tau(  30) = (  0.5048017  0.0015068  0.7027529  )
        31           Co  tau(  31) = (  0.0056869  0.5006215  0.4015968  )
        32           Co  tau(  32) = (  0.0065315  0.4997770  0.5980003  )
        33           Co  tau(  33) = (  0.0061999  0.0064171  0.4015968  )
        34           Co  tau(  34) = (  0.0000000  0.0126169  0.5980003  )
        35           O   tau(  35) = (  0.0114961  0.4948124  0.5063494  )
        36           O   tau(  36) = (  0.0114961  0.4948124  0.2968442  )
        37           O   tau(  37) = (  0.0051979  0.2673486  0.4015968  )
        38           O   tau(  38) = (  0.0130029  0.2478461  0.5980003  )
        39           O   tau(  39) = (  0.0048226  0.0077944  0.3071422  )
        40           O   tau(  40) = (  0.0048226  0.0077944  0.4960513  )
        41           Sr  tau(  41) = (  0.2545482  0.2517602  0.3044833  )
        42           Sr  tau(  42) = (  0.2545482  0.2517602  0.4987103  )
        43           Co  tau(  43) = (  0.4989925  0.0073160  0.5980003  )
        44           Co  tau(  44) = (  0.4998370  0.0064714  0.4015968  )
        45           O   tau(  45) = (  0.5048017  0.0015068  0.3099459  )
        46           O   tau(  46) = (  0.5048017  0.0015068  0.4932477  )
        47           O   tau(  47) = (  0.2621260  0.0059111  0.5980003  )
        48           O   tau(  48) = (  0.2591051  0.0041689  0.4015968  )
        49           H   tau(  49) = (  0.2843291  0.7108228  0.8534850  )

     number of k points=    10  Gaussian smearing, width (Ry)=  0.0700
                       cart. coord. in units 2pi/alat
        k(    1) = (   0.0000000   0.0000000   0.0000000), wk =   0.1250000
        k(    2) = (   0.0000000   0.2500000   0.0000000), wk =   0.2500000
        k(    3) = (   0.0000000  -0.5000000   0.0000000), wk =   0.1250000
        k(    4) = (   0.2500000   0.2500000   0.0000000), wk =   0.2500000
        k(    5) = (   0.2500000  -0.5000000   0.0000000), wk =   0.2500000
        k(    6) = (  -0.5000000  -0.5000000   0.0000000), wk =   0.1250000
        k(    7) = (   0.2500000   0.0000000   0.0000000), wk =   0.2500000
        k(    8) = (  -0.5000000   0.0000000   0.0000000), wk =   0.1250000
        k(    9) = (  -0.2500000   0.2500000   0.0000000), wk =   0.2500000
        k(   10) = (  -0.5000000   0.2500000   0.0000000), wk =   0.2500000

                       cryst. coord.
        k(    1) = (   0.0000000   0.0000000   0.0000000), wk =   0.1250000
        k(    2) = (   0.0000000   0.2500000   0.0000000), wk =   0.2500000
        k(    3) = (   0.0000000  -0.5000000   0.0000000), wk =   0.1250000
        k(    4) = (   0.2500000   0.2500000   0.0000000), wk =   0.2500000
        k(    5) = (   0.2500000  -0.5000000   0.0000000), wk =   0.2500000
        k(    6) = (  -0.5000000  -0.5000000   0.0000000), wk =   0.1250000
        k(    7) = (   0.2500000   0.0000000   0.0000000), wk =   0.2500000
        k(    8) = (  -0.5000000   0.0000000   0.0000000), wk =   0.1250000
        k(    9) = (  -0.2500000   0.2500000   0.0000000), wk =   0.2500000
        k(   10) = (  -0.5000000   0.2500000   0.0000000), wk =   0.2500000

     Dense  grid:  1474595 G-vectors     FFT dimensions: ( 108, 108, 270)

     Smooth grid:   521381 G-vectors     FFT dimensions: (  75,  75, 192)

     Dynamical RAM for                 wfc:      10.61 MB

     Dynamical RAM for     wfc (w. buffer):      63.63 MB

     Dynamical RAM for           str. fact:       3.75 MB

     Dynamical RAM for           local pot:       0.00 MB

     Dynamical RAM for          nlocal pot:      24.28 MB

     Dynamical RAM for                qrad:       7.03 MB

     Dynamical RAM for          rho,v,vnew:       6.02 MB

     Dynamical RAM for               rhoin:       2.01 MB

     Dynamical RAM for            rho*nmix:      15.00 MB

     Dynamical RAM for           G-vectors:       3.68 MB

     Dynamical RAM for          h,s,v(r/c):       1.32 MB

     Dynamical RAM for          <psi|beta>:       2.29 MB

     Dynamical RAM for                 psi:      21.21 MB

     Dynamical RAM for                hpsi:      21.21 MB

     Dynamical RAM for                spsi:      21.21 MB

     Dynamical RAM for      wfcinit/wfcrot:      34.09 MB

     Dynamical RAM for           addusdens:     100.79 MB

     Estimated static dynamical RAM per process >     120.42 MB

     Estimated max dynamical RAM per process >     236.21 MB

     Estimated total dynamical RAM >      10.72 GB

     Check: negative core charge=   -0.000004

     Initial potential from superposition of free atoms

     starting charge     416.5961, renormalised to     425.0000

     negative rho (up, down):  7.826E-01 0.000E+00
     Starting wfcs are  373 randomized atomic wfcs
     Checking if some PAW data can be deallocated... 
       PAW data deallocated on   20 nodes for type:  2

     total cpu time spent up to now is        8.2 secs

     Self-consistent Calculation

     iteration #  1     ecut=    60.00 Ry     beta= 0.15
     Davidson diagonalization with overlap

---- Real-time Memory Report at c_bands before calling an iterative solver
             0 MiB given to the printing process from OS
             0 MiB allocation reported by mallinfo(arena+hblkhd)
        170501 MiB available memory on the node where the printing process lives
------------------
     ethr =  1.00E-02,  avg # of iterations =  2.0

     negative rho (up, down):  7.716E-01 0.000E+00

     total cpu time spent up to now is       22.5 secs

     total energy              =   -4404.71308553 Ry
     estimated scf accuracy    <      42.20587970 Ry

     iteration #  2     ecut=    60.00 Ry     beta= 0.15
     Davidson diagonalization with overlap

---- Real-time Memory Report at c_bands before calling an iterative solver
             0 MiB given to the printing process from OS
             0 MiB allocation reported by mallinfo(arena+hblkhd)
        170718 MiB available memory on the node where the printing process lives
------------------
     ethr =  9.93E-03,  avg # of iterations =  1.0

     negative rho (up, down):  7.532E-01 0.000E+00

     total cpu time spent up to now is       34.6 secs

     total energy              =   -4400.04582111 Ry
     estimated scf accuracy    <      26.53077202 Ry

     iteration #  3     ecut=    60.00 Ry     beta= 0.15
     Davidson diagonalization with overlap

---- Real-time Memory Report at c_bands before calling an iterative solver
             0 MiB given to the printing process from OS
             0 MiB allocation reported by mallinfo(arena+hblkhd)
        169975 MiB available memory on the node where the printing process lives
------------------
     ethr =  6.24E-03,  avg # of iterations =  2.0

     negative rho (up, down):  7.544E-01 0.000E+00

     total cpu time spent up to now is       47.9 secs

     total energy              =   -4402.37624687 Ry
     estimated scf accuracy    <      48.86991502 Ry

     iteration #  4     ecut=    60.00 Ry     beta= 0.15
     Davidson diagonalization with overlap

---- Real-time Memory Report at c_bands before calling an iterative solver
             0 MiB given to the printing process from OS
             0 MiB allocation reported by mallinfo(arena+hblkhd)
        169842 MiB available memory on the node where the printing process lives
------------------
     ethr =  6.24E-03,  avg # of iterations =  1.0

     negative rho (up, down):  7.410E-01 0.000E+00

     total cpu time spent up to now is       60.1 secs

     total energy              =   -4401.63068625 Ry
     estimated scf accuracy    <      29.18026545 Ry

     iteration #  5     ecut=    60.00 Ry     beta= 0.15
     Davidson diagonalization with overlap

---- Real-time Memory Report at c_bands before calling an iterative solver
             0 MiB given to the printing process from OS
             0 MiB allocation reported by mallinfo(arena+hblkhd)
        169821 MiB available memory on the node where the printing process lives
------------------
     ethr =  6.24E-03,  avg # of iterations =  1.0

     negative rho (up, down):  7.474E-01 0.000E+00

     total cpu time spent up to now is       72.5 secs

     total energy              =   -4399.72243526 Ry
     estimated scf accuracy    <      43.96563949 Ry

     iteration #  6     ecut=    60.00 Ry     beta= 0.15
     Davidson diagonalization with overlap

---- Real-time Memory Report at c_bands before calling an iterative solver
             0 MiB given to the printing process from OS
             0 MiB allocation reported by mallinfo(arena+hblkhd)
        169789 MiB available memory on the node where the printing process lives
------------------
     ethr =  6.24E-03,  avg # of iterations =  1.0

     negative rho (up, down):  7.424E-01 0.000E+00

     total cpu time spent up to now is       84.6 secs

     total energy              =   -4400.64860574 Ry
     estimated scf accuracy    <      12.25871380 Ry

     iteration #  7     ecut=    60.00 Ry     beta= 0.15
     Davidson diagonalization with overlap

---- Real-time Memory Report at c_bands before calling an iterative solver
             0 MiB given to the printing process from OS
             0 MiB allocation reported by mallinfo(arena+hblkhd)
        169772 MiB available memory on the node where the printing process lives
------------------
     ethr =  2.88E-03,  avg # of iterations =  1.1

     negative rho (up, down):  7.445E-01 0.000E+00

     total cpu time spent up to now is       96.7 secs

     total energy              =   -4400.82864383 Ry
     estimated scf accuracy    <       3.95669031 Ry

     iteration #  8     ecut=    60.00 Ry     beta= 0.15
     Davidson diagonalization with overlap

---- Real-time Memory Report at c_bands before calling an iterative solver
             0 MiB given to the printing process from OS
             0 MiB allocation reported by mallinfo(arena+hblkhd)
        169752 MiB available memory on the node where the printing process lives
------------------
     ethr =  9.31E-04,  avg # of iterations =  1.6

     negative rho (up, down):  7.541E-01 0.000E+00

     total cpu time spent up to now is      109.2 secs

     total energy              =   -4400.30466998 Ry
     estimated scf accuracy    <       3.20334733 Ry

     iteration #  9     ecut=    60.00 Ry     beta= 0.15
     Davidson diagonalization with overlap

---- Real-time Memory Report at c_bands before calling an iterative solver
             0 MiB given to the printing process from OS
             0 MiB allocation reported by mallinfo(arena+hblkhd)
        169730 MiB available memory on the node where the printing process lives
------------------
     ethr =  7.54E-04,  avg # of iterations =  5.6

     negative rho (up, down):  7.750E-01 0.000E+00

     total cpu time spent up to now is      125.0 secs

     total energy              =   -4399.71665095 Ry
     estimated scf accuracy    <      45.19824132 Ry

     iteration # 10     ecut=    60.00 Ry     beta= 0.15
     Davidson diagonalization with overlap

---- Real-time Memory Report at c_bands before calling an iterative solver
             0 MiB given to the printing process from OS
             0 MiB allocation reported by mallinfo(arena+hblkhd)
        169612 MiB available memory on the node where the printing process lives
------------------
     ethr =  7.54E-04,  avg # of iterations =  9.7

     negative rho (up, down):  7.773E-01 0.000E+00

     total cpu time spent up to now is      143.5 secs

     total energy              =   -4399.87965113 Ry
     estimated scf accuracy    <      11.37694053 Ry

     iteration # 11     ecut=    60.00 Ry     beta= 0.15
     Davidson diagonalization with overlap

---- Real-time Memory Report at c_bands before calling an iterative solver
             0 MiB given to the printing process from OS
             0 MiB allocation reported by mallinfo(arena+hblkhd)
        169207 MiB available memory on the node where the printing process lives
------------------
     ethr =  7.54E-04,  avg # of iterations =  1.1

     negative rho (up, down):  7.810E-01 0.000E+00

     total cpu time spent up to now is      156.0 secs

     total energy              =   -4400.12071128 Ry
     estimated scf accuracy    <       1.60746421 Ry

     iteration # 12     ecut=    60.00 Ry     beta= 0.15
     Davidson diagonalization with overlap

---- Real-time Memory Report at c_bands before calling an iterative solver
             0 MiB given to the printing process from OS
             0 MiB allocation reported by mallinfo(arena+hblkhd)
        169188 MiB available memory on the node where the printing process lives
------------------
     ethr =  3.78E-04,  avg # of iterations =  1.0

     negative rho (up, down):  7.887E-01 0.000E+00

     total cpu time spent up to now is      168.2 secs

     total energy              =   -4400.11249285 Ry
     estimated scf accuracy    <       0.81450028 Ry

     iteration # 13     ecut=    60.00 Ry     beta= 0.15
     Davidson diagonalization with overlap

---- Real-time Memory Report at c_bands before calling an iterative solver
             0 MiB given to the printing process from OS
             0 MiB allocation reported by mallinfo(arena+hblkhd)
        169261 MiB available memory on the node where the printing process lives
------------------
     ethr =  1.92E-04,  avg # of iterations =  4.7

     negative rho (up, down):  7.982E-01 0.000E+00

     total cpu time spent up to now is      182.9 secs

     total energy              =   -4400.11540816 Ry
     estimated scf accuracy    <       1.84103572 Ry

     iteration # 14     ecut=    60.00 Ry     beta= 0.15
     Davidson diagonalization with overlap

---- Real-time Memory Report at c_bands before calling an iterative solver
             0 MiB given to the printing process from OS
             0 MiB allocation reported by mallinfo(arena+hblkhd)
        169252 MiB available memory on the node where the printing process lives
------------------
     ethr =  1.92E-04,  avg # of iterations =  2.7

     negative rho (up, down):  8.038E-01 0.000E+00

     total cpu time spent up to now is      197.1 secs

     total energy              =   -4400.01776366 Ry
     estimated scf accuracy    <       1.92586538 Ry

     iteration # 15     ecut=    60.00 Ry     beta= 0.15
     Davidson diagonalization with overlap

---- Real-time Memory Report at c_bands before calling an iterative solver
             0 MiB given to the printing process from OS
             0 MiB allocation reported by mallinfo(arena+hblkhd)
        169239 MiB available memory on the node where the printing process lives
------------------
     ethr =  1.92E-04,  avg # of iterations =  3.5

     negative rho (up, down):  8.087E-01 0.000E+00

     total cpu time spent up to now is      211.4 secs

     total energy              =   -4400.05033162 Ry
     estimated scf accuracy    <       0.38182182 Ry

     iteration # 16     ecut=    60.00 Ry     beta= 0.15
     Davidson diagonalization with overlap

---- Real-time Memory Report at c_bands before calling an iterative solver
             0 MiB given to the printing process from OS
             0 MiB allocation reported by mallinfo(arena+hblkhd)
        169243 MiB available memory on the node where the printing process lives
------------------
     c_bands:  2 eigenvalues not converged
     ethr =  8.98E-05,  avg # of iterations = 14.2

     negative rho (up, down):  8.123E-01 0.000E+00

     total cpu time spent up to now is      230.6 secs

     total energy              =   -4400.03212753 Ry
     estimated scf accuracy    <       0.31650563 Ry

     iteration # 17     ecut=    60.00 Ry     beta= 0.15
     Davidson diagonalization with overlap

---- Real-time Memory Report at c_bands before calling an iterative solver
             0 MiB given to the printing process from OS
             0 MiB allocation reported by mallinfo(arena+hblkhd)
        169217 MiB available memory on the node where the printing process lives
------------------
     ethr =  7.45E-05,  avg # of iterations =  2.1

     negative rho (up, down):  8.184E-01 0.000E+00

     total cpu time spent up to now is      244.6 secs

     total energy              =   -4399.95646505 Ry
     estimated scf accuracy    <       0.26460903 Ry

     iteration # 18     ecut=    60.00 Ry     beta= 0.15
     Davidson diagonalization with overlap

---- Real-time Memory Report at c_bands before calling an iterative solver
             0 MiB given to the printing process from OS
             0 MiB allocation reported by mallinfo(arena+hblkhd)
        169211 MiB available memory on the node where the printing process lives
------------------
     c_bands:  1 eigenvalues not converged
     ethr =  6.23E-05,  avg # of iterations = 13.7

     negative rho (up, down):  8.212E-01 0.000E+00

     total cpu time spent up to now is      264.0 secs

     total energy              =   -4399.94790508 Ry
     estimated scf accuracy    <       0.37611185 Ry

     iteration # 19     ecut=    60.00 Ry     beta= 0.15
     Davidson diagonalization with overlap

---- Real-time Memory Report at c_bands before calling an iterative solver
             0 MiB given to the printing process from OS
             0 MiB allocation reported by mallinfo(arena+hblkhd)
        169153 MiB available memory on the node where the printing process lives
------------------
     ethr =  6.23E-05,  avg # of iterations =  3.6

     negative rho (up, down):  8.198E-01 0.000E+00

     total cpu time spent up to now is      278.5 secs

     total energy              =   -4399.95133732 Ry
     estimated scf accuracy    <       0.11102304 Ry

     iteration # 20     ecut=    60.00 Ry     beta= 0.15
     Davidson diagonalization with overlap

---- Real-time Memory Report at c_bands before calling an iterative solver
             0 MiB given to the printing process from OS
             0 MiB allocation reported by mallinfo(arena+hblkhd)
        169107 MiB available memory on the node where the printing process lives
------------------
     ethr =  2.61E-05,  avg # of iterations =  5.9

     negative rho (up, down):  8.199E-01 0.000E+00

     total cpu time spent up to now is      294.4 secs

     total energy              =   -4399.93967245 Ry
     estimated scf accuracy    <       0.09155724 Ry

     iteration # 21     ecut=    60.00 Ry     beta= 0.15
     Davidson diagonalization with overlap

---- Real-time Memory Report at c_bands before calling an iterative solver
             0 MiB given to the printing process from OS
             0 MiB allocation reported by mallinfo(arena+hblkhd)
        169134 MiB available memory on the node where the printing process lives
------------------
     ethr =  2.15E-05,  avg # of iterations =  8.6

     negative rho (up, down):  8.129E-01 0.000E+00

     total cpu time spent up to now is      311.6 secs

     total energy              =   -4399.92657925 Ry
     estimated scf accuracy    <       0.06415787 Ry

     iteration # 22     ecut=    60.00 Ry     beta= 0.15
     Davidson diagonalization with overlap

---- Real-time Memory Report at c_bands before calling an iterative solver
             0 MiB given to the printing process from OS
             0 MiB allocation reported by mallinfo(arena+hblkhd)
        169145 MiB available memory on the node where the printing process lives
------------------
     ethr =  1.51E-05,  avg # of iterations = 11.5

     negative rho (up, down):  8.062E-01 0.000E+00

     total cpu time spent up to now is      330.8 secs

     total energy              =   -4399.92629855 Ry
     estimated scf accuracy    <       0.02922713 Ry

     iteration # 23     ecut=    60.00 Ry     beta= 0.15
     Davidson diagonalization with overlap

---- Real-time Memory Report at c_bands before calling an iterative solver
             0 MiB given to the printing process from OS
             0 MiB allocation reported by mallinfo(arena+hblkhd)
        168966 MiB available memory on the node where the printing process lives
------------------
     ethr =  6.88E-06,  avg # of iterations =  7.2

     negative rho (up, down):  7.999E-01 0.000E+00

     total cpu time spent up to now is      346.6 secs

     total energy              =   -4399.92407715 Ry
     estimated scf accuracy    <       0.01965526 Ry

     iteration # 24     ecut=    60.00 Ry     beta= 0.15
     Davidson diagonalization with overlap

---- Real-time Memory Report at c_bands before calling an iterative solver
             0 MiB given to the printing process from OS
             0 MiB allocation reported by mallinfo(arena+hblkhd)
        169010 MiB available memory on the node where the printing process lives
------------------
     c_bands:  1 eigenvalues not converged
     ethr =  4.62E-06,  avg # of iterations = 10.9

     negative rho (up, down):  7.964E-01 0.000E+00

     total cpu time spent up to now is      365.3 secs

     total energy              =   -4399.92401536 Ry
     estimated scf accuracy    <       0.01152874 Ry

     iteration # 25     ecut=    60.00 Ry     beta= 0.15
     Davidson diagonalization with overlap

---- Real-time Memory Report at c_bands before calling an iterative solver
             0 MiB given to the printing process from OS
             0 MiB allocation reported by mallinfo(arena+hblkhd)
        168964 MiB available memory on the node where the printing process lives
------------------
     ethr =  2.71E-06,  avg # of iterations =  2.0

     negative rho (up, down):  7.969E-01 0.000E+00

     total cpu time spent up to now is      379.2 secs

     total energy              =   -4399.92367004 Ry
     estimated scf accuracy    <       0.00875950 Ry

     iteration # 26     ecut=    60.00 Ry     beta= 0.15
     Davidson diagonalization with overlap

---- Real-time Memory Report at c_bands before calling an iterative solver
             0 MiB given to the printing process from OS
             0 MiB allocation reported by mallinfo(arena+hblkhd)
        169018 MiB available memory on the node where the printing process lives
------------------
     ethr =  2.06E-06,  avg # of iterations =  3.8

     negative rho (up, down):  7.938E-01 0.000E+00

     total cpu time spent up to now is      393.6 secs

     total energy              =   -4399.92314624 Ry
     estimated scf accuracy    <       0.00599664 Ry

     iteration # 27     ecut=    60.00 Ry     beta= 0.15
     Davidson diagonalization with overlap

---- Real-time Memory Report at c_bands before calling an iterative solver
             0 MiB given to the printing process from OS
             0 MiB allocation reported by mallinfo(arena+hblkhd)
        169030 MiB available memory on the node where the printing process lives
------------------
     ethr =  1.41E-06,  avg # of iterations =  6.4

     negative rho (up, down):  7.948E-01 0.000E+00

     total cpu time spent up to now is      409.0 secs

     total energy              =   -4399.92308644 Ry
     estimated scf accuracy    <       0.00311953 Ry

     iteration # 28     ecut=    60.00 Ry     beta= 0.15
     Davidson diagonalization with overlap

---- Real-time Memory Report at c_bands before calling an iterative solver
             0 MiB given to the printing process from OS
             0 MiB allocation reported by mallinfo(arena+hblkhd)
        169030 MiB available memory on the node where the printing process lives
------------------
     ethr =  7.34E-07,  avg # of iterations =  4.1

     negative rho (up, down):  7.946E-01 0.000E+00

     total cpu time spent up to now is      423.5 secs

     total energy              =   -4399.92278560 Ry
     estimated scf accuracy    <       0.00172393 Ry

     iteration # 29     ecut=    60.00 Ry     beta= 0.15
     Davidson diagonalization with overlap

---- Real-time Memory Report at c_bands before calling an iterative solver
             0 MiB given to the printing process from OS
             0 MiB allocation reported by mallinfo(arena+hblkhd)
        169029 MiB available memory on the node where the printing process lives
------------------
     c_bands:  1 eigenvalues not converged
     ethr =  4.06E-07,  avg # of iterations = 10.8

     negative rho (up, down):  7.961E-01 0.000E+00

     total cpu time spent up to now is      442.8 secs

     total energy              =   -4399.92282377 Ry
     estimated scf accuracy    <       0.00049163 Ry

     iteration # 30     ecut=    60.00 Ry     beta= 0.15
     Davidson diagonalization with overlap

---- Real-time Memory Report at c_bands before calling an iterative solver
             0 MiB given to the printing process from OS
             0 MiB allocation reported by mallinfo(arena+hblkhd)
        168908 MiB available memory on the node where the printing process lives
------------------
     ethr =  1.16E-07,  avg # of iterations =  6.3

     negative rho (up, down):  7.952E-01 0.000E+00

     total cpu time spent up to now is      458.6 secs

     total energy              =   -4399.92281807 Ry
     estimated scf accuracy    <       0.00021424 Ry

     iteration # 31     ecut=    60.00 Ry     beta= 0.15
     Davidson diagonalization with overlap

---- Real-time Memory Report at c_bands before calling an iterative solver
             0 MiB given to the printing process from OS
             0 MiB allocation reported by mallinfo(arena+hblkhd)
        168926 MiB available memory on the node where the printing process lives
------------------
     ethr =  5.04E-08,  avg # of iterations =  2.2

     negative rho (up, down):  7.944E-01 0.000E+00

     total cpu time spent up to now is      472.2 secs

     total energy              =   -4399.92281384 Ry
     estimated scf accuracy    <       0.00013257 Ry

     iteration # 32     ecut=    60.00 Ry     beta= 0.15
     Davidson diagonalization with overlap

---- Real-time Memory Report at c_bands before calling an iterative solver
             0 MiB given to the printing process from OS
             0 MiB allocation reported by mallinfo(arena+hblkhd)
        168925 MiB available memory on the node where the printing process lives
------------------
     ethr =  3.12E-08,  avg # of iterations =  2.5

     negative rho (up, down):  7.936E-01 0.000E+00

     total cpu time spent up to now is      485.8 secs

     total energy              =   -4399.92281641 Ry
     estimated scf accuracy    <       0.00010412 Ry

     iteration # 33     ecut=    60.00 Ry     beta= 0.15
     Davidson diagonalization with overlap

---- Real-time Memory Report at c_bands before calling an iterative solver
             0 MiB given to the printing process from OS
             0 MiB allocation reported by mallinfo(arena+hblkhd)
        168930 MiB available memory on the node where the printing process lives
------------------
     ethr =  2.45E-08,  avg # of iterations =  2.0

     negative rho (up, down):  7.929E-01 0.000E+00

     total cpu time spent up to now is      499.2 secs

     total energy              =   -4399.92282461 Ry
     estimated scf accuracy    <       0.00008438 Ry

     iteration # 34     ecut=    60.00 Ry     beta= 0.15
     Davidson diagonalization with overlap

---- Real-time Memory Report at c_bands before calling an iterative solver
             0 MiB given to the printing process from OS
             0 MiB allocation reported by mallinfo(arena+hblkhd)
        168954 MiB available memory on the node where the printing process lives
------------------
     ethr =  1.99E-08,  avg # of iterations =  2.5

     negative rho (up, down):  7.927E-01 0.000E+00

     total cpu time spent up to now is      512.8 secs

     total energy              =   -4399.92282358 Ry
     estimated scf accuracy    <       0.00006216 Ry

     iteration # 35     ecut=    60.00 Ry     beta= 0.15
     Davidson diagonalization with overlap

---- Real-time Memory Report at c_bands before calling an iterative solver
             0 MiB given to the printing process from OS
             0 MiB allocation reported by mallinfo(arena+hblkhd)
        168951 MiB available memory on the node where the printing process lives
------------------
     ethr =  1.46E-08,  avg # of iterations =  3.0

     negative rho (up, down):  7.925E-01 0.000E+00

     total cpu time spent up to now is      526.6 secs

     total energy              =   -4399.92281756 Ry
     estimated scf accuracy    <       0.00005179 Ry

     iteration # 36     ecut=    60.00 Ry     beta= 0.15
     Davidson diagonalization with overlap

---- Real-time Memory Report at c_bands before calling an iterative solver
             0 MiB given to the printing process from OS
             0 MiB allocation reported by mallinfo(arena+hblkhd)
        168967 MiB available memory on the node where the printing process lives
------------------
     ethr =  1.22E-08,  avg # of iterations =  5.2

     negative rho (up, down):  7.924E-01 0.000E+00

     total cpu time spent up to now is      540.9 secs

     total energy              =   -4399.92281749 Ry
     estimated scf accuracy    <       0.00002530 Ry

     iteration # 37     ecut=    60.00 Ry     beta= 0.15
     Davidson diagonalization with overlap

---- Real-time Memory Report at c_bands before calling an iterative solver
             0 MiB given to the printing process from OS
             0 MiB allocation reported by mallinfo(arena+hblkhd)
        168980 MiB available memory on the node where the printing process lives
------------------
     ethr =  5.95E-09,  avg # of iterations =  2.1

     negative rho (up, down):  7.922E-01 0.000E+00

     total cpu time spent up to now is      554.5 secs

     total energy              =   -4399.92282145 Ry
     estimated scf accuracy    <       0.00001795 Ry

     iteration # 38     ecut=    60.00 Ry     beta= 0.15
     Davidson diagonalization with overlap

---- Real-time Memory Report at c_bands before calling an iterative solver
             0 MiB given to the printing process from OS
             0 MiB allocation reported by mallinfo(arena+hblkhd)
        168988 MiB available memory on the node where the printing process lives
------------------
     ethr =  4.22E-09,  avg # of iterations =  2.8

     negative rho (up, down):  7.922E-01 0.000E+00

     total cpu time spent up to now is      568.3 secs

     total energy              =   -4399.92282288 Ry
     estimated scf accuracy    <       0.00000906 Ry

     iteration # 39     ecut=    60.00 Ry     beta= 0.15
     Davidson diagonalization with overlap

---- Real-time Memory Report at c_bands before calling an iterative solver
             0 MiB given to the printing process from OS
             0 MiB allocation reported by mallinfo(arena+hblkhd)
        168987 MiB available memory on the node where the printing process lives
------------------
     ethr =  2.13E-09,  avg # of iterations =  2.1

     negative rho (up, down):  7.922E-01 0.000E+00

     total cpu time spent up to now is      581.7 secs

     total energy              =   -4399.92282418 Ry
     estimated scf accuracy    <       0.00000675 Ry

     iteration # 40     ecut=    60.00 Ry     beta= 0.15
     Davidson diagonalization with overlap

---- Real-time Memory Report at c_bands before calling an iterative solver
             0 MiB given to the printing process from OS
             0 MiB allocation reported by mallinfo(arena+hblkhd)
        168988 MiB available memory on the node where the printing process lives
------------------
     ethr =  1.59E-09,  avg # of iterations =  2.3

     negative rho (up, down):  7.923E-01 0.000E+00

     total cpu time spent up to now is      595.1 secs

     total energy              =   -4399.92282750 Ry
     estimated scf accuracy    <       0.00000518 Ry

     iteration # 41     ecut=    60.00 Ry     beta= 0.15
     Davidson diagonalization with overlap

---- Real-time Memory Report at c_bands before calling an iterative solver
             0 MiB given to the printing process from OS
             0 MiB allocation reported by mallinfo(arena+hblkhd)
        168990 MiB available memory on the node where the printing process lives
------------------
     ethr =  1.22E-09,  avg # of iterations =  2.2

     negative rho (up, down):  7.925E-01 0.000E+00

     total cpu time spent up to now is      608.5 secs

     total energy              =   -4399.92283434 Ry
     estimated scf accuracy    <       0.00000359 Ry

     iteration # 42     ecut=    60.00 Ry     beta= 0.15
     Davidson diagonalization with overlap

---- Real-time Memory Report at c_bands before calling an iterative solver
             0 MiB given to the printing process from OS
             0 MiB allocation reported by mallinfo(arena+hblkhd)
        168992 MiB available memory on the node where the printing process lives
------------------
     c_bands:  1 eigenvalues not converged
     ethr =  8.44E-10,  avg # of iterations =  7.6

     negative rho (up, down):  7.925E-01 0.000E+00

     total cpu time spent up to now is      623.9 secs

     total energy              =   -4399.92283477 Ry
     estimated scf accuracy    <       0.00000148 Ry

     iteration # 43     ecut=    60.00 Ry     beta= 0.15
     Davidson diagonalization with overlap

---- Real-time Memory Report at c_bands before calling an iterative solver
             0 MiB given to the printing process from OS
             0 MiB allocation reported by mallinfo(arena+hblkhd)
        168970 MiB available memory on the node where the printing process lives
------------------
     ethr =  3.47E-10,  avg # of iterations =  2.8

     negative rho (up, down):  7.925E-01 0.000E+00

     total cpu time spent up to now is      637.7 secs

     total energy              =   -4399.92283473 Ry
     estimated scf accuracy    <       0.00000096 Ry

     iteration # 44     ecut=    60.00 Ry     beta= 0.15
     Davidson diagonalization with overlap

---- Real-time Memory Report at c_bands before calling an iterative solver
             0 MiB given to the printing process from OS
             0 MiB allocation reported by mallinfo(arena+hblkhd)
        168994 MiB available memory on the node where the printing process lives
------------------
     ethr =  2.27E-10,  avg # of iterations =  2.1

     negative rho (up, down):  7.925E-01 0.000E+00

     total cpu time spent up to now is      651.0 secs

     total energy              =   -4399.92283465 Ry
     estimated scf accuracy    <       0.00000078 Ry

     iteration # 45     ecut=    60.00 Ry     beta= 0.15
     Davidson diagonalization with overlap

---- Real-time Memory Report at c_bands before calling an iterative solver
             0 MiB given to the printing process from OS
             0 MiB allocation reported by mallinfo(arena+hblkhd)
        168995 MiB available memory on the node where the printing process lives
------------------
     ethr =  1.84E-10,  avg # of iterations =  2.2

     negative rho (up, down):  7.925E-01 0.000E+00

     total cpu time spent up to now is      664.7 secs

     total energy              =   -4399.92283469 Ry
     estimated scf accuracy    <       0.00000048 Ry

     iteration # 46     ecut=    60.00 Ry     beta= 0.15
     Davidson diagonalization with overlap

---- Real-time Memory Report at c_bands before calling an iterative solver
             0 MiB given to the printing process from OS
             0 MiB allocation reported by mallinfo(arena+hblkhd)
        168997 MiB available memory on the node where the printing process lives
------------------
     ethr =  1.12E-10,  avg # of iterations =  1.1

     negative rho (up, down):  7.925E-01 0.000E+00

     total cpu time spent up to now is      677.2 secs

     total energy              =   -4399.92283475 Ry
     estimated scf accuracy    <       0.00000040 Ry

     iteration # 47     ecut=    60.00 Ry     beta= 0.15
     Davidson diagonalization with overlap

---- Real-time Memory Report at c_bands before calling an iterative solver
             0 MiB given to the printing process from OS
             0 MiB allocation reported by mallinfo(arena+hblkhd)
        168999 MiB available memory on the node where the printing process lives
------------------
     ethr =  9.34E-11,  avg # of iterations =  1.7

     negative rho (up, down):  7.925E-01 0.000E+00

     total cpu time spent up to now is      690.3 secs

     total energy              =   -4399.92283496 Ry
     estimated scf accuracy    <       0.00000034 Ry

     iteration # 48     ecut=    60.00 Ry     beta= 0.15
     Davidson diagonalization with overlap

---- Real-time Memory Report at c_bands before calling an iterative solver
             0 MiB given to the printing process from OS
             0 MiB allocation reported by mallinfo(arena+hblkhd)
        169002 MiB available memory on the node where the printing process lives
------------------
     ethr =  7.99E-11,  avg # of iterations =  3.2

     negative rho (up, down):  7.925E-01 0.000E+00

     total cpu time spent up to now is      704.2 secs

     total energy              =   -4399.92283499 Ry
     estimated scf accuracy    <       0.00000015 Ry

     iteration # 49     ecut=    60.00 Ry     beta= 0.15
     Davidson diagonalization with overlap

---- Real-time Memory Report at c_bands before calling an iterative solver
             0 MiB given to the printing process from OS
             0 MiB allocation reported by mallinfo(arena+hblkhd)
        169010 MiB available memory on the node where the printing process lives
------------------
     ethr =  3.45E-11,  avg # of iterations =  1.8

     negative rho (up, down):  7.925E-01 0.000E+00

     total cpu time spent up to now is      717.6 secs

     total energy              =   -4399.92283498 Ry
     estimated scf accuracy    <       0.00000010 Ry

     iteration # 50     ecut=    60.00 Ry     beta= 0.15
     Davidson diagonalization with overlap

---- Real-time Memory Report at c_bands before calling an iterative solver
             0 MiB given to the printing process from OS
             0 MiB allocation reported by mallinfo(arena+hblkhd)
        169010 MiB available memory on the node where the printing process lives
------------------
     ethr =  2.31E-11,  avg # of iterations =  2.1

     negative rho (up, down):  7.924E-01 0.000E+00

     total cpu time spent up to now is      731.0 secs

     total energy              =   -4399.92283503 Ry
     estimated scf accuracy    <       0.00000006 Ry

     iteration # 51     ecut=    60.00 Ry     beta= 0.15
     Davidson diagonalization with overlap

---- Real-time Memory Report at c_bands before calling an iterative solver
             0 MiB given to the printing process from OS
             0 MiB allocation reported by mallinfo(arena+hblkhd)
        169010 MiB available memory on the node where the printing process lives
------------------
     ethr =  1.51E-11,  avg # of iterations =  2.8

     negative rho (up, down):  7.924E-01 0.000E+00

     total cpu time spent up to now is      744.9 secs

     total energy              =   -4399.92283502 Ry
     estimated scf accuracy    <       0.00000003 Ry

     iteration # 52     ecut=    60.00 Ry     beta= 0.15
     Davidson diagonalization with overlap

---- Real-time Memory Report at c_bands before calling an iterative solver
             0 MiB given to the printing process from OS
             0 MiB allocation reported by mallinfo(arena+hblkhd)
        169007 MiB available memory on the node where the printing process lives
------------------
     ethr =  7.60E-12,  avg # of iterations =  2.2

     negative rho (up, down):  7.924E-01 0.000E+00

     total cpu time spent up to now is      758.5 secs

     total energy              =   -4399.92283502 Ry
     estimated scf accuracy    <       0.00000001 Ry

     iteration # 53     ecut=    60.00 Ry     beta= 0.15
     Davidson diagonalization with overlap

---- Real-time Memory Report at c_bands before calling an iterative solver
             0 MiB given to the printing process from OS
             0 MiB allocation reported by mallinfo(arena+hblkhd)
        169006 MiB available memory on the node where the printing process lives
------------------
     ethr =  2.90E-12,  avg # of iterations =  2.3

     negative rho (up, down):  7.925E-01 0.000E+00

     total cpu time spent up to now is      771.7 secs

     End of self-consistent calculation

          k = 0.0000 0.0000 0.0000 ( 65197 PWs)   bands (ev):

   -92.7372 -92.6852 -92.5913 -92.5434 -92.4869 -92.4438 -92.4262 -92.3037
   -56.0907 -56.0718 -55.9485 -55.9379 -55.9307 -55.9247 -55.8894 -55.8605
   -55.8448 -55.8434 -55.8357 -55.7938 -55.7743 -55.7384 -55.7177 -55.6864
   -55.6789 -55.6319 -55.6300 -55.6290 -55.6206 -55.5785 -55.5566 -55.4702
   -31.3126 -31.2926 -31.1523 -31.1489 -31.1064 -31.0648 -30.8339 -30.6209
   -29.8841 -29.8404 -29.8169 -29.7069 -15.1173 -15.0720 -14.9932 -14.8628
   -14.6703 -14.5459 -14.2538 -14.2381 -14.2044 -14.1622 -14.1181 -14.1072
   -14.0935 -14.0747 -14.0437 -14.0243 -13.9659 -13.8159 -13.6383 -13.6032
   -13.5723 -13.5427 -13.5246 -13.4721 -13.4379 -13.3568 -13.2858 -13.1802
   -13.1606 -13.1449 -13.1270 -13.1098 -13.0930 -13.0634 -13.0407 -13.0238
   -12.9986 -12.9750 -12.9625 -12.9562 -12.9371 -12.9308 -12.8272 -12.8004
   -12.7915 -12.6048 -12.5775 -12.5248 -12.3776 -12.2318 -12.0448 -11.9721
   -11.8973 -11.8231 -11.8129 -11.7893 -11.7721 -11.7083 -11.6915 -11.6557
   -11.6279 -11.5159 -11.4362 -11.4325  -2.9779  -2.7455  -2.5160  -2.3689
    -2.3060  -2.1639  -1.8566  -1.8425  -1.8229  -1.7383  -1.7187  -1.6509
    -1.6349  -1.5933  -1.5501  -1.3674  -1.1437  -1.1132  -0.9670  -0.9527
    -0.9046  -0.8889  -0.8429  -0.8259  -0.7700  -0.7434  -0.6697  -0.6589
    -0.5830  -0.4509  -0.4382  -0.4102  -0.3282  -0.3061  -0.3000  -0.2378
    -0.1634  -0.1179  -0.0686  -0.0413   0.0230   0.0931   0.1443   0.1642
     0.1769   0.4335   0.4508   0.6208   0.6882   0.7536   0.7982   0.8860
     0.9004   0.9148   0.9866   1.0130   1.0488   1.1054   1.2374   1.2959
     1.3167   1.3364   1.3491   1.4139   1.4851   1.5913   1.6039   1.6683
     1.6790   1.7220   1.7393   1.7489   1.8049   1.8584   1.8685   1.9081
     1.9428   1.9900   2.1205   2.2083   2.2496   2.2628   2.4161   2.4289
     2.4751   2.4769   2.5848   2.6207   2.6473   2.6659   2.6808   2.7371
     2.7775   2.8718   2.9033   2.9156   2.9221   2.9889   2.9945   3.0167
     3.0248   3.0332   3.0451   3.0528   3.0661   3.0719   3.0835   3.0926
     3.1030   3.1208   3.1415   3.1467   3.1589   3.1897   3.3000   3.3944
     4.0732   4.3912   4.7341   4.8495   5.0036   5.8291   5.8997   5.9465
     5.9688   6.2778   6.3250   6.4634   6.4727   6.7440   6.9857   7.0763
     7.2022   7.2847   7.5478   7.5962   7.6366   7.6422   7.6621   7.8785
     7.9554   8.0890   8.1570   8.2038   8.2282   8.5819   8.8569   8.8622

     occupation numbers 
     1.0000   1.0000   1.0000   1.0000   1.0000   1.0000   1.0000   1.0000
     1.0000   1.0000   1.0000   1.0000   1.0000   1.0000   1.0000   1.0000
     1.0000   1.0000   1.0000   1.0000   1.0000   1.0000   1.0000   1.0000
     1.0000   1.0000   1.0000   1.0000   1.0000   1.0000   1.0000   1.0000
     1.0000   1.0000   1.0000   1.0000   1.0000   1.0000   1.0000   1.0000
     1.0000   1.0000   1.0000   1.0000   1.0000   1.0000   1.0000   1.0000
     1.0000   1.0000   1.0000   1.0000   1.0000   1.0000   1.0000   1.0000
     1.0000   1.0000   1.0000   1.0000   1.0000   1.0000   1.0000   1.0000
     1.0000   1.0000   1.0000   1.0000   1.0000   1.0000   1.0000   1.0000
     1.0000   1.0000   1.0000   1.0000   1.0000   1.0000   1.0000   1.0000
     1.0000   1.0000   1.0000   1.0000   1.0000   1.0000   1.0000   1.0000
     1.0000   1.0000   1.0000   1.0000   1.0000   1.0000   1.0000   1.0000
     1.0000   1.0000   1.0000   1.0000   1.0000   1.0000   1.0000   1.0000
     1.0000   1.0000   1.0000   1.0000   1.0000   1.0000   1.0000   1.0000
     1.0000   1.0000   1.0000   1.0000   1.0000   1.0000   1.0000   1.0000
     1.0000   1.0000   1.0000   1.0000   1.0000   1.0000   1.0000   1.0000
     1.0000   1.0000   1.0000   1.0000   1.0000   1.0000   1.0000   1.0000
     1.0000   1.0000   1.0000   1.0000   1.0000   1.0000   1.0000   1.0000
     1.0000   1.0000   1.0000   1.0000   1.0000   1.0000   1.0000   1.0000
     1.0000   1.0000   1.0000   1.0000   0.9999   0.9999   0.9999   0.9998
     0.9998   0.9998   0.9997   0.9996   0.9996   0.9994   0.9989   0.9985
     0.9983   0.9981   0.9980   0.9973   0.9963   0.9942   0.9939   0.9920
     0.9916   0.9901   0.9894   0.9890   0.9863   0.9833   0.9826   0.9800
     0.9773   0.9733   0.9588   0.9460   0.9389   0.9365   0.9029   0.8996
     0.8870   0.8865   0.8527   0.8400   0.8302   0.8231   0.8173   0.7944
     0.7769   0.7330   0.7174   0.7111   0.7078   0.6728   0.6699   0.6579
     0.6534   0.6488   0.6422   0.6380   0.6305   0.6273   0.6207   0.6156
     0.6096   0.5995   0.5875   0.5845   0.5775   0.5595   0.4944   0.4387
     0.1226   0.0511   0.0160   0.0103   0.0055   0.0001   0.0001   0.0000
     0.0000   0.0000   0.0000   0.0000   0.0000   0.0000   0.0000   0.0000
     0.0000   0.0000   0.0000   0.0000   0.0000   0.0000   0.0000   0.0000
     0.0000   0.0000   0.0000   0.0000   0.0000   0.0000   0.0000   0.0000

          k = 0.0000 0.2500 0.0000 ( 65257 PWs)   bands (ev):

   -92.7372 -92.6852 -92.5913 -92.5434 -92.4869 -92.4438 -92.4262 -92.3037
   -56.0907 -56.0718 -55.9485 -55.9379 -55.9307 -55.9247 -55.8894 -55.8605
   -55.8448 -55.8434 -55.8357 -55.7938 -55.7743 -55.7384 -55.7177 -55.6864
   -55.6789 -55.6319 -55.6300 -55.6290 -55.6206 -55.5785 -55.5566 -55.4702
   -31.3124 -31.2924 -31.1525 -31.1481 -31.1071 -31.0649 -30.8337 -30.6210
   -29.8835 -29.8401 -29.8175 -29.7072 -15.0807 -15.0459 -14.9681 -14.8335
   -14.7100 -14.5374 -14.4008 -14.2213 -14.1853 -14.1666 -14.1383 -14.0792
   -14.0716 -14.0571 -14.0362 -13.9933 -13.8850 -13.8449 -13.6835 -13.6614
   -13.6138 -13.5788 -13.5336 -13.4899 -13.4498 -13.3784 -13.3428 -13.2951
   -13.2278 -13.1827 -13.1474 -13.1396 -13.1131 -13.0395 -13.0145 -12.9838
   -12.9675 -12.9369 -12.9020 -12.8888 -12.8640 -12.8339 -12.8209 -12.7947
   -12.7664 -12.5565 -12.5013 -12.4567 -12.4389 -12.2830 -12.1012 -12.0386
   -11.8628 -11.8199 -11.7924 -11.7648 -11.7482 -11.6999 -11.6891 -11.6667
   -11.6312 -11.5304 -11.4778 -11.4671  -2.8425  -2.6212  -2.4834  -2.3013
    -2.2580  -2.0944  -1.8749  -1.7904  -1.7774  -1.7193  -1.6169  -1.6006
    -1.5682  -1.5407  -1.4968  -1.2989  -1.1699  -1.1580  -1.0821  -1.0710
    -0.9672  -0.9378  -0.8812  -0.8550  -0.8144  -0.7499  -0.7230  -0.6910
    -0.6596  -0.6429  -0.6086  -0.5364  -0.4850  -0.4184  -0.3058  -0.2857
    -0.2450  -0.1261  -0.0886  -0.0304   0.0188   0.0764   0.0945   0.1232
     0.1837   0.4819   0.5694   0.6028   0.6899   0.7331   0.7549   0.8731
     0.8911   0.9857   1.0136   1.0400   1.1539   1.2483   1.2707   1.2954
     1.3124   1.3383   1.3984   1.4256   1.4533   1.5010   1.5358   1.5655
     1.6505   1.6858   1.7188   1.7705   1.8270   1.8663   1.8944   1.9200
     1.9383   2.0298   2.1600   2.2314   2.2467   2.3237   2.3699   2.4103
     2.4171   2.4788   2.5183   2.6011   2.6408   2.6577   2.7521   2.8326
     2.8559   2.8838   2.9068   2.9215   2.9303   2.9384   2.9475   2.9779
     2.9800   2.9970   3.0044   3.0117   3.0297   3.0425   3.0497   3.0711
     3.0833   3.0879   3.1235   3.1395   3.1987   3.5724   3.6087   3.8429
     4.2613   4.3873   4.6753   5.0041   5.0290   5.6125   5.7634   5.9114
     5.9497   6.0569   6.0776   6.1535   6.5796   6.8524   6.9233   7.0914
     7.3066   7.4558   7.4710   7.5907   7.6245   7.7153   7.7971   8.0018
     8.0781   8.1280   8.1830   8.2621   8.3808   8.5305   8.7158   8.9186

     occupation numbers 
     1.0000   1.0000   1.0000   1.0000   1.0000   1.0000   1.0000   1.0000
     1.0000   1.0000   1.0000   1.0000   1.0000   1.0000   1.0000   1.0000
     1.0000   1.0000   1.0000   1.0000   1.0000   1.0000   1.0000   1.0000
     1.0000   1.0000   1.0000   1.0000   1.0000   1.0000   1.0000   1.0000
     1.0000   1.0000   1.0000   1.0000   1.0000   1.0000   1.0000   1.0000
     1.0000   1.0000   1.0000   1.0000   1.0000   1.0000   1.0000   1.0000
     1.0000   1.0000   1.0000   1.0000   1.0000   1.0000   1.0000   1.0000
     1.0000   1.0000   1.0000   1.0000   1.0000   1.0000   1.0000   1.0000
     1.0000   1.0000   1.0000   1.0000   1.0000   1.0000   1.0000   1.0000
     1.0000   1.0000   1.0000   1.0000   1.0000   1.0000   1.0000   1.0000
     1.0000   1.0000   1.0000   1.0000   1.0000   1.0000   1.0000   1.0000
     1.0000   1.0000   1.0000   1.0000   1.0000   1.0000   1.0000   1.0000
     1.0000   1.0000   1.0000   1.0000   1.0000   1.0000   1.0000   1.0000
     1.0000   1.0000   1.0000   1.0000   1.0000   1.0000   1.0000   1.0000
     1.0000   1.0000   1.0000   1.0000   1.0000   1.0000   1.0000   1.0000
     1.0000   1.0000   1.0000   1.0000   1.0000   1.0000   1.0000   1.0000
     1.0000   1.0000   1.0000   1.0000   1.0000   1.0000   1.0000   1.0000
     1.0000   1.0000   1.0000   1.0000   1.0000   1.0000   1.0000   1.0000
     1.0000   1.0000   1.0000   1.0000   1.0000   1.0000   1.0000   1.0000
     1.0000   1.0000   1.0000   1.0000   0.9999   0.9999   0.9999   0.9998
     0.9998   0.9997   0.9996   0.9996   0.9992   0.9988   0.9986   0.9985
     0.9983   0.9981   0.9975   0.9972   0.9968   0.9961   0.9954   0.9948
     0.9926   0.9914   0.9902   0.9880   0.9851   0.9828   0.9809   0.9791
     0.9777   0.9694   0.9534   0.9421   0.9394   0.9244   0.9142   0.9044
     0.9027   0.8859   0.8742   0.8470   0.8327   0.8263   0.7880   0.7517
     0.7406   0.7270   0.7156   0.7081   0.7036   0.6994   0.6947   0.6787
     0.6776   0.6685   0.6645   0.6606   0.6507   0.6437   0.6397   0.6277
     0.6208   0.6182   0.5979   0.5887   0.5542   0.3378   0.3183   0.2060
     0.0747   0.0517   0.0199   0.0055   0.0049   0.0003   0.0001   0.0000
     0.0000   0.0000   0.0000   0.0000   0.0000   0.0000   0.0000   0.0000
     0.0000   0.0000   0.0000   0.0000   0.0000   0.0000   0.0000   0.0000
     0.0000   0.0000   0.0000   0.0000   0.0000   0.0000   0.0000   0.0000

          k = 0.0000-0.5000 0.0000 ( 65180 PWs)   bands (ev):

   -92.7372 -92.6852 -92.5913 -92.5434 -92.4869 -92.4438 -92.4262 -92.3037
   -56.0907 -56.0718 -55.9485 -55.9379 -55.9307 -55.9247 -55.8894 -55.8605
   -55.8448 -55.8434 -55.8357 -55.7938 -55.7743 -55.7384 -55.7177 -55.6864
   -55.6789 -55.6319 -55.6300 -55.6290 -55.6206 -55.5785 -55.5566 -55.4702
   -31.3122 -31.2923 -31.1527 -31.1474 -31.1079 -31.0651 -30.8336 -30.6212
   -29.8828 -29.8398 -29.8182 -29.7075 -15.0452 -14.9963 -14.9449 -14.8122
   -14.7333 -14.5919 -14.4464 -14.3120 -14.1932 -14.1272 -14.0783 -14.0738
   -14.0217 -14.0059 -13.9613 -13.9370 -13.9147 -13.8755 -13.8289 -13.8047
   -13.6195 -13.5612 -13.5407 -13.4925 -13.4510 -13.3939 -13.3679 -13.3176
   -13.3080 -13.2528 -13.1470 -13.1377 -13.0813 -13.0787 -13.0040 -12.9880
   -12.9641 -12.9172 -12.8696 -12.8546 -12.8205 -12.7813 -12.7472 -12.7402
   -12.6869 -12.5509 -12.5419 -12.3837 -12.3580 -12.2650 -12.1955 -12.1879
   -11.8168 -11.8145 -11.7875 -11.7514 -11.7165 -11.7056 -11.6613 -11.6575
   -11.6117 -11.5527 -11.5387 -11.5243  -2.6278  -2.5687  -2.4179  -2.3459
    -2.0640  -1.9812  -1.8540  -1.7163  -1.6786  -1.6594  -1.5816  -1.5482
    -1.4684  -1.4321  -1.3544  -1.3150  -1.2760  -1.2487  -1.1914  -1.1553
    -1.1042  -1.0711  -1.0393  -1.0025  -0.8951  -0.8499  -0.8147  -0.8138
    -0.7265  -0.6948  -0.6714  -0.6244  -0.5381  -0.4658  -0.3784  -0.3520
    -0.2422  -0.2086  -0.0658  -0.0257   0.0009   0.0485   0.1713   0.2338
     0.3557   0.4254   0.4323   0.5609   0.6146   0.7026   0.8417   0.9441
     0.9773   1.0168   1.0237   1.0594   1.0763   1.1130   1.1299   1.1396
     1.2523   1.3104   1.3398   1.3654   1.6309   1.6582   1.6822   1.7738
     1.7962   1.8340   1.8519   1.8763   1.8967   1.8981   1.9294   1.9692
     1.9933   2.0225   2.0308   2.0623   2.1171   2.2023   2.2347   2.4060
     2.5656   2.5725   2.5927   2.6313   2.6354   2.6471   2.6944   2.7072
     2.7588   2.7653   2.7834   2.8735   2.8780   2.9445   2.9491   2.9731
     2.9770   2.9945   2.9973   3.0010   3.0074   3.0138   3.0267   3.0411
     3.0484   3.1075   3.1137   3.1290   3.1851   4.0880   4.1028   4.1583
     4.2282   4.6983   4.8698   4.9988   5.1301   5.3944   5.4341   5.5579
     5.6899   5.9849   6.0101   6.0667   6.6222   6.8340   6.9322   7.2012
     7.3043   7.3503   7.4457   7.5848   7.7216   7.8293   7.8764   7.9193
     8.1160   8.2618   8.4393   8.5003   8.6296   8.7808   8.7896   8.8355

     occupation numbers 
     1.0000   1.0000   1.0000   1.0000   1.0000   1.0000   1.0000   1.0000
     1.0000   1.0000   1.0000   1.0000   1.0000   1.0000   1.0000   1.0000
     1.0000   1.0000   1.0000   1.0000   1.0000   1.0000   1.0000   1.0000
     1.0000   1.0000   1.0000   1.0000   1.0000   1.0000   1.0000   1.0000
     1.0000   1.0000   1.0000   1.0000   1.0000   1.0000   1.0000   1.0000
     1.0000   1.0000   1.0000   1.0000   1.0000   1.0000   1.0000   1.0000
     1.0000   1.0000   1.0000   1.0000   1.0000   1.0000   1.0000   1.0000
     1.0000   1.0000   1.0000   1.0000   1.0000   1.0000   1.0000   1.0000
     1.0000   1.0000   1.0000   1.0000   1.0000   1.0000   1.0000   1.0000
     1.0000   1.0000   1.0000   1.0000   1.0000   1.0000   1.0000   1.0000
     1.0000   1.0000   1.0000   1.0000   1.0000   1.0000   1.0000   1.0000
     1.0000   1.0000   1.0000   1.0000   1.0000   1.0000   1.0000   1.0000
     1.0000   1.0000   1.0000   1.0000   1.0000   1.0000   1.0000   1.0000
     1.0000   1.0000   1.0000   1.0000   1.0000   1.0000   1.0000   1.0000
     1.0000   1.0000   1.0000   1.0000   1.0000   1.0000   1.0000   1.0000
     1.0000   1.0000   1.0000   1.0000   1.0000   1.0000   1.0000   1.0000
     1.0000   1.0000   1.0000   1.0000   1.0000   1.0000   1.0000   1.0000
     1.0000   1.0000   1.0000   1.0000   1.0000   1.0000   1.0000   1.0000
     1.0000   1.0000   1.0000   1.0000   1.0000   1.0000   1.0000   1.0000
     1.0000   1.0000   1.0000   1.0000   1.0000   0.9999   0.9999   0.9998
     0.9997   0.9996   0.9996   0.9995   0.9995   0.9994   0.9993   0.9993
     0.9988   0.9984   0.9981   0.9979   0.9931   0.9923   0.9915   0.9878
     0.9868   0.9847   0.9837   0.9821   0.9808   0.9807   0.9784   0.9751
     0.9730   0.9701   0.9693   0.9659   0.9593   0.9469   0.9415   0.9055
     0.8591   0.8568   0.8499   0.8362   0.8347   0.8303   0.8120   0.8068
     0.7851   0.7823   0.7743   0.7321   0.7299   0.6963   0.6939   0.6813
     0.6792   0.6699   0.6684   0.6664   0.6629   0.6594   0.6524   0.6445
     0.6404   0.6071   0.6035   0.5947   0.5622   0.1182   0.1139   0.0988
     0.0819   0.0183   0.0095   0.0056   0.0032   0.0009   0.0007   0.0004
     0.0002   0.0000   0.0000   0.0000   0.0000   0.0000   0.0000   0.0000
     0.0000   0.0000   0.0000   0.0000   0.0000   0.0000   0.0000   0.0000
     0.0000   0.0000   0.0000   0.0000   0.0000   0.0000   0.0000   0.0000

          k = 0.2500 0.2500 0.0000 ( 65198 PWs)   bands (ev):

   -92.7372 -92.6852 -92.5913 -92.5434 -92.4869 -92.4438 -92.4262 -92.3037
   -56.0907 -56.0718 -55.9485 -55.9379 -55.9307 -55.9247 -55.8894 -55.8605
   -55.8448 -55.8434 -55.8357 -55.7938 -55.7743 -55.7384 -55.7177 -55.6864
   -55.6789 -55.6319 -55.6300 -55.6290 -55.6206 -55.5785 -55.5566 -55.4702
   -31.3108 -31.2941 -31.1521 -31.1481 -31.1070 -31.0653 -30.8338 -30.6211
   -29.8825 -29.8411 -29.8171 -29.7076 -15.0519 -15.0106 -14.9404 -14.8229
   -14.7033 -14.5778 -14.5065 -14.2990 -14.1448 -14.1316 -14.0952 -14.0661
   -14.0418 -14.0166 -13.9808 -13.9595 -13.8770 -13.8587 -13.6996 -13.6841
   -13.6562 -13.6354 -13.5830 -13.5463 -13.4789 -13.4618 -13.3450 -13.3160
   -13.2649 -13.1772 -13.1381 -13.1066 -13.0851 -13.0547 -13.0357 -12.9920
   -12.9818 -12.9562 -12.9244 -12.8951 -12.8019 -12.7781 -12.7553 -12.7488
   -12.6816 -12.5449 -12.4874 -12.4602 -12.4251 -12.3121 -12.1394 -12.0682
   -11.8352 -11.8035 -11.7926 -11.7860 -11.7227 -11.6894 -11.6820 -11.6457
   -11.6391 -11.5468 -11.5061 -11.4884  -2.7042  -2.4954  -2.3776  -2.2832
    -2.1624  -2.0975  -1.8998  -1.7550  -1.7360  -1.7062  -1.6116  -1.5784
    -1.4836  -1.4562  -1.4057  -1.2751  -1.2263  -1.1533  -1.1082  -1.0648
    -1.0411  -1.0169  -0.9746  -0.9585  -0.8680  -0.8180  -0.7515  -0.7036
    -0.6734  -0.6244  -0.6095  -0.5471  -0.4966  -0.4386  -0.4068  -0.3192
    -0.2660  -0.2382  -0.2002  -0.1452  -0.0660  -0.0340  -0.0089   0.0673
     0.0998   0.3730   0.5219   0.5560   0.6165   0.6564   0.7079   0.7636
     0.8306   0.8634   1.1374   1.2047   1.2774   1.3026   1.3523   1.3826
     1.4195   1.4560   1.4727   1.5007   1.5449   1.5533   1.5687   1.6126
     1.6514   1.6904   1.7510   1.7893   1.8003   1.8301   1.8651   1.9206
     1.9440   2.0721   2.1401   2.1750   2.1987   2.2633   2.3311   2.3591
     2.3950   2.4209   2.4317   2.5445   2.5818   2.6700   2.7593   2.8418
     2.8584   2.8631   2.8837   2.8942   2.9069   2.9234   2.9271   2.9384
     2.9532   2.9661   2.9816   2.9879   2.9993   3.0209   3.0330   3.0429
     3.0739   3.3747   3.4680   3.5126   3.5798   3.6096   3.8238   3.9178
     4.2687   4.4755   4.6820   4.9420   5.1525   5.6130   5.6658   5.7213
     5.7990   5.8603   6.0108   6.1388   6.2003   6.7725   6.8768   7.0677
     7.2283   7.5270   7.5766   7.6830   7.8364   7.8952   7.9635   8.1181
     8.1434   8.2001   8.2956   8.3474   8.4203   8.4666   8.5828   8.8037

     occupation numbers 
     1.0000   1.0000   1.0000   1.0000   1.0000   1.0000   1.0000   1.0000
     1.0000   1.0000   1.0000   1.0000   1.0000   1.0000   1.0000   1.0000
     1.0000   1.0000   1.0000   1.0000   1.0000   1.0000   1.0000   1.0000
     1.0000   1.0000   1.0000   1.0000   1.0000   1.0000   1.0000   1.0000
     1.0000   1.0000   1.0000   1.0000   1.0000   1.0000   1.0000   1.0000
     1.0000   1.0000   1.0000   1.0000   1.0000   1.0000   1.0000   1.0000
     1.0000   1.0000   1.0000   1.0000   1.0000   1.0000   1.0000   1.0000
     1.0000   1.0000   1.0000   1.0000   1.0000   1.0000   1.0000   1.0000
     1.0000   1.0000   1.0000   1.0000   1.0000   1.0000   1.0000   1.0000
     1.0000   1.0000   1.0000   1.0000   1.0000   1.0000   1.0000   1.0000
     1.0000   1.0000   1.0000   1.0000   1.0000   1.0000   1.0000   1.0000
     1.0000   1.0000   1.0000   1.0000   1.0000   1.0000   1.0000   1.0000
     1.0000   1.0000   1.0000   1.0000   1.0000   1.0000   1.0000   1.0000
     1.0000   1.0000   1.0000   1.0000   1.0000   1.0000   1.0000   1.0000
     1.0000   1.0000   1.0000   1.0000   1.0000   1.0000   1.0000   1.0000
     1.0000   1.0000   1.0000   1.0000   1.0000   1.0000   1.0000   1.0000
     1.0000   1.0000   1.0000   1.0000   1.0000   1.0000   1.0000   1.0000
     1.0000   1.0000   1.0000   1.0000   1.0000   1.0000   1.0000   1.0000
     1.0000   1.0000   1.0000   1.0000   1.0000   1.0000   1.0000   1.0000
     1.0000   1.0000   1.0000   1.0000   1.0000   1.0000   0.9999   0.9999
     0.9999   0.9998   0.9993   0.9990   0.9986   0.9984   0.9980   0.9977
     0.9973   0.9968   0.9965   0.9961   0.9952   0.9951   0.9947   0.9936
     0.9925   0.9912   0.9889   0.9871   0.9865   0.9849   0.9829   0.9790
     0.9772   0.9648   0.9562   0.9512   0.9475   0.9364   0.9229   0.9167
     0.9082   0.9017   0.8989   0.8660   0.8537   0.8216   0.7849   0.7474
     0.7394   0.7372   0.7271   0.7219   0.7155   0.7072   0.7053   0.6995
     0.6918   0.6850   0.6768   0.6734   0.6673   0.6555   0.6489   0.6434
     0.6262   0.4502   0.3961   0.3708   0.3338   0.3178   0.2142   0.1758
     0.0732   0.0392   0.0194   0.0071   0.0028   0.0003   0.0002   0.0002
     0.0001   0.0001   0.0000   0.0000   0.0000   0.0000   0.0000   0.0000
     0.0000   0.0000   0.0000   0.0000   0.0000   0.0000   0.0000   0.0000
     0.0000   0.0000   0.0000   0.0000   0.0000   0.0000   0.0000   0.0000

          k = 0.2500-0.5000 0.0000 ( 65138 PWs)   bands (ev):

   -92.7372 -92.6852 -92.5913 -92.5434 -92.4869 -92.4438 -92.4262 -92.3037
   -56.0907 -56.0718 -55.9485 -55.9379 -55.9307 -55.9247 -55.8894 -55.8605
   -55.8448 -55.8434 -55.8357 -55.7938 -55.7743 -55.7384 -55.7177 -55.6864
   -55.6789 -55.6319 -55.6300 -55.6290 -55.6206 -55.5785 -55.5566 -55.4702
   -31.3106 -31.2940 -31.1523 -31.1474 -31.1077 -31.0654 -30.8337 -30.6212
   -29.8819 -29.8408 -29.8178 -29.7080 -15.0145 -14.9693 -14.9014 -14.7822
   -14.7562 -14.6335 -14.5481 -14.4115 -14.1096 -14.0577 -14.0291 -14.0075
   -13.9927 -13.9787 -13.9450 -13.9257 -13.8922 -13.8545 -13.8251 -13.7896
   -13.7018 -13.6527 -13.6000 -13.5743 -13.5071 -13.4940 -13.4038 -13.3676
   -13.2412 -13.1773 -13.1576 -13.0807 -13.0640 -13.0518 -13.0223 -13.0042
   -12.9783 -12.9474 -12.8832 -12.8649 -12.8031 -12.7667 -12.7586 -12.6907
   -12.6593 -12.5590 -12.5429 -12.3756 -12.3553 -12.2597 -12.1850 -12.1753
   -11.8107 -11.7987 -11.7882 -11.7616 -11.7291 -11.7020 -11.6589 -11.6327
   -11.6094 -11.5654 -11.5399 -11.5280  -2.4857  -2.4206  -2.2917  -2.2147
    -2.0844  -2.0012  -1.8783  -1.7275  -1.6738  -1.6511  -1.5883  -1.5757
    -1.4795  -1.4108  -1.3262  -1.2764  -1.2670  -1.2046  -1.1617  -1.1274
    -1.0799  -1.0418  -1.0070  -0.9680  -0.9571  -0.9105  -0.8811  -0.8394
    -0.8085  -0.7416  -0.6398  -0.6014  -0.5220  -0.4559  -0.4063  -0.3662
    -0.3451  -0.2879  -0.1295  -0.1203  -0.0142   0.0187   0.0254   0.0700
     0.1063   0.1415   0.1725   0.2400   0.5150   0.6160   0.6682   0.7288
     1.0014   1.0212   1.1114   1.1343   1.3018   1.3360   1.3762   1.3994
     1.4146   1.4360   1.4978   1.5459   1.5812   1.6554   1.7563   1.7905
     1.8108   1.8165   1.8582   1.8708   1.8778   1.9220   1.9327   1.9541
     1.9806   2.0002   2.0229   2.0567   2.1163   2.1567   2.2349   2.3710
     2.5180   2.5354   2.5538   2.5821   2.6048   2.6324   2.6547   2.6677
     2.6896   2.7631   2.7911   2.8502   2.8585   2.8651   2.8820   2.8972
     2.9106   2.9301   2.9425   2.9709   2.9817   2.9966   3.0044   3.0125
     3.0241   3.5416   3.5652   3.7068   3.7604   4.0932   4.1487   4.1585
     4.2851   4.7185   4.8910   5.0327   5.1004   5.2698   5.4050   5.5837
     5.6052   5.7357   5.7543   6.1653   6.3775   6.4669   6.5496   7.0660
     7.4538   7.5506   7.6775   7.7840   7.8486   7.9945   8.0120   8.1469
     8.3392   8.3771   8.4531   8.5138   8.5422   8.6335   8.6818   8.7409

     occupation numbers 
     1.0000   1.0000   1.0000   1.0000   1.0000   1.0000   1.0000   1.0000
     1.0000   1.0000   1.0000   1.0000   1.0000   1.0000   1.0000   1.0000
     1.0000   1.0000   1.0000   1.0000   1.0000   1.0000   1.0000   1.0000
     1.0000   1.0000   1.0000   1.0000   1.0000   1.0000   1.0000   1.0000
     1.0000   1.0000   1.0000   1.0000   1.0000   1.0000   1.0000   1.0000
     1.0000   1.0000   1.0000   1.0000   1.0000   1.0000   1.0000   1.0000
     1.0000   1.0000   1.0000   1.0000   1.0000   1.0000   1.0000   1.0000
     1.0000   1.0000   1.0000   1.0000   1.0000   1.0000   1.0000   1.0000
     1.0000   1.0000   1.0000   1.0000   1.0000   1.0000   1.0000   1.0000
     1.0000   1.0000   1.0000   1.0000   1.0000   1.0000   1.0000   1.0000
     1.0000   1.0000   1.0000   1.0000   1.0000   1.0000   1.0000   1.0000
     1.0000   1.0000   1.0000   1.0000   1.0000   1.0000   1.0000   1.0000
     1.0000   1.0000   1.0000   1.0000   1.0000   1.0000   1.0000   1.0000
     1.0000   1.0000   1.0000   1.0000   1.0000   1.0000   1.0000   1.0000
     1.0000   1.0000   1.0000   1.0000   1.0000   1.0000   1.0000   1.0000
     1.0000   1.0000   1.0000   1.0000   1.0000   1.0000   1.0000   1.0000
     1.0000   1.0000   1.0000   1.0000   1.0000   1.0000   1.0000   1.0000
     1.0000   1.0000   1.0000   1.0000   1.0000   1.0000   1.0000   1.0000
     1.0000   1.0000   1.0000   1.0000   1.0000   1.0000   1.0000   1.0000
     1.0000   1.0000   1.0000   1.0000   1.0000   1.0000   1.0000   0.9999
     0.9997   0.9996   0.9994   0.9993   0.9984   0.9981   0.9978   0.9975
     0.9973   0.9971   0.9961   0.9952   0.9944   0.9924   0.9886   0.9870
     0.9860   0.9857   0.9833   0.9825   0.9820   0.9789   0.9781   0.9764
     0.9741   0.9723   0.9701   0.9665   0.9594   0.9539   0.9415   0.9139
     0.8743   0.8689   0.8630   0.8536   0.8457   0.8358   0.8274   0.8225
     0.8139   0.7832   0.7708   0.7434   0.7394   0.7362   0.7279   0.7204
     0.7137   0.7037   0.6973   0.6824   0.6767   0.6687   0.6645   0.6601
     0.6538   0.3546   0.3417   0.2682   0.2427   0.1167   0.1013   0.0987
     0.0699   0.0170   0.0087   0.0048   0.0036   0.0016   0.0008   0.0003
     0.0003   0.0001   0.0001   0.0000   0.0000   0.0000   0.0000   0.0000
     0.0000   0.0000   0.0000   0.0000   0.0000   0.0000   0.0000   0.0000
     0.0000   0.0000   0.0000   0.0000   0.0000   0.0000   0.0000   0.0000

          k =-0.5000-0.5000 0.0000 ( 65132 PWs)   bands (ev):

   -92.7372 -92.6852 -92.5913 -92.5434 -92.4869 -92.4438 -92.4262 -92.3037
   -56.0907 -56.0718 -55.9485 -55.9379 -55.9307 -55.9247 -55.8894 -55.8605
   -55.8448 -55.8434 -55.8357 -55.7938 -55.7743 -55.7384 -55.7177 -55.6864
   -55.6789 -55.6319 -55.6300 -55.6290 -55.6206 -55.5785 -55.5566 -55.4702
   -31.3085 -31.2960 -31.1519 -31.1473 -31.1076 -31.0658 -30.8338 -30.6213
   -29.8809 -29.8418 -29.8174 -29.7084 -14.9673 -14.9425 -14.8237 -14.8131
   -14.7210 -14.6809 -14.6482 -14.5127 -14.0193 -14.0071 -13.9738 -13.9570
   -13.9379 -13.9256 -13.8932 -13.8848 -13.8735 -13.8593 -13.8470 -13.7704
   -13.7606 -13.7337 -13.6976 -13.6838 -13.5931 -13.5553 -13.4430 -13.4169
   -13.1905 -13.1558 -13.0881 -13.0609 -13.0552 -13.0405 -13.0195 -13.0126
   -13.0077 -12.9895 -12.8886 -12.8715 -12.8031 -12.7700 -12.7444 -12.6409
   -12.6328 -12.5755 -12.5491 -12.3674 -12.3513 -12.2528 -12.1740 -12.1638
   -11.8075 -11.7952 -11.7771 -11.7608 -11.7250 -11.7064 -11.6751 -11.6134
   -11.5931 -11.5871 -11.5373 -11.5334  -2.2614  -2.1856  -2.1766  -2.1050
    -2.0656  -1.9873  -1.9195  -1.7937  -1.6782  -1.6475  -1.6076  -1.5511
    -1.4792  -1.4656  -1.3935  -1.3519  -1.2349  -1.2054  -1.1564  -1.1285
    -1.0641  -1.0176  -0.9987  -0.9864  -0.9327  -0.8889  -0.8733  -0.7595
    -0.7003  -0.6564  -0.6066  -0.5796  -0.5673  -0.5333  -0.4909  -0.4544
    -0.4458  -0.3581  -0.2891  -0.2465  -0.2189  -0.1463  -0.0877  -0.0771
    -0.0178   0.0087   0.0167   0.0262   0.4859   0.5390   0.6167   0.6393
     1.0297   1.0456   1.0757   1.1136   1.3865   1.4061   1.4108   1.4512
     1.5808   1.6775   1.7037   1.7407   1.7660   1.7840   1.7919   1.8240
     1.8354   1.8543   1.8575   1.9090   1.9146   1.9423   1.9634   1.9757
     1.9916   2.0315   2.0547   2.0660   2.1003   2.1290   2.1958   2.2633
     2.5249   2.5630   2.5803   2.6017   2.6104   2.6428   2.6438   2.6642
     2.6730   2.6905   2.7140   2.7234   2.7664   2.7942   2.7948   2.8159
     2.8386   2.8441   2.8639   2.8671   2.8921   2.9779   2.9833   3.0089
     3.0194   3.9619   4.0033   4.0268   4.0545   4.2823   4.3563   4.3824
     4.6226   4.7449   4.8278   4.9575   5.0466   5.0587   5.1700   5.2693
     5.3705   5.8380   5.8755   5.9316   6.0125   6.3722   6.5286   6.6194
     7.7985   7.8830   7.9137   7.9308   7.9480   7.9854   8.0495   8.1163
     8.2382   8.2855   8.5430   8.5576   8.5856   8.6165   8.6299   8.6956

     occupation numbers 
[...]
     0.7446   0.7294   0.7173   0.7148   0.7038   0.6987   0.6913   0.6792
     0.6768   0.6640   0.6571   0.6540   0.6462   0.6352   0.6216   0.6192
     0.6146   0.6107   0.6052   0.5994   0.5247   0.3556   0.3224   0.2038
     0.0787   0.0460   0.0221   0.0056   0.0047   0.0003   0.0001   0.0001
     0.0000   0.0000   0.0000   0.0000   0.0000   0.0000   0.0000   0.0000
     0.0000   0.0000   0.0000   0.0000   0.0000   0.0000   0.0000   0.0000
     0.0000   0.0000   0.0000   0.0000   0.0000   0.0000   0.0000   0.0000

          k =-0.5000 0.0000 0.0000 ( 65180 PWs)   bands (ev):

   -92.7372 -92.6852 -92.5913 -92.5434 -92.4869 -92.4438 -92.4262 -92.3037
   -56.0907 -56.0718 -55.9485 -55.9379 -55.9307 -55.9247 -55.8894 -55.8605
   -55.8448 -55.8434 -55.8357 -55.7938 -55.7743 -55.7384 -55.7177 -55.6864
   -55.6789 -55.6319 -55.6300 -55.6290 -55.6206 -55.5785 -55.5566 -55.4702
   -31.3089 -31.2963 -31.1515 -31.1487 -31.1062 -31.0655 -30.8341 -30.6210
   -29.8821 -29.8424 -29.8161 -29.7077 -15.0505 -14.9972 -14.9355 -14.8311
   -14.7236 -14.5815 -14.4298 -14.2989 -14.1678 -14.1600 -14.1441 -14.0735
   -14.0267 -13.9932 -13.9443 -13.9415 -13.9239 -13.8742 -13.8642 -13.7488
   -13.5907 -13.5602 -13.5298 -13.5235 -13.4579 -13.3998 -13.3440 -13.3029
   -13.2791 -13.2767 -13.1467 -13.0897 -13.0801 -13.0605 -13.0458 -13.0206
   -12.9851 -12.9699 -12.9630 -12.9460 -12.7917 -12.6758 -12.6667 -12.6284
   -12.5995 -12.5759 -12.5346 -12.4998 -12.3935 -12.3619 -12.1750 -12.1239
   -11.8145 -11.7926 -11.7861 -11.7712 -11.7530 -11.7111 -11.6503 -11.6332
   -11.6006 -11.5536 -11.5445 -11.5294  -2.6176  -2.5795  -2.4155  -2.3767
    -2.0628  -1.9879  -1.8390  -1.7223  -1.6831  -1.6377  -1.5890  -1.5648
    -1.4414  -1.3972  -1.3809  -1.2991  -1.2645  -1.2474  -1.2171  -1.1587
    -1.0897  -1.0615  -1.0330  -0.9371  -0.8899  -0.8395  -0.8079  -0.7870
    -0.7569  -0.7096  -0.6847  -0.6438  -0.5465  -0.4768  -0.4080  -0.3482
    -0.1811  -0.1496  -0.0924  -0.0581   0.0101   0.0187   0.1586   0.1897
     0.2288   0.4045   0.5035   0.5515   0.6300   0.7060   0.8210   0.8350
     0.9699   0.9953   1.0493   1.0749   1.1160   1.1275   1.1713   1.1972
     1.2672   1.3104   1.3581   1.3651   1.6670   1.6755   1.6967   1.7131
     1.8246   1.8333   1.8471   1.8562   1.8857   1.8961   1.9363   1.9603
     1.9822   2.0416   2.0547   2.1065   2.1267   2.1855   2.2901   2.3963
     2.4643   2.4807   2.5590   2.5904   2.6139   2.6823   2.6949   2.7011
     2.7323   2.7676   2.8063   2.8495   2.8959   2.9234   2.9645   2.9684
     2.9687   2.9821   2.9953   3.0098   3.0233   3.0303   3.0469   3.0509
     3.0747   3.0932   3.0983   3.2274   3.2361   4.0261   4.0990   4.1518
     4.2883   4.7576   4.8334   5.0073   5.0182   5.4642   5.4855   5.5701
     5.6153   5.9610   5.9990   6.0364   6.7707   6.7881   6.9848   7.2569
     7.2955   7.3549   7.4031   7.4903   7.7281   7.7472   7.8584   8.0261
     8.0823   8.2813   8.4584   8.4921   8.5981   8.7221   8.7382   8.8506

     occupation numbers 
     1.0000   1.0000   1.0000   1.0000   1.0000   1.0000   1.0000   1.0000
     1.0000   1.0000   1.0000   1.0000   1.0000   1.0000   1.0000   1.0000
     1.0000   1.0000   1.0000   1.0000   1.0000   1.0000   1.0000   1.0000
     1.0000   1.0000   1.0000   1.0000   1.0000   1.0000   1.0000   1.0000
     1.0000   1.0000   1.0000   1.0000   1.0000   1.0000   1.0000   1.0000
     1.0000   1.0000   1.0000   1.0000   1.0000   1.0000   1.0000   1.0000
     1.0000   1.0000   1.0000   1.0000   1.0000   1.0000   1.0000   1.0000
     1.0000   1.0000   1.0000   1.0000   1.0000   1.0000   1.0000   1.0000
     1.0000   1.0000   1.0000   1.0000   1.0000   1.0000   1.0000   1.0000
     1.0000   1.0000   1.0000   1.0000   1.0000   1.0000   1.0000   1.0000
     1.0000   1.0000   1.0000   1.0000   1.0000   1.0000   1.0000   1.0000
     1.0000   1.0000   1.0000   1.0000   1.0000   1.0000   1.0000   1.0000
     1.0000   1.0000   1.0000   1.0000   1.0000   1.0000   1.0000   1.0000
     1.0000   1.0000   1.0000   1.0000   1.0000   1.0000   1.0000   1.0000
     1.0000   1.0000   1.0000   1.0000   1.0000   1.0000   1.0000   1.0000
     1.0000   1.0000   1.0000   1.0000   1.0000   1.0000   1.0000   1.0000
     1.0000   1.0000   1.0000   1.0000   1.0000   1.0000   1.0000   1.0000
     1.0000   1.0000   1.0000   1.0000   1.0000   1.0000   1.0000   1.0000
     1.0000   1.0000   1.0000   1.0000   1.0000   1.0000   1.0000   1.0000
     1.0000   1.0000   1.0000   1.0000   1.0000   0.9999   0.9999   0.9999
     0.9997   0.9997   0.9996   0.9995   0.9994   0.9993   0.9992   0.9991
     0.9987   0.9984   0.9979   0.9979   0.9920   0.9918   0.9910   0.9904
     0.9852   0.9848   0.9840   0.9834   0.9815   0.9808   0.9778   0.9759
     0.9740   0.9682   0.9667   0.9606   0.9580   0.9496   0.9313   0.9079
     0.8901   0.8854   0.8613   0.8507   0.8425   0.8168   0.8118   0.8093
     0.7964   0.7813   0.7639   0.7437   0.7211   0.7072   0.6858   0.6838
     0.6836   0.6765   0.6695   0.6616   0.6542   0.6504   0.6412   0.6390
     0.6257   0.6152   0.6123   0.5373   0.5322   0.1373   0.1150   0.1005
     0.0692   0.0147   0.0110   0.0054   0.0052   0.0006   0.0006   0.0004
     0.0003   0.0000   0.0000   0.0000   0.0000   0.0000   0.0000   0.0000
     0.0000   0.0000   0.0000   0.0000   0.0000   0.0000   0.0000   0.0000
     0.0000   0.0000   0.0000   0.0000   0.0000   0.0000   0.0000   0.0000

          k =-0.2500 0.2500 0.0000 ( 65198 PWs)   bands (ev):

   -92.7372 -92.6852 -92.5913 -92.5434 -92.4869 -92.4438 -92.4262 -92.3037
   -56.0907 -56.0718 -55.9485 -55.9379 -55.9307 -55.9247 -55.8894 -55.8605
   -55.8448 -55.8434 -55.8357 -55.7938 -55.7743 -55.7384 -55.7177 -55.6864
   -55.6789 -55.6319 -55.6300 -55.6290 -55.6206 -55.5785 -55.5566 -55.4702
   -31.3108 -31.2941 -31.1521 -31.1481 -31.1070 -31.0653 -30.8338 -30.6211
   -29.8825 -29.8411 -29.8171 -29.7076 -15.0532 -15.0096 -14.9386 -14.8215
   -14.7098 -14.5811 -14.4990 -14.2908 -14.1513 -14.1210 -14.1113 -14.0597
   -14.0394 -14.0188 -13.9943 -13.9568 -13.8739 -13.8601 -13.7076 -13.6816
   -13.6514 -13.6323 -13.5856 -13.5332 -13.4767 -13.4706 -13.3563 -13.3055
   -13.2586 -13.1810 -13.1403 -13.1009 -13.0755 -13.0506 -13.0296 -13.0059
   -12.9732 -12.9622 -12.9253 -12.9021 -12.8076 -12.7972 -12.7441 -12.7274
   -12.7050 -12.5536 -12.4943 -12.4766 -12.3735 -12.3178 -12.1210 -12.0913
   -11.8342 -11.8128 -11.7861 -11.7739 -11.7323 -11.6991 -11.6744 -11.6543
   -11.6309 -11.5466 -11.5015 -11.4916  -2.7026  -2.4943  -2.3733  -2.2849
    -2.1667  -2.1002  -1.8974  -1.7520  -1.7337  -1.7042  -1.6121  -1.5773
    -1.4831  -1.4493  -1.4235  -1.2804  -1.2245  -1.1570  -1.1283  -1.0672
    -1.0468  -1.0066  -0.9778  -0.9374  -0.8744  -0.8266  -0.7638  -0.6948
    -0.6692  -0.6185  -0.5903  -0.5443  -0.4869  -0.4418  -0.4007  -0.3002
    -0.2674  -0.2567  -0.2130  -0.1466  -0.0692  -0.0317  -0.0005   0.0713
     0.0968   0.3535   0.5240   0.5650   0.6043   0.6643   0.7103   0.7649
     0.8335   0.8643   1.1450   1.2545   1.2944   1.3282   1.3326   1.3775
     1.3924   1.4375   1.4690   1.4831   1.5086   1.5547   1.5679   1.6103
     1.6290   1.6738   1.7690   1.7778   1.7976   1.8322   1.8640   1.8995
     1.9542   2.0605   2.1712   2.1963   2.2436   2.2627   2.3280   2.3713
     2.3977   2.4229   2.4422   2.5438   2.5798   2.6713   2.7610   2.8500
     2.8552   2.8698   2.8793   2.8898   2.9044   2.9154   2.9276   2.9388
     2.9519   2.9608   2.9738   2.9834   2.9890   3.0233   3.0338   3.0429
     3.0756   3.3680   3.4496   3.5139   3.5856   3.6197   3.8064   3.9266
     4.2661   4.4751   4.6814   4.9551   5.1525   5.6139   5.6646   5.7298
     5.7978   5.8614   5.9978   6.1603   6.1755   6.7700   6.8778   7.0737
     7.2270   7.5403   7.5843   7.6448   7.8517   7.8962   7.9835   8.1044
     8.1588   8.1956   8.2916   8.3781   8.4178   8.4413   8.5669   8.8064

     occupation numbers 
     1.0000   1.0000   1.0000   1.0000   1.0000   1.0000   1.0000   1.0000
     1.0000   1.0000   1.0000   1.0000   1.0000   1.0000   1.0000   1.0000
     1.0000   1.0000   1.0000   1.0000   1.0000   1.0000   1.0000   1.0000
     1.0000   1.0000   1.0000   1.0000   1.0000   1.0000   1.0000   1.0000
     1.0000   1.0000   1.0000   1.0000   1.0000   1.0000   1.0000   1.0000
     1.0000   1.0000   1.0000   1.0000   1.0000   1.0000   1.0000   1.0000
     1.0000   1.0000   1.0000   1.0000   1.0000   1.0000   1.0000   1.0000
     1.0000   1.0000   1.0000   1.0000   1.0000   1.0000   1.0000   1.0000
     1.0000   1.0000   1.0000   1.0000   1.0000   1.0000   1.0000   1.0000
     1.0000   1.0000   1.0000   1.0000   1.0000   1.0000   1.0000   1.0000
     1.0000   1.0000   1.0000   1.0000   1.0000   1.0000   1.0000   1.0000
     1.0000   1.0000   1.0000   1.0000   1.0000   1.0000   1.0000   1.0000
     1.0000   1.0000   1.0000   1.0000   1.0000   1.0000   1.0000   1.0000
     1.0000   1.0000   1.0000   1.0000   1.0000   1.0000   1.0000   1.0000
     1.0000   1.0000   1.0000   1.0000   1.0000   1.0000   1.0000   1.0000
     1.0000   1.0000   1.0000   1.0000   1.0000   1.0000   1.0000   1.0000
     1.0000   1.0000   1.0000   1.0000   1.0000   1.0000   1.0000   1.0000
     1.0000   1.0000   1.0000   1.0000   1.0000   1.0000   1.0000   1.0000
     1.0000   1.0000   1.0000   1.0000   1.0000   1.0000   1.0000   1.0000
     1.0000   1.0000   1.0000   1.0000   1.0000   1.0000   0.9999   0.9999
     0.9999   0.9998   0.9993   0.9987   0.9985   0.9982   0.9982   0.9977
     0.9976   0.9970   0.9966   0.9964   0.9959   0.9950   0.9947   0.9937
     0.9932   0.9918   0.9881   0.9877   0.9867   0.9848   0.9829   0.9806
     0.9764   0.9661   0.9517   0.9479   0.9400   0.9365   0.9235   0.9138
     0.9075   0.9012   0.8961   0.8662   0.8543   0.8211   0.7841   0.7435
     0.7410   0.7339   0.7293   0.7241   0.7168   0.7112   0.7050   0.6993
     0.6925   0.6878   0.6809   0.6758   0.6728   0.6542   0.6485   0.6434
     0.6252   0.4542   0.4066   0.3701   0.3306   0.3125   0.2218   0.1725
     0.0737   0.0393   0.0194   0.0067   0.0028   0.0003   0.0002   0.0001
     0.0001   0.0001   0.0000   0.0000   0.0000   0.0000   0.0000   0.0000
     0.0000   0.0000   0.0000   0.0000   0.0000   0.0000   0.0000   0.0000
     0.0000   0.0000   0.0000   0.0000   0.0000   0.0000   0.0000   0.0000

          k =-0.5000 0.2500 0.0000 ( 65138 PWs)   bands (ev):

   -92.7372 -92.6852 -92.5913 -92.5434 -92.4869 -92.4438 -92.4262 -92.3037
   -56.0907 -56.0718 -55.9485 -55.9379 -55.9307 -55.9247 -55.8894 -55.8605
   -55.8448 -55.8434 -55.8357 -55.7938 -55.7743 -55.7384 -55.7177 -55.6864
   -55.6789 -55.6319 -55.6300 -55.6290 -55.6206 -55.5785 -55.5566 -55.4702
   -31.3087 -31.2961 -31.1517 -31.1480 -31.1069 -31.0657 -30.8339 -30.6211
   -29.8815 -29.8421 -29.8167 -29.7080 -15.0174 -14.9713 -14.8925 -14.7961
   -14.7546 -14.6277 -14.5350 -14.4118 -14.1022 -14.0709 -14.0584 -14.0113
   -13.9915 -13.9677 -13.9307 -13.9269 -13.9016 -13.8664 -13.8542 -13.7418
   -13.6733 -13.6245 -13.6202 -13.6042 -13.5098 -13.5014 -13.3898 -13.3569
   -13.2341 -13.2000 -13.1071 -13.0975 -13.0624 -13.0513 -13.0368 -13.0044
   -12.9809 -12.9719 -12.9518 -12.9059 -12.7974 -12.7013 -12.6819 -12.6574
   -12.6505 -12.5749 -12.5426 -12.4208 -12.3572 -12.3178 -12.1742 -12.1387
   -11.8073 -11.7944 -11.7802 -11.7684 -11.7465 -11.7161 -11.6375 -11.6288
   -11.6058 -11.5682 -11.5401 -11.5320  -2.4753  -2.4336  -2.2852  -2.2433
    -2.0821  -2.0065  -1.8633  -1.7287  -1.6713  -1.6450  -1.6052  -1.5673
    -1.4863  -1.3712  -1.3140  -1.2914  -1.2654  -1.1874  -1.1605  -1.1203
    -1.1041  -1.0426  -1.0146  -0.9744  -0.9396  -0.9108  -0.8532  -0.8260
    -0.7850  -0.7500  -0.6455  -0.6175  -0.5291  -0.4707  -0.4361  -0.3798
    -0.2960  -0.2624  -0.1606  -0.1206  -0.0661  -0.0131   0.0120   0.0846
     0.1091   0.1412   0.1955   0.2353   0.5478   0.6152   0.6674   0.6857
     0.9815   1.0371   1.1110   1.1382   1.3137   1.3504   1.3875   1.4004
     1.4182   1.4361   1.5070   1.5480   1.5922   1.6185   1.7457   1.7813
     1.8070   1.8174   1.8577   1.8836   1.8968   1.9100   1.9316   1.9537
     1.9966   2.0158   2.0491   2.0727   2.1037   2.1622   2.2827   2.3839
     2.4103   2.4803   2.5169   2.5765   2.6142   2.6212   2.6606   2.6878
     2.7166   2.7643   2.8079   2.8434   2.8588   2.8670   2.8825   2.9070
     2.9190   2.9388   2.9458   2.9660   2.9795   2.9901   2.9971   3.0071
     3.0183   3.5462   3.5984   3.7385   3.7601   4.0338   4.1163   4.1603
     4.3705   4.7518   4.8493   5.0061   5.0430   5.3717   5.3976   5.5675
     5.6043   5.7156   5.7519   6.1061   6.3719   6.4768   6.6991   6.9797
     7.4809   7.5233   7.6892   7.7688   7.8596   7.9920   8.0433   8.1060
     8.2837   8.4295   8.4748   8.5120   8.5447   8.6029   8.6624   8.7216

     occupation numbers 
     1.0000   1.0000   1.0000   1.0000   1.0000   1.0000   1.0000   1.0000
     1.0000   1.0000   1.0000   1.0000   1.0000   1.0000   1.0000   1.0000
     1.0000   1.0000   1.0000   1.0000   1.0000   1.0000   1.0000   1.0000
     1.0000   1.0000   1.0000   1.0000   1.0000   1.0000   1.0000   1.0000
     1.0000   1.0000   1.0000   1.0000   1.0000   1.0000   1.0000   1.0000
     1.0000   1.0000   1.0000   1.0000   1.0000   1.0000   1.0000   1.0000
     1.0000   1.0000   1.0000   1.0000   1.0000   1.0000   1.0000   1.0000
     1.0000   1.0000   1.0000   1.0000   1.0000   1.0000   1.0000   1.0000
     1.0000   1.0000   1.0000   1.0000   1.0000   1.0000   1.0000   1.0000
     1.0000   1.0000   1.0000   1.0000   1.0000   1.0000   1.0000   1.0000
     1.0000   1.0000   1.0000   1.0000   1.0000   1.0000   1.0000   1.0000
     1.0000   1.0000   1.0000   1.0000   1.0000   1.0000   1.0000   1.0000
     1.0000   1.0000   1.0000   1.0000   1.0000   1.0000   1.0000   1.0000
     1.0000   1.0000   1.0000   1.0000   1.0000   1.0000   1.0000   1.0000
     1.0000   1.0000   1.0000   1.0000   1.0000   1.0000   1.0000   1.0000
     1.0000   1.0000   1.0000   1.0000   1.0000   1.0000   1.0000   1.0000
     1.0000   1.0000   1.0000   1.0000   1.0000   1.0000   1.0000   1.0000
     1.0000   1.0000   1.0000   1.0000   1.0000   1.0000   1.0000   1.0000
     1.0000   1.0000   1.0000   1.0000   1.0000   1.0000   1.0000   1.0000
     1.0000   1.0000   1.0000   1.0000   1.0000   1.0000   1.0000   0.9999
     0.9997   0.9996   0.9994   0.9993   0.9983   0.9980   0.9976   0.9975
     0.9973   0.9971   0.9960   0.9952   0.9942   0.9935   0.9891   0.9875
     0.9862   0.9856   0.9833   0.9817   0.9808   0.9798   0.9782   0.9764
     0.9727   0.9708   0.9674   0.9647   0.9610   0.9531   0.9327   0.9109
     0.9044   0.8855   0.8746   0.8555   0.8424   0.8399   0.8252   0.8146
     0.8029   0.7827   0.7632   0.7466   0.7393   0.7353   0.7277   0.7155
     0.7094   0.6993   0.6956   0.6851   0.6779   0.6722   0.6684   0.6631
     0.6570   0.3521   0.3238   0.2529   0.2428   0.1349   0.1101   0.0982
     0.0544   0.0150   0.0103   0.0054   0.0046   0.0010   0.0009   0.0004
     0.0003   0.0002   0.0001   0.0000   0.0000   0.0000   0.0000   0.0000
     0.0000   0.0000   0.0000   0.0000   0.0000   0.0000   0.0000   0.0000
     0.0000   0.0000   0.0000   0.0000   0.0000   0.0000   0.0000   0.0000

     the Fermi energy is     3.2905 ev

!    total energy              =   -4399.92283503 Ry
     estimated scf accuracy    <          5.9E-09 Ry
     smearing contrib. (-TS)   =      -1.14726061 Ry
     internal energy E=F+TS    =   -4398.77557442 Ry

     The total energy is F=E-TS. E is the sum of the following terms:
     one-electron contribution =  -21252.38303580 Ry
     hartree contribution      =   10753.81004554 Ry
     xc contribution           =    -686.73322629 Ry
     ewald contribution        =    7053.17567585 Ry
     one-center paw contrib.   =    -266.64503372 Ry
      -> PAW hartree energy AE =      25.13737871 Ry
      -> PAW hartree energy PS =     -25.02158102 Ry
      -> PAW xc energy AE      =     -16.51381833 Ry
      -> PAW xc energy PS      =       6.87311798 Ry
      -> total E_H with PAW    =   10753.92584323 Ry
      -> total E_XC with PAW   =    -696.37392665 Ry

     convergence has been achieved in  53 iterations

     Writing all to output data dir /bsuhome/zayahcortright/scratch/pwscf.save/
 
     init_run     :      7.24s CPU      7.88s WALL (       1 calls)
     electrons    :    750.51s CPU    763.71s WALL (       1 calls)

     Called by init_run:
     wfcinit      :      5.82s CPU      5.95s WALL (       1 calls)
     wfcinit:atom :      0.06s CPU      0.07s WALL (       5 calls)
     wfcinit:wfcr :      5.47s CPU      5.55s WALL (       5 calls)
     potinit      :      0.17s CPU      0.18s WALL (       1 calls)
     hinit0       :      0.34s CPU      0.77s WALL (       1 calls)

     Called by electrons:
     c_bands      :    591.33s CPU    596.34s WALL (      53 calls)
     sum_band     :    119.50s CPU    124.22s WALL (      53 calls)
     v_of_rho     :      5.88s CPU      6.15s WALL (      54 calls)
     v_h          :      0.51s CPU      0.51s WALL (      54 calls)
     v_xc         :      5.37s CPU      5.64s WALL (      54 calls)
     newd         :     18.03s CPU     20.78s WALL (      54 calls)
     PAW_pot      :      1.69s CPU      1.71s WALL (      54 calls)
     mix_rho      :     13.72s CPU     14.03s WALL (      53 calls)

     Called by c_bands:
     init_us_2    :      7.50s CPU      7.53s WALL (     535 calls)
     init_us_2:cp :      7.49s CPU      7.53s WALL (     535 calls)
     cegterg      :    559.27s CPU    564.08s WALL (     265 calls)

     Called by sum_band:
     sum_band:wei :      0.37s CPU      0.37s WALL (      53 calls)
     sum_band:loo :     98.37s CPU     99.08s WALL (      53 calls)
     sum_band:buf :      1.69s CPU      1.72s WALL (     265 calls)
     sum_band:ini :      3.53s CPU      3.54s WALL (     265 calls)
     sum_band:cal :     19.99s CPU     20.05s WALL (     265 calls)
     sum_band:bec :      0.61s CPU      0.61s WALL (     265 calls)
     addusdens    :     19.79s CPU     23.78s WALL (      53 calls)
                                        0.00s GPU  (      53 calls)
     addusd:skk   :      0.37s CPU      0.76s WALL (     212 calls)
                                        0.00s GPU  (     212 calls)

     Called by *egterg:
     cdiaghg      :     57.03s CPU     57.25s WALL (    1347 calls)
     cegterg:over :     41.42s CPU     41.54s WALL (    1082 calls)
     cegterg:upda :     29.44s CPU     29.83s WALL (    1082 calls)
     cegterg:last :     59.64s CPU     59.81s WALL (     474 calls)
     cdiaghg:chol :      3.26s CPU      3.29s WALL (    1347 calls)
     cdiaghg:inve :      3.58s CPU      3.59s WALL (    1347 calls)
     cdiaghg:para :      7.45s CPU      7.49s WALL (    2694 calls)
     h_psi        :    312.79s CPU    315.58s WALL (    1352 calls)
     s_psi        :     40.94s CPU     41.05s WALL (    1352 calls)
     g_psi        :      1.24s CPU      1.25s WALL (    1082 calls)

     Called by h_psi:
     h_psi:calbec :     45.74s CPU     45.88s WALL (    1352 calls)
     vloc_psi     :    222.67s CPU    224.77s WALL (    1352 calls)
     add_vuspsi   :     40.87s CPU     41.00s WALL (    1352 calls)

     General routines
     calbec       :     65.72s CPU     65.92s WALL (    1617 calls)
     fft          :      3.80s CPU      3.86s WALL (     700 calls)
     ffts         :      4.99s CPU      5.04s WALL (    5713 calls)
     fftw         :    188.62s CPU    190.08s WALL (  353692 calls)
     interpolate  :      0.44s CPU      0.45s WALL (      54 calls)
 
     Parallel routines

     PAW routines
     PAW_pot      :      1.69s CPU      1.71s WALL (      54 calls)
 
     PWSCF        :  12m39.14s CPU  12m55.72s WALL

 
   This run was terminated on:  16:25:48  21Jun2024            

=------------------------------------------------------------------------------=
   JOB DONE.
=------------------------------------------------------------------------------=
