
     Program PWSCF v.7.2 starts on 22Jun2024 at  2:34: 3 

     This program is part of the open-source Quantum ESPRESSO suite
     for quantum simulation of materials; please cite
         "P. Giannozzi et al., J. Phys.:Condens. Matter 21 395502 (2009);
         "P. Giannozzi et al., J. Phys.:Condens. Matter 29 465901 (2017);
         "P. Giannozzi et al., J. Chem. Phys. 152 154105 (2020);
          URL http://www.quantum-espresso.org", 
     in publications or presentations arising from this work. More details at
     http://www.quantum-espresso.org/quote

     Parallel version (MPI & OpenMP), running on      48 processor cores
     Number of MPI processes:                48
     Threads/MPI process:                     1

     MPI processes distributed on     1 nodes
     60575 MiB available memory on the printing compute node when the environment starts
 
     Reading input from espresso.pwi
Warning: card &CELL ignored
Warning: card / ignored
Warning: card &FCP ignored
Warning: card / ignored
Warning: card &RISM ignored
Warning: card / ignored

     Current dimensions of program PWSCF are:
     Max number of different atomic species (ntypx) = 10
     Max number of k-points (npk) =  40000
     Max angular momentum in pseudopotentials (lmaxx) =  4
     file O.pbe-n-kjpaw_psl.0.1.UPF: wavefunction(s)  2P renormalized
     signal trapping enabled: kill the code with -SIGUSR1 to stop cleanly the simulation 
 
     K-points division:     npool     =       2
     R & G space division:  proc/nbgrp/npool/nimage =      24
     Subspace diagonalization in iterative solution of the eigenvalue problem:
     one sub-group per band group will be used
     scalapack distributed-memory algorithm (size of sub-group:  3*  3 procs)

 
     Parallelization info
     --------------------
     sticks:   dense  smooth     PW     G-vecs:    dense   smooth      PW
     Min         350     175     47                61430    21716    3036
     Max         351     177     48                61449    21727    3041
     Sum        8421    4205   1137              1474595   521381   72913
 
     Using Slab Decomposition
 


     bravais-lattice index     =            0
     lattice parameter (alat)  =      14.8599  a.u.
     unit-cell volume          =    8305.1283 (a.u.)^3
     number of atoms/cell      =           49
     number of atomic types    =            3
     number of electrons       =       430.00
     number of Kohn-Sham states=          258
     kinetic-energy cutoff     =      60.0000  Ry
     charge density cutoff     =     480.0000  Ry
     scf convergence threshold =      1.0E-08
     mixing beta               =       0.1500
     number of iterations used =            8  local-TF  mixing
     Exchange-correlation= SLA  PW   PBE  PBE
                           (   1   4   3   4   0   0   0)

     celldm(1)=  14.859904  celldm(2)=   0.000000  celldm(3)=   0.000000
     celldm(4)=   0.000000  celldm(5)=   0.000000  celldm(6)=   0.000000

     crystal axes: (cart. coord. in units of alat)
               a(1) = (   1.000000   0.000000   0.000000 )  
               a(2) = (   0.000000   1.000000   0.000000 )  
               a(3) = (   0.000000   0.000000   2.531036 )  

     reciprocal axes: (cart. coord. in units 2 pi/alat)
               b(1) = (  1.000000  0.000000  0.000000 )  
               b(2) = (  0.000000  1.000000  0.000000 )  
               b(3) = (  0.000000  0.000000  0.395095 )  


     PseudoPot. # 1 for Sr read from file:
     /bsuhome/zayahcortright/q-e/pseudo/Sr_pbe_v1.uspp.F.UPF
     MD5 check sum: 6b418c05fbe9db5448babca5e47b7a5b
     Pseudo is Ultrasoft + core correction, Zval = 10.0
     Generated by new atomic code, or converted to UPF format
     Using radial grid of  883 points,  6 beta functions with: 
                l(1) =   0
                l(2) =   0
                l(3) =   1
                l(4) =   1
                l(5) =   2
                l(6) =   2
     Q(r) pseudized with  6 coefficients,  rinner =    1.400   1.400   1.400
                                                       1.400   1.400

     PseudoPot. # 2 for O  read from file:
     /bsuhome/zayahcortright/q-e/pseudo/O.pbe-n-kjpaw_psl.0.1.UPF
     MD5 check sum: 0234752ac141de4415c5fc33072bef88
     Pseudo is Projector augmented-wave + core cor, Zval =  6.0
     Generated using "atomic" code by A. Dal Corso  v.5.0.99 svn rev. 10869
     Shape of augmentation charge: BESSEL
     Using radial grid of 1095 points,  4 beta functions with: 
                l(1) =   0
                l(2) =   0
                l(3) =   1
                l(4) =   1
     Q(r) pseudized with 0 coefficients 


     PseudoPot. # 3 for Co read from file:
     /bsuhome/zayahcortright/q-e/pseudo/Co_pbe_v1.2.uspp.F.UPF
     MD5 check sum: 5f91765df6ddd3222702df6e7b74a16d
     Pseudo is Ultrasoft + core correction, Zval = 17.0
     Generated by new atomic code, or converted to UPF format
     Using radial grid of  863 points,  6 beta functions with: 
                l(1) =   0
                l(2) =   0
                l(3) =   1
                l(4) =   1
                l(5) =   2
                l(6) =   2
     Q(r) pseudized with  8 coefficients,  rinner =    1.200   1.200   1.200
                                                       1.200   1.200

     atomic species   valence    mass     pseudopotential
        Sr            10.00    87.62000     Sr( 1.00)
        O              6.00    15.99900     O ( 1.00)
        Co            17.00    58.93319     Co( 1.00)

     No symmetry found


                                    s                        frac. trans.

      isym =  1     identity                                     

 cryst.   s( 1) = (     1          0          0      )
                  (     0          1          0      )
                  (     0          0          1      )

 cart.    s( 1) = (  1.0000000  0.0000000  0.0000000 )
                  (  0.0000000  1.0000000  0.0000000 )
                  (  0.0000000  0.0000000  1.0000000 )


   Cartesian axes

     site n.     atom                  positions (alat units)
         1           Sr  tau(   1) = (   0.2508693   0.7491307   1.7574407  )
         2           O   tau(   2) = (   0.4985141   0.5014859   1.7715967  )
         3           Sr  tau(   3) = (   0.7482398   0.7454518   1.7648669  )
         4           Sr  tau(   4) = (   0.7441748   0.2558252   1.7667843  )
         5           Sr  tau(   5) = (   0.2508693   0.7491307   1.2696799  )
         6           Sr  tau(   6) = (   0.2508693   0.7491307   0.7632319  )
         7           Co  tau(   7) = (   0.4998914   0.5001086   1.0164559  )
         8           Co  tau(   8) = (   0.4936915   0.5063085   1.5135603  )
         9           O   tau(   9) = (   0.4988895   0.7610401   1.0164559  )
        10           O   tau(  10) = (   0.2389599   0.5011105   1.0164559  )
        11           O   tau(  11) = (   0.0070918   0.7374880   1.0164559  )
        12           O   tau(  12) = (   0.0088340   0.7405089   1.5135603  )
        13           O   tau(  13) = (   0.5066944   0.7415376   1.5135603  )
        14           O   tau(  14) = (   0.2584624   0.4933056   1.5135603  )
        15           O   tau(  15) = (   0.4985141   0.5014859   0.7773880  )
        16           O   tau(  16) = (   0.4985141   0.5014859   1.2555238  )
        17           Sr  tau(  17) = (   0.7482398   0.7454518   0.7706582  )
        18           Sr  tau(  18) = (   0.7482398   0.7454518   1.2622536  )
        19           Sr  tau(  19) = (   0.7441748   0.2558252   0.7725755  )
        20           Sr  tau(  20) = (   0.7441748   0.2558252   1.2603363  )
        21           O   tau(  21) = (   0.7322655   0.0078049   1.5135603  )
        22           O   tau(  22) = (   0.7558175   0.4996027   1.5135603  )
        23           O   tau(  23) = (   0.5003973   0.2441825   1.5135603  )
        24           O   tau(  24) = (   0.7527966   0.4978604   1.0164559  )
        25           O   tau(  25) = (   0.5021396   0.2472034   1.0164559  )
        26           O   tau(  26) = (   0.7517679   0.0000000   1.0164559  )
        27           O   tau(  27) = (   0.0114961   0.4948124   1.7455321  )
        28           O   tau(  28) = (   0.0048226   0.0077944   1.7715967  )
        29           Sr  tau(  29) = (   0.2545482   0.2517602   1.7648669  )
        30           O   tau(  30) = (   0.5048017   0.0015068   1.7786929  )
        31           Co  tau(  31) = (   0.0056869   0.5006215   1.0164559  )
        32           Co  tau(  32) = (   0.0065315   0.4997770   1.5135603  )
        33           Co  tau(  33) = (   0.0061999   0.0064171   1.0164559  )
        34           Co  tau(  34) = (   0.0000000   0.0126169   1.5135603  )
        35           O   tau(  35) = (   0.0114961   0.4948124   1.2815885  )
        36           O   tau(  36) = (   0.0114961   0.4948124   0.7513233  )
        37           O   tau(  37) = (   0.0051979   0.2673486   1.0164559  )
        38           O   tau(  38) = (   0.0130029   0.2478461   1.5135603  )
        39           O   tau(  39) = (   0.0048226   0.0077944   0.7773880  )
        40           O   tau(  40) = (   0.0048226   0.0077944   1.2555238  )
        41           Sr  tau(  41) = (   0.2545482   0.2517602   0.7706582  )
        42           Sr  tau(  42) = (   0.2545482   0.2517602   1.2622536  )
        43           Co  tau(  43) = (   0.4989925   0.0073160   1.5135603  )
        44           Co  tau(  44) = (   0.4998370   0.0064714   1.0164559  )
        45           O   tau(  45) = (   0.5048017   0.0015068   0.7844841  )
        46           O   tau(  46) = (   0.5048017   0.0015068   1.2484277  )
        47           O   tau(  47) = (   0.2621260   0.0059111   1.5135603  )
        48           O   tau(  48) = (   0.2591051   0.0041689   1.0164559  )
        49           O   tau(  49) = (   0.9951520   0.2843291   2.1602013  )

   Crystallographic axes

     site n.     atom                  positions (cryst. coord.)
         1           Sr  tau(   1) = (  0.2508693  0.7491307  0.6943562  )
         2           O   tau(   2) = (  0.4985141  0.5014859  0.6999492  )
         3           Sr  tau(   3) = (  0.7482398  0.7454518  0.6972903  )
         4           Sr  tau(   4) = (  0.7441748  0.2558252  0.6980478  )
         5           Sr  tau(   5) = (  0.2508693  0.7491307  0.5016443  )
         6           Sr  tau(   6) = (  0.2508693  0.7491307  0.3015492  )
         7           Co  tau(   7) = (  0.4998914  0.5001086  0.4015968  )
         8           Co  tau(   8) = (  0.4936915  0.5063085  0.5980003  )
         9           O   tau(   9) = (  0.4988895  0.7610401  0.4015968  )
        10           O   tau(  10) = (  0.2389599  0.5011105  0.4015968  )
        11           O   tau(  11) = (  0.0070918  0.7374880  0.4015968  )
        12           O   tau(  12) = (  0.0088340  0.7405089  0.5980003  )
        13           O   tau(  13) = (  0.5066944  0.7415376  0.5980003  )
        14           O   tau(  14) = (  0.2584624  0.4933056  0.5980003  )
        15           O   tau(  15) = (  0.4985141  0.5014859  0.3071422  )
        16           O   tau(  16) = (  0.4985141  0.5014859  0.4960513  )
        17           Sr  tau(  17) = (  0.7482398  0.7454518  0.3044833  )
        18           Sr  tau(  18) = (  0.7482398  0.7454518  0.4987103  )
        19           Sr  tau(  19) = (  0.7441748  0.2558252  0.3052408  )
        20           Sr  tau(  20) = (  0.7441748  0.2558252  0.4979527  )
        21           O   tau(  21) = (  0.7322655  0.0078049  0.5980003  )
        22           O   tau(  22) = (  0.7558175  0.4996027  0.5980003  )
        23           O   tau(  23) = (  0.5003973  0.2441825  0.5980003  )
        24           O   tau(  24) = (  0.7527966  0.4978604  0.4015968  )
        25           O   tau(  25) = (  0.5021396  0.2472034  0.4015968  )
        26           O   tau(  26) = (  0.7517679  0.0000000  0.4015968  )
        27           O   tau(  27) = (  0.0114961  0.4948124  0.6896512  )
        28           O   tau(  28) = (  0.0048226  0.0077944  0.6999492  )
        29           Sr  tau(  29) = (  0.2545482  0.2517602  0.6972903  )
        30           O   tau(  30) = (  0.5048017  0.0015068  0.7027529  )
        31           Co  tau(  31) = (  0.0056869  0.5006215  0.4015968  )
        32           Co  tau(  32) = (  0.0065315  0.4997770  0.5980003  )
        33           Co  tau(  33) = (  0.0061999  0.0064171  0.4015968  )
        34           Co  tau(  34) = (  0.0000000  0.0126169  0.5980003  )
        35           O   tau(  35) = (  0.0114961  0.4948124  0.5063494  )
        36           O   tau(  36) = (  0.0114961  0.4948124  0.2968442  )
        37           O   tau(  37) = (  0.0051979  0.2673486  0.4015968  )
        38           O   tau(  38) = (  0.0130029  0.2478461  0.5980003  )
        39           O   tau(  39) = (  0.0048226  0.0077944  0.3071422  )
        40           O   tau(  40) = (  0.0048226  0.0077944  0.4960513  )
        41           Sr  tau(  41) = (  0.2545482  0.2517602  0.3044833  )
        42           Sr  tau(  42) = (  0.2545482  0.2517602  0.4987103  )
        43           Co  tau(  43) = (  0.4989925  0.0073160  0.5980003  )
        44           Co  tau(  44) = (  0.4998370  0.0064714  0.4015968  )
        45           O   tau(  45) = (  0.5048017  0.0015068  0.3099459  )
        46           O   tau(  46) = (  0.5048017  0.0015068  0.4932477  )
        47           O   tau(  47) = (  0.2621260  0.0059111  0.5980003  )
        48           O   tau(  48) = (  0.2591051  0.0041689  0.4015968  )
        49           O   tau(  49) = (  0.9951520  0.2843291  0.8534850  )

     number of k points=    10  Gaussian smearing, width (Ry)=  0.0700
                       cart. coord. in units 2pi/alat
        k(    1) = (   0.0000000   0.0000000   0.0000000), wk =   0.1250000
        k(    2) = (   0.0000000   0.2500000   0.0000000), wk =   0.2500000
        k(    3) = (   0.0000000  -0.5000000   0.0000000), wk =   0.1250000
        k(    4) = (   0.2500000   0.2500000   0.0000000), wk =   0.2500000
        k(    5) = (   0.2500000  -0.5000000   0.0000000), wk =   0.2500000
        k(    6) = (  -0.5000000  -0.5000000   0.0000000), wk =   0.1250000
        k(    7) = (   0.2500000   0.0000000   0.0000000), wk =   0.2500000
        k(    8) = (  -0.5000000   0.0000000   0.0000000), wk =   0.1250000
        k(    9) = (  -0.2500000   0.2500000   0.0000000), wk =   0.2500000
        k(   10) = (  -0.5000000   0.2500000   0.0000000), wk =   0.2500000

                       cryst. coord.
        k(    1) = (   0.0000000   0.0000000   0.0000000), wk =   0.1250000
        k(    2) = (   0.0000000   0.2500000   0.0000000), wk =   0.2500000
        k(    3) = (   0.0000000  -0.5000000   0.0000000), wk =   0.1250000
        k(    4) = (   0.2500000   0.2500000   0.0000000), wk =   0.2500000
        k(    5) = (   0.2500000  -0.5000000   0.0000000), wk =   0.2500000
        k(    6) = (  -0.5000000  -0.5000000   0.0000000), wk =   0.1250000
        k(    7) = (   0.2500000   0.0000000   0.0000000), wk =   0.2500000
        k(    8) = (  -0.5000000   0.0000000   0.0000000), wk =   0.1250000
        k(    9) = (  -0.2500000   0.2500000   0.0000000), wk =   0.2500000
        k(   10) = (  -0.5000000   0.2500000   0.0000000), wk =   0.2500000

     Dense  grid:  1474595 G-vectors     FFT dimensions: ( 108, 108, 270)

     Smooth grid:   521381 G-vectors     FFT dimensions: (  75,  75, 192)

     Dynamical RAM for                 wfc:      10.69 MB

     Dynamical RAM for     wfc (w. buffer):      64.13 MB

     Dynamical RAM for           str. fact:       2.81 MB

     Dynamical RAM for           local pot:       0.00 MB

     Dynamical RAM for          nlocal pot:      24.53 MB

     Dynamical RAM for                qrad:       5.27 MB

     Dynamical RAM for          rho,v,vnew:       6.02 MB

     Dynamical RAM for               rhoin:       2.01 MB

     Dynamical RAM for            rho*nmix:      15.00 MB

     Dynamical RAM for           G-vectors:       3.68 MB

     Dynamical RAM for          h,s,v(r/c):       1.35 MB

     Dynamical RAM for          <psi|beta>:       2.33 MB

     Dynamical RAM for                 psi:      21.38 MB

     Dynamical RAM for                hpsi:      21.38 MB

     Dynamical RAM for                spsi:      21.38 MB

     Dynamical RAM for      wfcinit/wfcrot:      34.39 MB

     Dynamical RAM for           addusdens:     101.26 MB

     Estimated static dynamical RAM per process >     117.53 MB

     Estimated max dynamical RAM per process >     233.79 MB

     Estimated total dynamical RAM >      10.61 GB

     Check: negative core charge=   -0.000004

     Initial potential from superposition of free atoms

     starting charge     421.5961, renormalised to     430.0000

     negative rho (up, down):  7.826E-01 0.000E+00
     Starting wfcs are  376 randomized atomic wfcs
     Checking if some PAW data can be deallocated... 
       PAW data deallocated on   19 nodes for type:  2

     total cpu time spent up to now is        9.2 secs

     Self-consistent Calculation

     iteration #  1     ecut=    60.00 Ry     beta= 0.15
     Davidson diagonalization with overlap

---- Real-time Memory Report at c_bands before calling an iterative solver
             0 MiB given to the printing process from OS
             0 MiB allocation reported by mallinfo(arena+hblkhd)
         51472 MiB available memory on the node where the printing process lives
------------------
     ethr =  1.00E-02,  avg # of iterations =  2.0

     negative rho (up, down):  7.716E-01 0.000E+00

     total cpu time spent up to now is       24.5 secs

     total energy              =   -4445.19525722 Ry
     estimated scf accuracy    <      53.97152068 Ry

     iteration #  2     ecut=    60.00 Ry     beta= 0.15
     Davidson diagonalization with overlap

---- Real-time Memory Report at c_bands before calling an iterative solver
             0 MiB given to the printing process from OS
             0 MiB allocation reported by mallinfo(arena+hblkhd)
         51835 MiB available memory on the node where the printing process lives
------------------
     ethr =  1.00E-02,  avg # of iterations =  1.0

     negative rho (up, down):  7.593E-01 0.000E+00

     total cpu time spent up to now is       37.4 secs

     total energy              =   -4441.99185988 Ry
     estimated scf accuracy    <      28.12223150 Ry

     iteration #  3     ecut=    60.00 Ry     beta= 0.15
     Davidson diagonalization with overlap

---- Real-time Memory Report at c_bands before calling an iterative solver
             0 MiB given to the printing process from OS
             0 MiB allocation reported by mallinfo(arena+hblkhd)
         51075 MiB available memory on the node where the printing process lives
------------------
     ethr =  6.54E-03,  avg # of iterations =  1.0

     negative rho (up, down):  7.529E-01 0.000E+00

     total cpu time spent up to now is       50.3 secs

     total energy              =   -4442.57565354 Ry
     estimated scf accuracy    <      29.71168225 Ry

     iteration #  4     ecut=    60.00 Ry     beta= 0.15
     Davidson diagonalization with overlap

---- Real-time Memory Report at c_bands before calling an iterative solver
             0 MiB given to the printing process from OS
             0 MiB allocation reported by mallinfo(arena+hblkhd)
         51025 MiB available memory on the node where the printing process lives
------------------
     ethr =  6.54E-03,  avg # of iterations =  1.0

     negative rho (up, down):  7.531E-01 0.000E+00

     total cpu time spent up to now is       63.1 secs

     total energy              =   -4442.78847550 Ry
     estimated scf accuracy    <      27.97682480 Ry

     iteration #  5     ecut=    60.00 Ry     beta= 0.15
     Davidson diagonalization with overlap

---- Real-time Memory Report at c_bands before calling an iterative solver
             0 MiB given to the printing process from OS
             0 MiB allocation reported by mallinfo(arena+hblkhd)
         51008 MiB available memory on the node where the printing process lives
------------------
     ethr =  6.51E-03,  avg # of iterations =  1.0

     negative rho (up, down):  7.433E-01 0.000E+00

     total cpu time spent up to now is       75.8 secs

     total energy              =   -4442.23472017 Ry
     estimated scf accuracy    <      26.45437696 Ry

     iteration #  6     ecut=    60.00 Ry     beta= 0.15
     Davidson diagonalization with overlap

---- Real-time Memory Report at c_bands before calling an iterative solver
             0 MiB given to the printing process from OS
             0 MiB allocation reported by mallinfo(arena+hblkhd)
         50983 MiB available memory on the node where the printing process lives
------------------
     ethr =  6.15E-03,  avg # of iterations =  1.0

     negative rho (up, down):  7.496E-01 0.000E+00

     total cpu time spent up to now is       88.6 secs

     total energy              =   -4441.38615577 Ry
     estimated scf accuracy    <      40.77255551 Ry

     iteration #  7     ecut=    60.00 Ry     beta= 0.15
     Davidson diagonalization with overlap

---- Real-time Memory Report at c_bands before calling an iterative solver
             0 MiB given to the printing process from OS
             0 MiB allocation reported by mallinfo(arena+hblkhd)
         50965 MiB available memory on the node where the printing process lives
------------------
     ethr =  6.15E-03,  avg # of iterations =  1.0

     negative rho (up, down):  7.504E-01 0.000E+00

     total cpu time spent up to now is      101.2 secs

     total energy              =   -4441.11285597 Ry
     estimated scf accuracy    <      11.53458480 Ry

     iteration #  8     ecut=    60.00 Ry     beta= 0.15
     Davidson diagonalization with overlap

---- Real-time Memory Report at c_bands before calling an iterative solver
             0 MiB given to the printing process from OS
             0 MiB allocation reported by mallinfo(arena+hblkhd)
         50956 MiB available memory on the node where the printing process lives
------------------
     ethr =  2.68E-03,  avg # of iterations =  1.0

     negative rho (up, down):  7.497E-01 0.000E+00

     total cpu time spent up to now is      113.8 secs

     total energy              =   -4440.39233436 Ry
     estimated scf accuracy    <       4.65294419 Ry

     iteration #  9     ecut=    60.00 Ry     beta= 0.15
     Davidson diagonalization with overlap

---- Real-time Memory Report at c_bands before calling an iterative solver
             0 MiB given to the printing process from OS
             0 MiB allocation reported by mallinfo(arena+hblkhd)
         50935 MiB available memory on the node where the printing process lives
------------------
     ethr =  1.08E-03,  avg # of iterations =  6.0

     negative rho (up, down):  7.588E-01 0.000E+00

     total cpu time spent up to now is      131.1 secs

     total energy              =   -4441.47486680 Ry
     estimated scf accuracy    <      26.42395947 Ry

     iteration # 10     ecut=    60.00 Ry     beta= 0.15
     Davidson diagonalization with overlap

---- Real-time Memory Report at c_bands before calling an iterative solver
             0 MiB given to the printing process from OS
             0 MiB allocation reported by mallinfo(arena+hblkhd)
         50717 MiB available memory on the node where the printing process lives
------------------
     ethr =  1.08E-03,  avg # of iterations =  1.4

     negative rho (up, down):  7.701E-01 0.000E+00

     total cpu time spent up to now is      144.4 secs

     total energy              =   -4439.88632675 Ry
     estimated scf accuracy    <      34.37791803 Ry

     iteration # 11     ecut=    60.00 Ry     beta= 0.15
     Davidson diagonalization with overlap

---- Real-time Memory Report at c_bands before calling an iterative solver
             0 MiB given to the printing process from OS
             0 MiB allocation reported by mallinfo(arena+hblkhd)
         50748 MiB available memory on the node where the printing process lives
------------------
     ethr =  1.08E-03,  avg # of iterations =  8.4

     negative rho (up, down):  7.746E-01 0.000E+00

     total cpu time spent up to now is      161.5 secs

     total energy              =   -4440.55697018 Ry
     estimated scf accuracy    <       2.72845437 Ry

     iteration # 12     ecut=    60.00 Ry     beta= 0.15
     Davidson diagonalization with overlap

---- Real-time Memory Report at c_bands before calling an iterative solver
             0 MiB given to the printing process from OS
             0 MiB allocation reported by mallinfo(arena+hblkhd)
         50646 MiB available memory on the node where the printing process lives
------------------
     ethr =  6.35E-04,  avg # of iterations =  7.7

     negative rho (up, down):  7.875E-01 0.000E+00

     total cpu time spent up to now is      179.1 secs

     total energy              =   -4440.46453615 Ry
     estimated scf accuracy    <       1.43925207 Ry

     iteration # 13     ecut=    60.00 Ry     beta= 0.15
     Davidson diagonalization with overlap

---- Real-time Memory Report at c_bands before calling an iterative solver
             0 MiB given to the printing process from OS
             0 MiB allocation reported by mallinfo(arena+hblkhd)
         50573 MiB available memory on the node where the printing process lives
------------------
     ethr =  3.35E-04,  avg # of iterations =  8.0

     negative rho (up, down):  8.024E-01 0.000E+00

     total cpu time spent up to now is      195.8 secs

     total energy              =   -4440.48681821 Ry
     estimated scf accuracy    <       0.92787075 Ry

     iteration # 14     ecut=    60.00 Ry     beta= 0.15
     Davidson diagonalization with overlap

---- Real-time Memory Report at c_bands before calling an iterative solver
             0 MiB given to the printing process from OS
             0 MiB allocation reported by mallinfo(arena+hblkhd)
         50481 MiB available memory on the node where the printing process lives
------------------
     ethr =  2.16E-04,  avg # of iterations =  4.6

     negative rho (up, down):  8.152E-01 0.000E+00

     total cpu time spent up to now is      211.4 secs

     total energy              =   -4440.33475294 Ry
     estimated scf accuracy    <       6.54069216 Ry

     iteration # 15     ecut=    60.00 Ry     beta= 0.15
     Davidson diagonalization with overlap

---- Real-time Memory Report at c_bands before calling an iterative solver
             0 MiB given to the printing process from OS
             0 MiB allocation reported by mallinfo(arena+hblkhd)
         50497 MiB available memory on the node where the printing process lives
------------------
     ethr =  2.16E-04,  avg # of iterations =  8.5

     negative rho (up, down):  8.182E-01 0.000E+00

     total cpu time spent up to now is      228.6 secs

     total energy              =   -4440.40061150 Ry
     estimated scf accuracy    <       1.23362659 Ry

     iteration # 16     ecut=    60.00 Ry     beta= 0.15
     Davidson diagonalization with overlap

---- Real-time Memory Report at c_bands before calling an iterative solver
             0 MiB given to the printing process from OS
             0 MiB allocation reported by mallinfo(arena+hblkhd)
         50456 MiB available memory on the node where the printing process lives
------------------
     ethr =  2.16E-04,  avg # of iterations =  1.0

     negative rho (up, down):  8.124E-01 0.000E+00

     total cpu time spent up to now is      241.2 secs

     total energy              =   -4440.40742639 Ry
     estimated scf accuracy    <       0.39086403 Ry

     iteration # 17     ecut=    60.00 Ry     beta= 0.15
     Davidson diagonalization with overlap

---- Real-time Memory Report at c_bands before calling an iterative solver
             0 MiB given to the printing process from OS
             0 MiB allocation reported by mallinfo(arena+hblkhd)
         50477 MiB available memory on the node where the printing process lives
------------------
     ethr =  9.09E-05,  avg # of iterations =  2.5

     negative rho (up, down):  8.107E-01 0.000E+00

     total cpu time spent up to now is      255.5 secs

     total energy              =   -4440.37521692 Ry
     estimated scf accuracy    <       0.30970667 Ry

     iteration # 18     ecut=    60.00 Ry     beta= 0.15
     Davidson diagonalization with overlap

---- Real-time Memory Report at c_bands before calling an iterative solver
             0 MiB given to the printing process from OS
             0 MiB allocation reported by mallinfo(arena+hblkhd)
         50514 MiB available memory on the node where the printing process lives
------------------
     c_bands:  2 eigenvalues not converged
     ethr =  7.20E-05,  avg # of iterations =  8.8

     negative rho (up, down):  8.153E-01 0.000E+00

     total cpu time spent up to now is      272.7 secs

     total energy              =   -4440.35851975 Ry
     estimated scf accuracy    <       0.30810860 Ry

     iteration # 19     ecut=    60.00 Ry     beta= 0.15
     Davidson diagonalization with overlap

---- Real-time Memory Report at c_bands before calling an iterative solver
             0 MiB given to the printing process from OS
             0 MiB allocation reported by mallinfo(arena+hblkhd)
         50550 MiB available memory on the node where the printing process lives
------------------
     ethr =  7.17E-05,  avg # of iterations =  6.6

     negative rho (up, down):  8.182E-01 0.000E+00

     total cpu time spent up to now is      288.6 secs

     total energy              =   -4440.34319413 Ry
     estimated scf accuracy    <       0.21568161 Ry

     iteration # 20     ecut=    60.00 Ry     beta= 0.15
     Davidson diagonalization with overlap

---- Real-time Memory Report at c_bands before calling an iterative solver
             0 MiB given to the printing process from OS
             0 MiB allocation reported by mallinfo(arena+hblkhd)
         50553 MiB available memory on the node where the printing process lives
------------------
     ethr =  5.02E-05,  avg # of iterations = 11.3

     negative rho (up, down):  8.044E-01 0.000E+00

     total cpu time spent up to now is      307.1 secs

     total energy              =   -4440.33029857 Ry
     estimated scf accuracy    <       0.21597904 Ry

     iteration # 21     ecut=    60.00 Ry     beta= 0.15
     Davidson diagonalization with overlap

---- Real-time Memory Report at c_bands before calling an iterative solver
             0 MiB given to the printing process from OS
             0 MiB allocation reported by mallinfo(arena+hblkhd)
         50539 MiB available memory on the node where the printing process lives
------------------
     ethr =  5.02E-05,  avg # of iterations =  2.0

     negative rho (up, down):  8.000E-01 0.000E+00

     total cpu time spent up to now is      321.3 secs

     total energy              =   -4440.32179895 Ry
     estimated scf accuracy    <       0.08848226 Ry

     iteration # 22     ecut=    60.00 Ry     beta= 0.15
     Davidson diagonalization with overlap

---- Real-time Memory Report at c_bands before calling an iterative solver
             0 MiB given to the printing process from OS
             0 MiB allocation reported by mallinfo(arena+hblkhd)
         50554 MiB available memory on the node where the printing process lives
------------------
     ethr =  2.06E-05,  avg # of iterations = 10.7

     negative rho (up, down):  8.023E-01 0.000E+00

     total cpu time spent up to now is      339.6 secs

     total energy              =   -4440.31570330 Ry
     estimated scf accuracy    <       0.05741612 Ry

     iteration # 23     ecut=    60.00 Ry     beta= 0.15
     Davidson diagonalization with overlap

---- Real-time Memory Report at c_bands before calling an iterative solver
             0 MiB given to the printing process from OS
             0 MiB allocation reported by mallinfo(arena+hblkhd)
         50392 MiB available memory on the node where the printing process lives
------------------
     ethr =  1.34E-05,  avg # of iterations =  6.3

     negative rho (up, down):  8.202E-01 0.000E+00

     total cpu time spent up to now is      355.7 secs

     total energy              =   -4440.31131943 Ry
     estimated scf accuracy    <       0.04164616 Ry

     iteration # 24     ecut=    60.00 Ry     beta= 0.15
     Davidson diagonalization with overlap

---- Real-time Memory Report at c_bands before calling an iterative solver
             0 MiB given to the printing process from OS
             0 MiB allocation reported by mallinfo(arena+hblkhd)
         50472 MiB available memory on the node where the printing process lives
------------------
     ethr =  9.69E-06,  avg # of iterations =  9.7

     negative rho (up, down):  8.296E-01 0.000E+00

     total cpu time spent up to now is      373.9 secs

     total energy              =   -4440.30764479 Ry
     estimated scf accuracy    <       0.02688754 Ry

     iteration # 25     ecut=    60.00 Ry     beta= 0.15
     Davidson diagonalization with overlap

---- Real-time Memory Report at c_bands before calling an iterative solver
             0 MiB given to the printing process from OS
             0 MiB allocation reported by mallinfo(arena+hblkhd)
         50402 MiB available memory on the node where the printing process lives
------------------
     ethr =  6.25E-06,  avg # of iterations =  9.6

     negative rho (up, down):  8.191E-01 0.000E+00

     total cpu time spent up to now is      391.6 secs

     total energy              =   -4440.30673954 Ry
     estimated scf accuracy    <       0.01755050 Ry

     iteration # 26     ecut=    60.00 Ry     beta= 0.15
     Davidson diagonalization with overlap

---- Real-time Memory Report at c_bands before calling an iterative solver
             0 MiB given to the printing process from OS
             0 MiB allocation reported by mallinfo(arena+hblkhd)
         50363 MiB available memory on the node where the printing process lives
------------------
     ethr =  4.08E-06,  avg # of iterations =  4.0

     negative rho (up, down):  7.984E-01 0.000E+00

     total cpu time spent up to now is      406.7 secs

     total energy              =   -4440.30532772 Ry
     estimated scf accuracy    <       0.01075214 Ry

     iteration # 27     ecut=    60.00 Ry     beta= 0.15
     Davidson diagonalization with overlap

---- Real-time Memory Report at c_bands before calling an iterative solver
             0 MiB given to the printing process from OS
             0 MiB allocation reported by mallinfo(arena+hblkhd)
         50377 MiB available memory on the node where the printing process lives
------------------
     ethr =  2.50E-06,  avg # of iterations =  7.3

     negative rho (up, down):  7.928E-01 0.000E+00

     total cpu time spent up to now is      423.7 secs

     total energy              =   -4440.30504244 Ry
     estimated scf accuracy    <       0.00447302 Ry

     iteration # 28     ecut=    60.00 Ry     beta= 0.15
     Davidson diagonalization with overlap

---- Real-time Memory Report at c_bands before calling an iterative solver
             0 MiB given to the printing process from OS
             0 MiB allocation reported by mallinfo(arena+hblkhd)
         50384 MiB available memory on the node where the printing process lives
------------------
     c_bands:  1 eigenvalues not converged
     ethr =  1.04E-06,  avg # of iterations = 11.3

     negative rho (up, down):  7.946E-01 0.000E+00

     total cpu time spent up to now is      442.3 secs

     total energy              =   -4440.30506203 Ry
     estimated scf accuracy    <       0.00293881 Ry

     iteration # 29     ecut=    60.00 Ry     beta= 0.15
     Davidson diagonalization with overlap

---- Real-time Memory Report at c_bands before calling an iterative solver
             0 MiB given to the printing process from OS
             0 MiB allocation reported by mallinfo(arena+hblkhd)
         50393 MiB available memory on the node where the printing process lives
------------------
     ethr =  6.83E-07,  avg # of iterations =  3.5

     negative rho (up, down):  7.959E-01 0.000E+00

     total cpu time spent up to now is      457.2 secs

     total energy              =   -4440.30473963 Ry
     estimated scf accuracy    <       0.00219608 Ry

     iteration # 30     ecut=    60.00 Ry     beta= 0.15
     Davidson diagonalization with overlap

---- Real-time Memory Report at c_bands before calling an iterative solver
             0 MiB given to the printing process from OS
             0 MiB allocation reported by mallinfo(arena+hblkhd)
         50396 MiB available memory on the node where the printing process lives
------------------
     c_bands:  1 eigenvalues not converged
     c_bands:  1 eigenvalues not converged
     ethr =  5.11E-07,  avg # of iterations = 10.4

     negative rho (up, down):  7.971E-01 0.000E+00

     total cpu time spent up to now is      475.6 secs

     total energy              =   -4440.30471419 Ry
     estimated scf accuracy    <       0.00074699 Ry

     iteration # 31     ecut=    60.00 Ry     beta= 0.15
     Davidson diagonalization with overlap

---- Real-time Memory Report at c_bands before calling an iterative solver
             0 MiB given to the printing process from OS
             0 MiB allocation reported by mallinfo(arena+hblkhd)
         50431 MiB available memory on the node where the printing process lives
------------------
     ethr =  1.74E-07,  avg # of iterations =  6.1

     negative rho (up, down):  7.980E-01 0.000E+00

     total cpu time spent up to now is      494.4 secs

     total energy              =   -4440.30473802 Ry
     estimated scf accuracy    <       0.00039731 Ry

     iteration # 32     ecut=    60.00 Ry     beta= 0.15
     Davidson diagonalization with overlap

---- Real-time Memory Report at c_bands before calling an iterative solver
             0 MiB given to the printing process from OS
             0 MiB allocation reported by mallinfo(arena+hblkhd)
         50266 MiB available memory on the node where the printing process lives
------------------
     ethr =  9.24E-08,  avg # of iterations =  5.6

     negative rho (up, down):  7.958E-01 0.000E+00

     total cpu time spent up to now is      510.4 secs

     total energy              =   -4440.30469455 Ry
     estimated scf accuracy    <       0.00011413 Ry

     iteration # 33     ecut=    60.00 Ry     beta= 0.15
     Davidson diagonalization with overlap

---- Real-time Memory Report at c_bands before calling an iterative solver
             0 MiB given to the printing process from OS
             0 MiB allocation reported by mallinfo(arena+hblkhd)
         50364 MiB available memory on the node where the printing process lives
------------------
     ethr =  2.65E-08,  avg # of iterations =  2.0

     negative rho (up, down):  7.932E-01 0.000E+00

     total cpu time spent up to now is      524.7 secs

     total energy              =   -4440.30467193 Ry
     estimated scf accuracy    <       0.00006185 Ry

     iteration # 34     ecut=    60.00 Ry     beta= 0.15
     Davidson diagonalization with overlap

---- Real-time Memory Report at c_bands before calling an iterative solver
             0 MiB given to the printing process from OS
             0 MiB allocation reported by mallinfo(arena+hblkhd)
         50368 MiB available memory on the node where the printing process lives
------------------
     c_bands:  1 eigenvalues not converged
     ethr =  1.44E-08,  avg # of iterations =  6.9

     negative rho (up, down):  7.929E-01 0.000E+00

     total cpu time spent up to now is      540.7 secs

     total energy              =   -4440.30467349 Ry
     estimated scf accuracy    <       0.00004303 Ry

     iteration # 35     ecut=    60.00 Ry     beta= 0.15
     Davidson diagonalization with overlap

---- Real-time Memory Report at c_bands before calling an iterative solver
             0 MiB given to the printing process from OS
             0 MiB allocation reported by mallinfo(arena+hblkhd)
         50396 MiB available memory on the node where the printing process lives
------------------
     ethr =  1.00E-08,  avg # of iterations =  2.0

     negative rho (up, down):  7.927E-01 0.000E+00

     total cpu time spent up to now is      554.9 secs

     total energy              =   -4440.30467925 Ry
     estimated scf accuracy    <       0.00002442 Ry

     iteration # 36     ecut=    60.00 Ry     beta= 0.15
     Davidson diagonalization with overlap

---- Real-time Memory Report at c_bands before calling an iterative solver
             0 MiB given to the printing process from OS
             0 MiB allocation reported by mallinfo(arena+hblkhd)
         50426 MiB available memory on the node where the printing process lives
------------------
     ethr =  5.68E-09,  avg # of iterations =  1.9

     negative rho (up, down):  7.928E-01 0.000E+00

     total cpu time spent up to now is      569.0 secs

     total energy              =   -4440.30468383 Ry
     estimated scf accuracy    <       0.00001862 Ry

     iteration # 37     ecut=    60.00 Ry     beta= 0.15
     Davidson diagonalization with overlap

---- Real-time Memory Report at c_bands before calling an iterative solver
             0 MiB given to the printing process from OS
             0 MiB allocation reported by mallinfo(arena+hblkhd)
         50462 MiB available memory on the node where the printing process lives
------------------
     ethr =  4.33E-09,  avg # of iterations =  2.0

     negative rho (up, down):  7.928E-01 0.000E+00

     total cpu time spent up to now is      583.2 secs

     total energy              =   -4440.30468763 Ry
     estimated scf accuracy    <       0.00001078 Ry

     iteration # 38     ecut=    60.00 Ry     beta= 0.15
     Davidson diagonalization with overlap

---- Real-time Memory Report at c_bands before calling an iterative solver
             0 MiB given to the printing process from OS
             0 MiB allocation reported by mallinfo(arena+hblkhd)
         50451 MiB available memory on the node where the printing process lives
------------------
     ethr =  2.51E-09,  avg # of iterations =  2.0

     negative rho (up, down):  7.928E-01 0.000E+00

     total cpu time spent up to now is      597.4 secs

     total energy              =   -4440.30469026 Ry
     estimated scf accuracy    <       0.00000701 Ry

     iteration # 39     ecut=    60.00 Ry     beta= 0.15
     Davidson diagonalization with overlap

---- Real-time Memory Report at c_bands before calling an iterative solver
             0 MiB given to the printing process from OS
             0 MiB allocation reported by mallinfo(arena+hblkhd)
         50457 MiB available memory on the node where the printing process lives
------------------
     ethr =  1.63E-09,  avg # of iterations =  2.5

     negative rho (up, down):  7.929E-01 0.000E+00

     total cpu time spent up to now is      611.9 secs

     total energy              =   -4440.30469064 Ry
     estimated scf accuracy    <       0.00000374 Ry

     iteration # 40     ecut=    60.00 Ry     beta= 0.15
     Davidson diagonalization with overlap

---- Real-time Memory Report at c_bands before calling an iterative solver
             0 MiB given to the printing process from OS
             0 MiB allocation reported by mallinfo(arena+hblkhd)
         50458 MiB available memory on the node where the printing process lives
------------------
     ethr =  8.69E-10,  avg # of iterations =  2.0

     negative rho (up, down):  7.929E-01 0.000E+00

     total cpu time spent up to now is      626.2 secs

     total energy              =   -4440.30469075 Ry
     estimated scf accuracy    <       0.00000390 Ry

     iteration # 41     ecut=    60.00 Ry     beta= 0.15
     Davidson diagonalization with overlap

---- Real-time Memory Report at c_bands before calling an iterative solver
             0 MiB given to the printing process from OS
             0 MiB allocation reported by mallinfo(arena+hblkhd)
         50469 MiB available memory on the node where the printing process lives
------------------
     ethr =  8.69E-10,  avg # of iterations =  1.4

     negative rho (up, down):  7.929E-01 0.000E+00

     total cpu time spent up to now is      639.6 secs

     total energy              =   -4440.30469062 Ry
     estimated scf accuracy    <       0.00000324 Ry

     iteration # 42     ecut=    60.00 Ry     beta= 0.15
     Davidson diagonalization with overlap

---- Real-time Memory Report at c_bands before calling an iterative solver
             0 MiB given to the printing process from OS
             0 MiB allocation reported by mallinfo(arena+hblkhd)
         50480 MiB available memory on the node where the printing process lives
------------------
     ethr =  7.54E-10,  avg # of iterations =  1.0

     negative rho (up, down):  7.929E-01 0.000E+00

     total cpu time spent up to now is      652.4 secs

     total energy              =   -4440.30469081 Ry
     estimated scf accuracy    <       0.00000306 Ry

     iteration # 43     ecut=    60.00 Ry     beta= 0.15
     Davidson diagonalization with overlap

---- Real-time Memory Report at c_bands before calling an iterative solver
             0 MiB given to the printing process from OS
             0 MiB allocation reported by mallinfo(arena+hblkhd)
         50482 MiB available memory on the node where the printing process lives
------------------
     ethr =  7.12E-10,  avg # of iterations =  1.0

     negative rho (up, down):  7.928E-01 0.000E+00

     total cpu time spent up to now is      665.2 secs

     total energy              =   -4440.30469082 Ry
     estimated scf accuracy    <       0.00000304 Ry

     iteration # 44     ecut=    60.00 Ry     beta= 0.15
     Davidson diagonalization with overlap

---- Real-time Memory Report at c_bands before calling an iterative solver
             0 MiB given to the printing process from OS
             0 MiB allocation reported by mallinfo(arena+hblkhd)
         50481 MiB available memory on the node where the printing process lives
------------------
     ethr =  7.06E-10,  avg # of iterations =  1.0

     negative rho (up, down):  7.928E-01 0.000E+00

     total cpu time spent up to now is      678.1 secs

     total energy              =   -4440.30469127 Ry
     estimated scf accuracy    <       0.00000283 Ry

     iteration # 45     ecut=    60.00 Ry     beta= 0.15
     Davidson diagonalization with overlap

---- Real-time Memory Report at c_bands before calling an iterative solver
             0 MiB given to the printing process from OS
             0 MiB allocation reported by mallinfo(arena+hblkhd)
         50486 MiB available memory on the node where the printing process lives
------------------
     ethr =  6.59E-10,  avg # of iterations =  1.0

     negative rho (up, down):  7.927E-01 0.000E+00

     total cpu time spent up to now is      690.8 secs

     total energy              =   -4440.30469173 Ry
     estimated scf accuracy    <       0.00000257 Ry

     iteration # 46     ecut=    60.00 Ry     beta= 0.15
     Davidson diagonalization with overlap

---- Real-time Memory Report at c_bands before calling an iterative solver
             0 MiB given to the printing process from OS
             0 MiB allocation reported by mallinfo(arena+hblkhd)
         50488 MiB available memory on the node where the printing process lives
------------------
     ethr =  5.98E-10,  avg # of iterations =  1.9

     negative rho (up, down):  7.926E-01 0.000E+00

     total cpu time spent up to now is      705.0 secs

     total energy              =   -4440.30469179 Ry
     estimated scf accuracy    <       0.00000240 Ry

     iteration # 47     ecut=    60.00 Ry     beta= 0.15
     Davidson diagonalization with overlap

---- Real-time Memory Report at c_bands before calling an iterative solver
             0 MiB given to the printing process from OS
             0 MiB allocation reported by mallinfo(arena+hblkhd)
         50492 MiB available memory on the node where the printing process lives
------------------
     ethr =  5.59E-10,  avg # of iterations =  1.9

     negative rho (up, down):  7.925E-01 0.000E+00

     total cpu time spent up to now is      719.4 secs

     total energy              =   -4440.30469135 Ry
     estimated scf accuracy    <       0.00000214 Ry

     iteration # 48     ecut=    60.00 Ry     beta= 0.15
     Davidson diagonalization with overlap

---- Real-time Memory Report at c_bands before calling an iterative solver
             0 MiB given to the printing process from OS
             0 MiB allocation reported by mallinfo(arena+hblkhd)
         50493 MiB available memory on the node where the printing process lives
------------------
     ethr =  4.98E-10,  avg # of iterations =  2.0

     negative rho (up, down):  7.925E-01 0.000E+00

     total cpu time spent up to now is      733.6 secs

     total energy              =   -4440.30469134 Ry
     estimated scf accuracy    <       0.00000200 Ry

     iteration # 49     ecut=    60.00 Ry     beta= 0.15
     Davidson diagonalization with overlap

---- Real-time Memory Report at c_bands before calling an iterative solver
             0 MiB given to the printing process from OS
             0 MiB allocation reported by mallinfo(arena+hblkhd)
         50496 MiB available memory on the node where the printing process lives
------------------
     ethr =  4.65E-10,  avg # of iterations =  1.0

     negative rho (up, down):  7.926E-01 0.000E+00

     total cpu time spent up to now is      746.5 secs

     total energy              =   -4440.30469148 Ry
     estimated scf accuracy    <       0.00000173 Ry

     iteration # 50     ecut=    60.00 Ry     beta= 0.15
     Davidson diagonalization with overlap

---- Real-time Memory Report at c_bands before calling an iterative solver
             0 MiB given to the printing process from OS
             0 MiB allocation reported by mallinfo(arena+hblkhd)
         50499 MiB available memory on the node where the printing process lives
------------------
     ethr =  4.03E-10,  avg # of iterations =  1.9

     negative rho (up, down):  7.927E-01 0.000E+00

     total cpu time spent up to now is      760.5 secs

     total energy              =   -4440.30469140 Ry
     estimated scf accuracy    <       0.00000136 Ry

     iteration # 51     ecut=    60.00 Ry     beta= 0.15
     Davidson diagonalization with overlap

---- Real-time Memory Report at c_bands before calling an iterative solver
             0 MiB given to the printing process from OS
             0 MiB allocation reported by mallinfo(arena+hblkhd)
         50499 MiB available memory on the node where the printing process lives
------------------
     ethr =  3.16E-10,  avg # of iterations =  2.1

     negative rho (up, down):  7.927E-01 0.000E+00

     total cpu time spent up to now is      774.7 secs

     total energy              =   -4440.30469150 Ry
     estimated scf accuracy    <       0.00000104 Ry

     iteration # 52     ecut=    60.00 Ry     beta= 0.15
     Davidson diagonalization with overlap

---- Real-time Memory Report at c_bands before calling an iterative solver
             0 MiB given to the printing process from OS
             0 MiB allocation reported by mallinfo(arena+hblkhd)
         50501 MiB available memory on the node where the printing process lives
------------------
     ethr =  2.41E-10,  avg # of iterations =  2.0

     negative rho (up, down):  7.927E-01 0.000E+00

     total cpu time spent up to now is      788.8 secs

     total energy              =   -4440.30469142 Ry
     estimated scf accuracy    <       0.00000072 Ry

     iteration # 53     ecut=    60.00 Ry     beta= 0.15
     Davidson diagonalization with overlap

---- Real-time Memory Report at c_bands before calling an iterative solver
             0 MiB given to the printing process from OS
             0 MiB allocation reported by mallinfo(arena+hblkhd)
         50500 MiB available memory on the node where the printing process lives
------------------
     ethr =  1.67E-10,  avg # of iterations =  2.0

     negative rho (up, down):  7.927E-01 0.000E+00

     total cpu time spent up to now is      803.1 secs

     total energy              =   -4440.30469142 Ry
     estimated scf accuracy    <       0.00000045 Ry

     iteration # 54     ecut=    60.00 Ry     beta= 0.15
     Davidson diagonalization with overlap

---- Real-time Memory Report at c_bands before calling an iterative solver
             0 MiB given to the printing process from OS
             0 MiB allocation reported by mallinfo(arena+hblkhd)
         50500 MiB available memory on the node where the printing process lives
------------------
     ethr =  1.05E-10,  avg # of iterations =  2.0

     negative rho (up, down):  7.927E-01 0.000E+00

     total cpu time spent up to now is      817.1 secs

     total energy              =   -4440.30469132 Ry
     estimated scf accuracy    <       0.00000028 Ry

     iteration # 55     ecut=    60.00 Ry     beta= 0.15
     Davidson diagonalization with overlap

---- Real-time Memory Report at c_bands before calling an iterative solver
             0 MiB given to the printing process from OS
             0 MiB allocation reported by mallinfo(arena+hblkhd)
         50503 MiB available memory on the node where the printing process lives
------------------
     ethr =  6.61E-11,  avg # of iterations =  2.0

     negative rho (up, down):  7.927E-01 0.000E+00

     total cpu time spent up to now is      831.4 secs

     total energy              =   -4440.30469129 Ry
     estimated scf accuracy    <       0.00000012 Ry

     iteration # 56     ecut=    60.00 Ry     beta= 0.15
     Davidson diagonalization with overlap

---- Real-time Memory Report at c_bands before calling an iterative solver
             0 MiB given to the printing process from OS
             0 MiB allocation reported by mallinfo(arena+hblkhd)
         50508 MiB available memory on the node where the printing process lives
------------------
     ethr =  2.89E-11,  avg # of iterations =  2.0

     negative rho (up, down):  7.927E-01 0.000E+00

     total cpu time spent up to now is      845.6 secs

     total energy              =   -4440.30469139 Ry
     estimated scf accuracy    <       0.00000006 Ry

     iteration # 57     ecut=    60.00 Ry     beta= 0.15
     Davidson diagonalization with overlap

---- Real-time Memory Report at c_bands before calling an iterative solver
             0 MiB given to the printing process from OS
             0 MiB allocation reported by mallinfo(arena+hblkhd)
         50504 MiB available memory on the node where the printing process lives
------------------
     ethr =  1.49E-11,  avg # of iterations =  2.3

     negative rho (up, down):  7.926E-01 0.000E+00

     total cpu time spent up to now is      859.9 secs

     total energy              =   -4440.30469143 Ry
     estimated scf accuracy    <       0.00000004 Ry

     iteration # 58     ecut=    60.00 Ry     beta= 0.15
     Davidson diagonalization with overlap

---- Real-time Memory Report at c_bands before calling an iterative solver
             0 MiB given to the printing process from OS
             0 MiB allocation reported by mallinfo(arena+hblkhd)
         50505 MiB available memory on the node where the printing process lives
------------------
     ethr =  9.62E-12,  avg # of iterations =  2.6

     negative rho (up, down):  7.926E-01 0.000E+00

     total cpu time spent up to now is      874.2 secs

     total energy              =   -4440.30469149 Ry
     estimated scf accuracy    <       0.00000003 Ry

     iteration # 59     ecut=    60.00 Ry     beta= 0.15
     Davidson diagonalization with overlap

---- Real-time Memory Report at c_bands before calling an iterative solver
             0 MiB given to the printing process from OS
             0 MiB allocation reported by mallinfo(arena+hblkhd)
         50503 MiB available memory on the node where the printing process lives
------------------
     ethr =  5.87E-12,  avg # of iterations =  3.3

     negative rho (up, down):  7.926E-01 0.000E+00

     total cpu time spent up to now is      889.1 secs

     total energy              =   -4440.30469153 Ry
     estimated scf accuracy    <       0.00000002 Ry

     iteration # 60     ecut=    60.00 Ry     beta= 0.15
     Davidson diagonalization with overlap

---- Real-time Memory Report at c_bands before calling an iterative solver
             0 MiB given to the printing process from OS
             0 MiB allocation reported by mallinfo(arena+hblkhd)
         50497 MiB available memory on the node where the printing process lives
------------------
     ethr =  4.14E-12,  avg # of iterations =  2.8

     negative rho (up, down):  7.926E-01 0.000E+00

     total cpu time spent up to now is      904.8 secs

     End of self-consistent calculation

          k = 0.0000 0.0000 0.0000 ( 65197 PWs)   bands (ev):

   -92.8861 -92.8363 -92.7408 -92.6939 -92.6356 -92.5927 -92.5754 -92.4560
   -56.2396 -56.2225 -56.0974 -56.0865 -56.0809 -56.0734 -56.0397 -56.0095
   -55.9944 -55.9926 -55.9867 -55.9424 -55.9244 -55.8863 -55.8679 -55.8358
   -55.8293 -55.7821 -55.7806 -55.7776 -55.7692 -55.7309 -55.7054 -55.6210
   -31.4499 -31.4301 -31.2875 -31.2745 -31.2006 -31.0814 -30.9705 -30.7709
   -30.0314 -29.9883 -29.9615 -29.8531 -15.2624 -15.2136 -15.1359 -15.0064
   -14.8048 -14.6852 -14.3984 -14.3773 -14.3504 -14.3023 -14.2535 -14.2355
   -14.2321 -14.2135 -14.1996 -14.1520 -14.1128 -13.9578 -13.7690 -13.7459
   -13.7158 -13.6760 -13.6620 -13.6055 -13.5744 -13.4922 -13.4241 -13.2995
   -13.2825 -13.2770 -13.2482 -13.2442 -13.2283 -13.1738 -13.1641 -13.1488
   -13.1223 -13.0950 -13.0754 -13.0591 -13.0383 -12.9910 -12.9223 -12.9082
   -12.8706 -12.7341 -12.7234 -12.6960 -12.5157 -12.3694 -12.1599 -12.0863
   -12.0439 -11.9872 -11.9707 -11.9592 -11.9359 -11.9180 -11.8549 -11.8373
   -11.8033 -11.7739 -11.6608 -11.5823 -11.5788  -3.1230  -2.8918  -2.6623
    -2.5135  -2.4525  -2.3108  -2.0024  -1.9874  -1.9696  -1.8809  -1.8636
    -1.7949  -1.7788  -1.7390  -1.6941  -1.5128  -1.2852  -1.2558  -1.1134
    -1.0984  -1.0508  -1.0299  -0.9846  -0.9682  -0.9166  -0.8889  -0.8131
    -0.8017  -0.7295  -0.5943  -0.5813  -0.5530  -0.4735  -0.4465  -0.4009
    -0.3715  -0.3089  -0.2588  -0.2082  -0.1842  -0.1148  -0.0418  -0.0014
     0.0267   0.0390   0.2955   0.3112   0.4855   0.5460   0.6108   0.6703
     0.7498   0.7600   0.7792   0.8437   0.8707   0.9042   0.9610   1.0909
     1.1508   1.1729   1.2034   1.2122   1.2699   1.3373   1.4520   1.4717
     1.5283   1.5345   1.5812   1.6022   1.6119   1.6657   1.7314   1.7362
     1.7750   1.8071   1.8478   1.9805   2.0663   2.1055   2.1308   2.2721
     2.2885   2.3282   2.3315   2.4482   2.4753   2.4998   2.5222   2.5362
     2.5914   2.6114   2.6216   2.6550   2.7287   2.7614   2.7685   2.7748
     2.8424   2.8504   2.8706   2.8778   2.8871   2.9003   2.9078   2.9216
     2.9286   2.9408   2.9470   2.9545   2.9736   2.9948   3.0003   3.0117
     3.0361   3.1519   3.2534   3.9348   4.2499   4.6071   4.8259   4.8658
     5.7646   5.8115   5.8326   5.8817   6.1319   6.1778   6.4318   6.4415
     6.9395   6.9854   7.0776   7.1572   7.4720   7.5325   7.5432   7.5587
     7.5910   7.8548   7.8790   7.9838   8.0298   8.1414   8.2628   8.6835
     8.8287   8.9301

     occupation numbers 
     1.0000   1.0000   1.0000   1.0000   1.0000   1.0000   1.0000   1.0000
     1.0000   1.0000   1.0000   1.0000   1.0000   1.0000   1.0000   1.0000
     1.0000   1.0000   1.0000   1.0000   1.0000   1.0000   1.0000   1.0000
     1.0000   1.0000   1.0000   1.0000   1.0000   1.0000   1.0000   1.0000
     1.0000   1.0000   1.0000   1.0000   1.0000   1.0000   1.0000   1.0000
     1.0000   1.0000   1.0000   1.0000   1.0000   1.0000   1.0000   1.0000
     1.0000   1.0000   1.0000   1.0000   1.0000   1.0000   1.0000   1.0000
     1.0000   1.0000   1.0000   1.0000   1.0000   1.0000   1.0000   1.0000
     1.0000   1.0000   1.0000   1.0000   1.0000   1.0000   1.0000   1.0000
     1.0000   1.0000   1.0000   1.0000   1.0000   1.0000   1.0000   1.0000
     1.0000   1.0000   1.0000   1.0000   1.0000   1.0000   1.0000   1.0000
     1.0000   1.0000   1.0000   1.0000   1.0000   1.0000   1.0000   1.0000
     1.0000   1.0000   1.0000   1.0000   1.0000   1.0000   1.0000   1.0000
     1.0000   1.0000   1.0000   1.0000   1.0000   1.0000   1.0000   1.0000
     1.0000   1.0000   1.0000   1.0000   1.0000   1.0000   1.0000   1.0000
     1.0000   1.0000   1.0000   1.0000   1.0000   1.0000   1.0000   1.0000
     1.0000   1.0000   1.0000   1.0000   1.0000   1.0000   1.0000   1.0000
     1.0000   1.0000   1.0000   1.0000   1.0000   1.0000   1.0000   1.0000
     1.0000   1.0000   1.0000   1.0000   1.0000   1.0000   1.0000   1.0000
     1.0000   1.0000   1.0000   1.0000   1.0000   0.9999   0.9999   0.9999
     0.9998   0.9998   0.9998   0.9997   0.9996   0.9996   0.9994   0.9988
     0.9984   0.9983   0.9980   0.9979   0.9973   0.9963   0.9940   0.9934
     0.9917   0.9915   0.9898   0.9889   0.9885   0.9858   0.9819   0.9816
     0.9789   0.9763   0.9727   0.9578   0.9450   0.9382   0.9335   0.9019
     0.8976   0.8867   0.8858   0.8487   0.8391   0.8301   0.8215   0.8160
     0.7934   0.7848   0.7804   0.7655   0.7306   0.7143   0.7107   0.7075
     0.6721   0.6678   0.6568   0.6529   0.6478   0.6405   0.6363   0.6286
     0.6247   0.6177   0.6142   0.6099   0.5990   0.5868   0.5837   0.5770
     0.5628   0.4945   0.4346   0.1197   0.0501   0.0148   0.0062   0.0053
     0.0000   0.0000   0.0000   0.0000   0.0000   0.0000   0.0000   0.0000
     0.0000   0.0000   0.0000   0.0000   0.0000   0.0000   0.0000   0.0000
     0.0000   0.0000   0.0000   0.0000   0.0000   0.0000   0.0000   0.0000
     0.0000   0.0000

          k = 0.0000 0.2500 0.0000 ( 65257 PWs)   bands (ev):

   -92.8861 -92.8363 -92.7408 -92.6939 -92.6356 -92.5927 -92.5754 -92.4560
   -56.2396 -56.2225 -56.0974 -56.0865 -56.0809 -56.0734 -56.0397 -56.0095
   -55.9944 -55.9926 -55.9867 -55.9424 -55.9244 -55.8863 -55.8679 -55.8358
   -55.8293 -55.7821 -55.7806 -55.7776 -55.7692 -55.7309 -55.7054 -55.6210
   -31.4497 -31.4299 -31.2877 -31.2744 -31.2007 -31.0813 -30.9707 -30.7710
   -30.0308 -29.9880 -29.9621 -29.8534 -15.2261 -15.1870 -15.1108 -14.9769
   -14.8495 -14.6746 -14.5436 -14.3643 -14.3263 -14.3074 -14.2772 -14.2205
   -14.2109 -14.1955 -14.1759 -14.1197 -14.0301 -13.9893 -13.8246 -13.7959
   -13.7571 -13.7182 -13.6600 -13.6292 -13.5751 -13.5180 -13.4783 -13.4031
   -13.3308 -13.3188 -13.2818 -13.2700 -13.2285 -13.1572 -13.1304 -13.1057
   -13.0775 -13.0542 -13.0382 -13.0368 -13.0020 -12.9707 -12.8912 -12.8170
   -12.7660 -12.7190 -12.6821 -12.6397 -12.5769 -12.4205 -12.2129 -12.1480
   -12.0094 -11.9873 -11.9675 -11.9387 -11.9104 -11.8940 -11.8467 -11.8354
   -11.8126 -11.7793 -11.6750 -11.6238 -11.6134  -2.9875  -2.7675  -2.6293
    -2.4470  -2.4036  -2.2408  -2.0180  -1.9375  -1.9243  -1.8610  -1.7625
    -1.7465  -1.7123  -1.6848  -1.6405  -1.4439  -1.3145  -1.3033  -1.2250
    -1.2164  -1.1135  -1.0838  -1.0230  -0.9970  -0.9597  -0.8938  -0.8665
    -0.8351  -0.8037  -0.7862  -0.7546  -0.6794  -0.6300  -0.5490  -0.4451
    -0.4142  -0.3738  -0.2705  -0.2314  -0.1639  -0.1208  -0.0542  -0.0393
    -0.0193   0.0390   0.3437   0.4303   0.4642   0.5519   0.5992   0.6278
     0.7307   0.7502   0.8465   0.8719   0.8959   1.0107   1.1100   1.1268
     1.1530   1.1769   1.1949   1.2535   1.2823   1.3103   1.3562   1.3955
     1.4278   1.5161   1.5537   1.5826   1.6364   1.6888   1.7311   1.7604
     1.7860   1.7959   1.8993   2.0154   2.0893   2.1130   2.1783   2.2253
     2.2672   2.2752   2.3375   2.3722   2.4627   2.4991   2.5166   2.5909
     2.5996   2.6472   2.6855   2.7071   2.7397   2.7625   2.7770   2.7852
     2.7911   2.8012   2.8314   2.8341   2.8512   2.8625   2.8668   2.8859
     2.8980   2.9048   2.9249   2.9356   2.9418   2.9762   2.9920   3.0525
     3.4216   3.4716   3.7021   4.1264   4.2469   4.5466   4.8835   4.9882
     5.5107   5.6495   5.8079   5.9101   5.9565   6.0275   6.0640   6.5457
     7.0258   7.0999   7.2337   7.2534   7.3441   7.4047   7.5452   7.5745
     7.7123   7.8412   8.0658   8.1677   8.2750   8.2984   8.3547   8.3795
     8.7416   8.8185

     occupation numbers 
     1.0000   1.0000   1.0000   1.0000   1.0000   1.0000   1.0000   1.0000
     1.0000   1.0000   1.0000   1.0000   1.0000   1.0000   1.0000   1.0000
     1.0000   1.0000   1.0000   1.0000   1.0000   1.0000   1.0000   1.0000
     1.0000   1.0000   1.0000   1.0000   1.0000   1.0000   1.0000   1.0000
     1.0000   1.0000   1.0000   1.0000   1.0000   1.0000   1.0000   1.0000
     1.0000   1.0000   1.0000   1.0000   1.0000   1.0000   1.0000   1.0000
     1.0000   1.0000   1.0000   1.0000   1.0000   1.0000   1.0000   1.0000
     1.0000   1.0000   1.0000   1.0000   1.0000   1.0000   1.0000   1.0000
     1.0000   1.0000   1.0000   1.0000   1.0000   1.0000   1.0000   1.0000
     1.0000   1.0000   1.0000   1.0000   1.0000   1.0000   1.0000   1.0000
     1.0000   1.0000   1.0000   1.0000   1.0000   1.0000   1.0000   1.0000
     1.0000   1.0000   1.0000   1.0000   1.0000   1.0000   1.0000   1.0000
     1.0000   1.0000   1.0000   1.0000   1.0000   1.0000   1.0000   1.0000
     1.0000   1.0000   1.0000   1.0000   1.0000   1.0000   1.0000   1.0000
     1.0000   1.0000   1.0000   1.0000   1.0000   1.0000   1.0000   1.0000
     1.0000   1.0000   1.0000   1.0000   1.0000   1.0000   1.0000   1.0000
     1.0000   1.0000   1.0000   1.0000   1.0000   1.0000   1.0000   1.0000
     1.0000   1.0000   1.0000   1.0000   1.0000   1.0000   1.0000   1.0000
     1.0000   1.0000   1.0000   1.0000   1.0000   1.0000   1.0000   1.0000
     1.0000   1.0000   1.0000   1.0000   1.0000   0.9999   0.9999   0.9999
     0.9998   0.9998   0.9997   0.9996   0.9996   0.9992   0.9987   0.9986
     0.9984   0.9982   0.9981   0.9975   0.9971   0.9967   0.9960   0.9953
     0.9946   0.9921   0.9908   0.9897   0.9873   0.9846   0.9820   0.9799
     0.9780   0.9772   0.9676   0.9529   0.9411   0.9368   0.9239   0.9134
     0.9032   0.9011   0.8840   0.8737   0.8436   0.8303   0.8237   0.7937
     0.7899   0.7690   0.7513   0.7411   0.7251   0.7137   0.7064   0.7022
     0.6991   0.6939   0.6780   0.6766   0.6674   0.6613   0.6589   0.6484
     0.6418   0.6380   0.6267   0.6207   0.6172   0.5976   0.5884   0.5532
     0.3393   0.3125   0.2030   0.0720   0.0505   0.0185   0.0049   0.0031
     0.0002   0.0001   0.0000   0.0000   0.0000   0.0000   0.0000   0.0000
     0.0000   0.0000   0.0000   0.0000   0.0000   0.0000   0.0000   0.0000
     0.0000   0.0000   0.0000   0.0000   0.0000   0.0000   0.0000   0.0000
     0.0000   0.0000

          k = 0.0000-0.5000 0.0000 ( 65180 PWs)   bands (ev):

   -92.8861 -92.8363 -92.7408 -92.6939 -92.6356 -92.5927 -92.5754 -92.4560
   -56.2396 -56.2225 -56.0974 -56.0865 -56.0809 -56.0734 -56.0397 -56.0095
   -55.9944 -55.9926 -55.9867 -55.9424 -55.9244 -55.8863 -55.8679 -55.8358
   -55.8293 -55.7821 -55.7806 -55.7776 -55.7692 -55.7309 -55.7054 -55.6210
   -31.4495 -31.4298 -31.2879 -31.2743 -31.2009 -31.0812 -30.9708 -30.7711
   -30.0301 -29.9877 -29.9627 -29.8537 -15.1887 -15.1410 -15.0833 -14.9585
   -14.8728 -14.7405 -14.5711 -14.4622 -14.3374 -14.2594 -14.2207 -14.2140
   -14.1632 -14.1500 -14.0966 -14.0712 -14.0524 -14.0203 -13.9770 -13.9262
   -13.7632 -13.7037 -13.6602 -13.6354 -13.5653 -13.5358 -13.4718 -13.4543
   -13.4264 -13.3884 -13.2831 -13.2720 -13.2244 -13.1400 -13.1275 -13.1004
   -13.0808 -13.0554 -13.0355 -13.0010 -12.8858 -12.8791 -12.8256 -12.7842
   -12.7423 -12.7138 -12.6875 -12.5833 -12.4954 -12.4703 -12.3008 -12.2502
   -11.9873 -11.9645 -11.9610 -11.9334 -11.8963 -11.8618 -11.8506 -11.8094
   -11.8053 -11.7612 -11.6964 -11.6840 -11.6703  -2.7723  -2.7142  -2.5642
    -2.4929  -2.2075  -2.1258  -1.9981  -1.8636  -1.8180  -1.8053  -1.7269
    -1.6968  -1.6120  -1.5781  -1.4981  -1.4604  -1.4239  -1.3962  -1.3320
    -1.2989  -1.2523  -1.2161  -1.1828  -1.1513  -1.0396  -0.9963  -0.9576
    -0.9531  -0.8692  -0.8387  -0.8182  -0.7673  -0.6775  -0.6084  -0.5159
    -0.4717  -0.3847  -0.3486  -0.2111  -0.1495  -0.1406  -0.0800   0.0404
     0.0928   0.2097   0.2812   0.2905   0.4147   0.4796   0.5880   0.6953
     0.8023   0.8342   0.8752   0.8895   0.9236   0.9358   0.9688   0.9855
     0.9993   1.1074   1.1707   1.2088   1.2315   1.5034   1.5220   1.5437
     1.6410   1.6647   1.6931   1.7078   1.7306   1.7525   1.7639   1.7860
     1.8242   1.8580   1.8889   1.8920   1.9198   1.9719   2.0640   2.0955
     2.2678   2.4196   2.4286   2.4546   2.4811   2.4926   2.4997   2.5507
     2.5619   2.5867   2.5943   2.6177   2.6375   2.6521   2.7159   2.7466
     2.8023   2.8069   2.8299   2.8342   2.8476   2.8525   2.8625   2.8627
     2.8666   2.8801   2.8947   2.8976   2.9618   2.9647   2.9814   3.0366
     3.9527   3.9739   4.0044   4.0946   4.5660   4.7300   4.9016   5.0116
     5.2821   5.3602   5.4905   5.5947   5.8603   5.8728   6.2715   6.7463
     6.7864   6.8944   7.1358   7.3134   7.5622   7.6354   7.6520   7.7519
     7.7826   7.8591   8.0436   8.1763   8.2159   8.3417   8.5172   8.6856
     8.7274   8.7635

     occupation numbers 
     1.0000   1.0000   1.0000   1.0000   1.0000   1.0000   1.0000   1.0000
     1.0000   1.0000   1.0000   1.0000   1.0000   1.0000   1.0000   1.0000
     1.0000   1.0000   1.0000   1.0000   1.0000   1.0000   1.0000   1.0000
     1.0000   1.0000   1.0000   1.0000   1.0000   1.0000   1.0000   1.0000
     1.0000   1.0000   1.0000   1.0000   1.0000   1.0000   1.0000   1.0000
     1.0000   1.0000   1.0000   1.0000   1.0000   1.0000   1.0000   1.0000
     1.0000   1.0000   1.0000   1.0000   1.0000   1.0000   1.0000   1.0000
     1.0000   1.0000   1.0000   1.0000   1.0000   1.0000   1.0000   1.0000
     1.0000   1.0000   1.0000   1.0000   1.0000   1.0000   1.0000   1.0000
     1.0000   1.0000   1.0000   1.0000   1.0000   1.0000   1.0000   1.0000
     1.0000   1.0000   1.0000   1.0000   1.0000   1.0000   1.0000   1.0000
     1.0000   1.0000   1.0000   1.0000   1.0000   1.0000   1.0000   1.0000
     1.0000   1.0000   1.0000   1.0000   1.0000   1.0000   1.0000   1.0000
     1.0000   1.0000   1.0000   1.0000   1.0000   1.0000   1.0000   1.0000
     1.0000   1.0000   1.0000   1.0000   1.0000   1.0000   1.0000   1.0000
     1.0000   1.0000   1.0000   1.0000   1.0000   1.0000   1.0000   1.0000
     1.0000   1.0000   1.0000   1.0000   1.0000   1.0000   1.0000   1.0000
     1.0000   1.0000   1.0000   1.0000   1.0000   1.0000   1.0000   1.0000
     1.0000   1.0000   1.0000   1.0000   1.0000   1.0000   1.0000   1.0000
     1.0000   1.0000   1.0000   1.0000   1.0000   1.0000   0.9999   0.9999
     0.9997   0.9997   0.9996   0.9996   0.9995   0.9995   0.9994   0.9993
     0.9993   0.9987   0.9983   0.9980   0.9977   0.9925   0.9919   0.9912
     0.9871   0.9859   0.9843   0.9834   0.9820   0.9805   0.9797   0.9780
     0.9749   0.9718   0.9687   0.9683   0.9653   0.9589   0.9454   0.9400
     0.9030   0.8585   0.8554   0.8465   0.8370   0.8328   0.8301   0.8103
     0.8057   0.7954   0.7922   0.7821   0.7734   0.7668   0.7368   0.7217
     0.6933   0.6909   0.6788   0.6765   0.6693   0.6667   0.6612   0.6611
     0.6590   0.6516   0.6436   0.6420   0.6058   0.6042   0.5945   0.5625
     0.1145   0.1085   0.1003   0.0787   0.0173   0.0092   0.0045   0.0028
     0.0007   0.0005   0.0002   0.0001   0.0000   0.0000   0.0000   0.0000
     0.0000   0.0000   0.0000   0.0000   0.0000   0.0000   0.0000   0.0000
     0.0000   0.0000   0.0000   0.0000   0.0000   0.0000   0.0000   0.0000
     0.0000   0.0000

          k = 0.2500 0.2500 0.0000 ( 65198 PWs)   bands (ev):

   -92.8861 -92.8363 -92.7408 -92.6939 -92.6356 -92.5927 -92.5754 -92.4560
   -56.2396 -56.2225 -56.0974 -56.0865 -56.0809 -56.0734 -56.0397 -56.0095
   -55.9944 -55.9926 -55.9867 -55.9424 -55.9244 -55.8863 -55.8679 -55.8358
   -55.8293 -55.7821 -55.7806 -55.7776 -55.7692 -55.7309 -55.7054 -55.6210
   -31.4481 -31.4316 -31.2874 -31.2742 -31.2011 -31.0815 -30.9705 -30.7711
   -30.0298 -29.9890 -29.9617 -29.8538 -15.1970 -15.1524 -15.0825 -14.9669
   -14.8416 -14.7169 -14.6500 -14.4394 -14.2873 -14.2733 -14.2363 -14.2090
   -14.1841 -14.1512 -14.1226 -14.0816 -14.0195 -14.0024 -13.8403 -13.8264
   -13.7955 -13.7779 -13.7035 -13.6868 -13.6057 -13.6002 -13.4602 -13.4202
   -13.3984 -13.3153 -13.2744 -13.2296 -13.2033 -13.1898 -13.1444 -13.1186
   -13.0893 -13.0532 -13.0051 -12.9459 -12.9218 -12.9156 -12.8867 -12.8607
   -12.7956 -12.7143 -12.6299 -12.6252 -12.5074 -12.4496 -12.2427 -12.1967
   -11.9879 -11.9815 -11.9507 -11.9390 -11.9322 -11.8700 -11.8346 -11.8284
   -11.7931 -11.7849 -11.6919 -11.6521 -11.6347  -2.8490  -2.6416  -2.5233
    -2.4273  -2.3085  -2.2442  -2.0425  -1.9016  -1.8832  -1.8488  -1.7572
    -1.7230  -1.6289  -1.6002  -1.5502  -1.4206  -1.3713  -1.2966  -1.2540
    -1.2079  -1.1859  -1.1627  -1.1188  -1.1048  -1.0134  -0.9633  -0.8923
    -0.8459  -0.8169  -0.7692  -0.7533  -0.6897  -0.6406  -0.5736  -0.5461
    -0.4537  -0.4091  -0.3756  -0.3418  -0.2859  -0.2077  -0.1743  -0.1410
    -0.0671  -0.0265   0.2312   0.3830   0.4128   0.4758   0.5151   0.5894
     0.6307   0.6940   0.7289   1.0009   1.0618   1.1353   1.1583   1.2148
     1.2385   1.2756   1.3129   1.3291   1.3561   1.4054   1.4126   1.4293
     1.4773   1.5139   1.5511   1.6115   1.6514   1.6616   1.6960   1.7284
     1.7868   1.8127   1.9372   1.9982   2.0315   2.0528   2.1273   2.1888
     2.2152   2.2504   2.2776   2.2882   2.4043   2.4413   2.5277   2.5851
     2.6005   2.6518   2.6953   2.7126   2.7168   2.7344   2.7491   2.7630
     2.7745   2.7802   2.7924   2.8062   2.8206   2.8365   2.8452   2.8540
     2.8796   2.8881   2.8964   2.9285   3.2276   3.3210   3.3723   3.4408
     3.4596   3.6879   3.7716   4.1295   4.3390   4.5552   4.8043   5.1271
     5.4978   5.5609   5.6157   5.6578   5.7201   6.0889   6.1499   6.1701
     6.8357   7.0777   7.2488   7.3880   7.4510   7.4799   7.5897   7.7585
     7.8200   8.0512   8.1717   8.2017   8.3231   8.3491   8.4389   8.4815
     8.5315   8.7968

     occupation numbers 
     1.0000   1.0000   1.0000   1.0000   1.0000   1.0000   1.0000   1.0000
     1.0000   1.0000   1.0000   1.0000   1.0000   1.0000   1.0000   1.0000
     1.0000   1.0000   1.0000   1.0000   1.0000   1.0000   1.0000   1.0000
     1.0000   1.0000   1.0000   1.0000   1.0000   1.0000   1.0000   1.0000
     1.0000   1.0000   1.0000   1.0000   1.0000   1.0000   1.0000   1.0000
     1.0000   1.0000   1.0000   1.0000   1.0000   1.0000   1.0000   1.0000
     1.0000   1.0000   1.0000   1.0000   1.0000   1.0000   1.0000   1.0000
     1.0000   1.0000   1.0000   1.0000   1.0000   1.0000   1.0000   1.0000
     1.0000   1.0000   1.0000   1.0000   1.0000   1.0000   1.0000   1.0000
     1.0000   1.0000   1.0000   1.0000   1.0000   1.0000   1.0000   1.0000
     1.0000   1.0000   1.0000   1.0000   1.0000   1.0000   1.0000   1.0000
     1.0000   1.0000   1.0000   1.0000   1.0000   1.0000   1.0000   1.0000
     1.0000   1.0000   1.0000   1.0000   1.0000   1.0000   1.0000   1.0000
     1.0000   1.0000   1.0000   1.0000   1.0000   1.0000   1.0000   1.0000
     1.0000   1.0000   1.0000   1.0000   1.0000   1.0000   1.0000   1.0000
     1.0000   1.0000   1.0000   1.0000   1.0000   1.0000   1.0000   1.0000
     1.0000   1.0000   1.0000   1.0000   1.0000   1.0000   1.0000   1.0000
     1.0000   1.0000   1.0000   1.0000   1.0000   1.0000   1.0000   1.0000
     1.0000   1.0000   1.0000   1.0000   1.0000   1.0000   1.0000   1.0000
     1.0000   1.0000   1.0000   1.0000   1.0000   1.0000   1.0000   0.9999
     0.9999   0.9999   0.9998   0.9993   0.9990   0.9986   0.9984   0.9979
     0.9977   0.9972   0.9967   0.9965   0.9960   0.9951   0.9949   0.9945
     0.9933   0.9922   0.9909   0.9885   0.9866   0.9861   0.9841   0.9821
     0.9780   0.9758   0.9633   0.9554   0.9505   0.9472   0.9342   0.9216
     0.9157   0.9074   0.9005   0.8977   0.8635   0.8511   0.8194   0.7961
     0.7895   0.7669   0.7467   0.7384   0.7364   0.7278   0.7205   0.7135
     0.7076   0.7047   0.6984   0.6913   0.6837   0.6752   0.6706   0.6658
     0.6519   0.6472   0.6426   0.6247   0.4497   0.3955   0.3665   0.3289
     0.3189   0.2090   0.1751   0.0714   0.0378   0.0180   0.0068   0.0016
     0.0002   0.0002   0.0001   0.0001   0.0001   0.0000   0.0000   0.0000
     0.0000   0.0000   0.0000   0.0000   0.0000   0.0000   0.0000   0.0000
     0.0000   0.0000   0.0000   0.0000   0.0000   0.0000   0.0000   0.0000
     0.0000   0.0000

          k = 0.2500-0.5000 0.0000 ( 65138 PWs)   bands (ev):

   -92.8861 -92.8363 -92.7408 -92.6939 -92.6356 -92.5927 -92.5754 -92.4560
   -56.2396 -56.2225 -56.0974 -56.0865 -56.0809 -56.0734 -56.0397 -56.0095
   -55.9944 -55.9926 -55.9867 -55.9424 -55.9244 -55.8863 -55.8679 -55.8358
   -55.8293 -55.7821 -55.7806 -55.7776 -55.7692 -55.7309 -55.7054 -55.6210
   -31.4479 -31.4315 -31.2876 -31.2741 -31.2013 -31.0814 -30.9706 -30.7713
   -30.0292 -29.9887 -29.9623 -29.8542 -15.1577 -15.1142 -15.0403 -14.9305
   -14.8943 -14.7804 -14.6781 -14.5578 -14.2525 -14.1957 -14.1732 -14.1473
   -14.1338 -14.1212 -14.0802 -14.0584 -14.0352 -13.9969 -13.9705 -13.9166
   -13.8440 -13.7956 -13.7196 -13.7137 -13.6434 -13.6143 -13.5141 -13.4715
   -13.3797 -13.3141 -13.2958 -13.2138 -13.1907 -13.1611 -13.1454 -13.1158
   -13.0845 -13.0373 -13.0266 -12.9812 -12.8966 -12.8346 -12.8290 -12.8059
   -12.7975 -12.7168 -12.6940 -12.5311 -12.4928 -12.4145 -12.2961 -12.2628
   -11.9877 -11.9577 -11.9455 -11.9344 -11.9071 -11.8763 -11.8468 -11.8069
   -11.7787 -11.7573 -11.7099 -11.6851 -11.6746  -2.6299  -2.5657  -2.4378
    -2.3614  -2.2281  -2.1452  -2.0225  -1.8740  -1.8155  -1.7963  -1.7353
    -1.7222  -1.6226  -1.5580  -1.4737  -1.4205  -1.4119  -1.3505  -1.3041
    -1.2733  -1.2246  -1.1875  -1.1529  -1.1143  -1.0988  -1.0567  -1.0271
    -0.9830  -0.9529  -0.8858  -0.7800  -0.7433  -0.6632  -0.5975  -0.5412
    -0.5038  -0.4883  -0.4240  -0.2708  -0.2631  -0.1396  -0.1231  -0.1126
    -0.0668  -0.0331   0.0025   0.0304   0.0947   0.3829   0.4762   0.5524
     0.6018   0.8671   0.8824   0.9715   0.9997   1.1596   1.1987   1.2351
     1.2570   1.2697   1.2919   1.3583   1.4099   1.4416   1.5207   1.6164
     1.6523   1.6710   1.6807   1.7157   1.7292   1.7358   1.7815   1.7918
     1.8103   1.8540   1.8619   1.8809   1.9177   1.9724   2.0172   2.0976
     2.2305   2.3722   2.3906   2.4094   2.4389   2.4589   2.4859   2.5077
     2.5203   2.5427   2.5882   2.5938   2.6422   2.6563   2.6954   2.7135
     2.7269   2.7365   2.7508   2.7647   2.7843   2.7908   2.8315   2.8437
     2.8509   2.8589   2.8712   2.8779   3.4049   3.4213   3.5591   3.6120
     3.9563   4.0119   4.0159   4.1453   4.5842   4.7508   4.9208   4.9701
     5.1313   5.3063   5.5055   5.5406   5.6248   5.6726   6.3354   6.3781
     6.4512   6.8663   7.1929   7.5814   7.6634   7.7149   7.7664   7.8078
     7.8960   7.9465   8.1741   8.2635   8.3712   8.3986   8.5505   8.5877
     8.6360   8.7731

     occupation numbers 
     1.0000   1.0000   1.0000   1.0000   1.0000   1.0000   1.0000   1.0000
     1.0000   1.0000   1.0000   1.0000   1.0000   1.0000   1.0000   1.0000
     1.0000   1.0000   1.0000   1.0000   1.0000   1.0000   1.0000   1.0000
     1.0000   1.0000   1.0000   1.0000   1.0000   1.0000   1.0000   1.0000
     1.0000   1.0000   1.0000   1.0000   1.0000   1.0000   1.0000   1.0000
     1.0000   1.0000   1.0000   1.0000   1.0000   1.0000   1.0000   1.0000
     1.0000   1.0000   1.0000   1.0000   1.0000   1.0000   1.0000   1.0000
[...]
     0.6343   0.6204   0.6185   0.6144   0.6102   0.6047   0.5988   0.5263
     0.3489   0.3174   0.2033   0.0765   0.0447   0.0204   0.0049   0.0030
     0.0002   0.0001   0.0000   0.0000   0.0000   0.0000   0.0000   0.0000
     0.0000   0.0000   0.0000   0.0000   0.0000   0.0000   0.0000   0.0000
     0.0000   0.0000   0.0000   0.0000   0.0000   0.0000   0.0000   0.0000
     0.0000   0.0000

          k =-0.5000 0.0000 0.0000 ( 65180 PWs)   bands (ev):

   -92.8861 -92.8363 -92.7408 -92.6939 -92.6356 -92.5927 -92.5754 -92.4560
   -56.2396 -56.2225 -56.0974 -56.0865 -56.0809 -56.0734 -56.0397 -56.0095
   -55.9944 -55.9926 -55.9867 -55.9424 -55.9244 -55.8863 -55.8679 -55.8358
   -55.8293 -55.7821 -55.7806 -55.7776 -55.7692 -55.7309 -55.7054 -55.6210
   -31.4462 -31.4338 -31.2868 -31.2741 -31.2014 -31.0817 -30.9702 -30.7712
   -30.0293 -29.9903 -29.9607 -29.8539 -15.1954 -15.1402 -15.0796 -14.9665
   -14.8686 -14.7236 -14.5753 -14.4258 -14.3124 -14.2946 -14.2887 -14.2269
   -14.1688 -14.1376 -14.0868 -14.0725 -14.0586 -14.0137 -13.9864 -13.8833
   -13.7348 -13.6891 -13.6727 -13.6646 -13.5893 -13.5417 -13.4729 -13.4386
   -13.4149 -13.3934 -13.2321 -13.2263 -13.2090 -13.1863 -13.1702 -13.1226
   -13.1024 -13.0905 -12.9880 -12.9754 -12.8984 -12.8244 -12.8139 -12.8045
   -12.8015 -12.7152 -12.7138 -12.5515 -12.4993 -12.4334 -12.3079 -12.2636
   -11.9878 -11.9612 -11.9391 -11.9328 -11.9185 -11.9003 -11.8592 -11.7957
   -11.7778 -11.7449 -11.6999 -11.6913 -11.6757  -2.7629  -2.7248  -2.5619
    -2.5227  -2.2069  -2.1302  -1.9858  -1.8683  -1.8279  -1.7805  -1.7350
    -1.7115  -1.5867  -1.5438  -1.5256  -1.4445  -1.4101  -1.3909  -1.3628
    -1.3024  -1.2355  -1.2079  -1.1734  -1.0812  -1.0360  -0.9860  -0.9534
    -0.9328  -0.8986  -0.8531  -0.8287  -0.7893  -0.6820  -0.6178  -0.5398
    -0.4814  -0.3235  -0.2780  -0.2375  -0.1816  -0.1357  -0.1211   0.0209
     0.0496   0.1041   0.2581   0.3581   0.4063   0.5107   0.5654   0.6847
     0.6994   0.8275   0.8520   0.9068   0.9474   0.9746   0.9831   1.0309
     1.0530   1.1219   1.1727   1.2204   1.2304   1.5283   1.5375   1.5578
     1.5825   1.6784   1.6963   1.7094   1.7167   1.7514   1.7595   1.7973
     1.8185   1.8429   1.8957   1.9158   1.9660   1.9905   2.0437   2.1589
     2.2508   2.3205   2.3354   2.4173   2.4428   2.4714   2.5406   2.5472
     2.5574   2.5759   2.5853   2.6168   2.6527   2.6666   2.7018   2.7574
     2.7725   2.8180   2.8226   2.8295   2.8341   2.8516   2.8632   2.8745
     2.8816   2.9013   2.9084   2.9259   2.9458   2.9507   3.0798   3.0878
     3.9042   3.9573   4.0168   4.1459   4.6150   4.6952   4.8937   4.9196
     5.3744   5.4029   5.4842   5.5196   5.8579   5.8767   6.3988   6.5364
     6.7293   6.9497   7.1968   7.2563   7.6089   7.6268   7.6803   7.7771
     7.8238   7.9307   8.1095   8.1540   8.2034   8.3663   8.4792   8.6151
     8.6344   8.7338

     occupation numbers 
     1.0000   1.0000   1.0000   1.0000   1.0000   1.0000   1.0000   1.0000
     1.0000   1.0000   1.0000   1.0000   1.0000   1.0000   1.0000   1.0000
     1.0000   1.0000   1.0000   1.0000   1.0000   1.0000   1.0000   1.0000
     1.0000   1.0000   1.0000   1.0000   1.0000   1.0000   1.0000   1.0000
     1.0000   1.0000   1.0000   1.0000   1.0000   1.0000   1.0000   1.0000
     1.0000   1.0000   1.0000   1.0000   1.0000   1.0000   1.0000   1.0000
     1.0000   1.0000   1.0000   1.0000   1.0000   1.0000   1.0000   1.0000
     1.0000   1.0000   1.0000   1.0000   1.0000   1.0000   1.0000   1.0000
     1.0000   1.0000   1.0000   1.0000   1.0000   1.0000   1.0000   1.0000
     1.0000   1.0000   1.0000   1.0000   1.0000   1.0000   1.0000   1.0000
     1.0000   1.0000   1.0000   1.0000   1.0000   1.0000   1.0000   1.0000
     1.0000   1.0000   1.0000   1.0000   1.0000   1.0000   1.0000   1.0000
     1.0000   1.0000   1.0000   1.0000   1.0000   1.0000   1.0000   1.0000
     1.0000   1.0000   1.0000   1.0000   1.0000   1.0000   1.0000   1.0000
     1.0000   1.0000   1.0000   1.0000   1.0000   1.0000   1.0000   1.0000
     1.0000   1.0000   1.0000   1.0000   1.0000   1.0000   1.0000   1.0000
     1.0000   1.0000   1.0000   1.0000   1.0000   1.0000   1.0000   1.0000
     1.0000   1.0000   1.0000   1.0000   1.0000   1.0000   1.0000   1.0000
     1.0000   1.0000   1.0000   1.0000   1.0000   1.0000   1.0000   1.0000
     1.0000   1.0000   1.0000   1.0000   1.0000   1.0000   0.9999   0.9999
     0.9999   0.9997   0.9997   0.9995   0.9994   0.9994   0.9993   0.9991
     0.9990   0.9987   0.9983   0.9978   0.9977   0.9917   0.9914   0.9907
     0.9897   0.9852   0.9841   0.9833   0.9829   0.9806   0.9800   0.9771
     0.9754   0.9732   0.9679   0.9657   0.9597   0.9564   0.9486   0.9279
     0.9073   0.8889   0.8846   0.8592   0.8506   0.8405   0.8143   0.8116
     0.8075   0.7999   0.7960   0.7825   0.7665   0.7601   0.7436   0.7163
     0.7087   0.6851   0.6827   0.6790   0.6765   0.6672   0.6608   0.6547
     0.6508   0.6399   0.6360   0.6262   0.6149   0.6121   0.5371   0.5324
     0.1290   0.1132   0.0971   0.0681   0.0144   0.0106   0.0047   0.0042
     0.0005   0.0004   0.0003   0.0002   0.0000   0.0000   0.0000   0.0000
     0.0000   0.0000   0.0000   0.0000   0.0000   0.0000   0.0000   0.0000
     0.0000   0.0000   0.0000   0.0000   0.0000   0.0000   0.0000   0.0000
     0.0000   0.0000

          k =-0.2500 0.2500 0.0000 ( 65198 PWs)   bands (ev):

   -92.8861 -92.8363 -92.7408 -92.6939 -92.6356 -92.5927 -92.5754 -92.4560
   -56.2396 -56.2225 -56.0974 -56.0865 -56.0809 -56.0734 -56.0397 -56.0095
   -55.9944 -55.9926 -55.9867 -55.9424 -55.9244 -55.8863 -55.8679 -55.8358
   -55.8293 -55.7821 -55.7806 -55.7776 -55.7692 -55.7309 -55.7054 -55.6210
   -31.4481 -31.4316 -31.2874 -31.2742 -31.2011 -31.0815 -30.9705 -30.7711
   -30.0298 -29.9890 -29.9617 -29.8538 -15.1982 -15.1511 -15.0816 -14.9651
   -14.8471 -14.7229 -14.6415 -14.4298 -14.2938 -14.2652 -14.2489 -14.2033
   -14.1793 -14.1538 -14.1306 -14.0909 -14.0141 -14.0031 -13.8490 -13.8236
   -13.7927 -13.7725 -13.7037 -13.6756 -13.6097 -13.5998 -13.4694 -13.4139
   -13.3931 -13.3192 -13.2765 -13.2153 -13.2030 -13.1746 -13.1548 -13.1173
   -13.0990 -13.0526 -13.0116 -12.9747 -12.9439 -12.9002 -12.8834 -12.8651
   -12.7681 -12.7162 -12.6151 -12.5966 -12.5401 -12.4552 -12.2485 -12.1898
   -11.9879 -11.9807 -11.9597 -11.9324 -11.9203 -11.8795 -11.8443 -11.8219
   -11.7997 -11.7775 -11.6917 -11.6475 -11.6380  -2.8474  -2.6405  -2.5192
    -2.4288  -2.3128  -2.2470  -2.0399  -1.8987  -1.8808  -1.8469  -1.7578
    -1.7218  -1.6286  -1.5936  -1.5675  -1.4263  -1.3700  -1.2996  -1.2721
    -1.2108  -1.1926  -1.1520  -1.1238  -1.0833  -1.0198  -0.9713  -0.9039
    -0.8376  -0.8130  -0.7631  -0.7344  -0.6875  -0.6295  -0.5759  -0.5424
    -0.4354  -0.4109  -0.3924  -0.3513  -0.2887  -0.2138  -0.1723  -0.1316
    -0.0634  -0.0284   0.2119   0.3860   0.4201   0.4633   0.5236   0.5879
     0.6366   0.6979   0.7281   1.0092   1.1112   1.1521   1.1851   1.1956
     1.2337   1.2484   1.2943   1.3256   1.3382   1.3634   1.4135   1.4306
     1.4693   1.4951   1.5373   1.6253   1.6422   1.6619   1.6996   1.7259
     1.7679   1.8202   1.9258   2.0285   2.0536   2.1026   2.1236   2.1871
     2.2265   2.2527   2.2774   2.2999   2.4050   2.4402   2.5261   2.5856
     2.6002   2.6520   2.7026   2.7092   2.7249   2.7320   2.7448   2.7589
     2.7650   2.7835   2.7933   2.8049   2.8159   2.8270   2.8372   2.8488
     2.8803   2.8890   2.8963   2.9303   3.2211   3.3028   3.3740   3.4511
     3.4630   3.6728   3.7801   4.1289   4.3359   4.5572   4.8140   5.1274
     5.4993   5.5579   5.6196   5.6531   5.7208   6.1038   6.1377   6.1676
     6.8366   7.0974   7.2218   7.3802   7.4610   7.4850   7.5659   7.7687
     7.8541   7.9980   8.1989   8.2304   8.3228   8.3359   8.4532   8.4687
     8.5295   8.8031

     occupation numbers 
     1.0000   1.0000   1.0000   1.0000   1.0000   1.0000   1.0000   1.0000
     1.0000   1.0000   1.0000   1.0000   1.0000   1.0000   1.0000   1.0000
     1.0000   1.0000   1.0000   1.0000   1.0000   1.0000   1.0000   1.0000
     1.0000   1.0000   1.0000   1.0000   1.0000   1.0000   1.0000   1.0000
     1.0000   1.0000   1.0000   1.0000   1.0000   1.0000   1.0000   1.0000
     1.0000   1.0000   1.0000   1.0000   1.0000   1.0000   1.0000   1.0000
     1.0000   1.0000   1.0000   1.0000   1.0000   1.0000   1.0000   1.0000
     1.0000   1.0000   1.0000   1.0000   1.0000   1.0000   1.0000   1.0000
     1.0000   1.0000   1.0000   1.0000   1.0000   1.0000   1.0000   1.0000
     1.0000   1.0000   1.0000   1.0000   1.0000   1.0000   1.0000   1.0000
     1.0000   1.0000   1.0000   1.0000   1.0000   1.0000   1.0000   1.0000
     1.0000   1.0000   1.0000   1.0000   1.0000   1.0000   1.0000   1.0000
     1.0000   1.0000   1.0000   1.0000   1.0000   1.0000   1.0000   1.0000
     1.0000   1.0000   1.0000   1.0000   1.0000   1.0000   1.0000   1.0000
     1.0000   1.0000   1.0000   1.0000   1.0000   1.0000   1.0000   1.0000
     1.0000   1.0000   1.0000   1.0000   1.0000   1.0000   1.0000   1.0000
     1.0000   1.0000   1.0000   1.0000   1.0000   1.0000   1.0000   1.0000
     1.0000   1.0000   1.0000   1.0000   1.0000   1.0000   1.0000   1.0000
     1.0000   1.0000   1.0000   1.0000   1.0000   1.0000   1.0000   1.0000
     1.0000   1.0000   1.0000   1.0000   1.0000   1.0000   0.9999   0.9999
     0.9999   0.9999   0.9998   0.9992   0.9987   0.9984   0.9982   0.9981
     0.9977   0.9975   0.9970   0.9965   0.9963   0.9959   0.9949   0.9945
     0.9935   0.9928   0.9914   0.9879   0.9871   0.9860   0.9839   0.9823
     0.9794   0.9752   0.9646   0.9510   0.9471   0.9387   0.9349   0.9220
     0.9131   0.9068   0.9005   0.8946   0.8633   0.8515   0.8200   0.7959
     0.7897   0.7668   0.7432   0.7400   0.7324   0.7289   0.7226   0.7156
     0.7125   0.7030   0.6980   0.6919   0.6862   0.6803   0.6749   0.6686
     0.6515   0.6467   0.6427   0.6237   0.4536   0.4059   0.3655   0.3234
     0.3171   0.2155   0.1719   0.0715   0.0382   0.0178   0.0065   0.0016
     0.0002   0.0002   0.0001   0.0001   0.0001   0.0000   0.0000   0.0000
     0.0000   0.0000   0.0000   0.0000   0.0000   0.0000   0.0000   0.0000
     0.0000   0.0000   0.0000   0.0000   0.0000   0.0000   0.0000   0.0000
     0.0000   0.0000

          k =-0.5000 0.2500 0.0000 ( 65138 PWs)   bands (ev):

   -92.8861 -92.8363 -92.7408 -92.6939 -92.6356 -92.5927 -92.5754 -92.4560
   -56.2396 -56.2225 -56.0974 -56.0865 -56.0809 -56.0734 -56.0397 -56.0095
   -55.9944 -55.9926 -55.9867 -55.9424 -55.9244 -55.8863 -55.8679 -55.8358
   -55.8293 -55.7821 -55.7806 -55.7776 -55.7692 -55.7309 -55.7054 -55.6210
   -31.4460 -31.4337 -31.2870 -31.2741 -31.2015 -31.0816 -30.9703 -30.7713
   -30.0287 -29.9900 -29.9613 -29.8542 -15.1620 -15.1141 -15.0366 -14.9351
   -14.8945 -14.7713 -14.6797 -14.5472 -14.2446 -14.2143 -14.2019 -14.1565
   -14.1329 -14.1094 -14.0737 -14.0570 -14.0391 -14.0005 -13.9873 -13.8787
   -13.8152 -13.7667 -13.7580 -13.7295 -13.6442 -13.6342 -13.5091 -13.4563
   -13.3724 -13.3378 -13.2413 -13.2041 -13.1917 -13.1862 -13.1525 -13.1198
   -13.1107 -13.0603 -12.9871 -12.9664 -12.9028 -12.8594 -12.8291 -12.7955
   -12.7883 -12.7181 -12.7115 -12.5188 -12.4945 -12.3977 -12.3006 -12.2710
   -11.9878 -11.9538 -11.9410 -11.9272 -11.9149 -11.8938 -11.8639 -11.7823
   -11.7739 -11.7510 -11.7142 -11.6871 -11.6781  -2.6199  -2.5785  -2.4312
    -2.3891  -2.2266  -2.1487  -2.0100  -1.8739  -1.8157  -1.7889  -1.7512
    -1.7141  -1.6325  -1.5168  -1.4592  -1.4365  -1.4098  -1.3306  -1.3055
    -1.2658  -1.2498  -1.1892  -1.1563  -1.1210  -1.0860  -1.0571  -0.9978
    -0.9702  -0.9290  -0.8925  -0.7875  -0.7626  -0.6635  -0.6106  -0.5764
    -0.5134  -0.4383  -0.4041  -0.3036  -0.2638  -0.2006  -0.1545  -0.1136
    -0.0586  -0.0270   0.0086   0.0516   0.0899   0.4191   0.4714   0.5394
     0.5703   0.8399   0.9069   0.9740   1.0035   1.1747   1.2092   1.2467
     1.2556   1.2741   1.2920   1.3616   1.4094   1.4503   1.4854   1.6001
     1.6425   1.6702   1.6845   1.7179   1.7429   1.7607   1.7739   1.7898
     1.8129   1.8578   1.8716   1.9102   1.9349   1.9677   2.0217   2.1458
     2.2393   2.2676   2.3333   2.3699   2.4345   2.4678   2.4751   2.5165
     2.5459   2.5683   2.5838   2.5981   2.6486   2.6653   2.7010   2.7120
     2.7185   2.7380   2.7602   2.7709   2.7877   2.8002   2.8232   2.8381
     2.8441   2.8537   2.8629   2.8778   3.4108   3.4446   3.5939   3.6120
     3.9102   3.9702   4.0274   4.2279   4.6075   4.7077   4.8844   4.9346
     5.2401   5.2637   5.4864   5.5808   5.6083   5.6516   6.3287   6.4590
     6.4889   6.6305   7.3925   7.5992   7.6706   7.7024   7.7318   7.7833
     7.8643   7.9510   8.1647   8.3289   8.4110   8.4228   8.5005   8.5599
     8.6909   8.7418

     occupation numbers 
     1.0000   1.0000   1.0000   1.0000   1.0000   1.0000   1.0000   1.0000
     1.0000   1.0000   1.0000   1.0000   1.0000   1.0000   1.0000   1.0000
     1.0000   1.0000   1.0000   1.0000   1.0000   1.0000   1.0000   1.0000
     1.0000   1.0000   1.0000   1.0000   1.0000   1.0000   1.0000   1.0000
     1.0000   1.0000   1.0000   1.0000   1.0000   1.0000   1.0000   1.0000
     1.0000   1.0000   1.0000   1.0000   1.0000   1.0000   1.0000   1.0000
     1.0000   1.0000   1.0000   1.0000   1.0000   1.0000   1.0000   1.0000
     1.0000   1.0000   1.0000   1.0000   1.0000   1.0000   1.0000   1.0000
     1.0000   1.0000   1.0000   1.0000   1.0000   1.0000   1.0000   1.0000
     1.0000   1.0000   1.0000   1.0000   1.0000   1.0000   1.0000   1.0000
     1.0000   1.0000   1.0000   1.0000   1.0000   1.0000   1.0000   1.0000
     1.0000   1.0000   1.0000   1.0000   1.0000   1.0000   1.0000   1.0000
     1.0000   1.0000   1.0000   1.0000   1.0000   1.0000   1.0000   1.0000
     1.0000   1.0000   1.0000   1.0000   1.0000   1.0000   1.0000   1.0000
     1.0000   1.0000   1.0000   1.0000   1.0000   1.0000   1.0000   1.0000
     1.0000   1.0000   1.0000   1.0000   1.0000   1.0000   1.0000   1.0000
     1.0000   1.0000   1.0000   1.0000   1.0000   1.0000   1.0000   1.0000
     1.0000   1.0000   1.0000   1.0000   1.0000   1.0000   1.0000   1.0000
     1.0000   1.0000   1.0000   1.0000   1.0000   1.0000   1.0000   1.0000
     1.0000   1.0000   1.0000   1.0000   1.0000   1.0000   1.0000   0.9999
     0.9999   0.9997   0.9995   0.9994   0.9993   0.9983   0.9980   0.9976
     0.9975   0.9972   0.9970   0.9959   0.9950   0.9940   0.9931   0.9890
     0.9870   0.9856   0.9848   0.9828   0.9812   0.9799   0.9789   0.9777
     0.9758   0.9718   0.9704   0.9664   0.9635   0.9595   0.9520   0.9306
     0.9101   0.9031   0.8853   0.8744   0.8535   0.8418   0.8392   0.8237
     0.8122   0.8031   0.7966   0.7906   0.7684   0.7608   0.7440   0.7387
     0.7355   0.7260   0.7149   0.7095   0.7009   0.6944   0.6823   0.6744
     0.6712   0.6660   0.6610   0.6529   0.3452   0.3269   0.2514   0.2429
     0.1272   0.1095   0.0944   0.0535   0.0148   0.0101   0.0048   0.0039
     0.0009   0.0008   0.0003   0.0001   0.0001   0.0001   0.0000   0.0000
     0.0000   0.0000   0.0000   0.0000   0.0000   0.0000   0.0000   0.0000
     0.0000   0.0000   0.0000   0.0000   0.0000   0.0000   0.0000   0.0000
     0.0000   0.0000

     the Fermi energy is     3.1425 ev

!    total energy              =   -4440.30469154 Ry
     estimated scf accuracy    <          4.6E-09 Ry
     smearing contrib. (-TS)   =      -1.20815358 Ry
     internal energy E=F+TS    =   -4439.09653797 Ry

     The total energy is F=E-TS. E is the sum of the following terms:
     one-electron contribution =  -20889.37209695 Ry
     hartree contribution      =   10573.64553480 Ry
     xc contribution           =    -693.24615542 Ry
     ewald contribution        =    6846.06738352 Ry
     one-center paw contrib.   =    -276.19120391 Ry
      -> PAW hartree energy AE =      25.16077551 Ry
      -> PAW hartree energy PS =     -25.04467912 Ry
      -> PAW xc energy AE      =     -16.51723341 Ry
      -> PAW xc energy PS      =       6.87666834 Ry
      -> total E_H with PAW    =   10573.76163119 Ry
      -> total E_XC with PAW   =    -702.88672049 Ry

     convergence has been achieved in  60 iterations

     Writing all to output data dir /bsuhome/zayahcortright/scratch/pwscf.save/
 
     init_run     :      7.65s CPU      8.75s WALL (       1 calls)
     electrons    :    854.55s CPU    895.79s WALL (       1 calls)

     Called by init_run:
     wfcinit      :      6.29s CPU      6.58s WALL (       1 calls)
     wfcinit:atom :      0.04s CPU      0.07s WALL (       5 calls)
     wfcinit:wfcr :      5.97s CPU      6.16s WALL (       5 calls)
     potinit      :      0.17s CPU      0.19s WALL (       1 calls)
     hinit0       :      0.29s CPU      0.84s WALL (       1 calls)

     Called by electrons:
     c_bands      :    676.14s CPU    684.36s WALL (      60 calls)
     sum_band     :    133.78s CPU    152.05s WALL (      60 calls)
     v_of_rho     :      6.46s CPU      6.95s WALL (      61 calls)
     v_h          :      0.56s CPU      0.56s WALL (      61 calls)
     v_xc         :      5.90s CPU      6.38s WALL (      61 calls)
     newd         :     19.82s CPU     33.62s WALL (      61 calls)
     PAW_pot      :      1.95s CPU      1.98s WALL (      61 calls)
     mix_rho      :     15.95s CPU     16.41s WALL (      60 calls)

     Called by c_bands:
     init_us_2    :      8.48s CPU      8.61s WALL (     605 calls)
     init_us_2:cp :      8.47s CPU      8.60s WALL (     605 calls)
     cegterg      :    637.23s CPU    645.06s WALL (     300 calls)

     Called by sum_band:
     sum_band:wei :      0.42s CPU      0.43s WALL (      60 calls)
     sum_band:loo :    112.54s CPU    113.45s WALL (      60 calls)
     sum_band:buf :      1.64s CPU      1.73s WALL (     300 calls)
     sum_band:ini :      3.97s CPU      4.00s WALL (     300 calls)
     sum_band:cal :     23.88s CPU     23.95s WALL (     300 calls)
     sum_band:bec :      0.67s CPU      0.67s WALL (     300 calls)
     addusdens    :     19.09s CPU     36.38s WALL (      60 calls)
                                        0.00s GPU  (      60 calls)
     addusd:skk   :      0.37s CPU      1.18s WALL (     180 calls)
                                        0.00s GPU  (     180 calls)

     Called by *egterg:
     cdiaghg      :     64.45s CPU     64.76s WALL (    1464 calls)
     cegterg:over :     46.97s CPU     47.15s WALL (    1164 calls)
     cegterg:upda :     33.56s CPU     34.19s WALL (    1164 calls)
     cegterg:last :     68.61s CPU     68.87s WALL (     527 calls)
     cdiaghg:chol :      3.66s CPU      3.69s WALL (    1464 calls)
     cdiaghg:inve :      3.31s CPU      3.32s WALL (    1464 calls)
     cdiaghg:para :      8.22s CPU      8.26s WALL (    2928 calls)
     h_psi        :    355.68s CPU    359.51s WALL (    1469 calls)
     s_psi        :     47.58s CPU     47.71s WALL (    1469 calls)
     g_psi        :      1.29s CPU      1.30s WALL (    1164 calls)

     Called by h_psi:
     h_psi:calbec :     53.97s CPU     54.26s WALL (    1469 calls)
     vloc_psi     :    250.77s CPU    253.22s WALL (    1469 calls)
     add_vuspsi   :     47.48s CPU     47.74s WALL (    1469 calls)

     General routines
     calbec       :     77.84s CPU     78.20s WALL (    1769 calls)
     fft          :      4.67s CPU      4.72s WALL (     791 calls)
     ffts         :      5.89s CPU      5.94s WALL (    6542 calls)
     fftw         :    215.18s CPU    216.98s WALL (  401818 calls)
     interpolate  :      0.49s CPU      0.51s WALL (      61 calls)
 
     Parallel routines

     PAW routines
     PAW_pot      :      1.95s CPU      1.98s WALL (      61 calls)
 
     PWSCF        :  14m23.88s CPU  15m 9.49s WALL

 
   This run was terminated on:   2:49:13  22Jun2024            

=------------------------------------------------------------------------------=
   JOB DONE.
=------------------------------------------------------------------------------=
