
     Program PWSCF v.7.2 starts on 21Jun2024 at 18:36:24 

     This program is part of the open-source Quantum ESPRESSO suite
     for quantum simulation of materials; please cite
         "P. Giannozzi et al., J. Phys.:Condens. Matter 21 395502 (2009);
         "P. Giannozzi et al., J. Phys.:Condens. Matter 29 465901 (2017);
         "P. Giannozzi et al., J. Chem. Phys. 152 154105 (2020);
          URL http://www.quantum-espresso.org", 
     in publications or presentations arising from this work. More details at
     http://www.quantum-espresso.org/quote

     Parallel version (MPI & OpenMP), running on      48 processor cores
     Number of MPI processes:                48
     Threads/MPI process:                     1

     MPI processes distributed on     1 nodes
     33229 MiB available memory on the printing compute node when the environment starts
 
     Reading input from espresso.pwi
Warning: card &CELL ignored
Warning: card / ignored
Warning: card &FCP ignored
Warning: card / ignored
Warning: card &RISM ignored
Warning: card / ignored

     Current dimensions of program PWSCF are:
     Max number of different atomic species (ntypx) = 10
     Max number of k-points (npk) =  40000
     Max angular momentum in pseudopotentials (lmaxx) =  4
     file O.pbe-n-kjpaw_psl.0.1.UPF: wavefunction(s)  2P renormalized
     signal trapping enabled: kill the code with -SIGUSR1 to stop cleanly the simulation 
 
     K-points division:     npool     =       2
     R & G space division:  proc/nbgrp/npool/nimage =      24
     Subspace diagonalization in iterative solution of the eigenvalue problem:
     one sub-group per band group will be used
     scalapack distributed-memory algorithm (size of sub-group:  3*  3 procs)

 
     Parallelization info
     --------------------
     sticks:   dense  smooth     PW     G-vecs:    dense   smooth      PW
     Min         350     175     47                61430    21716    3036
     Max         351     177     48                61449    21727    3041
     Sum        8421    4205   1137              1474595   521381   72913
 
     Using Slab Decomposition
 


     bravais-lattice index     =            0
     lattice parameter (alat)  =      14.8599  a.u.
     unit-cell volume          =    8305.1283 (a.u.)^3
     number of atoms/cell      =           50
     number of atomic types    =            4
     number of electrons       =       431.00
     number of Kohn-Sham states=          259
     kinetic-energy cutoff     =      60.0000  Ry
     charge density cutoff     =     480.0000  Ry
     scf convergence threshold =      1.0E-08
     mixing beta               =       0.1500
     number of iterations used =            8  local-TF  mixing
     Exchange-correlation= PBE
                           (   1   4   3   4   0   0   0)

     celldm(1)=  14.859904  celldm(2)=   0.000000  celldm(3)=   0.000000
     celldm(4)=   0.000000  celldm(5)=   0.000000  celldm(6)=   0.000000

     crystal axes: (cart. coord. in units of alat)
               a(1) = (   1.000000   0.000000   0.000000 )  
               a(2) = (   0.000000   1.000000   0.000000 )  
               a(3) = (   0.000000   0.000000   2.531036 )  

     reciprocal axes: (cart. coord. in units 2 pi/alat)
               b(1) = (  1.000000  0.000000  0.000000 )  
               b(2) = (  0.000000  1.000000  0.000000 )  
               b(3) = (  0.000000  0.000000  0.395095 )  


     PseudoPot. # 1 for Sr read from file:
     /bsuhome/zayahcortright/q-e/pseudo/Sr_pbe_v1.uspp.F.UPF
     MD5 check sum: 6b418c05fbe9db5448babca5e47b7a5b
     Pseudo is Ultrasoft + core correction, Zval = 10.0
     Generated by new atomic code, or converted to UPF format
     Using radial grid of  883 points,  6 beta functions with: 
                l(1) =   0
                l(2) =   0
                l(3) =   1
                l(4) =   1
                l(5) =   2
                l(6) =   2
     Q(r) pseudized with  6 coefficients,  rinner =    1.400   1.400   1.400
                                                       1.400   1.400

     PseudoPot. # 2 for O  read from file:
     /bsuhome/zayahcortright/q-e/pseudo/O.pbe-n-kjpaw_psl.0.1.UPF
     MD5 check sum: 0234752ac141de4415c5fc33072bef88
     Pseudo is Projector augmented-wave + core cor, Zval =  6.0
     Generated using "atomic" code by A. Dal Corso  v.5.0.99 svn rev. 10869
     Shape of augmentation charge: BESSEL
     Using radial grid of 1095 points,  4 beta functions with: 
                l(1) =   0
                l(2) =   0
                l(3) =   1
                l(4) =   1
     Q(r) pseudized with 0 coefficients 


     PseudoPot. # 3 for Co read from file:
     /bsuhome/zayahcortright/q-e/pseudo/Co_pbe_v1.2.uspp.F.UPF
     MD5 check sum: 5f91765df6ddd3222702df6e7b74a16d
     Pseudo is Ultrasoft + core correction, Zval = 17.0
     Generated by new atomic code, or converted to UPF format
     Using radial grid of  863 points,  6 beta functions with: 
                l(1) =   0
                l(2) =   0
                l(3) =   1
                l(4) =   1
                l(5) =   2
                l(6) =   2
     Q(r) pseudized with  8 coefficients,  rinner =    1.200   1.200   1.200
                                                       1.200   1.200

     PseudoPot. # 4 for H  read from file:
     /bsuhome/zayahcortright/q-e/pseudo/H.pbe-rrkjus_psl.1.0.0.UPF
     MD5 check sum: f52b6d4d1c606e5624b1dc7b2218f220
     Pseudo is Ultrasoft, Zval =  1.0
     Generated using "atomic" code by A. Dal Corso  v.5.1
     Using radial grid of  929 points,  2 beta functions with: 
                l(1) =   0
                l(2) =   0
     Q(r) pseudized with 0 coefficients 


     atomic species   valence    mass     pseudopotential
        Sr            10.00    87.62000     Sr( 1.00)
        O              6.00    15.99900     O ( 1.00)
        Co            17.00    58.93319     Co( 1.00)
        H              1.00     1.00800     H ( 1.00)

     No symmetry found


                                    s                        frac. trans.

      isym =  1     identity                                     

 cryst.   s( 1) = (     1          0          0      )
                  (     0          1          0      )
                  (     0          0          1      )

 cart.    s( 1) = (  1.0000000  0.0000000  0.0000000 )
                  (  0.0000000  1.0000000  0.0000000 )
                  (  0.0000000  0.0000000  1.0000000 )


   Cartesian axes

     site n.     atom                  positions (alat units)
         1           Sr  tau(   1) = (   0.2508693   0.7491307   1.7574407  )
         2           O   tau(   2) = (   0.4985141   0.5014859   1.7715967  )
         3           Sr  tau(   3) = (   0.7482398   0.7454518   1.7648669  )
         4           Sr  tau(   4) = (   0.7441748   0.2558252   1.7667843  )
         5           Sr  tau(   5) = (   0.2508693   0.7491307   1.2696799  )
         6           Sr  tau(   6) = (   0.2508693   0.7491307   0.7632319  )
         7           Co  tau(   7) = (   0.4998914   0.5001086   1.0164559  )
         8           Co  tau(   8) = (   0.4936915   0.5063085   1.5135603  )
         9           O   tau(   9) = (   0.4988895   0.7610401   1.0164559  )
        10           O   tau(  10) = (   0.2389599   0.5011105   1.0164559  )
        11           O   tau(  11) = (   0.0070918   0.7374880   1.0164559  )
        12           O   tau(  12) = (   0.0088340   0.7405089   1.5135603  )
        13           O   tau(  13) = (   0.5066944   0.7415376   1.5135603  )
        14           O   tau(  14) = (   0.2584624   0.4933056   1.5135603  )
        15           O   tau(  15) = (   0.4985141   0.5014859   0.7773880  )
        16           O   tau(  16) = (   0.4985141   0.5014859   1.2555238  )
        17           Sr  tau(  17) = (   0.7482398   0.7454518   0.7706582  )
        18           Sr  tau(  18) = (   0.7482398   0.7454518   1.2622536  )
        19           Sr  tau(  19) = (   0.7441748   0.2558252   0.7725755  )
        20           Sr  tau(  20) = (   0.7441748   0.2558252   1.2603363  )
        21           O   tau(  21) = (   0.7322655   0.0078049   1.5135603  )
        22           O   tau(  22) = (   0.7558175   0.4996027   1.5135603  )
        23           O   tau(  23) = (   0.5003973   0.2441825   1.5135603  )
        24           O   tau(  24) = (   0.7527966   0.4978604   1.0164559  )
        25           O   tau(  25) = (   0.5021396   0.2472034   1.0164559  )
        26           O   tau(  26) = (   0.7517679   0.0000000   1.0164559  )
        27           O   tau(  27) = (   0.0114961   0.4948124   1.7455321  )
        28           O   tau(  28) = (   0.0048226   0.0077944   1.7715967  )
        29           Sr  tau(  29) = (   0.2545482   0.2517602   1.7648669  )
        30           O   tau(  30) = (   0.5048017   0.0015068   1.7786929  )
        31           Co  tau(  31) = (   0.0056869   0.5006215   1.0164559  )
        32           Co  tau(  32) = (   0.0065315   0.4997770   1.5135603  )
        33           Co  tau(  33) = (   0.0061999   0.0064171   1.0164559  )
        34           Co  tau(  34) = (   0.0000000   0.0126169   1.5135603  )
        35           O   tau(  35) = (   0.0114961   0.4948124   1.2815885  )
        36           O   tau(  36) = (   0.0114961   0.4948124   0.7513233  )
        37           O   tau(  37) = (   0.0051979   0.2673486   1.0164559  )
        38           O   tau(  38) = (   0.0130029   0.2478461   1.5135603  )
        39           O   tau(  39) = (   0.0048226   0.0077944   0.7773880  )
        40           O   tau(  40) = (   0.0048226   0.0077944   1.2555238  )
        41           Sr  tau(  41) = (   0.2545482   0.2517602   0.7706582  )
        42           Sr  tau(  42) = (   0.2545482   0.2517602   1.2622536  )
        43           Co  tau(  43) = (   0.4989925   0.0073160   1.5135603  )
        44           Co  tau(  44) = (   0.4998370   0.0064714   1.0164559  )
        45           O   tau(  45) = (   0.5048017   0.0015068   0.7844841  )
        46           O   tau(  46) = (   0.5048017   0.0015068   1.2484277  )
        47           O   tau(  47) = (   0.2621260   0.0059111   1.5135603  )
        48           O   tau(  48) = (   0.2591051   0.0041689   1.0164559  )
        49           O   tau(  49) = (   0.2843291   0.2843291   2.1602013  )
        50           H   tau(  50) = (   0.2843291   0.2843291   2.2847091  )

   Crystallographic axes

     site n.     atom                  positions (cryst. coord.)
         1           Sr  tau(   1) = (  0.2508693  0.7491307  0.6943562  )
         2           O   tau(   2) = (  0.4985141  0.5014859  0.6999492  )
         3           Sr  tau(   3) = (  0.7482398  0.7454518  0.6972903  )
         4           Sr  tau(   4) = (  0.7441748  0.2558252  0.6980478  )
         5           Sr  tau(   5) = (  0.2508693  0.7491307  0.5016443  )
         6           Sr  tau(   6) = (  0.2508693  0.7491307  0.3015492  )
         7           Co  tau(   7) = (  0.4998914  0.5001086  0.4015968  )
         8           Co  tau(   8) = (  0.4936915  0.5063085  0.5980003  )
         9           O   tau(   9) = (  0.4988895  0.7610401  0.4015968  )
        10           O   tau(  10) = (  0.2389599  0.5011105  0.4015968  )
        11           O   tau(  11) = (  0.0070918  0.7374880  0.4015968  )
        12           O   tau(  12) = (  0.0088340  0.7405089  0.5980003  )
        13           O   tau(  13) = (  0.5066944  0.7415376  0.5980003  )
        14           O   tau(  14) = (  0.2584624  0.4933056  0.5980003  )
        15           O   tau(  15) = (  0.4985141  0.5014859  0.3071422  )
        16           O   tau(  16) = (  0.4985141  0.5014859  0.4960513  )
        17           Sr  tau(  17) = (  0.7482398  0.7454518  0.3044833  )
        18           Sr  tau(  18) = (  0.7482398  0.7454518  0.4987103  )
        19           Sr  tau(  19) = (  0.7441748  0.2558252  0.3052408  )
        20           Sr  tau(  20) = (  0.7441748  0.2558252  0.4979527  )
        21           O   tau(  21) = (  0.7322655  0.0078049  0.5980003  )
        22           O   tau(  22) = (  0.7558175  0.4996027  0.5980003  )
        23           O   tau(  23) = (  0.5003973  0.2441825  0.5980003  )
        24           O   tau(  24) = (  0.7527966  0.4978604  0.4015968  )
        25           O   tau(  25) = (  0.5021396  0.2472034  0.4015968  )
        26           O   tau(  26) = (  0.7517679  0.0000000  0.4015968  )
        27           O   tau(  27) = (  0.0114961  0.4948124  0.6896512  )
        28           O   tau(  28) = (  0.0048226  0.0077944  0.6999492  )
        29           Sr  tau(  29) = (  0.2545482  0.2517602  0.6972903  )
        30           O   tau(  30) = (  0.5048017  0.0015068  0.7027529  )
        31           Co  tau(  31) = (  0.0056869  0.5006215  0.4015968  )
        32           Co  tau(  32) = (  0.0065315  0.4997770  0.5980003  )
        33           Co  tau(  33) = (  0.0061999  0.0064171  0.4015968  )
        34           Co  tau(  34) = (  0.0000000  0.0126169  0.5980003  )
        35           O   tau(  35) = (  0.0114961  0.4948124  0.5063494  )
        36           O   tau(  36) = (  0.0114961  0.4948124  0.2968442  )
        37           O   tau(  37) = (  0.0051979  0.2673486  0.4015968  )
        38           O   tau(  38) = (  0.0130029  0.2478461  0.5980003  )
        39           O   tau(  39) = (  0.0048226  0.0077944  0.3071422  )
        40           O   tau(  40) = (  0.0048226  0.0077944  0.4960513  )
        41           Sr  tau(  41) = (  0.2545482  0.2517602  0.3044833  )
        42           Sr  tau(  42) = (  0.2545482  0.2517602  0.4987103  )
        43           Co  tau(  43) = (  0.4989925  0.0073160  0.5980003  )
        44           Co  tau(  44) = (  0.4998370  0.0064714  0.4015968  )
        45           O   tau(  45) = (  0.5048017  0.0015068  0.3099459  )
        46           O   tau(  46) = (  0.5048017  0.0015068  0.4932477  )
        47           O   tau(  47) = (  0.2621260  0.0059111  0.5980003  )
        48           O   tau(  48) = (  0.2591051  0.0041689  0.4015968  )
        49           O   tau(  49) = (  0.2843291  0.2843291  0.8534850  )
        50           H   tau(  50) = (  0.2843291  0.2843291  0.9026774  )

     number of k points=    10  Gaussian smearing, width (Ry)=  0.0700
                       cart. coord. in units 2pi/alat
        k(    1) = (   0.0000000   0.0000000   0.0000000), wk =   0.1250000
        k(    2) = (   0.0000000   0.2500000   0.0000000), wk =   0.2500000
        k(    3) = (   0.0000000  -0.5000000   0.0000000), wk =   0.1250000
        k(    4) = (   0.2500000   0.2500000   0.0000000), wk =   0.2500000
        k(    5) = (   0.2500000  -0.5000000   0.0000000), wk =   0.2500000
        k(    6) = (  -0.5000000  -0.5000000   0.0000000), wk =   0.1250000
        k(    7) = (   0.2500000   0.0000000   0.0000000), wk =   0.2500000
        k(    8) = (  -0.5000000   0.0000000   0.0000000), wk =   0.1250000
        k(    9) = (  -0.2500000   0.2500000   0.0000000), wk =   0.2500000
        k(   10) = (  -0.5000000   0.2500000   0.0000000), wk =   0.2500000

                       cryst. coord.
        k(    1) = (   0.0000000   0.0000000   0.0000000), wk =   0.1250000
        k(    2) = (   0.0000000   0.2500000   0.0000000), wk =   0.2500000
        k(    3) = (   0.0000000  -0.5000000   0.0000000), wk =   0.1250000
        k(    4) = (   0.2500000   0.2500000   0.0000000), wk =   0.2500000
        k(    5) = (   0.2500000  -0.5000000   0.0000000), wk =   0.2500000
        k(    6) = (  -0.5000000  -0.5000000   0.0000000), wk =   0.1250000
        k(    7) = (   0.2500000   0.0000000   0.0000000), wk =   0.2500000
        k(    8) = (  -0.5000000   0.0000000   0.0000000), wk =   0.1250000
        k(    9) = (  -0.2500000   0.2500000   0.0000000), wk =   0.2500000
        k(   10) = (  -0.5000000   0.2500000   0.0000000), wk =   0.2500000

     Dense  grid:  1474595 G-vectors     FFT dimensions: ( 108, 108, 270)

     Smooth grid:   521381 G-vectors     FFT dimensions: (  75,  75, 192)

     Dynamical RAM for                 wfc:      10.73 MB

     Dynamical RAM for     wfc (w. buffer):      64.38 MB

     Dynamical RAM for           str. fact:       3.75 MB

     Dynamical RAM for           local pot:       0.00 MB

     Dynamical RAM for          nlocal pot:      24.61 MB

     Dynamical RAM for                qrad:       7.03 MB

     Dynamical RAM for          rho,v,vnew:       6.02 MB

     Dynamical RAM for               rhoin:       2.01 MB

     Dynamical RAM for            rho*nmix:      15.00 MB

     Dynamical RAM for           G-vectors:       3.68 MB

     Dynamical RAM for          h,s,v(r/c):       1.35 MB

     Dynamical RAM for          <psi|beta>:       2.35 MB

     Dynamical RAM for                 psi:      21.46 MB

     Dynamical RAM for                hpsi:      21.46 MB

     Dynamical RAM for                spsi:      21.46 MB

     Dynamical RAM for      wfcinit/wfcrot:      34.49 MB

     Dynamical RAM for           addusdens:     101.26 MB

     Estimated static dynamical RAM per process >     121.50 MB

     Estimated max dynamical RAM per process >     237.76 MB

     Estimated total dynamical RAM >      10.79 GB

     Check: negative core charge=   -0.000004

     Initial potential from superposition of free atoms

     starting charge     422.5961, renormalised to     431.0000

     negative rho (up, down):  7.819E-01 0.000E+00
     Starting wfcs are  377 randomized atomic wfcs
     Checking if some PAW data can be deallocated... 
       PAW data deallocated on   19 nodes for type:  2

     total cpu time spent up to now is        9.0 secs

     Self-consistent Calculation

     iteration #  1     ecut=    60.00 Ry     beta= 0.15
     Davidson diagonalization with overlap

---- Real-time Memory Report at c_bands before calling an iterative solver
             0 MiB given to the printing process from OS
             0 MiB allocation reported by mallinfo(arena+hblkhd)
         24011 MiB available memory on the node where the printing process lives
------------------
     ethr =  1.00E-02,  avg # of iterations =  2.0

     negative rho (up, down):  7.718E-01 0.000E+00

     total cpu time spent up to now is       25.2 secs

     total energy              =   -4446.66303343 Ry
     estimated scf accuracy    <      44.37938440 Ry

     iteration #  2     ecut=    60.00 Ry     beta= 0.15
     Davidson diagonalization with overlap

---- Real-time Memory Report at c_bands before calling an iterative solver
             0 MiB given to the printing process from OS
             0 MiB allocation reported by mallinfo(arena+hblkhd)
         24255 MiB available memory on the node where the printing process lives
------------------
     ethr =  1.00E-02,  avg # of iterations =  1.0

     negative rho (up, down):  7.590E-01 0.000E+00

     total cpu time spent up to now is       39.4 secs

     total energy              =   -4443.47156076 Ry
     estimated scf accuracy    <      29.99855921 Ry

     iteration #  3     ecut=    60.00 Ry     beta= 0.15
     Davidson diagonalization with overlap

---- Real-time Memory Report at c_bands before calling an iterative solver
             0 MiB given to the printing process from OS
             0 MiB allocation reported by mallinfo(arena+hblkhd)
         23420 MiB available memory on the node where the printing process lives
------------------
     ethr =  6.96E-03,  avg # of iterations =  1.0

     negative rho (up, down):  7.558E-01 0.000E+00

     total cpu time spent up to now is       53.9 secs

     total energy              =   -4444.27425228 Ry
     estimated scf accuracy    <      26.41536014 Ry

     iteration #  4     ecut=    60.00 Ry     beta= 0.15
     Davidson diagonalization with overlap

---- Real-time Memory Report at c_bands before calling an iterative solver
             0 MiB given to the printing process from OS
             0 MiB allocation reported by mallinfo(arena+hblkhd)
         23401 MiB available memory on the node where the printing process lives
------------------
     ethr =  6.13E-03,  avg # of iterations =  1.0

     negative rho (up, down):  7.512E-01 0.000E+00

     total cpu time spent up to now is       68.3 secs

     total energy              =   -4443.18396281 Ry
     estimated scf accuracy    <      19.64793660 Ry

     iteration #  5     ecut=    60.00 Ry     beta= 0.15
     Davidson diagonalization with overlap

---- Real-time Memory Report at c_bands before calling an iterative solver
             0 MiB given to the printing process from OS
             0 MiB allocation reported by mallinfo(arena+hblkhd)
         23379 MiB available memory on the node where the printing process lives
------------------
     ethr =  4.56E-03,  avg # of iterations =  1.0

     negative rho (up, down):  7.389E-01 0.000E+00

     total cpu time spent up to now is       82.6 secs

     total energy              =   -4442.37209614 Ry
     estimated scf accuracy    <      13.36355376 Ry

     iteration #  6     ecut=    60.00 Ry     beta= 0.15
     Davidson diagonalization with overlap

---- Real-time Memory Report at c_bands before calling an iterative solver
             0 MiB given to the printing process from OS
             0 MiB allocation reported by mallinfo(arena+hblkhd)
         23358 MiB available memory on the node where the printing process lives
------------------
     ethr =  3.10E-03,  avg # of iterations =  1.0

     negative rho (up, down):  7.427E-01 0.000E+00

     total cpu time spent up to now is       97.6 secs

     total energy              =   -4442.82965947 Ry
     estimated scf accuracy    <       5.23204580 Ry

     iteration #  7     ecut=    60.00 Ry     beta= 0.15
     Davidson diagonalization with overlap

---- Real-time Memory Report at c_bands before calling an iterative solver
             0 MiB given to the printing process from OS
             0 MiB allocation reported by mallinfo(arena+hblkhd)
         23342 MiB available memory on the node where the printing process lives
------------------
     ethr =  1.21E-03,  avg # of iterations =  1.7

     negative rho (up, down):  7.642E-01 0.000E+00

     total cpu time spent up to now is      112.3 secs

     total energy              =   -4441.57957290 Ry
     estimated scf accuracy    <       4.06136871 Ry

     iteration #  8     ecut=    60.00 Ry     beta= 0.15
     Davidson diagonalization with overlap

---- Real-time Memory Report at c_bands before calling an iterative solver
             0 MiB given to the printing process from OS
             0 MiB allocation reported by mallinfo(arena+hblkhd)
         23324 MiB available memory on the node where the printing process lives
------------------
     ethr =  9.42E-04,  avg # of iterations =  4.6

     negative rho (up, down):  7.740E-01 0.000E+00

     total cpu time spent up to now is      131.2 secs

     total energy              =   -4441.14187244 Ry
     estimated scf accuracy    <      25.28693179 Ry

     iteration #  9     ecut=    60.00 Ry     beta= 0.15
     Davidson diagonalization with overlap

---- Real-time Memory Report at c_bands before calling an iterative solver
             0 MiB given to the printing process from OS
             0 MiB allocation reported by mallinfo(arena+hblkhd)
         23200 MiB available memory on the node where the printing process lives
------------------
     ethr =  9.42E-04,  avg # of iterations = 10.2

     negative rho (up, down):  7.707E-01 0.000E+00

     total cpu time spent up to now is      153.1 secs

     total energy              =   -4441.73127409 Ry
     estimated scf accuracy    <       4.15407005 Ry

     iteration # 10     ecut=    60.00 Ry     beta= 0.15
     Davidson diagonalization with overlap

---- Real-time Memory Report at c_bands before calling an iterative solver
             0 MiB given to the printing process from OS
             0 MiB allocation reported by mallinfo(arena+hblkhd)
         22852 MiB available memory on the node where the printing process lives
------------------
     ethr =  9.42E-04,  avg # of iterations =  1.1

     negative rho (up, down):  7.750E-01 0.000E+00

     total cpu time spent up to now is      167.7 secs

     total energy              =   -4441.86886494 Ry
     estimated scf accuracy    <       1.60268994 Ry

     iteration # 11     ecut=    60.00 Ry     beta= 0.15
     Davidson diagonalization with overlap

---- Real-time Memory Report at c_bands before calling an iterative solver
             0 MiB given to the printing process from OS
             0 MiB allocation reported by mallinfo(arena+hblkhd)
         22828 MiB available memory on the node where the printing process lives
------------------
     ethr =  3.72E-04,  avg # of iterations =  2.2

     negative rho (up, down):  8.032E-01 0.000E+00

     total cpu time spent up to now is      184.3 secs

     total energy              =   -4441.77407637 Ry
     estimated scf accuracy    <       1.15454861 Ry

     iteration # 12     ecut=    60.00 Ry     beta= 0.15
     Davidson diagonalization with overlap

---- Real-time Memory Report at c_bands before calling an iterative solver
             0 MiB given to the printing process from OS
             0 MiB allocation reported by mallinfo(arena+hblkhd)
         22831 MiB available memory on the node where the printing process lives
------------------
     ethr =  2.68E-04,  avg # of iterations =  9.2

     negative rho (up, down):  8.104E-01 0.000E+00

     total cpu time spent up to now is      205.3 secs

     total energy              =   -4441.88307270 Ry
     estimated scf accuracy    <       1.44775114 Ry

     iteration # 13     ecut=    60.00 Ry     beta= 0.15
     Davidson diagonalization with overlap

---- Real-time Memory Report at c_bands before calling an iterative solver
             0 MiB given to the printing process from OS
             0 MiB allocation reported by mallinfo(arena+hblkhd)
         22819 MiB available memory on the node where the printing process lives
------------------
     ethr =  2.68E-04,  avg # of iterations =  5.7

     negative rho (up, down):  8.190E-01 0.000E+00

     total cpu time spent up to now is      224.7 secs

     total energy              =   -4441.83937451 Ry
     estimated scf accuracy    <       0.90521707 Ry

     iteration # 14     ecut=    60.00 Ry     beta= 0.15
     Davidson diagonalization with overlap

---- Real-time Memory Report at c_bands before calling an iterative solver
             0 MiB given to the printing process from OS
             0 MiB allocation reported by mallinfo(arena+hblkhd)
         22784 MiB available memory on the node where the printing process lives
------------------
     ethr =  2.10E-04,  avg # of iterations =  6.6

     negative rho (up, down):  8.198E-01 0.000E+00

     total cpu time spent up to now is      244.2 secs

     total energy              =   -4441.77762834 Ry
     estimated scf accuracy    <       0.51264948 Ry

     iteration # 15     ecut=    60.00 Ry     beta= 0.15
     Davidson diagonalization with overlap

---- Real-time Memory Report at c_bands before calling an iterative solver
             0 MiB given to the printing process from OS
             0 MiB allocation reported by mallinfo(arena+hblkhd)
         22774 MiB available memory on the node where the printing process lives
------------------
     ethr =  1.19E-04,  avg # of iterations =  3.2

     negative rho (up, down):  8.275E-01 0.000E+00

     total cpu time spent up to now is      261.8 secs

     total energy              =   -4441.74126498 Ry
     estimated scf accuracy    <       0.34828332 Ry

     iteration # 16     ecut=    60.00 Ry     beta= 0.15
     Davidson diagonalization with overlap

---- Real-time Memory Report at c_bands before calling an iterative solver
             0 MiB given to the printing process from OS
             0 MiB allocation reported by mallinfo(arena+hblkhd)
         22770 MiB available memory on the node where the printing process lives
------------------
     c_bands:  1 eigenvalues not converged
     ethr =  8.08E-05,  avg # of iterations =  9.1

     negative rho (up, down):  8.294E-01 0.000E+00

     total cpu time spent up to now is      282.6 secs

     total energy              =   -4441.74014836 Ry
     estimated scf accuracy    <       0.35531509 Ry

     iteration # 17     ecut=    60.00 Ry     beta= 0.15
     Davidson diagonalization with overlap

---- Real-time Memory Report at c_bands before calling an iterative solver
             0 MiB given to the printing process from OS
             0 MiB allocation reported by mallinfo(arena+hblkhd)
         22762 MiB available memory on the node where the printing process lives
------------------
     ethr =  8.08E-05,  avg # of iterations =  2.7

     negative rho (up, down):  8.200E-01 0.000E+00

     total cpu time spent up to now is      299.5 secs

     total energy              =   -4441.70572135 Ry
     estimated scf accuracy    <       0.26557912 Ry

     iteration # 18     ecut=    60.00 Ry     beta= 0.15
     Davidson diagonalization with overlap

---- Real-time Memory Report at c_bands before calling an iterative solver
             0 MiB given to the printing process from OS
             0 MiB allocation reported by mallinfo(arena+hblkhd)
         22760 MiB available memory on the node where the printing process lives
------------------
     ethr =  6.16E-05,  avg # of iterations = 11.5

     negative rho (up, down):  8.239E-01 0.000E+00

     total cpu time spent up to now is      322.0 secs

     total energy              =   -4441.68589965 Ry
     estimated scf accuracy    <       0.16051662 Ry

     iteration # 19     ecut=    60.00 Ry     beta= 0.15
     Davidson diagonalization with overlap

---- Real-time Memory Report at c_bands before calling an iterative solver
             0 MiB given to the printing process from OS
             0 MiB allocation reported by mallinfo(arena+hblkhd)
         22735 MiB available memory on the node where the printing process lives
------------------
     ethr =  3.72E-05,  avg # of iterations =  8.9

     negative rho (up, down):  8.312E-01 0.000E+00

     total cpu time spent up to now is      343.4 secs

     total energy              =   -4441.67780411 Ry
     estimated scf accuracy    <       0.09755953 Ry

     iteration # 20     ecut=    60.00 Ry     beta= 0.15
     Davidson diagonalization with overlap

---- Real-time Memory Report at c_bands before calling an iterative solver
             0 MiB given to the printing process from OS
             0 MiB allocation reported by mallinfo(arena+hblkhd)
         22698 MiB available memory on the node where the printing process lives
------------------
     ethr =  2.26E-05,  avg # of iterations =  2.1

     negative rho (up, down):  8.169E-01 0.000E+00

     total cpu time spent up to now is      360.0 secs

     total energy              =   -4441.67936813 Ry
     estimated scf accuracy    <       0.04015589 Ry

     iteration # 21     ecut=    60.00 Ry     beta= 0.15
     Davidson diagonalization with overlap

---- Real-time Memory Report at c_bands before calling an iterative solver
             0 MiB given to the printing process from OS
             0 MiB allocation reported by mallinfo(arena+hblkhd)
         22719 MiB available memory on the node where the printing process lives
------------------
     ethr =  9.32E-06,  avg # of iterations =  8.2

     negative rho (up, down):  8.080E-01 0.000E+00

     total cpu time spent up to now is      379.6 secs

     total energy              =   -4441.67771674 Ry
     estimated scf accuracy    <       0.03029378 Ry

     iteration # 22     ecut=    60.00 Ry     beta= 0.15
     Davidson diagonalization with overlap

---- Real-time Memory Report at c_bands before calling an iterative solver
             0 MiB given to the printing process from OS
             0 MiB allocation reported by mallinfo(arena+hblkhd)
         22700 MiB available memory on the node where the printing process lives
------------------
     ethr =  7.03E-06,  avg # of iterations =  8.2

     negative rho (up, down):  8.082E-01 0.000E+00

     total cpu time spent up to now is      399.2 secs

     total energy              =   -4441.67600315 Ry
     estimated scf accuracy    <       0.02235903 Ry

     iteration # 23     ecut=    60.00 Ry     beta= 0.15
     Davidson diagonalization with overlap

---- Real-time Memory Report at c_bands before calling an iterative solver
             0 MiB given to the printing process from OS
             0 MiB allocation reported by mallinfo(arena+hblkhd)
         22712 MiB available memory on the node where the printing process lives
------------------
     c_bands:  1 eigenvalues not converged
     ethr =  5.19E-06,  avg # of iterations =  8.8

     negative rho (up, down):  8.035E-01 0.000E+00

     total cpu time spent up to now is      419.6 secs

     total energy              =   -4441.67375192 Ry
     estimated scf accuracy    <       0.01640623 Ry

     iteration # 24     ecut=    60.00 Ry     beta= 0.15
     Davidson diagonalization with overlap

---- Real-time Memory Report at c_bands before calling an iterative solver
             0 MiB given to the printing process from OS
             0 MiB allocation reported by mallinfo(arena+hblkhd)
         22691 MiB available memory on the node where the printing process lives
------------------
     ethr =  3.81E-06,  avg # of iterations = 12.4

     negative rho (up, down):  8.016E-01 0.000E+00

     total cpu time spent up to now is      442.4 secs

     total energy              =   -4441.67264112 Ry
     estimated scf accuracy    <       0.01024798 Ry

     iteration # 25     ecut=    60.00 Ry     beta= 0.15
     Davidson diagonalization with overlap

---- Real-time Memory Report at c_bands before calling an iterative solver
             0 MiB given to the printing process from OS
             0 MiB allocation reported by mallinfo(arena+hblkhd)
         22687 MiB available memory on the node where the printing process lives
------------------
     ethr =  2.38E-06,  avg # of iterations =  6.8

     negative rho (up, down):  7.973E-01 0.000E+00

     total cpu time spent up to now is      462.8 secs

     total energy              =   -4441.67165732 Ry
     estimated scf accuracy    <       0.00476042 Ry

     iteration # 26     ecut=    60.00 Ry     beta= 0.15
     Davidson diagonalization with overlap

---- Real-time Memory Report at c_bands before calling an iterative solver
             0 MiB given to the printing process from OS
             0 MiB allocation reported by mallinfo(arena+hblkhd)
         22665 MiB available memory on the node where the printing process lives
------------------
     c_bands:  1 eigenvalues not converged
     c_bands:  1 eigenvalues not converged
     ethr =  1.10E-06,  avg # of iterations = 13.6

     negative rho (up, down):  7.990E-01 0.000E+00

     total cpu time spent up to now is      486.8 secs

     total energy              =   -4441.67178978 Ry
     estimated scf accuracy    <       0.00183113 Ry

     iteration # 27     ecut=    60.00 Ry     beta= 0.15
     Davidson diagonalization with overlap

---- Real-time Memory Report at c_bands before calling an iterative solver
             0 MiB given to the printing process from OS
             0 MiB allocation reported by mallinfo(arena+hblkhd)
         22653 MiB available memory on the node where the printing process lives
------------------
     ethr =  4.25E-07,  avg # of iterations = 10.8

     negative rho (up, down):  7.961E-01 0.000E+00

     total cpu time spent up to now is      508.8 secs

     total energy              =   -4441.67167699 Ry
     estimated scf accuracy    <       0.00079904 Ry

     iteration # 28     ecut=    60.00 Ry     beta= 0.15
     Davidson diagonalization with overlap

---- Real-time Memory Report at c_bands before calling an iterative solver
             0 MiB given to the printing process from OS
             0 MiB allocation reported by mallinfo(arena+hblkhd)
         22605 MiB available memory on the node where the printing process lives
------------------
     ethr =  1.85E-07,  avg # of iterations =  5.9

     negative rho (up, down):  7.954E-01 0.000E+00

     total cpu time spent up to now is      529.0 secs

     total energy              =   -4441.67172304 Ry
     estimated scf accuracy    <       0.00031797 Ry

     iteration # 29     ecut=    60.00 Ry     beta= 0.15
     Davidson diagonalization with overlap

---- Real-time Memory Report at c_bands before calling an iterative solver
             0 MiB given to the printing process from OS
             0 MiB allocation reported by mallinfo(arena+hblkhd)
         22622 MiB available memory on the node where the printing process lives
------------------
     ethr =  7.38E-08,  avg # of iterations =  3.0

     negative rho (up, down):  7.944E-01 0.000E+00

     total cpu time spent up to now is      546.2 secs

     total energy              =   -4441.67172800 Ry
     estimated scf accuracy    <       0.00019993 Ry

     iteration # 30     ecut=    60.00 Ry     beta= 0.15
     Davidson diagonalization with overlap

---- Real-time Memory Report at c_bands before calling an iterative solver
             0 MiB given to the printing process from OS
             0 MiB allocation reported by mallinfo(arena+hblkhd)
         22639 MiB available memory on the node where the printing process lives
------------------
     ethr =  4.64E-08,  avg # of iterations =  2.3

     negative rho (up, down):  7.932E-01 0.000E+00

     total cpu time spent up to now is      563.3 secs

     total energy              =   -4441.67173608 Ry
     estimated scf accuracy    <       0.00008742 Ry

     iteration # 31     ecut=    60.00 Ry     beta= 0.15
     Davidson diagonalization with overlap

---- Real-time Memory Report at c_bands before calling an iterative solver
             0 MiB given to the printing process from OS
             0 MiB allocation reported by mallinfo(arena+hblkhd)
         22681 MiB available memory on the node where the printing process lives
------------------
     ethr =  2.03E-08,  avg # of iterations =  6.4

     negative rho (up, down):  7.926E-01 0.000E+00

     total cpu time spent up to now is      583.1 secs

     total energy              =   -4441.67173498 Ry
     estimated scf accuracy    <       0.00003223 Ry

     iteration # 32     ecut=    60.00 Ry     beta= 0.15
     Davidson diagonalization with overlap

---- Real-time Memory Report at c_bands before calling an iterative solver
             0 MiB given to the printing process from OS
             0 MiB allocation reported by mallinfo(arena+hblkhd)
         22658 MiB available memory on the node where the printing process lives
------------------
     ethr =  7.48E-09,  avg # of iterations =  3.4

     negative rho (up, down):  7.923E-01 0.000E+00

     total cpu time spent up to now is      600.9 secs

     total energy              =   -4441.67173552 Ry
     estimated scf accuracy    <       0.00001538 Ry

     iteration # 33     ecut=    60.00 Ry     beta= 0.15
     Davidson diagonalization with overlap

---- Real-time Memory Report at c_bands before calling an iterative solver
             0 MiB given to the printing process from OS
             0 MiB allocation reported by mallinfo(arena+hblkhd)
         22669 MiB available memory on the node where the printing process lives
------------------
     ethr =  3.57E-09,  avg # of iterations =  2.8

     negative rho (up, down):  7.924E-01 0.000E+00

     total cpu time spent up to now is      617.9 secs

     total energy              =   -4441.67173887 Ry
     estimated scf accuracy    <       0.00000678 Ry

     iteration # 34     ecut=    60.00 Ry     beta= 0.15
     Davidson diagonalization with overlap

---- Real-time Memory Report at c_bands before calling an iterative solver
             0 MiB given to the printing process from OS
             0 MiB allocation reported by mallinfo(arena+hblkhd)
         22728 MiB available memory on the node where the printing process lives
------------------
     ethr =  1.57E-09,  avg # of iterations =  2.2

     negative rho (up, down):  7.924E-01 0.000E+00

     total cpu time spent up to now is      634.7 secs

     total energy              =   -4441.67174108 Ry
     estimated scf accuracy    <       0.00000344 Ry

     iteration # 35     ecut=    60.00 Ry     beta= 0.15
     Davidson diagonalization with overlap

---- Real-time Memory Report at c_bands before calling an iterative solver
             0 MiB given to the printing process from OS
             0 MiB allocation reported by mallinfo(arena+hblkhd)
         22748 MiB available memory on the node where the printing process lives
------------------
     ethr =  7.99E-10,  avg # of iterations =  2.9

     negative rho (up, down):  7.925E-01 0.000E+00

     total cpu time spent up to now is      652.0 secs

     total energy              =   -4441.67174195 Ry
     estimated scf accuracy    <       0.00000238 Ry

     iteration # 36     ecut=    60.00 Ry     beta= 0.15
     Davidson diagonalization with overlap

---- Real-time Memory Report at c_bands before calling an iterative solver
             0 MiB given to the printing process from OS
             0 MiB allocation reported by mallinfo(arena+hblkhd)
         22734 MiB available memory on the node where the printing process lives
------------------
     ethr =  5.53E-10,  avg # of iterations =  2.8

     negative rho (up, down):  7.925E-01 0.000E+00

     total cpu time spent up to now is      669.2 secs

     total energy              =   -4441.67174259 Ry
     estimated scf accuracy    <       0.00000180 Ry

     iteration # 37     ecut=    60.00 Ry     beta= 0.15
     Davidson diagonalization with overlap

---- Real-time Memory Report at c_bands before calling an iterative solver
             0 MiB given to the printing process from OS
             0 MiB allocation reported by mallinfo(arena+hblkhd)
         22740 MiB available memory on the node where the printing process lives
------------------
     ethr =  4.18E-10,  avg # of iterations =  2.2

     negative rho (up, down):  7.925E-01 0.000E+00

     total cpu time spent up to now is      686.1 secs

     total energy              =   -4441.67174297 Ry
     estimated scf accuracy    <       0.00000143 Ry

     iteration # 38     ecut=    60.00 Ry     beta= 0.15
     Davidson diagonalization with overlap

---- Real-time Memory Report at c_bands before calling an iterative solver
             0 MiB given to the printing process from OS
             0 MiB allocation reported by mallinfo(arena+hblkhd)
         22740 MiB available memory on the node where the printing process lives
------------------
     ethr =  3.33E-10,  avg # of iterations =  3.2

     negative rho (up, down):  7.926E-01 0.000E+00

     total cpu time spent up to now is      703.8 secs

     total energy              =   -4441.67174292 Ry
     estimated scf accuracy    <       0.00000095 Ry

     iteration # 39     ecut=    60.00 Ry     beta= 0.15
     Davidson diagonalization with overlap

---- Real-time Memory Report at c_bands before calling an iterative solver
             0 MiB given to the printing process from OS
             0 MiB allocation reported by mallinfo(arena+hblkhd)
         22744 MiB available memory on the node where the printing process lives
------------------
     ethr =  2.21E-10,  avg # of iterations =  2.8

     negative rho (up, down):  7.926E-01 0.000E+00

     total cpu time spent up to now is      720.9 secs

     total energy              =   -4441.67174285 Ry
     estimated scf accuracy    <       0.00000053 Ry

     iteration # 40     ecut=    60.00 Ry     beta= 0.15
     Davidson diagonalization with overlap

---- Real-time Memory Report at c_bands before calling an iterative solver
             0 MiB given to the printing process from OS
             0 MiB allocation reported by mallinfo(arena+hblkhd)
         22743 MiB available memory on the node where the printing process lives
------------------
     ethr =  1.24E-10,  avg # of iterations =  2.1

     negative rho (up, down):  7.925E-01 0.000E+00

     total cpu time spent up to now is      737.8 secs

     total energy              =   -4441.67174285 Ry
     estimated scf accuracy    <       0.00000031 Ry

     iteration # 41     ecut=    60.00 Ry     beta= 0.15
     Davidson diagonalization with overlap

---- Real-time Memory Report at c_bands before calling an iterative solver
             0 MiB given to the printing process from OS
             0 MiB allocation reported by mallinfo(arena+hblkhd)
         22745 MiB available memory on the node where the printing process lives
------------------
     ethr =  7.15E-11,  avg # of iterations =  2.2

     negative rho (up, down):  7.925E-01 0.000E+00

     total cpu time spent up to now is      754.7 secs

     total energy              =   -4441.67174289 Ry
     estimated scf accuracy    <       0.00000018 Ry

     iteration # 42     ecut=    60.00 Ry     beta= 0.15
     Davidson diagonalization with overlap

---- Real-time Memory Report at c_bands before calling an iterative solver
             0 MiB given to the printing process from OS
             0 MiB allocation reported by mallinfo(arena+hblkhd)
         22748 MiB available memory on the node where the printing process lives
------------------
     ethr =  4.08E-11,  avg # of iterations =  3.2

     negative rho (up, down):  7.925E-01 0.000E+00

     total cpu time spent up to now is      772.1 secs

     total energy              =   -4441.67174292 Ry
     estimated scf accuracy    <       0.00000010 Ry

     iteration # 43     ecut=    60.00 Ry     beta= 0.15
     Davidson diagonalization with overlap

---- Real-time Memory Report at c_bands before calling an iterative solver
             0 MiB given to the printing process from OS
             0 MiB allocation reported by mallinfo(arena+hblkhd)
         22744 MiB available memory on the node where the printing process lives
------------------
     ethr =  2.33E-11,  avg # of iterations =  2.1

     negative rho (up, down):  7.925E-01 0.000E+00

     total cpu time spent up to now is      788.8 secs

     total energy              =   -4441.67174293 Ry
     estimated scf accuracy    <       0.00000009 Ry

     iteration # 44     ecut=    60.00 Ry     beta= 0.15
     Davidson diagonalization with overlap

---- Real-time Memory Report at c_bands before calling an iterative solver
             0 MiB given to the printing process from OS
             0 MiB allocation reported by mallinfo(arena+hblkhd)
         22744 MiB available memory on the node where the printing process lives
------------------
     ethr =  2.12E-11,  avg # of iterations =  2.8

     negative rho (up, down):  7.925E-01 0.000E+00

     total cpu time spent up to now is      805.7 secs

     total energy              =   -4441.67174294 Ry
     estimated scf accuracy    <       0.00000007 Ry

     iteration # 45     ecut=    60.00 Ry     beta= 0.15
     Davidson diagonalization with overlap

---- Real-time Memory Report at c_bands before calling an iterative solver
             0 MiB given to the printing process from OS
             0 MiB allocation reported by mallinfo(arena+hblkhd)
         22747 MiB available memory on the node where the printing process lives
------------------
     ethr =  1.58E-11,  avg # of iterations =  2.9

     negative rho (up, down):  7.925E-01 0.000E+00

     total cpu time spent up to now is      822.9 secs

     total energy              =   -4441.67174293 Ry
     estimated scf accuracy    <       0.00000005 Ry

     iteration # 46     ecut=    60.00 Ry     beta= 0.15
     Davidson diagonalization with overlap

---- Real-time Memory Report at c_bands before calling an iterative solver
             0 MiB given to the printing process from OS
             0 MiB allocation reported by mallinfo(arena+hblkhd)
         22750 MiB available memory on the node where the printing process lives
------------------
     ethr =  1.05E-11,  avg # of iterations =  2.3

     negative rho (up, down):  7.925E-01 0.000E+00

     total cpu time spent up to now is      839.5 secs

     total energy              =   -4441.67174292 Ry
     estimated scf accuracy    <       0.00000004 Ry

     iteration # 47     ecut=    60.00 Ry     beta= 0.15
     Davidson diagonalization with overlap

---- Real-time Memory Report at c_bands before calling an iterative solver
             0 MiB given to the printing process from OS
             0 MiB allocation reported by mallinfo(arena+hblkhd)
         22748 MiB available memory on the node where the printing process lives
------------------
     ethr =  8.71E-12,  avg # of iterations =  3.2

     negative rho (up, down):  7.925E-01 0.000E+00

     total cpu time spent up to now is      856.8 secs

     total energy              =   -4441.67174292 Ry
     estimated scf accuracy    <       0.00000002 Ry

     iteration # 48     ecut=    60.00 Ry     beta= 0.15
     Davidson diagonalization with overlap

---- Real-time Memory Report at c_bands before calling an iterative solver
             0 MiB given to the printing process from OS
             0 MiB allocation reported by mallinfo(arena+hblkhd)
         22745 MiB available memory on the node where the printing process lives
------------------
     ethr =  4.03E-12,  avg # of iterations =  2.1

     negative rho (up, down):  7.925E-01 0.000E+00

     total cpu time spent up to now is      873.4 secs

     total energy              =   -4441.67174292 Ry
     estimated scf accuracy    <       0.00000001 Ry

     iteration # 49     ecut=    60.00 Ry     beta= 0.15
     Davidson diagonalization with overlap

---- Real-time Memory Report at c_bands before calling an iterative solver
             0 MiB given to the printing process from OS
             0 MiB allocation reported by mallinfo(arena+hblkhd)
         22748 MiB available memory on the node where the printing process lives
------------------
     ethr =  2.75E-12,  avg # of iterations =  2.1

     negative rho (up, down):  7.925E-01 0.000E+00

     total cpu time spent up to now is      889.7 secs

     End of self-consistent calculation

          k = 0.0000 0.0000 0.0000 ( 65197 PWs)   bands (ev):

   -92.7007 -92.6500 -92.5549 -92.5096 -92.4518 -92.4075 -92.3897 -92.2701
   -56.0542 -56.0367 -55.9122 -55.9014 -55.8957 -55.8882 -55.8533 -55.8240
   -55.8083 -55.8071 -55.8006 -55.7588 -55.7408 -55.7023 -55.6815 -55.6517
   -55.6449 -55.5964 -55.5954 -55.5926 -55.5841 -55.5448 -55.5201 -55.4357
   -31.2784 -31.2588 -31.1385 -31.1170 -31.0300 -30.9913 -30.8842 -30.3733
   -29.8487 -29.8033 -29.7779 -29.6691 -15.0806 -15.0285 -14.9545 -14.8244
   -14.6271 -14.5033 -14.2189 -14.1956 -14.1692 -14.1234 -14.0734 -14.0586
   -14.0555 -14.0345 -14.0180 -13.9928 -13.9852 -13.9301 -13.7772 -13.5945
   -13.5651 -13.5352 -13.5002 -13.4853 -13.4295 -13.3947 -13.3228 -13.2506
   -13.1359 -13.1217 -13.1100 -13.0935 -13.0750 -13.0568 -13.0076 -13.0035
   -12.9807 -12.9569 -12.9287 -12.9234 -12.9113 -12.8975 -12.8678 -12.8108
   -12.7876 -12.7703 -12.4753 -12.4687 -12.3426 -12.2924 -12.1967 -11.9277
   -11.8600 -11.8592 -11.7872 -11.7758 -11.7503 -11.7326 -11.6707 -11.6534
   -11.6191 -11.5911 -11.4759 -11.3984 -11.3947  -2.9397  -2.7080  -2.4786
    -2.3305  -2.2682  -2.1268  -1.8190  -1.8047  -1.7862  -1.7004  -1.6813
    -1.6132  -1.5966  -1.5559  -1.5127  -1.3391  -1.2706  -1.1040  -1.0738
    -0.9305  -0.9155  -0.8670  -0.8479  -0.8035  -0.7862  -0.7330  -0.7062
    -0.6292  -0.6173  -0.5462  -0.4140  -0.4021  -0.3713  -0.2913  -0.2669
    -0.2464  -0.1989  -0.1259  -0.0693  -0.0277   0.0006   0.0734   0.1326
     0.1824   0.2062   0.2179   0.4787   0.4896   0.6642   0.7298   0.7977
     0.8477   0.9283   0.9416   0.9585   1.0244   1.0532   1.0861   1.1444
     1.2748   1.3349   1.3554   1.3785   1.3902   1.4517   1.5219   1.6344
     1.6457   1.7104   1.7206   1.7636   1.7796   1.7910   1.8474   1.9078
     1.9174   1.9576   1.9953   2.0302   2.1621   2.2504   2.2890   2.3049
     2.4450   2.4469   2.4651   2.4779   2.5131   2.5213   2.6273   2.6600
     2.6852   2.7048   2.7206   2.8024   2.9086   2.9412   2.9523   2.9581
     3.0263   3.0305   3.0536   3.0619   3.0708   3.0816   3.0903   3.1038
     3.1102   3.1219   3.1304   3.1389   3.1581   3.1786   3.1836   3.1961
     3.2241   3.3365   3.4133   4.1069   4.4337   4.7693   4.8636   5.0486
     5.7675   5.9437   5.9855   6.0066   6.3145   6.3613   6.4759   6.4851
     6.7194   7.0041   7.0949   7.3111   7.3778   7.6478   7.6650   7.6999
     7.7368   7.8483   7.9282   8.0201   8.1093   8.1725   8.5400   8.6129
     8.6355   8.7428   8.8728

     occupation numbers 
     1.0000   1.0000   1.0000   1.0000   1.0000   1.0000   1.0000   1.0000
     1.0000   1.0000   1.0000   1.0000   1.0000   1.0000   1.0000   1.0000
     1.0000   1.0000   1.0000   1.0000   1.0000   1.0000   1.0000   1.0000
     1.0000   1.0000   1.0000   1.0000   1.0000   1.0000   1.0000   1.0000
     1.0000   1.0000   1.0000   1.0000   1.0000   1.0000   1.0000   1.0000
     1.0000   1.0000   1.0000   1.0000   1.0000   1.0000   1.0000   1.0000
     1.0000   1.0000   1.0000   1.0000   1.0000   1.0000   1.0000   1.0000
     1.0000   1.0000   1.0000   1.0000   1.0000   1.0000   1.0000   1.0000
     1.0000   1.0000   1.0000   1.0000   1.0000   1.0000   1.0000   1.0000
     1.0000   1.0000   1.0000   1.0000   1.0000   1.0000   1.0000   1.0000
     1.0000   1.0000   1.0000   1.0000   1.0000   1.0000   1.0000   1.0000
     1.0000   1.0000   1.0000   1.0000   1.0000   1.0000   1.0000   1.0000
     1.0000   1.0000   1.0000   1.0000   1.0000   1.0000   1.0000   1.0000
     1.0000   1.0000   1.0000   1.0000   1.0000   1.0000   1.0000   1.0000
     1.0000   1.0000   1.0000   1.0000   1.0000   1.0000   1.0000   1.0000
     1.0000   1.0000   1.0000   1.0000   1.0000   1.0000   1.0000   1.0000
     1.0000   1.0000   1.0000   1.0000   1.0000   1.0000   1.0000   1.0000
     1.0000   1.0000   1.0000   1.0000   1.0000   1.0000   1.0000   1.0000
     1.0000   1.0000   1.0000   1.0000   1.0000   1.0000   1.0000   1.0000
     1.0000   1.0000   1.0000   1.0000   1.0000   1.0000   0.9999   0.9999
     0.9999   0.9998   0.9998   0.9998   0.9997   0.9996   0.9996   0.9994
     0.9988   0.9985   0.9983   0.9981   0.9980   0.9973   0.9963   0.9940
     0.9937   0.9918   0.9915   0.9899   0.9892   0.9887   0.9860   0.9825
     0.9818   0.9790   0.9760   0.9729   0.9582   0.9450   0.9384   0.9354
     0.9048   0.9044   0.8997   0.8963   0.8866   0.8842   0.8506   0.8390
     0.8297   0.8222   0.8160   0.7820   0.7328   0.7166   0.7110   0.7080
     0.6724   0.6701   0.6576   0.6531   0.6482   0.6422   0.6373   0.6298
     0.6262   0.6196   0.6148   0.6100   0.5990   0.5871   0.5843   0.5770
     0.5607   0.4943   0.4490   0.1234   0.0501   0.0161   0.0113   0.0053
     0.0001   0.0001   0.0000   0.0000   0.0000   0.0000   0.0000   0.0000
     0.0000   0.0000   0.0000   0.0000   0.0000   0.0000   0.0000   0.0000
     0.0000   0.0000   0.0000   0.0000   0.0000   0.0000   0.0000   0.0000
     0.0000   0.0000   0.0000

          k = 0.0000 0.2500 0.0000 ( 65257 PWs)   bands (ev):

   -92.7007 -92.6500 -92.5549 -92.5096 -92.4518 -92.4075 -92.3897 -92.2701
   -56.0542 -56.0367 -55.9122 -55.9014 -55.8957 -55.8882 -55.8533 -55.8240
   -55.8083 -55.8071 -55.8006 -55.7588 -55.7408 -55.7023 -55.6815 -55.6517
   -55.6449 -55.5964 -55.5954 -55.5926 -55.5841 -55.5448 -55.5201 -55.4357
   -31.2782 -31.2587 -31.1383 -31.1172 -31.0301 -30.9915 -30.8841 -30.3733
   -29.8481 -29.8030 -29.7785 -29.6695 -15.0444 -15.0019 -14.9290 -14.7950
   -14.6688 -14.4948 -14.3622 -14.1843 -14.1463 -14.1280 -14.0998 -14.0402
   -14.0336 -14.0157 -13.9995 -13.9929 -13.9503 -13.8480 -13.8082 -13.6474
   -13.6197 -13.5773 -13.5397 -13.4886 -13.4506 -13.3977 -13.3428 -13.3082
   -13.2391 -13.1774 -13.1481 -13.1144 -13.1059 -13.0779 -12.9923 -12.9687
   -12.9393 -12.9282 -12.9028 -12.8778 -12.8677 -12.8434 -12.8112 -12.7960
   -12.7205 -12.6697 -12.4364 -12.4044 -12.3977 -12.2924 -12.2478 -11.9730
   -11.9129 -11.8241 -11.7839 -11.7548 -11.7260 -11.7093 -11.6625 -11.6515
   -11.6290 -11.5958 -11.4903 -11.4397 -11.4294  -2.8043  -2.5836  -2.4456
    -2.2636  -2.2202  -2.0568  -1.8370  -1.7533  -1.7401  -1.6809  -1.5793
    -1.5641  -1.5308  -1.5028  -1.4593  -1.2969  -1.2442  -1.1315  -1.1188
    -1.0432  -1.0335  -0.9296  -0.9011  -0.8406  -0.8159  -0.7769  -0.7122
    -0.6854  -0.6532  -0.6193  -0.6021  -0.5709  -0.4978  -0.4469  -0.3759
    -0.2652  -0.2440  -0.2031  -0.0860  -0.0404   0.0120   0.0606   0.1226
     0.1360   0.1617   0.2254   0.5258   0.6121   0.6446   0.7318   0.7790
     0.8051   0.9121   0.9326   1.0272   1.0535   1.0794   1.1924   1.2895
     1.3093   1.3355   1.3526   1.3763   1.4375   1.4638   1.4929   1.5385
     1.5762   1.6066   1.6956   1.7310   1.7655   1.8133   1.8714   1.9171
     1.9418   1.9634   1.9805   2.0808   2.2011   2.2735   2.2886   2.3608
     2.4046   2.4390   2.4489   2.4614   2.4737   2.5201   2.5553   2.6420
     2.6818   2.6982   2.8656   2.8874   2.9222   2.9435   2.9591   2.9676
     2.9751   2.9845   3.0141   3.0162   3.0344   3.0392   3.0484   3.0666
     3.0791   3.0865   3.1085   3.1197   3.1244   3.1602   3.1764   3.2360
     3.6125   3.6368   3.8799   4.2983   4.4284   4.7143   5.0169   5.0688
     5.6442   5.8086   5.9271   5.9826   6.0838   6.1050   6.1835   6.5928
     6.8218   7.0662   7.1123   7.3281   7.4813   7.4990   7.6417   7.6475
     7.8776   7.9134   7.9860   8.1794   8.3033   8.4041   8.4073   8.5405
     8.5846   8.8368   8.9287

     occupation numbers 
     1.0000   1.0000   1.0000   1.0000   1.0000   1.0000   1.0000   1.0000
     1.0000   1.0000   1.0000   1.0000   1.0000   1.0000   1.0000   1.0000
     1.0000   1.0000   1.0000   1.0000   1.0000   1.0000   1.0000   1.0000
     1.0000   1.0000   1.0000   1.0000   1.0000   1.0000   1.0000   1.0000
     1.0000   1.0000   1.0000   1.0000   1.0000   1.0000   1.0000   1.0000
     1.0000   1.0000   1.0000   1.0000   1.0000   1.0000   1.0000   1.0000
     1.0000   1.0000   1.0000   1.0000   1.0000   1.0000   1.0000   1.0000
     1.0000   1.0000   1.0000   1.0000   1.0000   1.0000   1.0000   1.0000
     1.0000   1.0000   1.0000   1.0000   1.0000   1.0000   1.0000   1.0000
     1.0000   1.0000   1.0000   1.0000   1.0000   1.0000   1.0000   1.0000
     1.0000   1.0000   1.0000   1.0000   1.0000   1.0000   1.0000   1.0000
     1.0000   1.0000   1.0000   1.0000   1.0000   1.0000   1.0000   1.0000
     1.0000   1.0000   1.0000   1.0000   1.0000   1.0000   1.0000   1.0000
     1.0000   1.0000   1.0000   1.0000   1.0000   1.0000   1.0000   1.0000
     1.0000   1.0000   1.0000   1.0000   1.0000   1.0000   1.0000   1.0000
     1.0000   1.0000   1.0000   1.0000   1.0000   1.0000   1.0000   1.0000
     1.0000   1.0000   1.0000   1.0000   1.0000   1.0000   1.0000   1.0000
     1.0000   1.0000   1.0000   1.0000   1.0000   1.0000   1.0000   1.0000
     1.0000   1.0000   1.0000   1.0000   1.0000   1.0000   1.0000   1.0000
     1.0000   1.0000   1.0000   1.0000   1.0000   1.0000   0.9999   0.9999
     0.9999   0.9998   0.9998   0.9997   0.9996   0.9996   0.9992   0.9988
     0.9986   0.9984   0.9983   0.9981   0.9975   0.9972   0.9968   0.9960
     0.9953   0.9947   0.9923   0.9911   0.9898   0.9877   0.9847   0.9818
     0.9801   0.9786   0.9772   0.9679   0.9527   0.9411   0.9384   0.9243
     0.9146   0.9063   0.9038   0.9007   0.8974   0.8845   0.8740   0.8454
     0.8310   0.8247   0.7533   0.7430   0.7261   0.7155   0.7075   0.7032
     0.6993   0.6944   0.6789   0.6778   0.6680   0.6654   0.6604   0.6505
     0.6436   0.6395   0.6272   0.6209   0.6182   0.5978   0.5885   0.5537
     0.3358   0.3227   0.2058   0.0746   0.0510   0.0197   0.0060   0.0048
     0.0003   0.0001   0.0001   0.0000   0.0000   0.0000   0.0000   0.0000
     0.0000   0.0000   0.0000   0.0000   0.0000   0.0000   0.0000   0.0000
     0.0000   0.0000   0.0000   0.0000   0.0000   0.0000   0.0000   0.0000
     0.0000   0.0000   0.0000

          k = 0.0000-0.5000 0.0000 ( 65180 PWs)   bands (ev):

   -92.7007 -92.6500 -92.5549 -92.5096 -92.4518 -92.4075 -92.3897 -92.2701
   -56.0542 -56.0367 -55.9122 -55.9014 -55.8957 -55.8882 -55.8533 -55.8240
   -55.8083 -55.8071 -55.8006 -55.7588 -55.7408 -55.7023 -55.6815 -55.6517
   -55.6449 -55.5964 -55.5954 -55.5926 -55.5841 -55.5448 -55.5201 -55.4357
   -31.2780 -31.2585 -31.1381 -31.1175 -31.0303 -30.9917 -30.8840 -30.3734
   -29.8475 -29.8027 -29.7791 -29.6698 -15.0059 -14.9585 -14.8996 -14.7762
   -14.6914 -14.5593 -14.3927 -14.2824 -14.1571 -14.0831 -14.0404 -14.0354
   -13.9962 -13.9849 -13.9697 -13.9172 -13.8954 -13.8707 -13.8435 -13.8016
   -13.7529 -13.5829 -13.5238 -13.4915 -13.4563 -13.3907 -13.3585 -13.3075
   -13.2837 -13.2661 -13.2182 -13.1167 -13.1062 -13.0654 -12.9968 -12.9645
   -12.9479 -12.9287 -12.8830 -12.8736 -12.8339 -12.8136 -12.7058 -12.6718
   -12.6522 -12.6234 -12.5149 -12.3678 -12.3233 -12.2921 -12.2859 -12.0387
   -11.9885 -11.7809 -11.7763 -11.7490 -11.7123 -11.6782 -11.6669 -11.6254
   -11.6213 -11.5771 -11.5123 -11.4995 -11.4862  -2.5891  -2.5310  -2.3799
    -2.3091  -2.0259  -1.9436  -1.8143  -1.6798  -1.6386  -1.6215  -1.5440
    -1.5136  -1.4288  -1.3956  -1.3152  -1.3014  -1.2685  -1.2382  -1.2129
    -1.1396  -1.1156  -1.0690  -1.0346  -0.9985  -0.9675  -0.8566  -0.8135
    -0.7764  -0.7725  -0.6875  -0.6582  -0.6347  -0.5842  -0.4991  -0.4254
    -0.3350  -0.3054  -0.1992  -0.1678  -0.0290   0.0169   0.0416   0.0912
     0.2216   0.2856   0.3924   0.4638   0.4721   0.5983   0.6575   0.7569
     0.8827   0.9839   1.0161   1.0568   1.0697   1.1003   1.1172   1.1514
     1.1686   1.1823   1.2909   1.3527   1.3818   1.4042   1.6743   1.7062
     1.7285   1.8191   1.8437   1.8753   1.8935   1.9142   1.9435   1.9488
     1.9733   2.0045   2.0354   2.0675   2.0718   2.1018   2.1535   2.2428
     2.2797   2.4383   2.4494   2.4575   2.6034   2.6164   2.6334   2.6718
     2.6777   2.6851   2.7356   2.7478   2.8005   2.8221   2.8977   2.9138
     2.9838   2.9869   3.0110   3.0138   3.0309   3.0355   3.0391   3.0452
     3.0472   3.0601   3.0785   3.0799   3.1458   3.1488   3.1660   3.2207
     4.1306   4.1524   4.1968   4.2585   4.7371   4.9100   5.0240   5.1690
     5.4132   5.4633   5.5831   5.7307   6.0293   6.0492   6.2380   6.5166
     6.8496   6.9487   7.2199   7.2775   7.4061   7.4220   7.7396   7.7754
     7.9078   7.9367   8.2379   8.3759   8.3999   8.4891   8.5270   8.6779
     8.8082   8.8221   8.8637

     occupation numbers 
     1.0000   1.0000   1.0000   1.0000   1.0000   1.0000   1.0000   1.0000
     1.0000   1.0000   1.0000   1.0000   1.0000   1.0000   1.0000   1.0000
     1.0000   1.0000   1.0000   1.0000   1.0000   1.0000   1.0000   1.0000
     1.0000   1.0000   1.0000   1.0000   1.0000   1.0000   1.0000   1.0000
     1.0000   1.0000   1.0000   1.0000   1.0000   1.0000   1.0000   1.0000
     1.0000   1.0000   1.0000   1.0000   1.0000   1.0000   1.0000   1.0000
     1.0000   1.0000   1.0000   1.0000   1.0000   1.0000   1.0000   1.0000
     1.0000   1.0000   1.0000   1.0000   1.0000   1.0000   1.0000   1.0000
     1.0000   1.0000   1.0000   1.0000   1.0000   1.0000   1.0000   1.0000
     1.0000   1.0000   1.0000   1.0000   1.0000   1.0000   1.0000   1.0000
     1.0000   1.0000   1.0000   1.0000   1.0000   1.0000   1.0000   1.0000
     1.0000   1.0000   1.0000   1.0000   1.0000   1.0000   1.0000   1.0000
     1.0000   1.0000   1.0000   1.0000   1.0000   1.0000   1.0000   1.0000
     1.0000   1.0000   1.0000   1.0000   1.0000   1.0000   1.0000   1.0000
     1.0000   1.0000   1.0000   1.0000   1.0000   1.0000   1.0000   1.0000
     1.0000   1.0000   1.0000   1.0000   1.0000   1.0000   1.0000   1.0000
     1.0000   1.0000   1.0000   1.0000   1.0000   1.0000   1.0000   1.0000
     1.0000   1.0000   1.0000   1.0000   1.0000   1.0000   1.0000   1.0000
     1.0000   1.0000   1.0000   1.0000   1.0000   1.0000   1.0000   1.0000
     1.0000   1.0000   1.0000   1.0000   1.0000   1.0000   1.0000   0.9999
     0.9999   0.9997   0.9997   0.9996   0.9996   0.9995   0.9995   0.9994
     0.9993   0.9993   0.9988   0.9983   0.9981   0.9978   0.9929   0.9919
     0.9912   0.9874   0.9862   0.9844   0.9834   0.9820   0.9800   0.9796
     0.9778   0.9752   0.9724   0.9693   0.9688   0.9656   0.9593   0.9463
     0.9400   0.9065   0.9037   0.9016   0.8587   0.8543   0.8484   0.8347
     0.8325   0.8297   0.8100   0.8051   0.7828   0.7732   0.7381   0.7302
     0.6948   0.6932   0.6805   0.6790   0.6699   0.6674   0.6654   0.6622
     0.6610   0.6540   0.6439   0.6431   0.6060   0.6043   0.5945   0.5627
     0.1164   0.1101   0.0982   0.0833   0.0181   0.0094   0.0059   0.0031
     0.0010   0.0008   0.0004   0.0002   0.0000   0.0000   0.0000   0.0000
     0.0000   0.0000   0.0000   0.0000   0.0000   0.0000   0.0000   0.0000
     0.0000   0.0000   0.0000   0.0000   0.0000   0.0000   0.0000   0.0000
     0.0000   0.0000   0.0000

          k = 0.2500 0.2500 0.0000 ( 65198 PWs)   bands (ev):

   -92.7007 -92.6500 -92.5549 -92.5096 -92.4518 -92.4075 -92.3897 -92.2701
   -56.0542 -56.0367 -55.9122 -55.9014 -55.8957 -55.8882 -55.8533 -55.8240
   -55.8083 -55.8071 -55.8006 -55.7588 -55.7408 -55.7023 -55.6815 -55.6517
   -55.6449 -55.5964 -55.5954 -55.5926 -55.5841 -55.5448 -55.5201 -55.4357
   -31.2765 -31.2604 -31.1382 -31.1169 -31.0305 -30.9914 -30.8842 -30.3734
   -29.8471 -29.8040 -29.7781 -29.6699 -15.0151 -14.9671 -14.9007 -14.7848
   -14.6621 -14.5344 -14.4691 -14.2613 -14.1078 -14.0944 -14.0584 -14.0291
   -14.0058 -13.9937 -13.9685 -13.9449 -13.9133 -13.8390 -13.8224 -13.6631
   -13.6486 -13.6165 -13.6003 -13.5354 -13.5094 -13.4304 -13.4259 -13.2938
   -13.2525 -13.2283 -13.1440 -13.1047 -13.0776 -13.0447 -13.0186 -12.9827
   -12.9483 -12.9419 -12.9191 -12.8706 -12.8171 -12.7929 -12.7479 -12.7435
   -12.7140 -12.6316 -12.4528 -12.4503 -12.2952 -12.2861 -12.2765 -11.9860
   -11.9602 -11.7974 -11.7665 -11.7549 -11.7490 -11.6855 -11.6502 -11.6440
   -11.6092 -11.6021 -11.5071 -11.4678 -11.4508  -2.6659  -2.4578  -2.3396
    -2.2449  -2.1245  -2.0601  -1.8617  -1.7174  -1.6993  -1.6681  -1.5740
    -1.5410  -1.4468  -1.4201  -1.3683  -1.2864  -1.2369  -1.1785  -1.1156
    -1.0707  -1.0253  -1.0031  -0.9795  -0.9360  -0.9213  -0.8312  -0.7800
    -0.7135  -0.6640  -0.6335  -0.5865  -0.5712  -0.5067  -0.4589  -0.3971
    -0.3661  -0.2785  -0.2260  -0.1981  -0.1614  -0.1064  -0.0170   0.0071
     0.0328   0.1156   0.1442   0.4124   0.5637   0.5947   0.6571   0.6994
     0.7626   0.8126   0.8716   0.9096   1.1788   1.2438   1.3173   1.3408
     1.3921   1.4209   1.4579   1.4955   1.5118   1.5387   1.5883   1.5923
     1.6072   1.6527   1.6909   1.7312   1.8014   1.8336   1.8413   1.8788
     1.9127   1.9648   1.9954   2.1196   2.1825   2.2161   2.2359   2.3047
     2.3704   2.3959   2.4301   2.4409   2.4501   2.4695   2.4843   2.5842
     2.6220   2.7120   2.8771   2.8941   2.8998   2.9172   2.9321   2.9447
     2.9573   2.9641   2.9749   2.9881   3.0003   3.0189   3.0254   3.0370
     3.0593   3.0704   3.0802   3.1108   3.4114   3.5052   3.5487   3.6221
     3.6437   3.8588   3.9544   4.3098   4.5137   4.7189   4.9855   5.1641
     5.6473   5.7053   5.7724   5.8384   5.8961   6.0657   6.1562   6.2111
     6.8871   6.9206   7.0864   7.3072   7.5505   7.6028   7.7107   7.8570
     7.8896   8.0255   8.1873   8.2273   8.3244   8.4124   8.4445   8.4934
     8.5781   8.7580   8.8942

     occupation numbers 
     1.0000   1.0000   1.0000   1.0000   1.0000   1.0000   1.0000   1.0000
     1.0000   1.0000   1.0000   1.0000   1.0000   1.0000   1.0000   1.0000
     1.0000   1.0000   1.0000   1.0000   1.0000   1.0000   1.0000   1.0000
     1.0000   1.0000   1.0000   1.0000   1.0000   1.0000   1.0000   1.0000
     1.0000   1.0000   1.0000   1.0000   1.0000   1.0000   1.0000   1.0000
     1.0000   1.0000   1.0000   1.0000   1.0000   1.0000   1.0000   1.0000
     1.0000   1.0000   1.0000   1.0000   1.0000   1.0000   1.0000   1.0000
     1.0000   1.0000   1.0000   1.0000   1.0000   1.0000   1.0000   1.0000
     1.0000   1.0000   1.0000   1.0000   1.0000   1.0000   1.0000   1.0000
     1.0000   1.0000   1.0000   1.0000   1.0000   1.0000   1.0000   1.0000
     1.0000   1.0000   1.0000   1.0000   1.0000   1.0000   1.0000   1.0000
     1.0000   1.0000   1.0000   1.0000   1.0000   1.0000   1.0000   1.0000
     1.0000   1.0000   1.0000   1.0000   1.0000   1.0000   1.0000   1.0000
     1.0000   1.0000   1.0000   1.0000   1.0000   1.0000   1.0000   1.0000
     1.0000   1.0000   1.0000   1.0000   1.0000   1.0000   1.0000   1.0000
     1.0000   1.0000   1.0000   1.0000   1.0000   1.0000   1.0000   1.0000
     1.0000   1.0000   1.0000   1.0000   1.0000   1.0000   1.0000   1.0000
     1.0000   1.0000   1.0000   1.0000   1.0000   1.0000   1.0000   1.0000
     1.0000   1.0000   1.0000   1.0000   1.0000   1.0000   1.0000   1.0000
     1.0000   1.0000   1.0000   1.0000   1.0000   1.0000   1.0000   1.0000
     0.9999   0.9999   0.9999   0.9998   0.9993   0.9990   0.9986   0.9984
     0.9980   0.9977   0.9972   0.9967   0.9965   0.9960   0.9951   0.9950
     0.9947   0.9935   0.9924   0.9911   0.9883   0.9867   0.9863   0.9842
     0.9821   0.9784   0.9760   0.9635   0.9554   0.9505   0.9474   0.9355
     0.9223   0.9166   0.9085   0.9059   0.9035   0.8985   0.8946   0.8650
     0.8524   0.8194   0.7479   0.7398   0.7370   0.7285   0.7212   0.7149
     0.7084   0.7050   0.6994   0.6926   0.6862   0.6763   0.6729   0.6666
     0.6545   0.6484   0.6430   0.6259   0.4501   0.3956   0.3710   0.3306
     0.3190   0.2149   0.1758   0.0722   0.0390   0.0194   0.0069   0.0032
     0.0003   0.0002   0.0001   0.0001   0.0001   0.0000   0.0000   0.0000
     0.0000   0.0000   0.0000   0.0000   0.0000   0.0000   0.0000   0.0000
     0.0000   0.0000   0.0000   0.0000   0.0000   0.0000   0.0000   0.0000
     0.0000   0.0000   0.0000

          k = 0.2500-0.5000 0.0000 ( 65138 PWs)   bands (ev):

   -92.7007 -92.6500 -92.5549 -92.5096 -92.4518 -92.4075 -92.3897 -92.2701
   -56.0542 -56.0367 -55.9122 -55.9014 -55.8957 -55.8882 -55.8533 -55.8240
   -55.8083 -55.8071 -55.8006 -55.7588 -55.7408 -55.7023 -55.6815 -55.6517
   -55.6449 -55.5964 -55.5954 -55.5926 -55.5841 -55.5448 -55.5201 -55.4357
   -31.2763 -31.2602 -31.1380 -31.1171 -31.0307 -30.9916 -30.8842 -30.3735
   -29.8465 -29.8036 -29.7787 -29.6702 -14.9746 -14.9314 -14.8563 -14.7480
   -14.7138 -14.5991 -14.4996 -14.3773 -14.0727 -14.0179 -13.9970 -13.9917
   -13.9682 -13.9536 -13.9411 -13.9015 -13.8822 -13.8545 -13.8198 -13.7930
   -13.7444 -13.6650 -13.6176 -13.5520 -13.5377 -13.4687 -13.4380 -13.3496
   -13.3154 -13.2072 -13.1426 -13.1259 -13.0574 -13.0274 -12.9931 -12.9796
   -12.9497 -12.9373 -12.9110 -12.8645 -12.8235 -12.7977 -12.7063 -12.6728
   -12.6561 -12.6247 -12.5216 -12.3421 -12.3207 -12.2899 -12.2508 -12.0315
   -11.9915 -11.7740 -11.7612 -11.7503 -11.7233 -11.6925 -11.6631 -11.6231
   -11.5936 -11.5732 -11.5256 -11.5012 -11.4905  -2.4469  -2.3826  -2.2534
    -2.1777  -2.0464  -1.9634  -1.8386  -1.6908  -1.6344  -1.6135  -1.5521
    -1.5390  -1.4393  -1.3757  -1.2916  -1.2893  -1.2372  -1.2253  -1.1662
    -1.1178  -1.0903  -1.0424  -1.0054  -0.9695  -0.9300  -0.9143  -0.8734
    -0.8438  -0.8019  -0.7704  -0.7043  -0.6010  -0.5612  -0.4828  -0.4163
    -0.3628  -0.3243  -0.3067  -0.2435  -0.0885  -0.0800   0.0284   0.0581
     0.0649   0.1098   0.1491   0.1855   0.2166   0.2778   0.5592   0.6629
     0.7242   0.7791   1.0470   1.0621   1.1498   1.1804   1.3405   1.3763
     1.4161   1.4390   1.4533   1.4738   1.5380   1.5863   1.6194   1.6967
     1.8013   1.8354   1.8509   1.8625   1.8999   1.9107   1.9259   1.9673
     1.9751   1.9977   2.0275   2.0431   2.0632   2.0995   2.1536   2.1979
     2.2777   2.4068   2.4421   2.4555   2.5562   2.5737   2.5919   2.6221
     2.6457   2.6746   2.6938   2.7090   2.7346   2.8272   2.8768   2.8965
     2.9011   2.9135   2.9339   2.9474   2.9672   2.9744   3.0100   3.0197
     3.0341   3.0415   3.0507   3.0607   3.5826   3.5995   3.7430   3.7975
     4.1386   4.1905   4.2005   4.3180   4.7570   4.9312   5.0606   5.1399
     5.3058   5.4322   5.6043   5.6427   5.7683   5.7908   6.3294   6.3972
     6.4857   6.6409   7.2454   7.3499   7.5461   7.7027   7.8034   7.8757
     8.0140   8.0748   8.2364   8.4256   8.5128   8.5334   8.5421   8.5614
     8.7129   8.7581   8.8030

     occupation numbers 
     1.0000   1.0000   1.0000   1.0000   1.0000   1.0000   1.0000   1.0000
     1.0000   1.0000   1.0000   1.0000   1.0000   1.0000   1.0000   1.0000
     1.0000   1.0000   1.0000   1.0000   1.0000   1.0000   1.0000   1.0000
     1.0000   1.0000   1.0000   1.0000   1.0000   1.0000   1.0000   1.0000
     1.0000   1.0000   1.0000   1.0000   1.0000   1.0000   1.0000   1.0000
     1.0000   1.0000   1.0000   1.0000   1.0000   1.0000   1.0000   1.0000
     1.0000   1.0000   1.0000   1.0000   1.0000   1.0000   1.0000   1.0000
     1.0000   1.0000   1.0000   1.0000   1.0000   1.0000   1.0000   1.0000
     1.0000   1.0000   1.0000   1.0000   1.0000   1.0000   1.0000   1.0000
     1.0000   1.0000   1.0000   1.0000   1.0000   1.0000   1.0000   1.0000
     1.0000   1.0000   1.0000   1.0000   1.0000   1.0000   1.0000   1.0000
     1.0000   1.0000   1.0000   1.0000   1.0000   1.0000   1.0000   1.0000
     1.0000   1.0000   1.0000   1.0000   1.0000   1.0000   1.0000   1.0000
     1.0000   1.0000   1.0000   1.0000   1.0000   1.0000   1.0000   1.0000
     1.0000   1.0000   1.0000   1.0000   1.0000   1.0000   1.0000   1.0000
     1.0000   1.0000   1.0000   1.0000   1.0000   1.0000   1.0000   1.0000
     1.0000   1.0000   1.0000   1.0000   1.0000   1.0000   1.0000   1.0000
     1.0000   1.0000   1.0000   1.0000   1.0000   1.0000   1.0000   1.0000
     1.0000   1.0000   1.0000   1.0000   1.0000   1.0000   1.0000   1.0000
     1.0000   1.0000   1.0000   1.0000   1.0000   1.0000   1.0000   1.0000
     0.9999   0.9999   0.9996   0.9996   0.9994   0.9993   0.9984   0.9981
     0.9977   0.9975   0.9973   0.9970   0.9961   0.9951   0.9944   0.9923
     0.9883   0.9866   0.9858   0.9852   0.9830   0.9823   0.9813   0.9783
     0.9776   0.9758   0.9732   0.9717   0.9697   0.9658   0.9593   0.9532
     0.9404   0.9141   0.9055   0.9022   0.8738   0.8683   0.8625   0.8523
     0.8441   0.8336   0.8264   0.8206   0.8104   0.7710   0.7481   0.7387
     0.7364   0.7304   0.7203   0.7135   0.7034   0.6997   0.6811   0.6759
     0.6682   0.6642   0.6592   0.6537   0.3521   0.3428   0.2684   0.2424
     0.1140   0.0999   0.0973   0.0706   0.0169   0.0086   0.0050   0.0036
     0.0016   0.0009   0.0004   0.0003   0.0001   0.0001   0.0000   0.0000
     0.0000   0.0000   0.0000   0.0000   0.0000   0.0000   0.0000   0.0000
     0.0000   0.0000   0.0000   0.0000   0.0000   0.0000   0.0000   0.0000
     0.0000   0.0000   0.0000

          k =-0.5000-0.5000 0.0000 ( 65132 PWs)   bands (ev):

   -92.7007 -92.6500 -92.5549 -92.5096 -92.4518 -92.4075 -92.3897 -92.2701
   -56.0542 -56.0367 -55.9122 -55.9014 -55.8957 -55.8882 -55.8533 -55.8240
   -55.8083 -55.8071 -55.8006 -55.7588 -55.7408 -55.7023 -55.6815 -55.6517
   -55.6449 -55.5964 -55.5954 -55.5926 -55.5841 -55.5448 -55.5201 -55.4357
   -31.2742 -31.2624 -31.1379 -31.1167 -31.0310 -30.9916 -30.8843 -30.3735
   -29.8456 -29.8046 -29.7783 -29.6706 -14.9261 -14.9039 -14.7879 -14.7694
   -14.6767 -14.6436 -14.6097 -14.4754 -13.9966 -13.9820 -13.9714 -13.9343
   -13.9201 -13.8989 -13.8762 -13.8599 -13.8463 -13.8298 -13.8267 -13.8109
   -13.7321 -13.7258 -13.6979 -13.6630 -13.6326 -13.5576 -13.5026 -13.3837
   -13.3599 -13.1580 -13.1234 -13.0504 -13.0311 -13.0249 -12.9919 -12.9838
   -12.9744 -12.9558 -12.9207 -12.8320 -12.8170 -12.7807 -12.7423 -12.7318
   -12.6060 -12.5982 -12.5379 -12.3277 -12.3174 -12.2791 -12.2204 -12.0256
   -11.9932 -11.7697 -11.7584 -11.7409 -11.7231 -11.6890 -11.6700 -11.6352
   -11.5723 -11.5554 -11.5488 -11.4996 -11.4964  -2.2216  -2.1478  -2.1388
    -2.0659  -2.0275  -1.9492  -1.8808  -1.7562  -1.6409  -1.6108  -1.5693
    -1.5134  -1.4430  -1.4261  -1.3577  -1.3184  -1.2826  -1.1965  -1.1622
    -1.1200  -1.0920  -1.0272  -0.9787  -0.9614  -0.9482  -0.8940  -0.8524
    -0.8351  -0.7221  -0.6639  -0.6124  -0.5692  -0.5416  -0.5278  -0.4938
    -0.4502  -0.4120  -0.4055  -0.3190  -0.2502  -0.2094  -0.1778  -0.1094
    -0.0450  -0.0362   0.0252   0.0516   0.0584   0.0695   0.5286   0.5948
     0.6695   0.6981   1.0738   1.0868   1.1192   1.1575   1.4262   1.4436
     1.4530   1.4925   1.6203   1.7141   1.7413   1.7787   1.8086   1.8226
     1.8341   1.8623   1.8766   1.8993   1.9108   1.9490   1.9522   1.9792
     2.0131   2.0205   2.0333   2.0753   2.0976   2.1102   2.1430   2.1720
     2.2337   2.3007   2.4392   2.4465   2.5697   2.6005   2.6216   2.6384
     2.6534   2.6798   2.6847   2.7050   2.7161   2.7325   2.7531   2.7657
     2.8287   2.8311   2.8532   2.8673   2.8785   2.8985   2.9052   2.9127
     3.0165   3.0228   3.0461   3.0575   4.0079   4.0415   4.0721   4.0951
     4.3194   4.3925   4.4188   4.6594   4.7819   4.8643   4.9935   5.0854
     5.0951   5.2074   5.3012   5.4224   5.8525   5.8852   5.9545   6.0272
     6.5012   6.8563   6.9319   7.2027   7.9046   7.9271   7.9434   7.9758
     8.0100   8.0740   8.2006   8.2843   8.3969   8.5863   8.6163   8.6329
     8.6673   8.7326   8.8635

     occupation numbers 
     1.0000   1.0000   1.0000   1.0000   1.0000   1.0000   1.0000   1.0000
     1.0000   1.0000   1.0000   1.0000   1.0000   1.0000   1.0000   1.0000
     1.0000   1.0000   1.0000   1.0000   1.0000   1.0000   1.0000   1.0000
     1.0000   1.0000   1.0000   1.0000   1.0000   1.0000   1.0000   1.0000
     1.0000   1.0000   1.0000   1.0000   1.0000   1.0000   1.0000   1.0000
     1.0000   1.0000   1.0000   1.0000   1.0000   1.0000   1.0000   1.0000
     1.0000   1.0000   1.0000   1.0000   1.0000   1.0000   1.0000   1.0000
     1.0000   1.0000   1.0000   1.0000   1.0000   1.0000   1.0000   1.0000
     1.0000   1.0000   1.0000   1.0000   1.0000   1.0000   1.0000   1.0000
     1.0000   1.0000   1.0000   1.0000   1.0000   1.0000   1.0000   1.0000
     1.0000   1.0000   1.0000   1.0000   1.0000   1.0000   1.0000   1.0000
     1.0000   1.0000   1.0000   1.0000   1.0000   1.0000   1.0000   1.0000
     1.0000   1.0000   1.0000   1.0000   1.0000   1.0000   1.0000   1.0000
     1.0000   1.0000   1.0000   1.0000   1.0000   1.0000   1.0000   1.0000
     1.0000   1.0000   1.0000   1.0000   1.0000   1.0000   1.0000   1.0000
     1.0000   1.0000   1.0000   1.0000   1.0000   1.0000   1.0000   1.0000
     1.0000   1.0000   1.0000   1.0000   1.0000   1.0000   1.0000   1.0000
     1.0000   1.0000   1.0000   1.0000   1.0000   1.0000   1.0000   1.0000
     1.0000   1.0000   1.0000   1.0000   1.0000   1.0000   1.0000   1.0000
     1.0000   1.0000   1.0000   1.0000   1.0000   1.0000   1.0000   1.0000
     1.0000   1.0000   0.9996   0.9996   0.9995   0.9994   0.9976   0.9974
     0.9973   0.9968   0.9944   0.9917   0.9907   0.9892   0.9879   0.9873
     0.9867   0.9852   0.9844   0.9830   0.9823   0.9796   0.9794   0.9773
     0.9745   0.9738   0.9726   0.9684   0.9660   0.9646   0.9606   0.9568
     0.9477   0.9362   0.9063   0.9045   0.8696   0.8596   0.8525   0.8467
     0.8414   0.8317   0.8299   0.8221   0.8178   0.8113   0.8029   0.7977
     0.7703   0.7692   0.7591   0.7525   0.7473   0.7377   0.7344   0.7308
     0.6776   0.6742   0.6617   0.6554   0.1560   0.1443   0.1343   0.1270
     0.0703   0.0568   0.0525   0.0239   0.0154   0.0112   0.0067   0.0045
[...]
     0.3521   0.3275   0.2041   0.0783   0.0457   0.0218   0.0060   0.0048
     0.0003   0.0001   0.0001   0.0000   0.0000   0.0000   0.0000   0.0000
     0.0000   0.0000   0.0000   0.0000   0.0000   0.0000   0.0000   0.0000
     0.0000   0.0000   0.0000   0.0000   0.0000   0.0000   0.0000   0.0000
     0.0000   0.0000   0.0000

          k =-0.5000 0.0000 0.0000 ( 65180 PWs)   bands (ev):

   -92.7007 -92.6500 -92.5549 -92.5096 -92.4518 -92.4075 -92.3897 -92.2701
   -56.0542 -56.0367 -55.9122 -55.9014 -55.8957 -55.8882 -55.8533 -55.8240
   -55.8083 -55.8071 -55.8006 -55.7588 -55.7408 -55.7023 -55.6815 -55.6517
   -55.6449 -55.5964 -55.5954 -55.5926 -55.5841 -55.5448 -55.5201 -55.4357
   -31.2745 -31.2626 -31.1383 -31.1163 -31.0308 -30.9912 -30.8844 -30.3734
   -29.8468 -29.8053 -29.7771 -29.6699 -15.0132 -14.9559 -14.8950 -14.7894
   -14.6851 -14.5431 -14.3878 -14.2574 -14.1318 -14.1163 -14.1082 -14.0432
   -13.9967 -13.9896 -13.9537 -13.9061 -13.9001 -13.8805 -13.8372 -13.8208
   -13.7060 -13.5546 -13.5159 -13.4937 -13.4867 -13.4091 -13.3640 -13.2910
   -13.2681 -13.2445 -13.2225 -13.1006 -13.0547 -13.0415 -13.0182 -13.0090
   -12.9799 -12.9453 -12.9261 -12.9070 -12.8881 -12.7954 -12.6406 -12.6315
   -12.6152 -12.5660 -12.5409 -12.4023 -12.3275 -12.3231 -12.2924 -12.0308
   -11.9823 -11.7782 -11.7551 -11.7496 -11.7330 -11.7152 -11.6745 -11.6119
   -11.5950 -11.5629 -11.5147 -11.5062 -11.4914  -2.5793  -2.5417  -2.3777
    -2.3391  -2.0241  -1.9496  -1.8010  -1.6847  -1.6456  -1.5998  -1.5513
    -1.5280  -1.4043  -1.3601  -1.3440  -1.2998  -1.2561  -1.2273  -1.1981
    -1.1777  -1.1185  -1.0521  -1.0245  -0.9921  -0.8966  -0.8524  -0.8022
    -0.7711  -0.7490  -0.7188  -0.6719  -0.6467  -0.6038  -0.5064  -0.4353
    -0.3662  -0.3073  -0.1329  -0.1086  -0.0550  -0.0131   0.0535   0.0614
     0.2024   0.2316   0.2755   0.4417   0.5407   0.5903   0.6756   0.7560
     0.8685   0.8781   1.0128   1.0339   1.0875   1.1190   1.1522   1.1689
     1.2095   1.2380   1.3059   1.3504   1.3988   1.4060   1.7112   1.7186
     1.7440   1.7638   1.8636   1.8766   1.8918   1.9002   1.9284   1.9407
     1.9823   1.9994   2.0270   2.0782   2.0965   2.1477   2.1710   2.2234
     2.3318   2.4269   2.4486   2.4602   2.5046   2.5233   2.6039   2.6269
     2.6593   2.7253   2.7351   2.7405   2.7706   2.8386   2.8836   2.9313
     2.9584   3.0009   3.0055   3.0060   3.0177   3.0332   3.0444   3.0588
     3.0631   3.0856   3.0890   3.1097   3.1298   3.1354   3.2659   3.2697
     4.0688   4.1345   4.1961   4.3287   4.7935   4.8691   5.0471   5.0493
     5.4830   5.5091   5.6030   5.6560   6.0368   6.0401   6.2165   6.5549
     6.7953   7.0002   7.2752   7.3047   7.3704   7.4108   7.7389   7.7778
     7.8544   7.8921   8.2286   8.3463   8.4199   8.5199   8.6090   8.6479
     8.7601   8.7907   8.8997

     occupation numbers 
     1.0000   1.0000   1.0000   1.0000   1.0000   1.0000   1.0000   1.0000
     1.0000   1.0000   1.0000   1.0000   1.0000   1.0000   1.0000   1.0000
     1.0000   1.0000   1.0000   1.0000   1.0000   1.0000   1.0000   1.0000
     1.0000   1.0000   1.0000   1.0000   1.0000   1.0000   1.0000   1.0000
     1.0000   1.0000   1.0000   1.0000   1.0000   1.0000   1.0000   1.0000
     1.0000   1.0000   1.0000   1.0000   1.0000   1.0000   1.0000   1.0000
     1.0000   1.0000   1.0000   1.0000   1.0000   1.0000   1.0000   1.0000
     1.0000   1.0000   1.0000   1.0000   1.0000   1.0000   1.0000   1.0000
     1.0000   1.0000   1.0000   1.0000   1.0000   1.0000   1.0000   1.0000
     1.0000   1.0000   1.0000   1.0000   1.0000   1.0000   1.0000   1.0000
     1.0000   1.0000   1.0000   1.0000   1.0000   1.0000   1.0000   1.0000
     1.0000   1.0000   1.0000   1.0000   1.0000   1.0000   1.0000   1.0000
     1.0000   1.0000   1.0000   1.0000   1.0000   1.0000   1.0000   1.0000
     1.0000   1.0000   1.0000   1.0000   1.0000   1.0000   1.0000   1.0000
     1.0000   1.0000   1.0000   1.0000   1.0000   1.0000   1.0000   1.0000
     1.0000   1.0000   1.0000   1.0000   1.0000   1.0000   1.0000   1.0000
     1.0000   1.0000   1.0000   1.0000   1.0000   1.0000   1.0000   1.0000
     1.0000   1.0000   1.0000   1.0000   1.0000   1.0000   1.0000   1.0000
     1.0000   1.0000   1.0000   1.0000   1.0000   1.0000   1.0000   1.0000
     1.0000   1.0000   1.0000   1.0000   1.0000   1.0000   1.0000   0.9999
     0.9999   0.9999   0.9997   0.9997   0.9996   0.9995   0.9994   0.9993
     0.9992   0.9990   0.9987   0.9983   0.9979   0.9978   0.9918   0.9915
     0.9906   0.9899   0.9851   0.9844   0.9835   0.9829   0.9811   0.9802
     0.9771   0.9757   0.9732   0.9681   0.9662   0.9600   0.9570   0.9494
     0.9302   0.9093   0.9039   0.9010   0.8890   0.8836   0.8585   0.8507
     0.8393   0.8142   0.8102   0.8081   0.7956   0.7658   0.7448   0.7216
     0.7079   0.6858   0.6834   0.6832   0.6770   0.6686   0.6626   0.6548
     0.6524   0.6400   0.6381   0.6265   0.6151   0.6119   0.5361   0.5339
     0.1353   0.1152   0.0984   0.0684   0.0147   0.0110   0.0053   0.0053
     0.0007   0.0006   0.0004   0.0003   0.0000   0.0000   0.0000   0.0000
     0.0000   0.0000   0.0000   0.0000   0.0000   0.0000   0.0000   0.0000
     0.0000   0.0000   0.0000   0.0000   0.0000   0.0000   0.0000   0.0000
     0.0000   0.0000   0.0000

          k =-0.2500 0.2500 0.0000 ( 65198 PWs)   bands (ev):

   -92.7007 -92.6500 -92.5549 -92.5096 -92.4518 -92.4075 -92.3897 -92.2701
   -56.0542 -56.0367 -55.9122 -55.9014 -55.8957 -55.8882 -55.8533 -55.8240
   -55.8083 -55.8071 -55.8006 -55.7588 -55.7408 -55.7023 -55.6815 -55.6517
   -55.6449 -55.5964 -55.5954 -55.5926 -55.5841 -55.5448 -55.5201 -55.4357
   -31.2765 -31.2604 -31.1382 -31.1169 -31.0305 -30.9914 -30.8842 -30.3734
   -29.8471 -29.8040 -29.7781 -29.6699 -15.0163 -14.9658 -14.8998 -14.7832
   -14.6676 -14.5406 -14.4607 -14.2508 -14.1145 -14.0855 -14.0706 -14.0232
   -14.0029 -13.9897 -13.9753 -13.9536 -13.9204 -13.8342 -13.8231 -13.6721
   -13.6453 -13.6138 -13.5951 -13.5380 -13.4958 -13.4354 -13.4174 -13.2967
   -13.2664 -13.2231 -13.1475 -13.1070 -13.0646 -13.0392 -13.0082 -12.9880
   -12.9530 -12.9286 -12.9220 -12.8963 -12.8336 -12.8122 -12.7706 -12.7497
   -12.6923 -12.5654 -12.4422 -12.4222 -12.3487 -12.2912 -12.2821 -12.0088
   -11.9327 -11.7966 -11.7761 -11.7477 -11.7365 -11.6952 -11.6598 -11.6375
   -11.6165 -11.5941 -11.5070 -11.4633 -11.4541  -2.6643  -2.4566  -2.3358
    -2.2462  -2.1287  -2.0630  -1.8593  -1.7141  -1.6969  -1.6660  -1.5746
    -1.5400  -1.4473  -1.4121  -1.3859  -1.2902  -1.2372  -1.1837  -1.1166
    -1.0850  -1.0291  -1.0094  -0.9694  -0.9411  -0.9002  -0.8372  -0.7888
    -0.7244  -0.6568  -0.6296  -0.5789  -0.5508  -0.5049  -0.4484  -0.3990
    -0.3632  -0.2592  -0.2286  -0.2146  -0.1734  -0.1087  -0.0232   0.0106
     0.0417   0.1208   0.1394   0.3943   0.5646   0.6029   0.6444   0.7096
     0.7637   0.8142   0.8818   0.9047   1.1864   1.2942   1.3348   1.3674
     1.3723   1.4162   1.4305   1.4771   1.5073   1.5207   1.5462   1.5942
     1.6119   1.6485   1.6690   1.7124   1.8125   1.8257   1.8435   1.8844
     1.9066   1.9497   2.0006   2.1074   2.2138   2.2368   2.2830   2.3032
     2.3694   2.4081   2.4346   2.4382   2.4528   2.4766   2.4846   2.5865
     2.6211   2.7107   2.8844   2.8924   2.9059   2.9155   2.9271   2.9413
     2.9477   2.9658   2.9740   2.9888   2.9982   3.0105   3.0200   3.0275
     3.0606   3.0704   3.0792   3.1131   3.4047   3.4866   3.5514   3.6284
     3.6513   3.8426   3.9631   4.3087   4.5119   4.7200   4.9957   5.1640
     5.6505   5.7006   5.7738   5.8348   5.8972   6.0693   6.1709   6.1934
     6.8823   6.9353   7.0789   7.3018   7.5637   7.6122   7.6718   7.8732
     7.8978   7.9947   8.2107   8.2915   8.3222   8.4036   8.4205   8.4549
     8.5745   8.7806   8.8924

     occupation numbers 
     1.0000   1.0000   1.0000   1.0000   1.0000   1.0000   1.0000   1.0000
     1.0000   1.0000   1.0000   1.0000   1.0000   1.0000   1.0000   1.0000
     1.0000   1.0000   1.0000   1.0000   1.0000   1.0000   1.0000   1.0000
     1.0000   1.0000   1.0000   1.0000   1.0000   1.0000   1.0000   1.0000
     1.0000   1.0000   1.0000   1.0000   1.0000   1.0000   1.0000   1.0000
     1.0000   1.0000   1.0000   1.0000   1.0000   1.0000   1.0000   1.0000
     1.0000   1.0000   1.0000   1.0000   1.0000   1.0000   1.0000   1.0000
     1.0000   1.0000   1.0000   1.0000   1.0000   1.0000   1.0000   1.0000
     1.0000   1.0000   1.0000   1.0000   1.0000   1.0000   1.0000   1.0000
     1.0000   1.0000   1.0000   1.0000   1.0000   1.0000   1.0000   1.0000
     1.0000   1.0000   1.0000   1.0000   1.0000   1.0000   1.0000   1.0000
     1.0000   1.0000   1.0000   1.0000   1.0000   1.0000   1.0000   1.0000
     1.0000   1.0000   1.0000   1.0000   1.0000   1.0000   1.0000   1.0000
     1.0000   1.0000   1.0000   1.0000   1.0000   1.0000   1.0000   1.0000
     1.0000   1.0000   1.0000   1.0000   1.0000   1.0000   1.0000   1.0000
     1.0000   1.0000   1.0000   1.0000   1.0000   1.0000   1.0000   1.0000
     1.0000   1.0000   1.0000   1.0000   1.0000   1.0000   1.0000   1.0000
     1.0000   1.0000   1.0000   1.0000   1.0000   1.0000   1.0000   1.0000
     1.0000   1.0000   1.0000   1.0000   1.0000   1.0000   1.0000   1.0000
     1.0000   1.0000   1.0000   1.0000   1.0000   1.0000   1.0000   0.9999
     0.9999   0.9999   0.9999   0.9998   0.9993   0.9987   0.9985   0.9982
     0.9981   0.9977   0.9976   0.9970   0.9966   0.9963   0.9959   0.9950
     0.9946   0.9937   0.9931   0.9917   0.9877   0.9871   0.9862   0.9839
     0.9825   0.9796   0.9756   0.9649   0.9508   0.9472   0.9395   0.9358
     0.9225   0.9138   0.9074   0.9065   0.9029   0.8966   0.8945   0.8642
     0.8527   0.8199   0.7444   0.7406   0.7341   0.7294   0.7236   0.7165
     0.7133   0.7041   0.6999   0.6922   0.6873   0.6808   0.6757   0.6717
     0.6538   0.6484   0.6435   0.6246   0.4540   0.4063   0.3694   0.3272
     0.3150   0.2219   0.1724   0.0724   0.0392   0.0193   0.0066   0.0032
     0.0003   0.0002   0.0001   0.0001   0.0001   0.0000   0.0000   0.0000
     0.0000   0.0000   0.0000   0.0000   0.0000   0.0000   0.0000   0.0000
     0.0000   0.0000   0.0000   0.0000   0.0000   0.0000   0.0000   0.0000
     0.0000   0.0000   0.0000

          k =-0.5000 0.2500 0.0000 ( 65138 PWs)   bands (ev):

   -92.7007 -92.6500 -92.5549 -92.5096 -92.4518 -92.4075 -92.3897 -92.2701
   -56.0542 -56.0367 -55.9122 -55.9014 -55.8957 -55.8882 -55.8533 -55.8240
   -55.8083 -55.8071 -55.8006 -55.7588 -55.7408 -55.7023 -55.6815 -55.6517
   -55.6449 -55.5964 -55.5954 -55.5926 -55.5841 -55.5448 -55.5201 -55.4357
   -31.2743 -31.2625 -31.1381 -31.1165 -31.0309 -30.9914 -30.8843 -30.3734
   -29.8462 -29.8049 -29.7777 -29.6703 -14.9795 -14.9300 -14.8518 -14.7559
   -14.7143 -14.5901 -14.4944 -14.3720 -14.0647 -14.0338 -14.0227 -13.9958
   -13.9739 -13.9530 -13.9278 -13.8927 -13.8861 -13.8599 -13.8254 -13.8159
   -13.7024 -13.6370 -13.5879 -13.5816 -13.5611 -13.4697 -13.4549 -13.3361
   -13.2987 -13.2004 -13.1656 -13.0762 -13.0551 -13.0258 -13.0158 -12.9874
   -12.9559 -12.9406 -12.9263 -12.9012 -12.8407 -12.8016 -12.6763 -12.6425
   -12.6224 -12.6151 -12.5392 -12.3536 -12.3224 -12.2925 -12.2642 -12.0274
   -11.9883 -11.7703 -11.7569 -11.7433 -11.7316 -11.7087 -11.6793 -11.5993
   -11.5891 -11.5681 -11.5294 -11.5026 -11.4941  -2.4367  -2.3958  -2.2472
    -2.2054  -2.0436  -1.9681  -1.8253  -1.6911  -1.6336  -1.6074  -1.5678
    -1.5302  -1.4490  -1.3345  -1.2937  -1.2756  -1.2506  -1.2264  -1.1405
    -1.1231  -1.0820  -1.0667  -1.0053  -0.9740  -0.9382  -0.9023  -0.8734
    -0.8148  -0.7877  -0.7459  -0.7118  -0.6070  -0.5783  -0.4875  -0.4310
    -0.3953  -0.3386  -0.2569  -0.2216  -0.1217  -0.0759  -0.0252   0.0313
     0.0573   0.1259   0.1500   0.1826   0.2329   0.2741   0.5882   0.6665
     0.7181   0.7426   1.0238   1.0809   1.1517   1.1819   1.3542   1.3895
     1.4274   1.4379   1.4563   1.4741   1.5450   1.5883   1.6319   1.6592
     1.7924   1.8255   1.8485   1.8586   1.9076   1.9279   1.9413   1.9539
     1.9739   1.9973   2.0409   2.0534   2.0905   2.1144   2.1493   2.2013
     2.3223   2.4119   2.4438   2.4542   2.4596   2.5212   2.5541   2.6206
     2.6548   2.6599   2.7001   2.7336   2.7554   2.8381   2.8798   2.8945
     2.8990   2.9198   2.9421   2.9544   2.9704   2.9821   3.0048   3.0169
     3.0271   3.0341   3.0444   3.0565   3.5842   3.6351   3.7750   3.7973
     4.0764   4.1563   4.2020   4.4101   4.7877   4.8864   5.0438   5.0768
     5.4093   5.4331   5.5902   5.6273   5.7472   5.7944   6.3119   6.3912
     6.4919   6.6864   7.2201   7.3546   7.5512   7.7131   7.7944   7.8835
     8.0117   8.0520   8.2113   8.4296   8.5023   8.5401   8.5580   8.5838
     8.6677   8.7442   8.8206

     occupation numbers 
     1.0000   1.0000   1.0000   1.0000   1.0000   1.0000   1.0000   1.0000
     1.0000   1.0000   1.0000   1.0000   1.0000   1.0000   1.0000   1.0000
     1.0000   1.0000   1.0000   1.0000   1.0000   1.0000   1.0000   1.0000
     1.0000   1.0000   1.0000   1.0000   1.0000   1.0000   1.0000   1.0000
     1.0000   1.0000   1.0000   1.0000   1.0000   1.0000   1.0000   1.0000
     1.0000   1.0000   1.0000   1.0000   1.0000   1.0000   1.0000   1.0000
     1.0000   1.0000   1.0000   1.0000   1.0000   1.0000   1.0000   1.0000
     1.0000   1.0000   1.0000   1.0000   1.0000   1.0000   1.0000   1.0000
     1.0000   1.0000   1.0000   1.0000   1.0000   1.0000   1.0000   1.0000
     1.0000   1.0000   1.0000   1.0000   1.0000   1.0000   1.0000   1.0000
     1.0000   1.0000   1.0000   1.0000   1.0000   1.0000   1.0000   1.0000
     1.0000   1.0000   1.0000   1.0000   1.0000   1.0000   1.0000   1.0000
     1.0000   1.0000   1.0000   1.0000   1.0000   1.0000   1.0000   1.0000
     1.0000   1.0000   1.0000   1.0000   1.0000   1.0000   1.0000   1.0000
     1.0000   1.0000   1.0000   1.0000   1.0000   1.0000   1.0000   1.0000
     1.0000   1.0000   1.0000   1.0000   1.0000   1.0000   1.0000   1.0000
     1.0000   1.0000   1.0000   1.0000   1.0000   1.0000   1.0000   1.0000
     1.0000   1.0000   1.0000   1.0000   1.0000   1.0000   1.0000   1.0000
     1.0000   1.0000   1.0000   1.0000   1.0000   1.0000   1.0000   1.0000
     1.0000   1.0000   1.0000   1.0000   1.0000   1.0000   1.0000   1.0000
     0.9999   0.9999   0.9997   0.9996   0.9994   0.9993   0.9983   0.9980
     0.9976   0.9975   0.9973   0.9970   0.9959   0.9951   0.9941   0.9934
     0.9887   0.9871   0.9859   0.9854   0.9825   0.9811   0.9802   0.9793
     0.9777   0.9758   0.9719   0.9707   0.9668   0.9641   0.9598   0.9527
     0.9321   0.9129   0.9051   0.9025   0.9011   0.8842   0.8744   0.8529
     0.8409   0.8390   0.8240   0.8108   0.8020   0.7660   0.7466   0.7396
     0.7374   0.7273   0.7162   0.7099   0.7018   0.6957   0.6838   0.6774
     0.6719   0.6682   0.6626   0.6560   0.3512   0.3236   0.2529   0.2424
     0.1329   0.1091   0.0969   0.0539   0.0150   0.0103   0.0054   0.0047
     0.0010   0.0009   0.0004   0.0003   0.0002   0.0001   0.0000   0.0000
     0.0000   0.0000   0.0000   0.0000   0.0000   0.0000   0.0000   0.0000
     0.0000   0.0000   0.0000   0.0000   0.0000   0.0000   0.0000   0.0000
     0.0000   0.0000   0.0000

     the Fermi energy is     3.3269 ev

!    total energy              =   -4441.67174293 Ry
     estimated scf accuracy    <          7.8E-09 Ry
     smearing contrib. (-TS)   =      -1.15482909 Ry
     internal energy E=F+TS    =   -4440.51691383 Ry

     The total energy is F=E-TS. E is the sum of the following terms:
     one-electron contribution =  -20805.32742873 Ry
     hartree contribution      =   10534.68226375 Ry
     xc contribution           =    -694.19130314 Ry
     ewald contribution        =    6800.48714624 Ry
     one-center paw contrib.   =    -276.16759196 Ry
      -> PAW hartree energy AE =      25.12674329 Ry
      -> PAW hartree energy PS =     -25.01102538 Ry
      -> PAW xc energy AE      =     -16.51231814 Ry
      -> PAW xc energy PS      =       6.87154674 Ry
      -> total E_H with PAW    =   10534.79798167 Ry
      -> total E_XC with PAW   =    -703.83207453 Ry

     convergence has been achieved in  49 iterations

     Writing all to output data dir /bsuhome/zayahcortright/scratch/pwscf.save/
 
     init_run     :      7.60s CPU      8.47s WALL (       1 calls)
     electrons    :    795.73s CPU    880.88s WALL (       1 calls)

     Called by init_run:
     wfcinit      :      6.13s CPU      6.36s WALL (       1 calls)
     wfcinit:atom :      0.05s CPU      0.07s WALL (       5 calls)
     wfcinit:wfcr :      5.80s CPU      5.93s WALL (       5 calls)
     potinit      :      0.15s CPU      0.18s WALL (       1 calls)
     hinit0       :      0.46s CPU      0.79s WALL (       1 calls)

     Called by electrons:
     c_bands      :    642.62s CPU    654.99s WALL (      49 calls)
     sum_band     :    114.15s CPU    154.40s WALL (      49 calls)
     v_of_rho     :      5.34s CPU      5.75s WALL (      50 calls)
     v_h          :      0.49s CPU      0.49s WALL (      50 calls)
     v_xc         :      4.85s CPU      5.25s WALL (      50 calls)
     newd         :     18.30s CPU     49.99s WALL (      50 calls)
     PAW_pot      :      1.67s CPU      1.70s WALL (      50 calls)
     mix_rho      :     13.29s CPU     13.77s WALL (      49 calls)

     Called by c_bands:
     init_us_2    :      6.75s CPU      6.86s WALL (     495 calls)
     init_us_2:cp :      6.75s CPU      6.85s WALL (     495 calls)
     cegterg      :    603.80s CPU    615.79s WALL (     245 calls)

     Called by sum_band:
     sum_band:wei :      0.35s CPU      0.36s WALL (      49 calls)
     sum_band:loo :     91.14s CPU     91.84s WALL (      49 calls)
     sum_band:buf :      1.40s CPU      1.47s WALL (     245 calls)
     sum_band:ini :      3.06s CPU      3.07s WALL (     245 calls)
     sum_band:cal :     18.92s CPU     18.97s WALL (     245 calls)
     sum_band:bec :      0.57s CPU      0.59s WALL (     245 calls)
     addusdens    :     18.62s CPU     58.02s WALL (      49 calls)
                                        0.00s GPU  (      49 calls)
     addusd:skk   :      0.34s CPU      2.41s WALL (     196 calls)
                                        0.00s GPU  (     196 calls)

     Called by *egterg:
     cdiaghg      :     61.19s CPU     61.45s WALL (    1362 calls)
     cegterg:over :     44.62s CPU     44.84s WALL (    1117 calls)
     cegterg:upda :     48.80s CPU     49.68s WALL (    1117 calls)
     cegterg:last :     70.86s CPU     71.15s WALL (     452 calls)
     cdiaghg:chol :      3.52s CPU      3.55s WALL (    1362 calls)
     cdiaghg:inve :      3.84s CPU      3.86s WALL (    1362 calls)
     cdiaghg:para :      7.74s CPU      7.78s WALL (    2724 calls)
     h_psi        :    307.01s CPU    311.95s WALL (    1367 calls)
     s_psi        :     44.74s CPU     44.92s WALL (    1367 calls)
     g_psi        :      2.24s CPU      2.25s WALL (    1117 calls)

     Called by h_psi:
     h_psi:calbec :     45.70s CPU     45.96s WALL (    1367 calls)
     vloc_psi     :    212.33s CPU    214.56s WALL (    1367 calls)
     add_vuspsi   :     43.64s CPU     43.88s WALL (    1367 calls)

     General routines
     calbec       :     64.61s CPU     64.92s WALL (    1612 calls)
     fft          :      4.26s CPU      4.33s WALL (     648 calls)
     ffts         :      4.88s CPU      4.96s WALL (    5283 calls)
     fftw         :    175.70s CPU    177.30s WALL (  332651 calls)
     interpolate  :      0.41s CPU      0.42s WALL (      50 calls)
 
     Parallel routines

     PAW routines
     PAW_pot      :      1.67s CPU      1.70s WALL (      50 calls)
 
     PWSCF        :  13m25.25s CPU  14m54.34s WALL

 
   This run was terminated on:  18:51:18  21Jun2024            

=------------------------------------------------------------------------------=
   JOB DONE.
=------------------------------------------------------------------------------=
