
     Program PWSCF v.7.2 starts on 22Jun2024 at  0:23: 6 

     This program is part of the open-source Quantum ESPRESSO suite
     for quantum simulation of materials; please cite
         "P. Giannozzi et al., J. Phys.:Condens. Matter 21 395502 (2009);
         "P. Giannozzi et al., J. Phys.:Condens. Matter 29 465901 (2017);
         "P. Giannozzi et al., J. Chem. Phys. 152 154105 (2020);
          URL http://www.quantum-espresso.org", 
     in publications or presentations arising from this work. More details at
     http://www.quantum-espresso.org/quote

     Parallel version (MPI & OpenMP), running on      48 processor cores
     Number of MPI processes:                48
     Threads/MPI process:                     1

     MPI processes distributed on     1 nodes
     33221 MiB available memory on the printing compute node when the environment starts
 
     Reading input from espresso.pwi
Warning: card &CELL ignored
Warning: card / ignored
Warning: card &FCP ignored
Warning: card / ignored
Warning: card &RISM ignored
Warning: card / ignored

     Current dimensions of program PWSCF are:
     Max number of different atomic species (ntypx) = 10
     Max number of k-points (npk) =  40000
     Max angular momentum in pseudopotentials (lmaxx) =  4
     file O.pbe-n-kjpaw_psl.0.1.UPF: wavefunction(s)  2P renormalized
     signal trapping enabled: kill the code with -SIGUSR1 to stop cleanly the simulation 
 
     K-points division:     npool     =       2
     R & G space division:  proc/nbgrp/npool/nimage =      24
     Subspace diagonalization in iterative solution of the eigenvalue problem:
     one sub-group per band group will be used
     scalapack distributed-memory algorithm (size of sub-group:  3*  3 procs)

 
     Parallelization info
     --------------------
     sticks:   dense  smooth     PW     G-vecs:    dense   smooth      PW
     Min         350     175     47                61430    21716    3036
     Max         351     177     48                61449    21727    3041
     Sum        8421    4205   1137              1474595   521381   72913
 
     Using Slab Decomposition
 


     bravais-lattice index     =            0
     lattice parameter (alat)  =      14.8599  a.u.
     unit-cell volume          =    8305.1283 (a.u.)^3
     number of atoms/cell      =           50
     number of atomic types    =            4
     number of electrons       =       431.00
     number of Kohn-Sham states=          259
     kinetic-energy cutoff     =      60.0000  Ry
     charge density cutoff     =     480.0000  Ry
     scf convergence threshold =      1.0E-08
     mixing beta               =       0.1500
     number of iterations used =            8  local-TF  mixing
     Exchange-correlation= PBE
                           (   1   4   3   4   0   0   0)

     celldm(1)=  14.859904  celldm(2)=   0.000000  celldm(3)=   0.000000
     celldm(4)=   0.000000  celldm(5)=   0.000000  celldm(6)=   0.000000

     crystal axes: (cart. coord. in units of alat)
               a(1) = (   1.000000   0.000000   0.000000 )  
               a(2) = (   0.000000   1.000000   0.000000 )  
               a(3) = (   0.000000   0.000000   2.531036 )  

     reciprocal axes: (cart. coord. in units 2 pi/alat)
               b(1) = (  1.000000  0.000000  0.000000 )  
               b(2) = (  0.000000  1.000000  0.000000 )  
               b(3) = (  0.000000  0.000000  0.395095 )  


     PseudoPot. # 1 for Sr read from file:
     /bsuhome/zayahcortright/q-e/pseudo/Sr_pbe_v1.uspp.F.UPF
     MD5 check sum: 6b418c05fbe9db5448babca5e47b7a5b
     Pseudo is Ultrasoft + core correction, Zval = 10.0
     Generated by new atomic code, or converted to UPF format
     Using radial grid of  883 points,  6 beta functions with: 
                l(1) =   0
                l(2) =   0
                l(3) =   1
                l(4) =   1
                l(5) =   2
                l(6) =   2
     Q(r) pseudized with  6 coefficients,  rinner =    1.400   1.400   1.400
                                                       1.400   1.400

     PseudoPot. # 2 for O  read from file:
     /bsuhome/zayahcortright/q-e/pseudo/O.pbe-n-kjpaw_psl.0.1.UPF
     MD5 check sum: 0234752ac141de4415c5fc33072bef88
     Pseudo is Projector augmented-wave + core cor, Zval =  6.0
     Generated using "atomic" code by A. Dal Corso  v.5.0.99 svn rev. 10869
     Shape of augmentation charge: BESSEL
     Using radial grid of 1095 points,  4 beta functions with: 
                l(1) =   0
                l(2) =   0
                l(3) =   1
                l(4) =   1
     Q(r) pseudized with 0 coefficients 


     PseudoPot. # 3 for Co read from file:
     /bsuhome/zayahcortright/q-e/pseudo/Co_pbe_v1.2.uspp.F.UPF
     MD5 check sum: 5f91765df6ddd3222702df6e7b74a16d
     Pseudo is Ultrasoft + core correction, Zval = 17.0
     Generated by new atomic code, or converted to UPF format
     Using radial grid of  863 points,  6 beta functions with: 
                l(1) =   0
                l(2) =   0
                l(3) =   1
                l(4) =   1
                l(5) =   2
                l(6) =   2
     Q(r) pseudized with  8 coefficients,  rinner =    1.200   1.200   1.200
                                                       1.200   1.200

     PseudoPot. # 4 for H  read from file:
     /bsuhome/zayahcortright/q-e/pseudo/H.pbe-rrkjus_psl.1.0.0.UPF
     MD5 check sum: f52b6d4d1c606e5624b1dc7b2218f220
     Pseudo is Ultrasoft, Zval =  1.0
     Generated using "atomic" code by A. Dal Corso  v.5.1
     Using radial grid of  929 points,  2 beta functions with: 
                l(1) =   0
                l(2) =   0
     Q(r) pseudized with 0 coefficients 


     atomic species   valence    mass     pseudopotential
        Sr            10.00    87.62000     Sr( 1.00)
        O              6.00    15.99900     O ( 1.00)
        Co            17.00    58.93319     Co( 1.00)
        H              1.00     1.00800     H ( 1.00)

     No symmetry found


                                    s                        frac. trans.

      isym =  1     identity                                     

 cryst.   s( 1) = (     1          0          0      )
                  (     0          1          0      )
                  (     0          0          1      )

 cart.    s( 1) = (  1.0000000  0.0000000  0.0000000 )
                  (  0.0000000  1.0000000  0.0000000 )
                  (  0.0000000  0.0000000  1.0000000 )


   Cartesian axes

     site n.     atom                  positions (alat units)
         1           Sr  tau(   1) = (   0.2508693   0.7491307   1.7574407  )
         2           O   tau(   2) = (   0.4985141   0.5014859   1.7715967  )
         3           Sr  tau(   3) = (   0.7482398   0.7454518   1.7648669  )
         4           Sr  tau(   4) = (   0.7441748   0.2558252   1.7667843  )
         5           Sr  tau(   5) = (   0.2508693   0.7491307   1.2696799  )
         6           Sr  tau(   6) = (   0.2508693   0.7491307   0.7632319  )
         7           Co  tau(   7) = (   0.4998914   0.5001086   1.0164559  )
         8           Co  tau(   8) = (   0.4936915   0.5063085   1.5135603  )
         9           O   tau(   9) = (   0.4988895   0.7610401   1.0164559  )
        10           O   tau(  10) = (   0.2389599   0.5011105   1.0164559  )
        11           O   tau(  11) = (   0.0070918   0.7374880   1.0164559  )
        12           O   tau(  12) = (   0.0088340   0.7405089   1.5135603  )
        13           O   tau(  13) = (   0.5066944   0.7415376   1.5135603  )
        14           O   tau(  14) = (   0.2584624   0.4933056   1.5135603  )
        15           O   tau(  15) = (   0.4985141   0.5014859   0.7773880  )
        16           O   tau(  16) = (   0.4985141   0.5014859   1.2555238  )
        17           Sr  tau(  17) = (   0.7482398   0.7454518   0.7706582  )
        18           Sr  tau(  18) = (   0.7482398   0.7454518   1.2622536  )
        19           Sr  tau(  19) = (   0.7441748   0.2558252   0.7725755  )
        20           Sr  tau(  20) = (   0.7441748   0.2558252   1.2603363  )
        21           O   tau(  21) = (   0.7322655   0.0078049   1.5135603  )
        22           O   tau(  22) = (   0.7558175   0.4996027   1.5135603  )
        23           O   tau(  23) = (   0.5003973   0.2441825   1.5135603  )
        24           O   tau(  24) = (   0.7527966   0.4978604   1.0164559  )
        25           O   tau(  25) = (   0.5021396   0.2472034   1.0164559  )
        26           O   tau(  26) = (   0.7517679   0.0000000   1.0164559  )
        27           O   tau(  27) = (   0.0114961   0.4948124   1.7455321  )
        28           O   tau(  28) = (   0.0048226   0.0077944   1.7715967  )
        29           Sr  tau(  29) = (   0.2545482   0.2517602   1.7648669  )
        30           O   tau(  30) = (   0.5048017   0.0015068   1.7786929  )
        31           Co  tau(  31) = (   0.0056869   0.5006215   1.0164559  )
        32           Co  tau(  32) = (   0.0065315   0.4997770   1.5135603  )
        33           Co  tau(  33) = (   0.0061999   0.0064171   1.0164559  )
        34           Co  tau(  34) = (   0.0000000   0.0126169   1.5135603  )
        35           O   tau(  35) = (   0.0114961   0.4948124   1.2815885  )
        36           O   tau(  36) = (   0.0114961   0.4948124   0.7513233  )
        37           O   tau(  37) = (   0.0051979   0.2673486   1.0164559  )
        38           O   tau(  38) = (   0.0130029   0.2478461   1.5135603  )
        39           O   tau(  39) = (   0.0048226   0.0077944   0.7773880  )
        40           O   tau(  40) = (   0.0048226   0.0077944   1.2555238  )
        41           Sr  tau(  41) = (   0.2545482   0.2517602   0.7706582  )
        42           Sr  tau(  42) = (   0.2545482   0.2517602   1.2622536  )
        43           Co  tau(  43) = (   0.4989925   0.0073160   1.5135603  )
        44           Co  tau(  44) = (   0.4998370   0.0064714   1.0164559  )
        45           O   tau(  45) = (   0.5048017   0.0015068   0.7844841  )
        46           O   tau(  46) = (   0.5048017   0.0015068   1.2484277  )
        47           O   tau(  47) = (   0.2621260   0.0059111   1.5135603  )
        48           O   tau(  48) = (   0.2591051   0.0041689   1.0164559  )
        49           O   tau(  49) = (   0.7108228   0.2843291   2.1602013  )
        50           H   tau(  50) = (   0.7108228   0.2843291   2.2847091  )

   Crystallographic axes

     site n.     atom                  positions (cryst. coord.)
         1           Sr  tau(   1) = (  0.2508693  0.7491307  0.6943562  )
         2           O   tau(   2) = (  0.4985141  0.5014859  0.6999492  )
         3           Sr  tau(   3) = (  0.7482398  0.7454518  0.6972903  )
         4           Sr  tau(   4) = (  0.7441748  0.2558252  0.6980478  )
         5           Sr  tau(   5) = (  0.2508693  0.7491307  0.5016443  )
         6           Sr  tau(   6) = (  0.2508693  0.7491307  0.3015492  )
         7           Co  tau(   7) = (  0.4998914  0.5001086  0.4015968  )
         8           Co  tau(   8) = (  0.4936915  0.5063085  0.5980003  )
         9           O   tau(   9) = (  0.4988895  0.7610401  0.4015968  )
        10           O   tau(  10) = (  0.2389599  0.5011105  0.4015968  )
        11           O   tau(  11) = (  0.0070918  0.7374880  0.4015968  )
        12           O   tau(  12) = (  0.0088340  0.7405089  0.5980003  )
        13           O   tau(  13) = (  0.5066944  0.7415376  0.5980003  )
        14           O   tau(  14) = (  0.2584624  0.4933056  0.5980003  )
        15           O   tau(  15) = (  0.4985141  0.5014859  0.3071422  )
        16           O   tau(  16) = (  0.4985141  0.5014859  0.4960513  )
        17           Sr  tau(  17) = (  0.7482398  0.7454518  0.3044833  )
        18           Sr  tau(  18) = (  0.7482398  0.7454518  0.4987103  )
        19           Sr  tau(  19) = (  0.7441748  0.2558252  0.3052408  )
        20           Sr  tau(  20) = (  0.7441748  0.2558252  0.4979527  )
        21           O   tau(  21) = (  0.7322655  0.0078049  0.5980003  )
        22           O   tau(  22) = (  0.7558175  0.4996027  0.5980003  )
        23           O   tau(  23) = (  0.5003973  0.2441825  0.5980003  )
        24           O   tau(  24) = (  0.7527966  0.4978604  0.4015968  )
        25           O   tau(  25) = (  0.5021396  0.2472034  0.4015968  )
        26           O   tau(  26) = (  0.7517679  0.0000000  0.4015968  )
        27           O   tau(  27) = (  0.0114961  0.4948124  0.6896512  )
        28           O   tau(  28) = (  0.0048226  0.0077944  0.6999492  )
        29           Sr  tau(  29) = (  0.2545482  0.2517602  0.6972903  )
        30           O   tau(  30) = (  0.5048017  0.0015068  0.7027529  )
        31           Co  tau(  31) = (  0.0056869  0.5006215  0.4015968  )
        32           Co  tau(  32) = (  0.0065315  0.4997770  0.5980003  )
        33           Co  tau(  33) = (  0.0061999  0.0064171  0.4015968  )
        34           Co  tau(  34) = (  0.0000000  0.0126169  0.5980003  )
        35           O   tau(  35) = (  0.0114961  0.4948124  0.5063494  )
        36           O   tau(  36) = (  0.0114961  0.4948124  0.2968442  )
        37           O   tau(  37) = (  0.0051979  0.2673486  0.4015968  )
        38           O   tau(  38) = (  0.0130029  0.2478461  0.5980003  )
        39           O   tau(  39) = (  0.0048226  0.0077944  0.3071422  )
        40           O   tau(  40) = (  0.0048226  0.0077944  0.4960513  )
        41           Sr  tau(  41) = (  0.2545482  0.2517602  0.3044833  )
        42           Sr  tau(  42) = (  0.2545482  0.2517602  0.4987103  )
        43           Co  tau(  43) = (  0.4989925  0.0073160  0.5980003  )
        44           Co  tau(  44) = (  0.4998370  0.0064714  0.4015968  )
        45           O   tau(  45) = (  0.5048017  0.0015068  0.3099459  )
        46           O   tau(  46) = (  0.5048017  0.0015068  0.4932477  )
        47           O   tau(  47) = (  0.2621260  0.0059111  0.5980003  )
        48           O   tau(  48) = (  0.2591051  0.0041689  0.4015968  )
        49           O   tau(  49) = (  0.7108228  0.2843291  0.8534850  )
        50           H   tau(  50) = (  0.7108228  0.2843291  0.9026774  )

     number of k points=    10  Gaussian smearing, width (Ry)=  0.0700
                       cart. coord. in units 2pi/alat
        k(    1) = (   0.0000000   0.0000000   0.0000000), wk =   0.1250000
        k(    2) = (   0.0000000   0.2500000   0.0000000), wk =   0.2500000
        k(    3) = (   0.0000000  -0.5000000   0.0000000), wk =   0.1250000
        k(    4) = (   0.2500000   0.2500000   0.0000000), wk =   0.2500000
        k(    5) = (   0.2500000  -0.5000000   0.0000000), wk =   0.2500000
        k(    6) = (  -0.5000000  -0.5000000   0.0000000), wk =   0.1250000
        k(    7) = (   0.2500000   0.0000000   0.0000000), wk =   0.2500000
        k(    8) = (  -0.5000000   0.0000000   0.0000000), wk =   0.1250000
        k(    9) = (  -0.2500000   0.2500000   0.0000000), wk =   0.2500000
        k(   10) = (  -0.5000000   0.2500000   0.0000000), wk =   0.2500000

                       cryst. coord.
        k(    1) = (   0.0000000   0.0000000   0.0000000), wk =   0.1250000
        k(    2) = (   0.0000000   0.2500000   0.0000000), wk =   0.2500000
        k(    3) = (   0.0000000  -0.5000000   0.0000000), wk =   0.1250000
        k(    4) = (   0.2500000   0.2500000   0.0000000), wk =   0.2500000
        k(    5) = (   0.2500000  -0.5000000   0.0000000), wk =   0.2500000
        k(    6) = (  -0.5000000  -0.5000000   0.0000000), wk =   0.1250000
        k(    7) = (   0.2500000   0.0000000   0.0000000), wk =   0.2500000
        k(    8) = (  -0.5000000   0.0000000   0.0000000), wk =   0.1250000
        k(    9) = (  -0.2500000   0.2500000   0.0000000), wk =   0.2500000
        k(   10) = (  -0.5000000   0.2500000   0.0000000), wk =   0.2500000

     Dense  grid:  1474595 G-vectors     FFT dimensions: ( 108, 108, 270)

     Smooth grid:   521381 G-vectors     FFT dimensions: (  75,  75, 192)

     Dynamical RAM for                 wfc:      10.73 MB

     Dynamical RAM for     wfc (w. buffer):      64.38 MB

     Dynamical RAM for           str. fact:       3.75 MB

     Dynamical RAM for           local pot:       0.00 MB

     Dynamical RAM for          nlocal pot:      24.61 MB

     Dynamical RAM for                qrad:       7.03 MB

     Dynamical RAM for          rho,v,vnew:       6.02 MB

     Dynamical RAM for               rhoin:       2.01 MB

     Dynamical RAM for            rho*nmix:      15.00 MB

     Dynamical RAM for           G-vectors:       3.68 MB

     Dynamical RAM for          h,s,v(r/c):       1.35 MB

     Dynamical RAM for          <psi|beta>:       2.35 MB

     Dynamical RAM for                 psi:      21.46 MB

     Dynamical RAM for                hpsi:      21.46 MB

     Dynamical RAM for                spsi:      21.46 MB

     Dynamical RAM for      wfcinit/wfcrot:      34.49 MB

     Dynamical RAM for           addusdens:     101.26 MB

     Estimated static dynamical RAM per process >     121.50 MB

     Estimated max dynamical RAM per process >     237.76 MB

     Estimated total dynamical RAM >      10.79 GB

     Check: negative core charge=   -0.000004

     Initial potential from superposition of free atoms

     starting charge     422.5961, renormalised to     431.0000

     negative rho (up, down):  7.819E-01 0.000E+00
     Starting wfcs are  377 randomized atomic wfcs
     Checking if some PAW data can be deallocated... 
       PAW data deallocated on   19 nodes for type:  2

     total cpu time spent up to now is        9.1 secs

     Self-consistent Calculation

     iteration #  1     ecut=    60.00 Ry     beta= 0.15
     Davidson diagonalization with overlap

---- Real-time Memory Report at c_bands before calling an iterative solver
             0 MiB given to the printing process from OS
             0 MiB allocation reported by mallinfo(arena+hblkhd)
         23980 MiB available memory on the node where the printing process lives
------------------
     ethr =  1.00E-02,  avg # of iterations =  2.0

     negative rho (up, down):  7.715E-01 0.000E+00

     total cpu time spent up to now is       25.8 secs

     total energy              =   -4446.59214114 Ry
     estimated scf accuracy    <      44.36746906 Ry

     iteration #  2     ecut=    60.00 Ry     beta= 0.15
     Davidson diagonalization with overlap

---- Real-time Memory Report at c_bands before calling an iterative solver
             0 MiB given to the printing process from OS
             0 MiB allocation reported by mallinfo(arena+hblkhd)
         24256 MiB available memory on the node where the printing process lives
------------------
     ethr =  1.00E-02,  avg # of iterations =  1.0

     negative rho (up, down):  7.588E-01 0.000E+00

     total cpu time spent up to now is       40.1 secs

     total energy              =   -4443.46591081 Ry
     estimated scf accuracy    <      29.72309097 Ry

     iteration #  3     ecut=    60.00 Ry     beta= 0.15
     Davidson diagonalization with overlap

---- Real-time Memory Report at c_bands before calling an iterative solver
             0 MiB given to the printing process from OS
             0 MiB allocation reported by mallinfo(arena+hblkhd)
         23417 MiB available memory on the node where the printing process lives
------------------
     ethr =  6.90E-03,  avg # of iterations =  1.0

     negative rho (up, down):  7.557E-01 0.000E+00

     total cpu time spent up to now is       54.6 secs

     total energy              =   -4444.27365868 Ry
     estimated scf accuracy    <      26.53019482 Ry

     iteration #  4     ecut=    60.00 Ry     beta= 0.15
     Davidson diagonalization with overlap

---- Real-time Memory Report at c_bands before calling an iterative solver
             0 MiB given to the printing process from OS
             0 MiB allocation reported by mallinfo(arena+hblkhd)
         23385 MiB available memory on the node where the printing process lives
------------------
     ethr =  6.16E-03,  avg # of iterations =  1.0

     negative rho (up, down):  7.508E-01 0.000E+00

     total cpu time spent up to now is       69.3 secs

     total energy              =   -4443.14999631 Ry
     estimated scf accuracy    <      19.60505548 Ry

     iteration #  5     ecut=    60.00 Ry     beta= 0.15
     Davidson diagonalization with overlap

---- Real-time Memory Report at c_bands before calling an iterative solver
             0 MiB given to the printing process from OS
             0 MiB allocation reported by mallinfo(arena+hblkhd)
         23372 MiB available memory on the node where the printing process lives
------------------
     ethr =  4.55E-03,  avg # of iterations =  1.0

     negative rho (up, down):  7.393E-01 0.000E+00

     total cpu time spent up to now is       84.0 secs

     total energy              =   -4442.42320727 Ry
     estimated scf accuracy    <      12.86933879 Ry

     iteration #  6     ecut=    60.00 Ry     beta= 0.15
     Davidson diagonalization with overlap

---- Real-time Memory Report at c_bands before calling an iterative solver
             0 MiB given to the printing process from OS
             0 MiB allocation reported by mallinfo(arena+hblkhd)
         23351 MiB available memory on the node where the printing process lives
------------------
     ethr =  2.99E-03,  avg # of iterations =  1.0

     negative rho (up, down):  7.429E-01 0.000E+00

     total cpu time spent up to now is       98.7 secs

     total energy              =   -4442.83115172 Ry
     estimated scf accuracy    <       5.15309998 Ry

     iteration #  7     ecut=    60.00 Ry     beta= 0.15
     Davidson diagonalization with overlap

---- Real-time Memory Report at c_bands before calling an iterative solver
             0 MiB given to the printing process from OS
             0 MiB allocation reported by mallinfo(arena+hblkhd)
         23334 MiB available memory on the node where the printing process lives
------------------
     ethr =  1.20E-03,  avg # of iterations =  1.7

     negative rho (up, down):  7.648E-01 0.000E+00

     total cpu time spent up to now is      113.7 secs

     total energy              =   -4441.57270376 Ry
     estimated scf accuracy    <       4.02299922 Ry

     iteration #  8     ecut=    60.00 Ry     beta= 0.15
     Davidson diagonalization with overlap

---- Real-time Memory Report at c_bands before calling an iterative solver
             0 MiB given to the printing process from OS
             0 MiB allocation reported by mallinfo(arena+hblkhd)
         23316 MiB available memory on the node where the printing process lives
------------------
     ethr =  9.33E-04,  avg # of iterations =  4.9

     negative rho (up, down):  7.741E-01 0.000E+00

     total cpu time spent up to now is      133.2 secs

     total energy              =   -4441.16072580 Ry
     estimated scf accuracy    <      25.06830151 Ry

     iteration #  9     ecut=    60.00 Ry     beta= 0.15
     Davidson diagonalization with overlap

---- Real-time Memory Report at c_bands before calling an iterative solver
             0 MiB given to the printing process from OS
             0 MiB allocation reported by mallinfo(arena+hblkhd)
         23168 MiB available memory on the node where the printing process lives
------------------
     ethr =  9.33E-04,  avg # of iterations = 10.3

     negative rho (up, down):  7.708E-01 0.000E+00

     total cpu time spent up to now is      155.5 secs

     total energy              =   -4441.73247683 Ry
     estimated scf accuracy    <       3.99006227 Ry

     iteration # 10     ecut=    60.00 Ry     beta= 0.15
     Davidson diagonalization with overlap

---- Real-time Memory Report at c_bands before calling an iterative solver
             0 MiB given to the printing process from OS
             0 MiB allocation reported by mallinfo(arena+hblkhd)
         22774 MiB available memory on the node where the printing process lives
------------------
     ethr =  9.26E-04,  avg # of iterations =  1.1

     negative rho (up, down):  7.752E-01 0.000E+00

     total cpu time spent up to now is      170.3 secs

     total energy              =   -4441.87735519 Ry
     estimated scf accuracy    <       1.59428811 Ry

     iteration # 11     ecut=    60.00 Ry     beta= 0.15
     Davidson diagonalization with overlap

---- Real-time Memory Report at c_bands before calling an iterative solver
             0 MiB given to the printing process from OS
             0 MiB allocation reported by mallinfo(arena+hblkhd)
         22748 MiB available memory on the node where the printing process lives
------------------
     ethr =  3.70E-04,  avg # of iterations =  2.0

     negative rho (up, down):  8.024E-01 0.000E+00

     total cpu time spent up to now is      187.2 secs

     total energy              =   -4441.77835287 Ry
     estimated scf accuracy    <       1.15444301 Ry

     iteration # 12     ecut=    60.00 Ry     beta= 0.15
     Davidson diagonalization with overlap

---- Real-time Memory Report at c_bands before calling an iterative solver
             0 MiB given to the printing process from OS
             0 MiB allocation reported by mallinfo(arena+hblkhd)
         22764 MiB available memory on the node where the printing process lives
------------------
     ethr =  2.68E-04,  avg # of iterations =  8.7

     negative rho (up, down):  8.108E-01 0.000E+00

     total cpu time spent up to now is      208.1 secs

     total energy              =   -4441.88289726 Ry
     estimated scf accuracy    <       1.33843912 Ry

     iteration # 13     ecut=    60.00 Ry     beta= 0.15
     Davidson diagonalization with overlap

---- Real-time Memory Report at c_bands before calling an iterative solver
             0 MiB given to the printing process from OS
             0 MiB allocation reported by mallinfo(arena+hblkhd)
         22726 MiB available memory on the node where the printing process lives
------------------
     ethr =  2.68E-04,  avg # of iterations =  4.6

     negative rho (up, down):  8.188E-01 0.000E+00

     total cpu time spent up to now is      226.4 secs

     total energy              =   -4441.83923343 Ry
     estimated scf accuracy    <       0.85873747 Ry

     iteration # 14     ecut=    60.00 Ry     beta= 0.15
     Davidson diagonalization with overlap

---- Real-time Memory Report at c_bands before calling an iterative solver
             0 MiB given to the printing process from OS
             0 MiB allocation reported by mallinfo(arena+hblkhd)
         22716 MiB available memory on the node where the printing process lives
------------------
     ethr =  1.99E-04,  avg # of iterations =  3.6

     negative rho (up, down):  8.202E-01 0.000E+00

     total cpu time spent up to now is      244.3 secs

     total energy              =   -4441.78016747 Ry
     estimated scf accuracy    <       0.48238935 Ry

     iteration # 15     ecut=    60.00 Ry     beta= 0.15
     Davidson diagonalization with overlap

---- Real-time Memory Report at c_bands before calling an iterative solver
             0 MiB given to the printing process from OS
             0 MiB allocation reported by mallinfo(arena+hblkhd)
         22714 MiB available memory on the node where the printing process lives
------------------
     ethr =  1.12E-04,  avg # of iterations =  7.1

     negative rho (up, down):  8.278E-01 0.000E+00

     total cpu time spent up to now is      264.4 secs

     total energy              =   -4441.74424198 Ry
     estimated scf accuracy    <       0.35117090 Ry

     iteration # 16     ecut=    60.00 Ry     beta= 0.15
     Davidson diagonalization with overlap

---- Real-time Memory Report at c_bands before calling an iterative solver
             0 MiB given to the printing process from OS
             0 MiB allocation reported by mallinfo(arena+hblkhd)
         22714 MiB available memory on the node where the printing process lives
------------------
     ethr =  8.15E-05,  avg # of iterations =  9.8

     negative rho (up, down):  8.296E-01 0.000E+00

     total cpu time spent up to now is      286.3 secs

     total energy              =   -4441.74422969 Ry
     estimated scf accuracy    <       0.35329139 Ry

     iteration # 17     ecut=    60.00 Ry     beta= 0.15
     Davidson diagonalization with overlap

---- Real-time Memory Report at c_bands before calling an iterative solver
             0 MiB given to the printing process from OS
             0 MiB allocation reported by mallinfo(arena+hblkhd)
         22707 MiB available memory on the node where the printing process lives
------------------
     ethr =  8.15E-05,  avg # of iterations =  1.2

     negative rho (up, down):  8.201E-01 0.000E+00

     total cpu time spent up to now is      302.3 secs

     total energy              =   -4441.70704987 Ry
     estimated scf accuracy    <       0.26999867 Ry

     iteration # 18     ecut=    60.00 Ry     beta= 0.15
     Davidson diagonalization with overlap

---- Real-time Memory Report at c_bands before calling an iterative solver
             0 MiB given to the printing process from OS
             0 MiB allocation reported by mallinfo(arena+hblkhd)
         22717 MiB available memory on the node where the printing process lives
------------------
     c_bands:  1 eigenvalues not converged
     ethr =  6.26E-05,  avg # of iterations = 11.8

     negative rho (up, down):  8.240E-01 0.000E+00

     total cpu time spent up to now is      325.0 secs

     total energy              =   -4441.69325991 Ry
     estimated scf accuracy    <       0.15912981 Ry

     iteration # 19     ecut=    60.00 Ry     beta= 0.15
     Davidson diagonalization with overlap

---- Real-time Memory Report at c_bands before calling an iterative solver
             0 MiB given to the printing process from OS
             0 MiB allocation reported by mallinfo(arena+hblkhd)
         22697 MiB available memory on the node where the printing process lives
------------------
     ethr =  3.69E-05,  avg # of iterations =  9.5

     negative rho (up, down):  8.263E-01 0.000E+00

     total cpu time spent up to now is      346.6 secs

     total energy              =   -4441.68204029 Ry
     estimated scf accuracy    <       0.10856263 Ry

     iteration # 20     ecut=    60.00 Ry     beta= 0.15
     Davidson diagonalization with overlap

---- Real-time Memory Report at c_bands before calling an iterative solver
             0 MiB given to the printing process from OS
             0 MiB allocation reported by mallinfo(arena+hblkhd)
         22638 MiB available memory on the node where the printing process lives
------------------
     ethr =  2.52E-05,  avg # of iterations =  1.9

     negative rho (up, down):  8.188E-01 0.000E+00

     total cpu time spent up to now is      363.2 secs

     total energy              =   -4441.68265913 Ry
     estimated scf accuracy    <       0.04596842 Ry

     iteration # 21     ecut=    60.00 Ry     beta= 0.15
     Davidson diagonalization with overlap

---- Real-time Memory Report at c_bands before calling an iterative solver
             0 MiB given to the printing process from OS
             0 MiB allocation reported by mallinfo(arena+hblkhd)
         22587 MiB available memory on the node where the printing process lives
------------------
     c_bands:  1 eigenvalues not converged
     ethr =  1.07E-05,  avg # of iterations = 12.6

     negative rho (up, down):  8.141E-01 0.000E+00

     total cpu time spent up to now is      385.9 secs

     total energy              =   -4441.68189101 Ry
     estimated scf accuracy    <       0.02968694 Ry

     iteration # 22     ecut=    60.00 Ry     beta= 0.15
     Davidson diagonalization with overlap

---- Real-time Memory Report at c_bands before calling an iterative solver
             0 MiB given to the printing process from OS
             0 MiB allocation reported by mallinfo(arena+hblkhd)
         22533 MiB available memory on the node where the printing process lives
------------------
     ethr =  6.89E-06,  avg # of iterations =  5.1

     negative rho (up, down):  8.145E-01 0.000E+00

     total cpu time spent up to now is      404.3 secs

     total energy              =   -4441.68018050 Ry
     estimated scf accuracy    <       0.02193054 Ry

     iteration # 23     ecut=    60.00 Ry     beta= 0.15
     Davidson diagonalization with overlap

---- Real-time Memory Report at c_bands before calling an iterative solver
             0 MiB given to the printing process from OS
             0 MiB allocation reported by mallinfo(arena+hblkhd)
         22483 MiB available memory on the node where the printing process lives
------------------
     c_bands:  1 eigenvalues not converged
     ethr =  5.09E-06,  avg # of iterations = 11.8

     negative rho (up, down):  8.073E-01 0.000E+00

     total cpu time spent up to now is      426.3 secs

     total energy              =   -4441.67719444 Ry
     estimated scf accuracy    <       0.01651083 Ry

     iteration # 24     ecut=    60.00 Ry     beta= 0.15
     Davidson diagonalization with overlap

---- Real-time Memory Report at c_bands before calling an iterative solver
             0 MiB given to the printing process from OS
             0 MiB allocation reported by mallinfo(arena+hblkhd)
         22507 MiB available memory on the node where the printing process lives
------------------
     ethr =  3.83E-06,  avg # of iterations = 11.4

     negative rho (up, down):  8.050E-01 0.000E+00

     total cpu time spent up to now is      448.6 secs

     total energy              =   -4441.67654047 Ry
     estimated scf accuracy    <       0.00906073 Ry

     iteration # 25     ecut=    60.00 Ry     beta= 0.15
     Davidson diagonalization with overlap

---- Real-time Memory Report at c_bands before calling an iterative solver
             0 MiB given to the printing process from OS
             0 MiB allocation reported by mallinfo(arena+hblkhd)
         22490 MiB available memory on the node where the printing process lives
------------------
     ethr =  2.10E-06,  avg # of iterations =  5.7

     negative rho (up, down):  7.993E-01 0.000E+00

     total cpu time spent up to now is      467.8 secs

     total energy              =   -4441.67563182 Ry
     estimated scf accuracy    <       0.00410747 Ry

     iteration # 26     ecut=    60.00 Ry     beta= 0.15
     Davidson diagonalization with overlap

---- Real-time Memory Report at c_bands before calling an iterative solver
             0 MiB given to the printing process from OS
             0 MiB allocation reported by mallinfo(arena+hblkhd)
         22459 MiB available memory on the node where the printing process lives
------------------
     c_bands:  1 eigenvalues not converged
     c_bands:  1 eigenvalues not converged
     ethr =  9.53E-07,  avg # of iterations = 12.7

     negative rho (up, down):  8.000E-01 0.000E+00

     total cpu time spent up to now is      491.3 secs

     total energy              =   -4441.67579031 Ry
     estimated scf accuracy    <       0.00178387 Ry

     iteration # 27     ecut=    60.00 Ry     beta= 0.15
     Davidson diagonalization with overlap

---- Real-time Memory Report at c_bands before calling an iterative solver
             0 MiB given to the printing process from OS
             0 MiB allocation reported by mallinfo(arena+hblkhd)
         22378 MiB available memory on the node where the printing process lives
------------------
     ethr =  4.14E-07,  avg # of iterations =  9.8

     negative rho (up, down):  7.965E-01 0.000E+00

     total cpu time spent up to now is      511.9 secs

     total energy              =   -4441.67571992 Ry
     estimated scf accuracy    <       0.00084531 Ry

     iteration # 28     ecut=    60.00 Ry     beta= 0.15
     Davidson diagonalization with overlap

---- Real-time Memory Report at c_bands before calling an iterative solver
             0 MiB given to the printing process from OS
             0 MiB allocation reported by mallinfo(arena+hblkhd)
         22398 MiB available memory on the node where the printing process lives
------------------
     ethr =  1.96E-07,  avg # of iterations =  9.5

     negative rho (up, down):  7.948E-01 0.000E+00

     total cpu time spent up to now is      534.6 secs

     total energy              =   -4441.67577098 Ry
     estimated scf accuracy    <       0.00048009 Ry

     iteration # 29     ecut=    60.00 Ry     beta= 0.15
     Davidson diagonalization with overlap

---- Real-time Memory Report at c_bands before calling an iterative solver
             0 MiB given to the printing process from OS
             0 MiB allocation reported by mallinfo(arena+hblkhd)
         22393 MiB available memory on the node where the printing process lives
------------------
     c_bands:  1 eigenvalues not converged
     ethr =  1.11E-07,  avg # of iterations =  5.8

     negative rho (up, down):  7.942E-01 0.000E+00

     total cpu time spent up to now is      554.0 secs

     total energy              =   -4441.67578665 Ry
     estimated scf accuracy    <       0.00021050 Ry

     iteration # 30     ecut=    60.00 Ry     beta= 0.15
     Davidson diagonalization with overlap

---- Real-time Memory Report at c_bands before calling an iterative solver
             0 MiB given to the printing process from OS
             0 MiB allocation reported by mallinfo(arena+hblkhd)
         22387 MiB available memory on the node where the printing process lives
------------------
     ethr =  4.88E-08,  avg # of iterations =  2.4

     negative rho (up, down):  7.934E-01 0.000E+00

     total cpu time spent up to now is      571.5 secs

     total energy              =   -4441.67579675 Ry
     estimated scf accuracy    <       0.00008717 Ry

     iteration # 31     ecut=    60.00 Ry     beta= 0.15
     Davidson diagonalization with overlap

---- Real-time Memory Report at c_bands before calling an iterative solver
             0 MiB given to the printing process from OS
             0 MiB allocation reported by mallinfo(arena+hblkhd)
         22352 MiB available memory on the node where the printing process lives
------------------
     ethr =  2.02E-08,  avg # of iterations =  2.4

     negative rho (up, down):  7.928E-01 0.000E+00

     total cpu time spent up to now is      588.7 secs

     total energy              =   -4441.67580391 Ry
     estimated scf accuracy    <       0.00004588 Ry

     iteration # 32     ecut=    60.00 Ry     beta= 0.15
     Davidson diagonalization with overlap

---- Real-time Memory Report at c_bands before calling an iterative solver
             0 MiB given to the printing process from OS
             0 MiB allocation reported by mallinfo(arena+hblkhd)
         22353 MiB available memory on the node where the printing process lives
------------------
     ethr =  1.06E-08,  avg # of iterations =  2.7

     negative rho (up, down):  7.925E-01 0.000E+00

     total cpu time spent up to now is      606.1 secs

     total energy              =   -4441.67580035 Ry
     estimated scf accuracy    <       0.00002859 Ry

     iteration # 33     ecut=    60.00 Ry     beta= 0.15
     Davidson diagonalization with overlap

---- Real-time Memory Report at c_bands before calling an iterative solver
             0 MiB given to the printing process from OS
             0 MiB allocation reported by mallinfo(arena+hblkhd)
         22354 MiB available memory on the node where the printing process lives
------------------
     ethr =  6.63E-09,  avg # of iterations =  5.0

     negative rho (up, down):  7.923E-01 0.000E+00

     total cpu time spent up to now is      624.7 secs

     total energy              =   -4441.67580446 Ry
     estimated scf accuracy    <       0.00001562 Ry

     iteration # 34     ecut=    60.00 Ry     beta= 0.15
     Davidson diagonalization with overlap

---- Real-time Memory Report at c_bands before calling an iterative solver
             0 MiB given to the printing process from OS
             0 MiB allocation reported by mallinfo(arena+hblkhd)
         22358 MiB available memory on the node where the printing process lives
------------------
     ethr =  3.62E-09,  avg # of iterations =  2.1

     negative rho (up, down):  7.922E-01 0.000E+00

     total cpu time spent up to now is      642.0 secs

     total energy              =   -4441.67580855 Ry
     estimated scf accuracy    <       0.00000714 Ry

     iteration # 35     ecut=    60.00 Ry     beta= 0.15
     Davidson diagonalization with overlap

---- Real-time Memory Report at c_bands before calling an iterative solver
             0 MiB given to the printing process from OS
             0 MiB allocation reported by mallinfo(arena+hblkhd)
         22364 MiB available memory on the node where the printing process lives
------------------
     ethr =  1.66E-09,  avg # of iterations =  2.5

     negative rho (up, down):  7.923E-01 0.000E+00

     total cpu time spent up to now is      659.6 secs

     total energy              =   -4441.67581022 Ry
     estimated scf accuracy    <       0.00000508 Ry

     iteration # 36     ecut=    60.00 Ry     beta= 0.15
     Davidson diagonalization with overlap

---- Real-time Memory Report at c_bands before calling an iterative solver
             0 MiB given to the printing process from OS
             0 MiB allocation reported by mallinfo(arena+hblkhd)
         22360 MiB available memory on the node where the printing process lives
------------------
     ethr =  1.18E-09,  avg # of iterations =  2.2

     negative rho (up, down):  7.924E-01 0.000E+00

     total cpu time spent up to now is      676.5 secs

     total energy              =   -4441.67581101 Ry
     estimated scf accuracy    <       0.00000393 Ry

     iteration # 37     ecut=    60.00 Ry     beta= 0.15
     Davidson diagonalization with overlap

---- Real-time Memory Report at c_bands before calling an iterative solver
             0 MiB given to the printing process from OS
             0 MiB allocation reported by mallinfo(arena+hblkhd)
         22368 MiB available memory on the node where the printing process lives
------------------
     ethr =  9.12E-10,  avg # of iterations =  2.4

     negative rho (up, down):  7.925E-01 0.000E+00

     total cpu time spent up to now is      693.4 secs

     total energy              =   -4441.67581131 Ry
     estimated scf accuracy    <       0.00000273 Ry

     iteration # 38     ecut=    60.00 Ry     beta= 0.15
     Davidson diagonalization with overlap

---- Real-time Memory Report at c_bands before calling an iterative solver
             0 MiB given to the printing process from OS
             0 MiB allocation reported by mallinfo(arena+hblkhd)
         22365 MiB available memory on the node where the printing process lives
------------------
     ethr =  6.33E-10,  avg # of iterations =  2.9

     negative rho (up, down):  7.925E-01 0.000E+00

     total cpu time spent up to now is      710.4 secs

     total energy              =   -4441.67581125 Ry
     estimated scf accuracy    <       0.00000179 Ry

     iteration # 39     ecut=    60.00 Ry     beta= 0.15
     Davidson diagonalization with overlap

---- Real-time Memory Report at c_bands before calling an iterative solver
             0 MiB given to the printing process from OS
             0 MiB allocation reported by mallinfo(arena+hblkhd)
         22370 MiB available memory on the node where the printing process lives
------------------
     ethr =  4.15E-10,  avg # of iterations =  2.1

     negative rho (up, down):  7.926E-01 0.000E+00

     total cpu time spent up to now is      727.1 secs

     total energy              =   -4441.67581103 Ry
     estimated scf accuracy    <       0.00000124 Ry

     iteration # 40     ecut=    60.00 Ry     beta= 0.15
     Davidson diagonalization with overlap

---- Real-time Memory Report at c_bands before calling an iterative solver
             0 MiB given to the printing process from OS
             0 MiB allocation reported by mallinfo(arena+hblkhd)
         22375 MiB available memory on the node where the printing process lives
------------------
     ethr =  2.88E-10,  avg # of iterations =  2.2

     negative rho (up, down):  7.926E-01 0.000E+00

     total cpu time spent up to now is      743.9 secs

     total energy              =   -4441.67581101 Ry
     estimated scf accuracy    <       0.00000055 Ry

     iteration # 41     ecut=    60.00 Ry     beta= 0.15
     Davidson diagonalization with overlap

---- Real-time Memory Report at c_bands before calling an iterative solver
             0 MiB given to the printing process from OS
             0 MiB allocation reported by mallinfo(arena+hblkhd)
         22376 MiB available memory on the node where the printing process lives
------------------
     ethr =  1.27E-10,  avg # of iterations =  2.2

     negative rho (up, down):  7.926E-01 0.000E+00

     total cpu time spent up to now is      760.7 secs

     total energy              =   -4441.67581105 Ry
     estimated scf accuracy    <       0.00000031 Ry

     iteration # 42     ecut=    60.00 Ry     beta= 0.15
     Davidson diagonalization with overlap

---- Real-time Memory Report at c_bands before calling an iterative solver
             0 MiB given to the printing process from OS
             0 MiB allocation reported by mallinfo(arena+hblkhd)
         22405 MiB available memory on the node where the printing process lives
------------------
     ethr =  7.26E-11,  avg # of iterations =  2.2

     negative rho (up, down):  7.926E-01 0.000E+00

     total cpu time spent up to now is      777.7 secs

     total energy              =   -4441.67581112 Ry
     estimated scf accuracy    <       0.00000014 Ry

     iteration # 43     ecut=    60.00 Ry     beta= 0.15
     Davidson diagonalization with overlap

---- Real-time Memory Report at c_bands before calling an iterative solver
             0 MiB given to the printing process from OS
             0 MiB allocation reported by mallinfo(arena+hblkhd)
         22394 MiB available memory on the node where the printing process lives
------------------
     ethr =  3.34E-11,  avg # of iterations =  2.5

     negative rho (up, down):  7.926E-01 0.000E+00

     total cpu time spent up to now is      794.7 secs

     total energy              =   -4441.67581116 Ry
     estimated scf accuracy    <       0.00000011 Ry

     iteration # 44     ecut=    60.00 Ry     beta= 0.15
     Davidson diagonalization with overlap

---- Real-time Memory Report at c_bands before calling an iterative solver
             0 MiB given to the printing process from OS
             0 MiB allocation reported by mallinfo(arena+hblkhd)
         22393 MiB available memory on the node where the printing process lives
------------------
     ethr =  2.58E-11,  avg # of iterations =  2.6

     negative rho (up, down):  7.925E-01 0.000E+00

     total cpu time spent up to now is      811.8 secs

     total energy              =   -4441.67581117 Ry
     estimated scf accuracy    <       0.00000006 Ry

     iteration # 45     ecut=    60.00 Ry     beta= 0.15
     Davidson diagonalization with overlap

---- Real-time Memory Report at c_bands before calling an iterative solver
             0 MiB given to the printing process from OS
             0 MiB allocation reported by mallinfo(arena+hblkhd)
         22397 MiB available memory on the node where the printing process lives
------------------
     ethr =  1.33E-11,  avg # of iterations =  3.9

     negative rho (up, down):  7.925E-01 0.000E+00

     total cpu time spent up to now is      830.5 secs

     total energy              =   -4441.67581118 Ry
     estimated scf accuracy    <       0.00000002 Ry

     iteration # 46     ecut=    60.00 Ry     beta= 0.15
     Davidson diagonalization with overlap

---- Real-time Memory Report at c_bands before calling an iterative solver
             0 MiB given to the printing process from OS
             0 MiB allocation reported by mallinfo(arena+hblkhd)
         22390 MiB available memory on the node where the printing process lives
------------------
     ethr =  4.84E-12,  avg # of iterations =  2.1

     negative rho (up, down):  7.925E-01 0.000E+00

     total cpu time spent up to now is      847.5 secs

     total energy              =   -4441.67581118 Ry
     estimated scf accuracy    <       0.00000001 Ry

     iteration # 47     ecut=    60.00 Ry     beta= 0.15
     Davidson diagonalization with overlap

---- Real-time Memory Report at c_bands before calling an iterative solver
             0 MiB given to the printing process from OS
             0 MiB allocation reported by mallinfo(arena+hblkhd)
         22387 MiB available memory on the node where the printing process lives
------------------
     ethr =  2.40E-12,  avg # of iterations =  2.2

     negative rho (up, down):  7.925E-01 0.000E+00

     total cpu time spent up to now is      864.0 secs

     End of self-consistent calculation

          k = 0.0000 0.0000 0.0000 ( 65197 PWs)   bands (ev):

   -92.7065 -92.6562 -92.5605 -92.5159 -92.4570 -92.4133 -92.3954 -92.2755
   -56.0600 -56.0431 -55.9178 -55.9072 -55.9019 -55.8940 -55.8590 -55.8297
   -55.8140 -55.8130 -55.8071 -55.7633 -55.7472 -55.7077 -55.6870 -55.6573
   -55.6512 -55.6015 -55.6011 -55.5984 -55.5899 -55.5503 -55.5258 -55.4413
   -31.2836 -31.2644 -31.1223 -31.0807 -31.0357 -30.9427 -30.7703 -30.5818
   -29.8522 -29.8108 -29.7831 -29.6748 -15.0865 -15.0397 -14.9596 -14.8307
   -14.6326 -14.5123 -14.2223 -14.2041 -14.1749 -14.1255 -14.0801 -14.0652
   -14.0575 -14.0406 -14.0261 -14.0003 -13.9623 -13.9349 -13.7810 -13.5997
   -13.5690 -13.5388 -13.5037 -13.4911 -13.4319 -13.3951 -13.3282 -13.2558
   -13.1186 -13.1101 -13.1055 -13.0806 -13.0640 -13.0589 -13.0075 -12.9955
   -12.9822 -12.9557 -12.9287 -12.9077 -12.8761 -12.8584 -12.8398 -12.7367
   -12.7270 -12.7182 -12.5535 -12.5277 -12.4700 -12.3481 -12.2024 -11.9814
   -11.9110 -11.8655 -11.7921 -11.7806 -11.7580 -11.7406 -11.6768 -11.6589
   -11.6254 -11.5947 -11.4830 -11.4042 -11.4006  -2.9456  -2.7139  -2.4844
    -2.3368  -2.2743  -2.1329  -1.8251  -1.8107  -1.7920  -1.7065  -1.6876
    -1.6190  -1.6025  -1.5618  -1.5188  -1.3467  -1.2959  -1.1106  -1.0792
    -0.9360  -0.9209  -0.8740  -0.8514  -0.8078  -0.7915  -0.7392  -0.7111
    -0.6337  -0.6246  -0.5514  -0.4189  -0.4073  -0.3770  -0.2957  -0.2724
    -0.2588  -0.2055  -0.1321  -0.0700  -0.0334  -0.0032   0.0691   0.1275
     0.1770   0.2002   0.2110   0.4694   0.4882   0.6599   0.7238   0.7927
     0.8368   0.9261   0.9358   0.9541   1.0212   1.0471   1.0829   1.1389
     1.2694   1.3285   1.3495   1.3720   1.3878   1.4493   1.5163   1.6286
     1.6433   1.7070   1.7154   1.7597   1.7749   1.7856   1.8435   1.9029
     1.9136   1.9562   1.9841   2.0257   2.1566   2.2462   2.2835   2.2997
     2.4278   2.4366   2.4598   2.4692   2.5074   2.5163   2.6232   2.6556
     2.6808   2.6995   2.7141   2.7970   2.9020   2.9364   2.9466   2.9523
     3.0203   3.0251   3.0487   3.0560   3.0650   3.0767   3.0851   3.0986
     3.1046   3.1171   3.1243   3.1320   3.1519   3.1732   3.1779   3.1904
     3.2179   3.3310   3.4086   4.1021   4.4291   4.7648   4.8606   5.0439
     5.8074   5.9384   5.9805   6.0006   6.3093   6.3556   6.4713   6.4859
     6.7369   7.0011   7.0916   7.3134   7.4235   7.6509   7.6570   7.6970
     7.7681   7.9053   8.0212   8.0266   8.1064   8.1855   8.4876   8.5549
     8.6883   8.7529   8.8657

     occupation numbers 
     1.0000   1.0000   1.0000   1.0000   1.0000   1.0000   1.0000   1.0000
     1.0000   1.0000   1.0000   1.0000   1.0000   1.0000   1.0000   1.0000
     1.0000   1.0000   1.0000   1.0000   1.0000   1.0000   1.0000   1.0000
     1.0000   1.0000   1.0000   1.0000   1.0000   1.0000   1.0000   1.0000
     1.0000   1.0000   1.0000   1.0000   1.0000   1.0000   1.0000   1.0000
     1.0000   1.0000   1.0000   1.0000   1.0000   1.0000   1.0000   1.0000
     1.0000   1.0000   1.0000   1.0000   1.0000   1.0000   1.0000   1.0000
     1.0000   1.0000   1.0000   1.0000   1.0000   1.0000   1.0000   1.0000
     1.0000   1.0000   1.0000   1.0000   1.0000   1.0000   1.0000   1.0000
     1.0000   1.0000   1.0000   1.0000   1.0000   1.0000   1.0000   1.0000
     1.0000   1.0000   1.0000   1.0000   1.0000   1.0000   1.0000   1.0000
     1.0000   1.0000   1.0000   1.0000   1.0000   1.0000   1.0000   1.0000
     1.0000   1.0000   1.0000   1.0000   1.0000   1.0000   1.0000   1.0000
     1.0000   1.0000   1.0000   1.0000   1.0000   1.0000   1.0000   1.0000
     1.0000   1.0000   1.0000   1.0000   1.0000   1.0000   1.0000   1.0000
     1.0000   1.0000   1.0000   1.0000   1.0000   1.0000   1.0000   1.0000
     1.0000   1.0000   1.0000   1.0000   1.0000   1.0000   1.0000   1.0000
     1.0000   1.0000   1.0000   1.0000   1.0000   1.0000   1.0000   1.0000
     1.0000   1.0000   1.0000   1.0000   1.0000   1.0000   1.0000   1.0000
     1.0000   1.0000   1.0000   1.0000   1.0000   1.0000   0.9999   0.9999
     0.9999   0.9998   0.9998   0.9998   0.9997   0.9996   0.9996   0.9994
     0.9988   0.9985   0.9983   0.9981   0.9980   0.9973   0.9963   0.9940
     0.9936   0.9917   0.9914   0.9898   0.9892   0.9887   0.9859   0.9824
     0.9817   0.9787   0.9765   0.9728   0.9581   0.9448   0.9383   0.9354
     0.9077   0.9055   0.8996   0.8971   0.8866   0.8840   0.8500   0.8385
     0.8292   0.8221   0.8163   0.7818   0.7332   0.7162   0.7110   0.7081
     0.6725   0.6699   0.6572   0.6532   0.6482   0.6417   0.6370   0.6295
     0.6261   0.6191   0.6150   0.6106   0.5992   0.5870   0.5842   0.5770
     0.5610   0.4942   0.4484   0.1231   0.0500   0.0160   0.0111   0.0053
     0.0001   0.0001   0.0000   0.0000   0.0000   0.0000   0.0000   0.0000
     0.0000   0.0000   0.0000   0.0000   0.0000   0.0000   0.0000   0.0000
     0.0000   0.0000   0.0000   0.0000   0.0000   0.0000   0.0000   0.0000
     0.0000   0.0000   0.0000

          k = 0.0000 0.2500 0.0000 ( 65257 PWs)   bands (ev):

   -92.7065 -92.6562 -92.5605 -92.5159 -92.4570 -92.4133 -92.3954 -92.2755
   -56.0600 -56.0431 -55.9178 -55.9072 -55.9019 -55.8940 -55.8590 -55.8297
   -55.8140 -55.8130 -55.8071 -55.7633 -55.7472 -55.7077 -55.6870 -55.6573
   -55.6512 -55.6015 -55.6011 -55.5984 -55.5899 -55.5503 -55.5258 -55.4413
   -31.2834 -31.2643 -31.1225 -31.0806 -31.0358 -30.9425 -30.7705 -30.5819
   -29.8516 -29.8105 -29.7838 -29.6751 -15.0501 -15.0135 -14.9343 -14.8012
   -14.6757 -14.5010 -14.3680 -14.1893 -14.1531 -14.1339 -14.1003 -14.0473
   -14.0359 -14.0236 -14.0067 -13.9972 -13.9335 -13.8535 -13.8129 -13.6527
   -13.6216 -13.5818 -13.5443 -13.4945 -13.4549 -13.3895 -13.3478 -13.3131
   -13.2131 -13.1595 -13.1519 -13.1148 -13.1000 -13.0498 -12.9885 -12.9649
   -12.9394 -12.9100 -12.8846 -12.8714 -12.8639 -12.8472 -12.8033 -12.7207
   -12.6070 -12.5727 -12.5292 -12.4853 -12.4679 -12.4093 -12.2535 -12.0334
   -11.9718 -11.8311 -11.7890 -11.7597 -11.7325 -11.7163 -11.6687 -11.6571
   -11.6341 -11.6009 -11.4971 -11.4456 -11.4353  -2.8102  -2.5896  -2.4517
    -2.2698  -2.2261  -2.0627  -1.8430  -1.7591  -1.7461  -1.6874  -1.5850
    -1.5700  -1.5367  -1.5088  -1.4652  -1.3167  -1.2568  -1.1368  -1.1257
    -1.0494  -1.0399  -0.9360  -0.9063  -0.8446  -0.8197  -0.7819  -0.7182
    -0.6906  -0.6584  -0.6243  -0.6078  -0.5760  -0.5031  -0.4530  -0.3833
    -0.2710  -0.2520  -0.2093  -0.0904  -0.0453   0.0063   0.0583   0.1163
     0.1288   0.1579   0.2197   0.5199   0.6074   0.6412   0.7261   0.7740
     0.7963   0.9061   0.9254   1.0273   1.0481   1.0745   1.1869   1.2827
     1.3053   1.3309   1.3470   1.3712   1.4318   1.4594   1.4891   1.5338
     1.5712   1.6043   1.6925   1.7237   1.7627   1.8092   1.8674   1.9186
     1.9362   1.9541   1.9736   2.0756   2.1959   2.2673   2.2841   2.3552
     2.3987   2.4261   2.4405   2.4518   2.4636   2.5162   2.5500   2.6375
     2.6766   2.6924   2.8599   2.8819   2.9162   2.9388   2.9538   2.9624
     2.9694   2.9780   3.0083   3.0100   3.0283   3.0328   3.0433   3.0627
     3.0735   3.0816   3.1030   3.1134   3.1185   3.1545   3.1709   3.2307
     3.6075   3.6317   3.8741   4.2935   4.4240   4.7093   5.0145   5.0637
     5.6404   5.8036   5.9596   5.9833   6.0798   6.1013   6.1787   6.5916
     6.8398   7.0967   7.1551   7.3244   7.4791   7.4947   7.6379   7.6666
     7.8650   7.9424   8.0215   8.1818   8.3669   8.3908   8.4362   8.4827
     8.6083   8.8439   8.9459

     occupation numbers 
     1.0000   1.0000   1.0000   1.0000   1.0000   1.0000   1.0000   1.0000
     1.0000   1.0000   1.0000   1.0000   1.0000   1.0000   1.0000   1.0000
     1.0000   1.0000   1.0000   1.0000   1.0000   1.0000   1.0000   1.0000
     1.0000   1.0000   1.0000   1.0000   1.0000   1.0000   1.0000   1.0000
     1.0000   1.0000   1.0000   1.0000   1.0000   1.0000   1.0000   1.0000
     1.0000   1.0000   1.0000   1.0000   1.0000   1.0000   1.0000   1.0000
     1.0000   1.0000   1.0000   1.0000   1.0000   1.0000   1.0000   1.0000
     1.0000   1.0000   1.0000   1.0000   1.0000   1.0000   1.0000   1.0000
     1.0000   1.0000   1.0000   1.0000   1.0000   1.0000   1.0000   1.0000
     1.0000   1.0000   1.0000   1.0000   1.0000   1.0000   1.0000   1.0000
     1.0000   1.0000   1.0000   1.0000   1.0000   1.0000   1.0000   1.0000
     1.0000   1.0000   1.0000   1.0000   1.0000   1.0000   1.0000   1.0000
     1.0000   1.0000   1.0000   1.0000   1.0000   1.0000   1.0000   1.0000
     1.0000   1.0000   1.0000   1.0000   1.0000   1.0000   1.0000   1.0000
     1.0000   1.0000   1.0000   1.0000   1.0000   1.0000   1.0000   1.0000
     1.0000   1.0000   1.0000   1.0000   1.0000   1.0000   1.0000   1.0000
     1.0000   1.0000   1.0000   1.0000   1.0000   1.0000   1.0000   1.0000
     1.0000   1.0000   1.0000   1.0000   1.0000   1.0000   1.0000   1.0000
     1.0000   1.0000   1.0000   1.0000   1.0000   1.0000   1.0000   1.0000
     1.0000   1.0000   1.0000   1.0000   1.0000   1.0000   0.9999   0.9999
     0.9999   0.9998   0.9998   0.9997   0.9996   0.9996   0.9992   0.9988
     0.9986   0.9984   0.9983   0.9981   0.9975   0.9972   0.9967   0.9960
     0.9953   0.9946   0.9922   0.9912   0.9897   0.9876   0.9846   0.9814
     0.9801   0.9788   0.9773   0.9678   0.9526   0.9412   0.9382   0.9243
     0.9146   0.9081   0.9045   0.9017   0.8986   0.8840   0.8739   0.8450
     0.8308   0.8248   0.7534   0.7429   0.7262   0.7149   0.7073   0.7029
     0.6993   0.6949   0.6789   0.6780   0.6682   0.6658   0.6601   0.6495
     0.6435   0.6390   0.6270   0.6212   0.6183   0.5978   0.5883   0.5535
     0.3354   0.3224   0.2058   0.0744   0.0508   0.0196   0.0060   0.0048
     0.0003   0.0001   0.0000   0.0000   0.0000   0.0000   0.0000   0.0000
     0.0000   0.0000   0.0000   0.0000   0.0000   0.0000   0.0000   0.0000
     0.0000   0.0000   0.0000   0.0000   0.0000   0.0000   0.0000   0.0000
     0.0000   0.0000   0.0000

          k = 0.0000-0.5000 0.0000 ( 65180 PWs)   bands (ev):

   -92.7065 -92.6562 -92.5605 -92.5159 -92.4570 -92.4133 -92.3954 -92.2755
   -56.0600 -56.0431 -55.9178 -55.9072 -55.9019 -55.8940 -55.8590 -55.8297
   -55.8140 -55.8130 -55.8071 -55.7633 -55.7472 -55.7077 -55.6870 -55.6573
   -55.6512 -55.6015 -55.6011 -55.5984 -55.5899 -55.5503 -55.5258 -55.4413
   -31.2833 -31.2641 -31.1227 -31.0806 -31.0359 -30.9423 -30.7707 -30.5820
   -29.8510 -29.8102 -29.7844 -29.6755 -15.0136 -14.9660 -14.9091 -14.7819
   -14.6966 -14.5654 -14.3977 -14.2889 -14.1628 -14.0805 -14.0454 -14.0374
   -14.0044 -13.9903 -13.9755 -13.9190 -13.9007 -13.8773 -13.8488 -13.8043
   -13.7420 -13.5882 -13.5295 -13.4982 -13.4620 -13.3671 -13.3620 -13.2913
   -13.2891 -13.2542 -13.2236 -13.1159 -13.1014 -13.0462 -12.9741 -12.9613
   -12.9346 -12.9072 -12.8881 -12.8694 -12.8438 -12.7180 -12.7108 -12.6577
   -12.5692 -12.5394 -12.5205 -12.4729 -12.4460 -12.3286 -12.3079 -12.1202
   -12.0672 -11.7860 -11.7825 -11.7543 -11.7182 -11.6836 -11.6721 -11.6314
   -11.6271 -11.5833 -11.5183 -11.5059 -11.4922  -2.5954  -2.5367  -2.3865
    -2.3149  -2.0320  -1.9493  -1.8206  -1.6856  -1.6453  -1.6277  -1.5502
    -1.5190  -1.4341  -1.4010  -1.3222  -1.3178  -1.2781  -1.2455  -1.2184
    -1.1582  -1.1180  -1.0739  -1.0382  -1.0028  -0.9732  -0.8616  -0.8186
    -0.7816  -0.7763  -0.6926  -0.6639  -0.6399  -0.5899  -0.5057  -0.4305
    -0.3420  -0.3131  -0.2040  -0.1724  -0.0346   0.0088   0.0386   0.0855
     0.2175   0.2794   0.3867   0.4592   0.4678   0.5922   0.6526   0.7512
     0.8743   0.9785   1.0108   1.0543   1.0610   1.0943   1.1117   1.1472
     1.1646   1.1837   1.2854   1.3479   1.3763   1.3979   1.6719   1.7027
     1.7261   1.8171   1.8358   1.8716   1.8886   1.9088   1.9379   1.9479
     1.9651   2.0003   2.0311   2.0614   2.0651   2.0960   2.1482   2.2362
     2.2767   2.4263   2.4346   2.4471   2.5978   2.6108   2.6286   2.6663
     2.6737   2.6797   2.7312   2.7408   2.7949   2.8159   2.8920   2.9079
     2.9780   2.9812   3.0067   3.0082   3.0250   3.0293   3.0336   3.0394
     3.0416   3.0554   3.0724   3.0754   3.1403   3.1429   3.1603   3.2157
     4.1247   4.1488   4.1931   4.2528   4.7314   4.9055   5.0198   5.1640
     5.4098   5.4588   5.5794   5.7247   6.0232   6.0439   6.2811   6.5681
     6.8462   6.9474   7.2174   7.3289   7.4151   7.4316   7.7459   7.7713
     7.9030   7.9528   8.2315   8.3360   8.4321   8.4861   8.5833   8.6728
     8.8062   8.8461   8.8648

     occupation numbers 
     1.0000   1.0000   1.0000   1.0000   1.0000   1.0000   1.0000   1.0000
     1.0000   1.0000   1.0000   1.0000   1.0000   1.0000   1.0000   1.0000
     1.0000   1.0000   1.0000   1.0000   1.0000   1.0000   1.0000   1.0000
     1.0000   1.0000   1.0000   1.0000   1.0000   1.0000   1.0000   1.0000
     1.0000   1.0000   1.0000   1.0000   1.0000   1.0000   1.0000   1.0000
     1.0000   1.0000   1.0000   1.0000   1.0000   1.0000   1.0000   1.0000
     1.0000   1.0000   1.0000   1.0000   1.0000   1.0000   1.0000   1.0000
     1.0000   1.0000   1.0000   1.0000   1.0000   1.0000   1.0000   1.0000
     1.0000   1.0000   1.0000   1.0000   1.0000   1.0000   1.0000   1.0000
     1.0000   1.0000   1.0000   1.0000   1.0000   1.0000   1.0000   1.0000
     1.0000   1.0000   1.0000   1.0000   1.0000   1.0000   1.0000   1.0000
     1.0000   1.0000   1.0000   1.0000   1.0000   1.0000   1.0000   1.0000
     1.0000   1.0000   1.0000   1.0000   1.0000   1.0000   1.0000   1.0000
     1.0000   1.0000   1.0000   1.0000   1.0000   1.0000   1.0000   1.0000
     1.0000   1.0000   1.0000   1.0000   1.0000   1.0000   1.0000   1.0000
     1.0000   1.0000   1.0000   1.0000   1.0000   1.0000   1.0000   1.0000
     1.0000   1.0000   1.0000   1.0000   1.0000   1.0000   1.0000   1.0000
     1.0000   1.0000   1.0000   1.0000   1.0000   1.0000   1.0000   1.0000
     1.0000   1.0000   1.0000   1.0000   1.0000   1.0000   1.0000   1.0000
     1.0000   1.0000   1.0000   1.0000   1.0000   1.0000   1.0000   0.9999
     0.9999   0.9997   0.9997   0.9996   0.9996   0.9995   0.9995   0.9994
     0.9993   0.9992   0.9987   0.9983   0.9981   0.9979   0.9928   0.9919
     0.9911   0.9872   0.9863   0.9843   0.9833   0.9820   0.9800   0.9793
     0.9780   0.9751   0.9723   0.9693   0.9689   0.9656   0.9592   0.9464
     0.9396   0.9081   0.9060   0.9029   0.8586   0.8543   0.8481   0.8346
     0.8319   0.8296   0.8095   0.8056   0.7827   0.7735   0.7381   0.7303
     0.6949   0.6932   0.6798   0.6789   0.6700   0.6677   0.6654   0.6622
     0.6610   0.6535   0.6441   0.6425   0.6059   0.6044   0.5944   0.5623
     0.1164   0.1096   0.0977   0.0833   0.0181   0.0093   0.0058   0.0031
     0.0010   0.0008   0.0004   0.0002   0.0000   0.0000   0.0000   0.0000
     0.0000   0.0000   0.0000   0.0000   0.0000   0.0000   0.0000   0.0000
     0.0000   0.0000   0.0000   0.0000   0.0000   0.0000   0.0000   0.0000
     0.0000   0.0000   0.0000

          k = 0.2500 0.2500 0.0000 ( 65198 PWs)   bands (ev):

   -92.7065 -92.6562 -92.5605 -92.5159 -92.4570 -92.4133 -92.3954 -92.2755
   -56.0600 -56.0431 -55.9178 -55.9072 -55.9019 -55.8940 -55.8590 -55.8297
   -55.8140 -55.8130 -55.8071 -55.7633 -55.7472 -55.7077 -55.6870 -55.6573
   -55.6512 -55.6015 -55.6011 -55.5984 -55.5899 -55.5503 -55.5258 -55.4413
   -31.2817 -31.2660 -31.1221 -31.0804 -31.0362 -30.9427 -30.7703 -30.5821
   -29.8506 -29.8116 -29.7834 -29.6756 -15.0211 -14.9798 -14.9060 -14.7908
   -14.6673 -14.5428 -14.4735 -14.2632 -14.1128 -14.1004 -14.0610 -14.0354
   -14.0142 -13.9983 -13.9815 -13.9478 -13.8969 -13.8421 -13.8259 -13.6669
   -13.6511 -13.6202 -13.6040 -13.5441 -13.5144 -13.4322 -13.4065 -13.2850
   -13.2495 -13.2279 -13.1483 -13.1075 -13.0583 -13.0258 -13.0185 -12.9755
   -12.9525 -12.9216 -12.8874 -12.8406 -12.8036 -12.7509 -12.7235 -12.7177
   -12.6663 -12.6200 -12.4756 -12.4578 -12.4193 -12.3691 -12.2827 -12.0759
   -12.0076 -11.8035 -11.7726 -11.7607 -11.7532 -11.6923 -11.6567 -11.6506
   -11.6147 -11.6057 -11.5141 -11.4741 -11.4566  -2.6719  -2.4638  -2.3456
    -2.2510  -2.1306  -2.0663  -1.8677  -1.7235  -1.7051  -1.6744  -1.5799
    -1.5470  -1.4525  -1.4250  -1.3762  -1.3095  -1.2409  -1.1931  -1.1199
    -1.0755  -1.0319  -1.0086  -0.9852  -0.9397  -0.9269  -0.8358  -0.7845
    -0.7178  -0.6707  -0.6389  -0.5908  -0.5742  -0.5131  -0.4642  -0.4034
    -0.3741  -0.2857  -0.2321  -0.2043  -0.1660  -0.1113  -0.0186   0.0008
     0.0266   0.1099   0.1371   0.4083   0.5587   0.5898   0.6526   0.6953
     0.7568   0.8024   0.8737   0.9013   1.1728   1.2383   1.3110   1.3370
     1.3872   1.4152   1.4519   1.4899   1.5059   1.5339   1.5824   1.5896
     1.6030   1.6473   1.6857   1.7270   1.7930   1.8316   1.8385   1.8823
     1.9045   1.9625   1.9874   2.1133   2.1770   2.2105   2.2301   2.2996
     2.3659   2.3913   2.4232   2.4279   2.4412   2.4612   2.4761   2.5812
     2.6173   2.7044   2.8715   2.8885   2.8944   2.9112   2.9265   2.9396
     2.9513   2.9579   2.9695   2.9822   2.9949   3.0128   3.0198   3.0312
     3.0536   3.0649   3.0746   3.1056   3.4058   3.4996   3.5429   3.6182
     3.6390   3.8527   3.9488   4.3053   4.5094   4.7136   4.9814   5.1614
     5.6450   5.6994   5.7660   5.8330   5.8913   6.1134   6.1530   6.2084
     6.8918   6.9457   7.1219   7.3295   7.5463   7.6002   7.7079   7.8576
     7.9097   8.0558   8.2104   8.3016   8.3323   8.3834   8.4405   8.4751
     8.5911   8.7375   8.9170

     occupation numbers 
     1.0000   1.0000   1.0000   1.0000   1.0000   1.0000   1.0000   1.0000
     1.0000   1.0000   1.0000   1.0000   1.0000   1.0000   1.0000   1.0000
     1.0000   1.0000   1.0000   1.0000   1.0000   1.0000   1.0000   1.0000
     1.0000   1.0000   1.0000   1.0000   1.0000   1.0000   1.0000   1.0000
     1.0000   1.0000   1.0000   1.0000   1.0000   1.0000   1.0000   1.0000
     1.0000   1.0000   1.0000   1.0000   1.0000   1.0000   1.0000   1.0000
     1.0000   1.0000   1.0000   1.0000   1.0000   1.0000   1.0000   1.0000
     1.0000   1.0000   1.0000   1.0000   1.0000   1.0000   1.0000   1.0000
     1.0000   1.0000   1.0000   1.0000   1.0000   1.0000   1.0000   1.0000
     1.0000   1.0000   1.0000   1.0000   1.0000   1.0000   1.0000   1.0000
     1.0000   1.0000   1.0000   1.0000   1.0000   1.0000   1.0000   1.0000
     1.0000   1.0000   1.0000   1.0000   1.0000   1.0000   1.0000   1.0000
     1.0000   1.0000   1.0000   1.0000   1.0000   1.0000   1.0000   1.0000
     1.0000   1.0000   1.0000   1.0000   1.0000   1.0000   1.0000   1.0000
     1.0000   1.0000   1.0000   1.0000   1.0000   1.0000   1.0000   1.0000
     1.0000   1.0000   1.0000   1.0000   1.0000   1.0000   1.0000   1.0000
     1.0000   1.0000   1.0000   1.0000   1.0000   1.0000   1.0000   1.0000
     1.0000   1.0000   1.0000   1.0000   1.0000   1.0000   1.0000   1.0000
     1.0000   1.0000   1.0000   1.0000   1.0000   1.0000   1.0000   1.0000
     1.0000   1.0000   1.0000   1.0000   1.0000   1.0000   1.0000   1.0000
     0.9999   0.9999   0.9999   0.9998   0.9993   0.9990   0.9986   0.9984
     0.9980   0.9977   0.9972   0.9967   0.9965   0.9960   0.9951   0.9949
     0.9946   0.9935   0.9924   0.9910   0.9884   0.9865   0.9862   0.9837
     0.9823   0.9782   0.9762   0.9636   0.9553   0.9505   0.9474   0.9354
     0.9220   0.9163   0.9088   0.9077   0.9044   0.8992   0.8952   0.8641
     0.8521   0.8201   0.7479   0.7397   0.7369   0.7287   0.7211   0.7145
     0.7086   0.7052   0.6992   0.6927   0.6860   0.6765   0.6728   0.6667
     0.6545   0.6483   0.6429   0.6256   0.4501   0.3956   0.3710   0.3296
     0.3185   0.2150   0.1757   0.0720   0.0388   0.0193   0.0068   0.0031
     0.0003   0.0002   0.0001   0.0001   0.0001   0.0000   0.0000   0.0000
     0.0000   0.0000   0.0000   0.0000   0.0000   0.0000   0.0000   0.0000
     0.0000   0.0000   0.0000   0.0000   0.0000   0.0000   0.0000   0.0000
     0.0000   0.0000   0.0000

          k = 0.2500-0.5000 0.0000 ( 65138 PWs)   bands (ev):

   -92.7065 -92.6562 -92.5605 -92.5159 -92.4570 -92.4133 -92.3954 -92.2755
   -56.0600 -56.0431 -55.9178 -55.9072 -55.9019 -55.8940 -55.8590 -55.8297
   -55.8140 -55.8130 -55.8071 -55.7633 -55.7472 -55.7077 -55.6870 -55.6573
   -55.6512 -55.6015 -55.6011 -55.5984 -55.5899 -55.5503 -55.5258 -55.4413
   -31.2815 -31.2659 -31.1223 -31.0804 -31.0363 -30.9425 -30.7705 -30.5821
   -29.8500 -29.8112 -29.7840 -29.6759 -14.9831 -14.9393 -14.8668 -14.7539
   -14.7177 -14.6051 -14.5021 -14.3827 -14.0772 -14.0225 -14.0059 -13.9969
   -13.9717 -13.9585 -13.9463 -13.9023 -13.8880 -13.8605 -13.8252 -13.7967
   -13.7322 -13.6704 -13.6227 -13.5575 -13.5433 -13.4739 -13.4155 -13.3299
   -13.2988 -13.2128 -13.1479 -13.1275 -13.0422 -13.0108 -12.9950 -12.9782
   -12.9489 -12.9174 -12.8837 -12.8582 -12.8221 -12.7250 -12.6613 -12.6303
   -12.6235 -12.6097 -12.5275 -12.4765 -12.3792 -12.3261 -12.2492 -12.1137
   -12.0794 -11.7792 -11.7672 -11.7559 -11.7282 -11.6980 -11.6685 -11.6286
   -11.6011 -11.5793 -11.5318 -11.5067 -11.4965  -2.4533  -2.3883  -2.2603
    -2.1835  -2.0524  -1.9693  -1.8450  -1.6966  -1.6410  -1.6200  -1.5581
    -1.5447  -1.4445  -1.3808  -1.3128  -1.2954  -1.2435  -1.2340  -1.1731
    -1.1293  -1.0957  -1.0466  -1.0104  -0.9742  -0.9360  -0.9180  -0.8784
    -0.8495  -0.8064  -0.7755  -0.7101  -0.6066  -0.5667  -0.4888  -0.4222
    -0.3700  -0.3304  -0.3128  -0.2486  -0.0927  -0.0833   0.0210   0.0517
     0.0619   0.1039   0.1440   0.1806   0.2107   0.2716   0.5598   0.6530
     0.7194   0.7733   1.0405   1.0581   1.1443   1.1756   1.3362   1.3695
     1.4109   1.4362   1.4472   1.4687   1.5326   1.5811   1.6146   1.6918
     1.7975   1.8310   1.8463   1.8583   1.8970   1.9055   1.9219   1.9624
     1.9709   1.9941   2.0209   2.0392   2.0588   2.0920   2.1488   2.1924
     2.2735   2.4010   2.4288   2.4389   2.5511   2.5684   2.5863   2.6181
     2.6390   2.6691   2.6882   2.7033   2.7288   2.8213   2.8710   2.8907
     2.8951   2.9077   2.9282   2.9418   2.9615   2.9681   3.0045   3.0142
     3.0287   3.0357   3.0452   3.0556   3.5770   3.5945   3.7374   3.7929
     4.1339   4.1857   4.1962   4.3124   4.7512   4.9265   5.0559   5.1351
     5.3005   5.4280   5.6003   5.6375   5.7640   5.7871   6.3746   6.4002
     6.4848   6.7006   7.2602   7.3888   7.5461   7.6979   7.7969   7.8706
     7.9937   8.0609   8.3478   8.3943   8.5096   8.5362   8.5525   8.5723
     8.7110   8.7673   8.7822

     occupation numbers 
     1.0000   1.0000   1.0000   1.0000   1.0000   1.0000   1.0000   1.0000
     1.0000   1.0000   1.0000   1.0000   1.0000   1.0000   1.0000   1.0000
     1.0000   1.0000   1.0000   1.0000   1.0000   1.0000   1.0000   1.0000
     1.0000   1.0000   1.0000   1.0000   1.0000   1.0000   1.0000   1.0000
     1.0000   1.0000   1.0000   1.0000   1.0000   1.0000   1.0000   1.0000
     1.0000   1.0000   1.0000   1.0000   1.0000   1.0000   1.0000   1.0000
     1.0000   1.0000   1.0000   1.0000   1.0000   1.0000   1.0000   1.0000
     1.0000   1.0000   1.0000   1.0000   1.0000   1.0000   1.0000   1.0000
     1.0000   1.0000   1.0000   1.0000   1.0000   1.0000   1.0000   1.0000
     1.0000   1.0000   1.0000   1.0000   1.0000   1.0000   1.0000   1.0000
     1.0000   1.0000   1.0000   1.0000   1.0000   1.0000   1.0000   1.0000
     1.0000   1.0000   1.0000   1.0000   1.0000   1.0000   1.0000   1.0000
     1.0000   1.0000   1.0000   1.0000   1.0000   1.0000   1.0000   1.0000
     1.0000   1.0000   1.0000   1.0000   1.0000   1.0000   1.0000   1.0000
     1.0000   1.0000   1.0000   1.0000   1.0000   1.0000   1.0000   1.0000
     1.0000   1.0000   1.0000   1.0000   1.0000   1.0000   1.0000   1.0000
     1.0000   1.0000   1.0000   1.0000   1.0000   1.0000   1.0000   1.0000
     1.0000   1.0000   1.0000   1.0000   1.0000   1.0000   1.0000   1.0000
     1.0000   1.0000   1.0000   1.0000   1.0000   1.0000   1.0000   1.0000
     1.0000   1.0000   1.0000   1.0000   1.0000   1.0000   1.0000   1.0000
     0.9999   0.9999   0.9996   0.9996   0.9994   0.9993   0.9984   0.9981
     0.9977   0.9974   0.9973   0.9970   0.9960   0.9951   0.9944   0.9922
     0.9882   0.9865   0.9857   0.9851   0.9828   0.9822   0.9811   0.9782
     0.9775   0.9756   0.9732   0.9715   0.9696   0.9660   0.9592   0.9531
     0.9401   0.9141   0.9074   0.9049   0.8736   0.8682   0.8624   0.8518
     0.8445   0.8335   0.8264   0.8206   0.8105   0.7711   0.7481   0.7387
     0.7365   0.7304   0.7202   0.7134   0.7034   0.7000   0.6809   0.6758
     0.6680   0.6642   0.6590   0.6533   0.3520   0.3425   0.2683   0.2418
     0.1138   0.0996   0.0969   0.0705   0.0169   0.0086   0.0050   0.0035
     0.0016   0.0009   0.0004   0.0003   0.0001   0.0001   0.0000   0.0000
     0.0000   0.0000   0.0000   0.0000   0.0000   0.0000   0.0000   0.0000
     0.0000   0.0000   0.0000   0.0000   0.0000   0.0000   0.0000   0.0000
     0.0000   0.0000   0.0000

          k =-0.5000-0.5000 0.0000 ( 65132 PWs)   bands (ev):

   -92.7065 -92.6562 -92.5605 -92.5159 -92.4570 -92.4133 -92.3954 -92.2755
   -56.0600 -56.0431 -55.9178 -55.9072 -55.9019 -55.8940 -55.8590 -55.8297
   -55.8140 -55.8130 -55.8071 -55.7633 -55.7472 -55.7077 -55.6870 -55.6573
   -55.6512 -55.6015 -55.6011 -55.5984 -55.5899 -55.5503 -55.5258 -55.4413
   -31.2793 -31.2681 -31.1220 -31.0801 -31.0367 -30.9428 -30.7703 -30.5823
   -29.8489 -29.8123 -29.7836 -29.6763 -14.9368 -14.9120 -14.7952 -14.7804
   -14.6776 -14.6528 -14.6073 -14.4797 -14.0076 -13.9871 -13.9762 -13.9440
   -13.9224 -13.9049 -13.8831 -13.8655 -13.8527 -13.8320 -13.8262 -13.8120
   -13.7356 -13.7314 -13.6829 -13.6664 -13.6472 -13.5636 -13.4792 -13.3640
   -13.3366 -13.1643 -13.1243 -13.0543 -13.0308 -12.9953 -12.9900 -12.9807
   -12.9783 -12.9609 -12.8840 -12.8160 -12.8034 -12.7346 -12.6811 -12.6502
   -12.6115 -12.6029 -12.5446 -12.4815 -12.3357 -12.3220 -12.1961 -12.1079
   -12.0972 -11.7761 -11.7631 -11.7453 -11.7284 -11.6934 -11.6780 -11.6399
   -11.5814 -11.5612 -11.5549 -11.5046 -11.5020  -2.2284  -2.1541  -2.1441
    -2.0724  -2.0343  -1.9555  -1.8874  -1.7613  -1.6468  -1.6169  -1.5766
    -1.5201  -1.4483  -1.4311  -1.3633  -1.3222  -1.3072  -1.2012  -1.1730
    -1.1227  -1.0975  -1.0327  -0.9854  -0.9667  -0.9553  -0.8994  -0.8580
    -0.8393  -0.7266  -0.6717  -0.6246  -0.5746  -0.5450  -0.5331  -0.4982
    -0.4544  -0.4192  -0.4073  -0.3246  -0.2548  -0.2147  -0.1838  -0.1146
    -0.0480  -0.0405   0.0196   0.0446   0.0544   0.0617   0.5272   0.5860
     0.6696   0.6886   1.0670   1.0831   1.1181   1.1484   1.4210   1.4406
     1.4466   1.4841   1.6150   1.7060   1.7354   1.7715   1.8069   1.8203
     1.8279   1.8584   1.8748   1.8932   1.9050   1.9436   1.9477   1.9771
     2.0077   2.0149   2.0319   2.0708   2.0921   2.1061   2.1380   2.1674
     2.2290   2.2957   2.4248   2.4332   2.5656   2.5953   2.6161   2.6327
     2.6464   2.6744   2.6818   2.6993   2.7102   2.7248   2.7451   2.7574
     2.8225   2.8256   2.8486   2.8602   2.8748   2.8941   2.8972   2.9079
     3.0109   3.0169   3.0413   3.0521   4.0017   4.0326   4.0690   4.0954
     4.3139   4.3869   4.4129   4.6545   4.7761   4.8585   4.9880   5.0803
     5.0901   5.2023   5.2970   5.4168   5.8506   5.8808   5.9519   6.0270
     6.6020   6.8731   6.9698   7.1855   7.9028   7.9428   7.9547   7.9735
     8.0170   8.0837   8.1481   8.2695   8.5581   8.5871   8.6067   8.6195
     8.6618   8.7969   8.8098

     occupation numbers 
     1.0000   1.0000   1.0000   1.0000   1.0000   1.0000   1.0000   1.0000
     1.0000   1.0000   1.0000   1.0000   1.0000   1.0000   1.0000   1.0000
     1.0000   1.0000   1.0000   1.0000   1.0000   1.0000   1.0000   1.0000
     1.0000   1.0000   1.0000   1.0000   1.0000   1.0000   1.0000   1.0000
     1.0000   1.0000   1.0000   1.0000   1.0000   1.0000   1.0000   1.0000
     1.0000   1.0000   1.0000   1.0000   1.0000   1.0000   1.0000   1.0000
     1.0000   1.0000   1.0000   1.0000   1.0000   1.0000   1.0000   1.0000
     1.0000   1.0000   1.0000   1.0000   1.0000   1.0000   1.0000   1.0000
     1.0000   1.0000   1.0000   1.0000   1.0000   1.0000   1.0000   1.0000
     1.0000   1.0000   1.0000   1.0000   1.0000   1.0000   1.0000   1.0000
     1.0000   1.0000   1.0000   1.0000   1.0000   1.0000   1.0000   1.0000
     1.0000   1.0000   1.0000   1.0000   1.0000   1.0000   1.0000   1.0000
     1.0000   1.0000   1.0000   1.0000   1.0000   1.0000   1.0000   1.0000
     1.0000   1.0000   1.0000   1.0000   1.0000   1.0000   1.0000   1.0000
     1.0000   1.0000   1.0000   1.0000   1.0000   1.0000   1.0000   1.0000
     1.0000   1.0000   1.0000   1.0000   1.0000   1.0000   1.0000   1.0000
     1.0000   1.0000   1.0000   1.0000   1.0000   1.0000   1.0000   1.0000
     1.0000   1.0000   1.0000   1.0000   1.0000   1.0000   1.0000   1.0000
     1.0000   1.0000   1.0000   1.0000   1.0000   1.0000   1.0000   1.0000
     1.0000   1.0000   1.0000   1.0000   1.0000   1.0000   1.0000   1.0000
     1.0000   1.0000   0.9996   0.9996   0.9995   0.9994   0.9976   0.9974
     0.9973   0.9968   0.9944   0.9918   0.9907   0.9893   0.9877   0.9871
     0.9867   0.9851   0.9841   0.9830   0.9823   0.9796   0.9793   0.9770
     0.9744   0.9738   0.9722   0.9683   0.9660   0.9644   0.9605   0.9567
     0.9476   0.9361   0.9084   0.9063   0.8691   0.8595   0.8525   0.8467
     0.8418   0.8316   0.8288   0.8221   0.8179   0.8121   0.8039   0.7987
     0.7705   0.7691   0.7586   0.7532   0.7463   0.7371   0.7355   0.7303
     0.6775   0.6743   0.6612   0.6553   0.1561   0.1454   0.1334   0.1252
     0.0702   0.0568   0.0525   0.0239   0.0154   0.0112   0.0067   0.0045
     0.0043   0.0026   0.0017   0.0009   0.0001   0.0001   0.0000   0.0000
     0.0000   0.0000   0.0000   0.0000   0.0000   0.0000   0.0000   0.0000
     0.0000   0.0000   0.0000   0.0000   0.0000   0.0000   0.0000   0.0000
     0.0000   0.0000   0.0000

          k = 0.2500 0.0000 0.0000 ( 65257 PWs)   bands (ev):

   -92.7065 -92.6562 -92.5605 -92.5159 -92.4570 -92.4133 -92.3954 -92.2755
   -56.0600 -56.0431 -55.9178 -55.9072 -55.9019 -55.8940 -55.8590 -55.8297
   -55.8140 -55.8130 -55.8071 -55.7633 -55.7472 -55.7077 -55.6870 -55.6573
   -55.6512 -55.6015 -55.6011 -55.5984 -55.5899 -55.5503 -55.5258 -55.4413
   -31.2819 -31.2661 -31.1219 -31.0805 -31.0360 -30.9429 -30.7701 -30.5820
   -29.8512 -29.8119 -29.7827 -29.6752 -15.0538 -15.0096 -14.9399 -14.7941
   -14.6822 -14.4926 -14.3570 -14.1794 -14.1621 -14.1311 -14.0995 -14.0767
   -14.0406 -14.0245 -14.0052 -14.0018 -13.9405 -13.8416 -13.8094 -13.6644
   -13.5883 -13.5814 -13.5178 -13.4966 -13.4831 -13.4031 -13.3497 -13.3185
   -13.2137 -13.1649 -13.1538 -13.0665 -13.0577 -13.0444 -13.0286 -13.0069
   -12.9740 -12.9385 -12.8908 -12.8255 -12.7981 -12.7770 -12.7711 -12.7275
   -12.7193 -12.7060 -12.4873 -12.4589 -12.4118 -12.4063 -12.2546 -12.0365
   -11.9791 -11.8306 -11.7782 -11.7617 -11.7490 -11.7222 -11.6709 -11.6479
[...]
     0.3519   0.3271   0.2038   0.0780   0.0455   0.0218   0.0059   0.0047
     0.0003   0.0001   0.0000   0.0000   0.0000   0.0000   0.0000   0.0000
     0.0000   0.0000   0.0000   0.0000   0.0000   0.0000   0.0000   0.0000
     0.0000   0.0000   0.0000   0.0000   0.0000   0.0000   0.0000   0.0000
     0.0000   0.0000   0.0000

          k =-0.5000 0.0000 0.0000 ( 65180 PWs)   bands (ev):

   -92.7065 -92.6562 -92.5605 -92.5159 -92.4570 -92.4133 -92.3954 -92.2755
   -56.0600 -56.0431 -55.9178 -55.9072 -55.9019 -55.8940 -55.8590 -55.8297
   -55.8140 -55.8130 -55.8071 -55.7633 -55.7472 -55.7077 -55.6870 -55.6573
   -55.6512 -55.6015 -55.6011 -55.5984 -55.5899 -55.5503 -55.5258 -55.4413
   -31.2797 -31.2683 -31.1216 -31.0802 -31.0364 -30.9431 -30.7699 -30.5822
   -29.8501 -29.8130 -29.7824 -29.6756 -15.0197 -14.9674 -14.9055 -14.7874
   -14.6933 -14.5479 -14.4053 -14.2442 -14.1377 -14.1204 -14.1137 -14.0517
   -14.0073 -13.9968 -13.9643 -13.9141 -13.8970 -13.8820 -13.8409 -13.8014
   -13.7025 -13.5603 -13.5263 -13.5000 -13.4918 -13.3945 -13.3698 -13.3066
   -13.2734 -13.2502 -13.2159 -13.0602 -13.0526 -13.0360 -13.0193 -12.9937
   -12.9561 -12.9395 -12.9199 -12.7840 -12.7458 -12.7242 -12.7122 -12.6942
   -12.6458 -12.6367 -12.5466 -12.4739 -12.3460 -12.3325 -12.1953 -12.1481
   -12.1191 -11.7823 -11.7611 -11.7539 -11.7412 -11.7228 -11.6813 -11.6174
   -11.5987 -11.5649 -11.5226 -11.5137 -11.4978  -2.5856  -2.5472  -2.3843
    -2.3444  -2.0308  -1.9557  -1.8093  -1.6899  -1.6514  -1.6057  -1.5586
    -1.5336  -1.4090  -1.3658  -1.3499  -1.3146  -1.2679  -1.2315  -1.2134
    -1.1839  -1.1246  -1.0580  -1.0310  -0.9956  -0.8969  -0.8579  -0.8092
    -0.7765  -0.7552  -0.7234  -0.6764  -0.6511  -0.6096  -0.5131  -0.4407
    -0.3736  -0.3129  -0.1369  -0.1141  -0.0601  -0.0182   0.0492   0.0537
     0.2008   0.2282   0.2645   0.4360   0.5353   0.5877   0.6706   0.7508
     0.8589   0.8764   1.0071   1.0292   1.0820   1.1127   1.1467   1.1624
     1.2094   1.2286   1.2986   1.3467   1.3914   1.4038   1.7025   1.7176
     1.7337   1.7635   1.8590   1.8694   1.8912   1.8956   1.9239   1.9377
     1.9757   1.9935   2.0265   2.0727   2.0913   2.1444   2.1665   2.2179
     2.3259   2.4156   2.4357   2.4528   2.5002   2.5189   2.5987   2.6212
     2.6544   2.7197   2.7267   2.7345   2.7643   2.8321   2.8778   2.9266
     2.9524   2.9950   3.0004   3.0015   3.0125   3.0272   3.0389   3.0523
     3.0569   3.0797   3.0820   3.1053   3.1241   3.1296   3.2593   3.2650
     4.0618   4.1250   4.1967   4.3267   4.7866   4.8640   5.0398   5.0507
     5.4811   5.5049   5.5971   5.6510   6.0288   6.0392   6.3107   6.5145
     6.7918   6.9969   7.2759   7.3042   7.3256   7.4596   7.7718   7.8335
     7.8832   8.0467   8.2492   8.3572   8.3818   8.4750   8.5318   8.6227
     8.7567   8.8110   8.9049

     occupation numbers 
     1.0000   1.0000   1.0000   1.0000   1.0000   1.0000   1.0000   1.0000
     1.0000   1.0000   1.0000   1.0000   1.0000   1.0000   1.0000   1.0000
     1.0000   1.0000   1.0000   1.0000   1.0000   1.0000   1.0000   1.0000
     1.0000   1.0000   1.0000   1.0000   1.0000   1.0000   1.0000   1.0000
     1.0000   1.0000   1.0000   1.0000   1.0000   1.0000   1.0000   1.0000
     1.0000   1.0000   1.0000   1.0000   1.0000   1.0000   1.0000   1.0000
     1.0000   1.0000   1.0000   1.0000   1.0000   1.0000   1.0000   1.0000
     1.0000   1.0000   1.0000   1.0000   1.0000   1.0000   1.0000   1.0000
     1.0000   1.0000   1.0000   1.0000   1.0000   1.0000   1.0000   1.0000
     1.0000   1.0000   1.0000   1.0000   1.0000   1.0000   1.0000   1.0000
     1.0000   1.0000   1.0000   1.0000   1.0000   1.0000   1.0000   1.0000
     1.0000   1.0000   1.0000   1.0000   1.0000   1.0000   1.0000   1.0000
     1.0000   1.0000   1.0000   1.0000   1.0000   1.0000   1.0000   1.0000
     1.0000   1.0000   1.0000   1.0000   1.0000   1.0000   1.0000   1.0000
     1.0000   1.0000   1.0000   1.0000   1.0000   1.0000   1.0000   1.0000
     1.0000   1.0000   1.0000   1.0000   1.0000   1.0000   1.0000   1.0000
     1.0000   1.0000   1.0000   1.0000   1.0000   1.0000   1.0000   1.0000
     1.0000   1.0000   1.0000   1.0000   1.0000   1.0000   1.0000   1.0000
     1.0000   1.0000   1.0000   1.0000   1.0000   1.0000   1.0000   1.0000
     1.0000   1.0000   1.0000   1.0000   1.0000   1.0000   1.0000   0.9999
     0.9999   0.9999   0.9997   0.9997   0.9996   0.9995   0.9994   0.9993
     0.9991   0.9991   0.9987   0.9983   0.9979   0.9978   0.9919   0.9914
     0.9908   0.9896   0.9850   0.9845   0.9831   0.9829   0.9810   0.9800
     0.9771   0.9757   0.9727   0.9681   0.9661   0.9597   0.9568   0.9493
     0.9303   0.9106   0.9057   0.9014   0.8886   0.8833   0.8583   0.8507
     0.8389   0.8141   0.8113   0.8082   0.7959   0.7662   0.7448   0.7210
     0.7081   0.6859   0.6831   0.6825   0.6767   0.6688   0.6625   0.6552
     0.6527   0.6401   0.6388   0.6257   0.6151   0.6120   0.5366   0.5333
     0.1357   0.1163   0.0968   0.0677   0.0148   0.0110   0.0054   0.0051
     0.0007   0.0006   0.0004   0.0003   0.0000   0.0000   0.0000   0.0000
     0.0000   0.0000   0.0000   0.0000   0.0000   0.0000   0.0000   0.0000
     0.0000   0.0000   0.0000   0.0000   0.0000   0.0000   0.0000   0.0000
     0.0000   0.0000   0.0000

          k =-0.2500 0.2500 0.0000 ( 65198 PWs)   bands (ev):

   -92.7065 -92.6562 -92.5605 -92.5159 -92.4570 -92.4133 -92.3954 -92.2755
   -56.0600 -56.0431 -55.9178 -55.9072 -55.9019 -55.8940 -55.8590 -55.8297
   -55.8140 -55.8130 -55.8071 -55.7633 -55.7472 -55.7077 -55.6870 -55.6573
   -55.6512 -55.6015 -55.6011 -55.5984 -55.5899 -55.5503 -55.5258 -55.4413
   -31.2817 -31.2660 -31.1221 -31.0804 -31.0362 -30.9427 -30.7703 -30.5821
   -29.8506 -29.8116 -29.7834 -29.6756 -15.0224 -14.9785 -14.9050 -14.7891
   -14.6728 -14.5481 -14.4650 -14.2545 -14.1187 -14.0915 -14.0759 -14.0297
   -14.0098 -14.0017 -13.9782 -13.9584 -13.9044 -13.8371 -13.8263 -13.6772
   -13.6477 -13.6173 -13.5985 -13.5442 -13.5015 -13.4411 -13.4126 -13.2820
   -13.2396 -13.2228 -13.1525 -13.1094 -13.0465 -13.0243 -13.0021 -12.9865
   -12.9497 -12.9322 -12.8921 -12.8437 -12.8077 -12.7766 -12.7225 -12.6969
   -12.6536 -12.6419 -12.4875 -12.4528 -12.4459 -12.3132 -12.2884 -12.0561
   -12.0342 -11.8026 -11.7812 -11.7543 -11.7418 -11.7016 -11.6665 -11.6440
   -11.6210 -11.5988 -11.5139 -11.4696 -11.4597  -2.6702  -2.4627  -2.3415
    -2.2526  -2.1348  -2.0691  -1.8653  -1.7204  -1.7027  -1.6726  -1.5805
    -1.5459  -1.4536  -1.4179  -1.3921  -1.3091  -1.2484  -1.1877  -1.1243
    -1.0960  -1.0344  -1.0140  -0.9740  -0.9458  -0.9052  -0.8427  -0.7922
    -0.7304  -0.6611  -0.6346  -0.5860  -0.5577  -0.5098  -0.4540  -0.4062
    -0.3688  -0.2654  -0.2337  -0.2212  -0.1785  -0.1124  -0.0252   0.0044
     0.0358   0.1158   0.1338   0.3886   0.5600   0.5984   0.6403   0.7048
     0.7541   0.8101   0.8717   0.9036   1.1812   1.2873   1.3301   1.3620
     1.3671   1.4107   1.4265   1.4709   1.5033   1.5162   1.5412   1.5889
     1.6053   1.6445   1.6640   1.7101   1.8121   1.8194   1.8388   1.8785
     1.9046   1.9437   1.9976   2.1034   2.2079   2.2309   2.2778   2.2978
     2.3639   2.4009   2.4211   2.4355   2.4382   2.4691   2.4818   2.5794
     2.6152   2.7053   2.8786   2.8867   2.9006   2.9100   2.9213   2.9354
     2.9421   2.9607   2.9678   2.9829   2.9920   3.0044   3.0137   3.0225
     3.0552   3.0653   3.0738   3.1072   3.3991   3.4811   3.5464   3.6228
     3.6462   3.8376   3.9576   4.3047   4.5073   4.7145   4.9909   5.1614
     5.6456   5.6978   5.7694   5.8289   5.8919   6.1141   6.1623   6.1975
     6.8873   6.9560   7.1092   7.3431   7.5602   7.6066   7.6668   7.8691
     7.9221   8.0529   8.2031   8.2773   8.3278   8.3941   8.4432   8.5149
     8.5714   8.7480   8.9228

     occupation numbers 
     1.0000   1.0000   1.0000   1.0000   1.0000   1.0000   1.0000   1.0000
     1.0000   1.0000   1.0000   1.0000   1.0000   1.0000   1.0000   1.0000
     1.0000   1.0000   1.0000   1.0000   1.0000   1.0000   1.0000   1.0000
     1.0000   1.0000   1.0000   1.0000   1.0000   1.0000   1.0000   1.0000
     1.0000   1.0000   1.0000   1.0000   1.0000   1.0000   1.0000   1.0000
     1.0000   1.0000   1.0000   1.0000   1.0000   1.0000   1.0000   1.0000
     1.0000   1.0000   1.0000   1.0000   1.0000   1.0000   1.0000   1.0000
     1.0000   1.0000   1.0000   1.0000   1.0000   1.0000   1.0000   1.0000
     1.0000   1.0000   1.0000   1.0000   1.0000   1.0000   1.0000   1.0000
     1.0000   1.0000   1.0000   1.0000   1.0000   1.0000   1.0000   1.0000
     1.0000   1.0000   1.0000   1.0000   1.0000   1.0000   1.0000   1.0000
     1.0000   1.0000   1.0000   1.0000   1.0000   1.0000   1.0000   1.0000
     1.0000   1.0000   1.0000   1.0000   1.0000   1.0000   1.0000   1.0000
     1.0000   1.0000   1.0000   1.0000   1.0000   1.0000   1.0000   1.0000
     1.0000   1.0000   1.0000   1.0000   1.0000   1.0000   1.0000   1.0000
     1.0000   1.0000   1.0000   1.0000   1.0000   1.0000   1.0000   1.0000
     1.0000   1.0000   1.0000   1.0000   1.0000   1.0000   1.0000   1.0000
     1.0000   1.0000   1.0000   1.0000   1.0000   1.0000   1.0000   1.0000
     1.0000   1.0000   1.0000   1.0000   1.0000   1.0000   1.0000   1.0000
     1.0000   1.0000   1.0000   1.0000   1.0000   1.0000   1.0000   0.9999
     0.9999   0.9999   0.9999   0.9998   0.9993   0.9987   0.9984   0.9982
     0.9981   0.9977   0.9975   0.9970   0.9965   0.9963   0.9959   0.9949
     0.9946   0.9936   0.9931   0.9916   0.9875   0.9871   0.9861   0.9839
     0.9823   0.9796   0.9753   0.9647   0.9509   0.9473   0.9394   0.9357
     0.9224   0.9141   0.9093   0.9058   0.9051   0.8971   0.8937   0.8647
     0.8528   0.8198   0.7445   0.7406   0.7339   0.7293   0.7237   0.7166
     0.7132   0.7038   0.7001   0.6923   0.6875   0.6810   0.6760   0.6713
     0.6536   0.6480   0.6433   0.6247   0.4540   0.4062   0.3691   0.3271
     0.3147   0.2216   0.1723   0.0721   0.0391   0.0193   0.0066   0.0031
     0.0003   0.0002   0.0001   0.0001   0.0001   0.0000   0.0000   0.0000
     0.0000   0.0000   0.0000   0.0000   0.0000   0.0000   0.0000   0.0000
     0.0000   0.0000   0.0000   0.0000   0.0000   0.0000   0.0000   0.0000
     0.0000   0.0000   0.0000

          k =-0.5000 0.2500 0.0000 ( 65138 PWs)   bands (ev):

   -92.7065 -92.6562 -92.5605 -92.5159 -92.4570 -92.4133 -92.3954 -92.2755
   -56.0600 -56.0431 -55.9178 -55.9072 -55.9019 -55.8940 -55.8590 -55.8297
   -55.8140 -55.8130 -55.8071 -55.7633 -55.7472 -55.7077 -55.6870 -55.6573
   -55.6512 -55.6015 -55.6011 -55.5984 -55.5899 -55.5503 -55.5258 -55.4413
   -31.2795 -31.2682 -31.1218 -31.0802 -31.0366 -30.9430 -30.7701 -30.5823
   -29.8495 -29.8126 -29.7830 -29.6760 -14.9868 -14.9410 -14.8628 -14.7576
   -14.7171 -14.5958 -14.5070 -14.3682 -14.0694 -14.0396 -14.0280 -14.0069
   -13.9838 -13.9592 -13.9353 -13.9000 -13.8817 -13.8634 -13.8272 -13.8030
   -13.6980 -13.6422 -13.5930 -13.5869 -13.5713 -13.4746 -13.4377 -13.3354
   -13.2763 -13.2063 -13.1699 -13.0734 -13.0343 -13.0219 -13.0075 -12.9796
   -12.9512 -12.9435 -12.9100 -12.8111 -12.7772 -12.7180 -12.6957 -12.6720
   -12.6279 -12.6201 -12.5451 -12.4759 -12.3414 -12.3277 -12.1983 -12.1267
   -12.1077 -11.7751 -11.7628 -11.7490 -11.7361 -11.7162 -11.6861 -11.6034
   -11.5961 -11.5720 -11.5367 -11.5092 -11.4998  -2.4429  -2.4015  -2.2539
    -2.2109  -2.0500  -1.9743  -1.8334  -1.6956  -1.6402  -1.6131  -1.5747
    -1.5360  -1.4547  -1.3396  -1.3119  -1.2823  -1.2586  -1.2326  -1.1548
    -1.1271  -1.0886  -1.0715  -1.0115  -0.9790  -0.9433  -0.9084  -0.8795
    -0.8212  -0.7911  -0.7475  -0.7161  -0.6125  -0.5842  -0.4943  -0.4331
    -0.4050  -0.3461  -0.2629  -0.2254  -0.1278  -0.0799  -0.0303   0.0276
     0.0484   0.1216   0.1457   0.1779   0.2266   0.2695   0.5837   0.6611
     0.7165   0.7337   1.0189   1.0750   1.1510   1.1725   1.3491   1.3837
     1.4220   1.4317   1.4504   1.4691   1.5370   1.5847   1.6268   1.6533
     1.7904   1.8209   1.8431   1.8546   1.9033   1.9217   1.9368   1.9506
     1.9686   1.9937   2.0380   2.0489   2.0852   2.1121   2.1438   2.1955
     2.3166   2.4050   2.4292   2.4448   2.4532   2.5183   2.5483   2.6146
     2.6497   2.6555   2.6935   2.7249   2.7487   2.8315   2.8750   2.8881
     2.8933   2.9149   2.9360   2.9486   2.9633   2.9782   2.9990   3.0118
     3.0208   3.0286   3.0388   3.0511   3.5787   3.6303   3.7695   3.7917
     4.0688   4.1498   4.2005   4.4071   4.7809   4.8819   5.0360   5.0773
     5.4030   5.4275   5.5872   5.6252   5.7429   5.7888   6.3871   6.4103
     6.4926   6.6406   7.3101   7.3507   7.5880   7.7114   7.7914   7.8851
     7.9809   8.0271   8.3783   8.4095   8.5050   8.5469   8.5652   8.5838
     8.6676   8.7259   8.7714

     occupation numbers 
     1.0000   1.0000   1.0000   1.0000   1.0000   1.0000   1.0000   1.0000
     1.0000   1.0000   1.0000   1.0000   1.0000   1.0000   1.0000   1.0000
     1.0000   1.0000   1.0000   1.0000   1.0000   1.0000   1.0000   1.0000
     1.0000   1.0000   1.0000   1.0000   1.0000   1.0000   1.0000   1.0000
     1.0000   1.0000   1.0000   1.0000   1.0000   1.0000   1.0000   1.0000
     1.0000   1.0000   1.0000   1.0000   1.0000   1.0000   1.0000   1.0000
     1.0000   1.0000   1.0000   1.0000   1.0000   1.0000   1.0000   1.0000
     1.0000   1.0000   1.0000   1.0000   1.0000   1.0000   1.0000   1.0000
     1.0000   1.0000   1.0000   1.0000   1.0000   1.0000   1.0000   1.0000
     1.0000   1.0000   1.0000   1.0000   1.0000   1.0000   1.0000   1.0000
     1.0000   1.0000   1.0000   1.0000   1.0000   1.0000   1.0000   1.0000
     1.0000   1.0000   1.0000   1.0000   1.0000   1.0000   1.0000   1.0000
     1.0000   1.0000   1.0000   1.0000   1.0000   1.0000   1.0000   1.0000
     1.0000   1.0000   1.0000   1.0000   1.0000   1.0000   1.0000   1.0000
     1.0000   1.0000   1.0000   1.0000   1.0000   1.0000   1.0000   1.0000
     1.0000   1.0000   1.0000   1.0000   1.0000   1.0000   1.0000   1.0000
     1.0000   1.0000   1.0000   1.0000   1.0000   1.0000   1.0000   1.0000
     1.0000   1.0000   1.0000   1.0000   1.0000   1.0000   1.0000   1.0000
     1.0000   1.0000   1.0000   1.0000   1.0000   1.0000   1.0000   1.0000
     1.0000   1.0000   1.0000   1.0000   1.0000   1.0000   1.0000   1.0000
     0.9999   0.9999   0.9997   0.9996   0.9994   0.9993   0.9983   0.9980
     0.9976   0.9975   0.9973   0.9970   0.9960   0.9950   0.9941   0.9934
     0.9885   0.9871   0.9859   0.9853   0.9824   0.9812   0.9801   0.9791
     0.9777   0.9756   0.9716   0.9706   0.9668   0.9637   0.9598   0.9527
     0.9321   0.9132   0.9073   0.9034   0.9013   0.8834   0.8745   0.8530
     0.8406   0.8386   0.8243   0.8121   0.8024   0.7665   0.7462   0.7399
     0.7374   0.7269   0.7164   0.7100   0.7025   0.6947   0.6838   0.6770
     0.6722   0.6680   0.6625   0.6558   0.3511   0.3231   0.2528   0.2424
     0.1335   0.1093   0.0958   0.0534   0.0151   0.0102   0.0054   0.0046
     0.0010   0.0009   0.0004   0.0003   0.0002   0.0001   0.0000   0.0000
     0.0000   0.0000   0.0000   0.0000   0.0000   0.0000   0.0000   0.0000
     0.0000   0.0000   0.0000   0.0000   0.0000   0.0000   0.0000   0.0000
     0.0000   0.0000   0.0000

     the Fermi energy is     3.3212 ev

!    total energy              =   -4441.67581120 Ry
     estimated scf accuracy    <          6.2E-09 Ry
     smearing contrib. (-TS)   =      -1.15449181 Ry
     internal energy E=F+TS    =   -4440.52131938 Ry

     The total energy is F=E-TS. E is the sum of the following terms:
     one-electron contribution =  -20804.87004236 Ry
     hartree contribution      =   10534.36893585 Ry
     xc contribution           =    -694.19358363 Ry
     ewald contribution        =    6800.34051165 Ry
     one-center paw contrib.   =    -276.16714090 Ry
      -> PAW hartree energy AE =      25.12648401 Ry
      -> PAW hartree energy PS =     -25.01076347 Ry
      -> PAW xc energy AE      =     -16.51229708 Ry
      -> PAW xc energy PS      =       6.87151857 Ry
      -> total E_H with PAW    =   10534.48465639 Ry
      -> total E_XC with PAW   =    -703.83436214 Ry

     convergence has been achieved in  47 iterations

     Writing all to output data dir /bsuhome/zayahcortright/scratch/pwscf.save/
 
     init_run     :      7.90s CPU      8.57s WALL (       1 calls)
     electrons    :    773.72s CPU    855.19s WALL (       1 calls)

     Called by init_run:
     wfcinit      :      6.19s CPU      6.40s WALL (       1 calls)
     wfcinit:atom :      0.05s CPU      0.07s WALL (       5 calls)
     wfcinit:wfcr :      5.86s CPU      5.99s WALL (       5 calls)
     potinit      :      0.16s CPU      0.18s WALL (       1 calls)
     hinit0       :      0.56s CPU      0.76s WALL (       1 calls)

     Called by electrons:
     c_bands      :    626.98s CPU    638.67s WALL (      47 calls)
     sum_band     :    108.40s CPU    147.87s WALL (      47 calls)
     v_of_rho     :      5.20s CPU      5.53s WALL (      48 calls)
     v_h          :      0.48s CPU      0.49s WALL (      48 calls)
     v_xc         :      4.71s CPU      5.04s WALL (      48 calls)
     newd         :     18.57s CPU     48.02s WALL (      48 calls)
     PAW_pot      :      1.69s CPU      1.72s WALL (      48 calls)
     mix_rho      :     12.63s CPU     13.07s WALL (      47 calls)

     Called by c_bands:
     init_us_2    :      6.39s CPU      6.45s WALL (     475 calls)
     init_us_2:cp :      6.38s CPU      6.45s WALL (     475 calls)
     cegterg      :    591.13s CPU    602.49s WALL (     235 calls)

     Called by sum_band:
     sum_band:wei :      0.33s CPU      0.34s WALL (      47 calls)
     sum_band:loo :     88.48s CPU     89.12s WALL (      47 calls)
     sum_band:buf :      1.41s CPU      1.44s WALL (     235 calls)
     sum_band:ini :      2.97s CPU      2.97s WALL (     235 calls)
     sum_band:cal :     18.65s CPU     18.71s WALL (     235 calls)
     sum_band:bec :      0.53s CPU      0.55s WALL (     235 calls)
     addusdens    :     16.10s CPU     54.88s WALL (      47 calls)
                                        0.00s GPU  (      47 calls)
     addusd:skk   :      0.30s CPU      2.13s WALL (     188 calls)
                                        0.00s GPU  (     188 calls)

     Called by *egterg:
     cdiaghg      :     57.74s CPU     57.99s WALL (    1350 calls)
     cegterg:over :     48.74s CPU     48.93s WALL (    1115 calls)
     cegterg:upda :     52.10s CPU     53.14s WALL (    1115 calls)
     cegterg:last :     70.07s CPU     70.39s WALL (     431 calls)
     cdiaghg:chol :      3.38s CPU      3.41s WALL (    1350 calls)
     cdiaghg:inve :      3.66s CPU      3.67s WALL (    1350 calls)
     cdiaghg:para :      7.44s CPU      7.49s WALL (    2700 calls)
     h_psi        :    297.58s CPU    301.99s WALL (    1355 calls)
     s_psi        :     38.82s CPU     38.94s WALL (    1355 calls)
     g_psi        :      2.58s CPU      2.59s WALL (    1115 calls)

     Called by h_psi:
     h_psi:calbec :     44.64s CPU     44.87s WALL (    1355 calls)
     vloc_psi     :    208.40s CPU    210.20s WALL (    1355 calls)
     add_vuspsi   :     38.38s CPU     38.59s WALL (    1355 calls)

     General routines
     calbec       :     63.27s CPU     63.57s WALL (    1590 calls)
     fft          :      4.22s CPU      4.28s WALL (     622 calls)
     ffts         :      4.44s CPU      4.48s WALL (    5035 calls)
     fftw         :    171.85s CPU    173.13s WALL (  319367 calls)
     interpolate  :      0.39s CPU      0.40s WALL (      48 calls)
 
     Parallel routines

     PAW routines
     PAW_pot      :      1.69s CPU      1.72s WALL (      48 calls)
 
     PWSCF        :  13m 3.25s CPU  14m29.15s WALL

 
   This run was terminated on:   0:37:35  22Jun2024            

=------------------------------------------------------------------------------=
   JOB DONE.
=------------------------------------------------------------------------------=
