
     Program PWSCF v.7.2 starts on 19Jun2024 at  0:15:46 

     This program is part of the open-source Quantum ESPRESSO suite
     for quantum simulation of materials; please cite
         "P. Giannozzi et al., J. Phys.:Condens. Matter 21 395502 (2009);
         "P. Giannozzi et al., J. Phys.:Condens. Matter 29 465901 (2017);
         "P. Giannozzi et al., J. Chem. Phys. 152 154105 (2020);
          URL http://www.quantum-espresso.org", 
     in publications or presentations arising from this work. More details at
     http://www.quantum-espresso.org/quote

     Parallel version (MPI & OpenMP), running on      48 processor cores
     Number of MPI processes:                48
     Threads/MPI process:                     1

     MPI processes distributed on     1 nodes
     16428 MiB available memory on the printing compute node when the environment starts
 
     Reading input from espresso.pwi
Warning: card &CELL ignored
Warning: card / ignored
Warning: card &FCP ignored
Warning: card / ignored
Warning: card &RISM ignored
Warning: card / ignored

     Current dimensions of program PWSCF are:
     Max number of different atomic species (ntypx) = 10
     Max number of k-points (npk) =  40000
     Max angular momentum in pseudopotentials (lmaxx) =  4
     file O.pbe-n-kjpaw_psl.0.1.UPF: wavefunction(s)  2P renormalized
     signal trapping enabled: kill the code with -SIGUSR1 to stop cleanly the simulation 
 
     K-points division:     npool     =       2
     R & G space division:  proc/nbgrp/npool/nimage =      24
     Subspace diagonalization in iterative solution of the eigenvalue problem:
     one sub-group per band group will be used
     scalapack distributed-memory algorithm (size of sub-group:  3*  3 procs)

 
     Parallelization info
     --------------------
     sticks:   dense  smooth     PW     G-vecs:    dense   smooth      PW
     Min         350     175     47                61430    21716    3036
     Max         351     177     48                61449    21727    3041
     Sum        8421    4205   1137              1474595   521381   72913
 
     Using Slab Decomposition
 


     bravais-lattice index     =            0
     lattice parameter (alat)  =      14.8599  a.u.
     unit-cell volume          =    8305.1283 (a.u.)^3
     number of atoms/cell      =           51
     number of atomic types    =            4
     number of electrons       =       437.00
     number of Kohn-Sham states=          263
     kinetic-energy cutoff     =      60.0000  Ry
     charge density cutoff     =     480.0000  Ry
     scf convergence threshold =      1.0E-08
     mixing beta               =       0.1500
     number of iterations used =            8  local-TF  mixing
     Exchange-correlation= PBE
                           (   1   4   3   4   0   0   0)

     celldm(1)=  14.859904  celldm(2)=   0.000000  celldm(3)=   0.000000
     celldm(4)=   0.000000  celldm(5)=   0.000000  celldm(6)=   0.000000

     crystal axes: (cart. coord. in units of alat)
               a(1) = (   1.000000   0.000000   0.000000 )  
               a(2) = (   0.000000   1.000000   0.000000 )  
               a(3) = (   0.000000   0.000000   2.531036 )  

     reciprocal axes: (cart. coord. in units 2 pi/alat)
               b(1) = (  1.000000  0.000000  0.000000 )  
               b(2) = (  0.000000  1.000000  0.000000 )  
               b(3) = (  0.000000  0.000000  0.395095 )  


     PseudoPot. # 1 for Sr read from file:
     /bsuhome/zayahcortright/q-e/pseudo/Sr_pbe_v1.uspp.F.UPF
     MD5 check sum: 6b418c05fbe9db5448babca5e47b7a5b
     Pseudo is Ultrasoft + core correction, Zval = 10.0
     Generated by new atomic code, or converted to UPF format
     Using radial grid of  883 points,  6 beta functions with: 
                l(1) =   0
                l(2) =   0
                l(3) =   1
                l(4) =   1
                l(5) =   2
                l(6) =   2
     Q(r) pseudized with  6 coefficients,  rinner =    1.400   1.400   1.400
                                                       1.400   1.400

     PseudoPot. # 2 for O  read from file:
     /bsuhome/zayahcortright/q-e/pseudo/O.pbe-n-kjpaw_psl.0.1.UPF
     MD5 check sum: 0234752ac141de4415c5fc33072bef88
     Pseudo is Projector augmented-wave + core cor, Zval =  6.0
     Generated using "atomic" code by A. Dal Corso  v.5.0.99 svn rev. 10869
     Shape of augmentation charge: BESSEL
     Using radial grid of 1095 points,  4 beta functions with: 
                l(1) =   0
                l(2) =   0
                l(3) =   1
                l(4) =   1
     Q(r) pseudized with 0 coefficients 


     PseudoPot. # 3 for Co read from file:
     /bsuhome/zayahcortright/q-e/pseudo/Co_pbe_v1.2.uspp.F.UPF
     MD5 check sum: 5f91765df6ddd3222702df6e7b74a16d
     Pseudo is Ultrasoft + core correction, Zval = 17.0
     Generated by new atomic code, or converted to UPF format
     Using radial grid of  863 points,  6 beta functions with: 
                l(1) =   0
                l(2) =   0
                l(3) =   1
                l(4) =   1
                l(5) =   2
                l(6) =   2
     Q(r) pseudized with  8 coefficients,  rinner =    1.200   1.200   1.200
                                                       1.200   1.200

     PseudoPot. # 4 for H  read from file:
     /bsuhome/zayahcortright/q-e/pseudo/H.pbe-rrkjus_psl.1.0.0.UPF
     MD5 check sum: f52b6d4d1c606e5624b1dc7b2218f220
     Pseudo is Ultrasoft, Zval =  1.0
     Generated using "atomic" code by A. Dal Corso  v.5.1
     Using radial grid of  929 points,  2 beta functions with: 
                l(1) =   0
                l(2) =   0
     Q(r) pseudized with 0 coefficients 


     atomic species   valence    mass     pseudopotential
        Sr            10.00    87.62000     Sr( 1.00)
        O              6.00    15.99900     O ( 1.00)
        Co            17.00    58.93319     Co( 1.00)
        H              1.00     1.00800     H ( 1.00)

     No symmetry found


                                    s                        frac. trans.

      isym =  1     identity                                     

 cryst.   s( 1) = (     1          0          0      )
                  (     0          1          0      )
                  (     0          0          1      )

 cart.    s( 1) = (  1.0000000  0.0000000  0.0000000 )
                  (  0.0000000  1.0000000  0.0000000 )
                  (  0.0000000  0.0000000  1.0000000 )


   Cartesian axes

     site n.     atom                  positions (alat units)
         1           Sr  tau(   1) = (   0.2508693   0.7491307   1.7574407  )
         2           O   tau(   2) = (   0.4985141   0.5014859   1.7715967  )
         3           Sr  tau(   3) = (   0.7482398   0.7454518   1.7648669  )
         4           Sr  tau(   4) = (   0.7441748   0.2558252   1.7667843  )
         5           Sr  tau(   5) = (   0.2508693   0.7491307   1.2696799  )
         6           Sr  tau(   6) = (   0.2508693   0.7491307   0.7632319  )
         7           Co  tau(   7) = (   0.4998914   0.5001086   1.0164559  )
         8           Co  tau(   8) = (   0.4936915   0.5063085   1.5135603  )
         9           O   tau(   9) = (   0.4988895   0.7610401   1.0164559  )
        10           O   tau(  10) = (   0.2389599   0.5011105   1.0164559  )
        11           O   tau(  11) = (   0.0070918   0.7374880   1.0164559  )
        12           O   tau(  12) = (   0.0088340   0.7405089   1.5135603  )
        13           O   tau(  13) = (   0.5066944   0.7415376   1.5135603  )
        14           O   tau(  14) = (   0.2584624   0.4933056   1.5135603  )
        15           O   tau(  15) = (   0.4985141   0.5014859   0.7773880  )
        16           O   tau(  16) = (   0.4985141   0.5014859   1.2555238  )
        17           Sr  tau(  17) = (   0.7482398   0.7454518   0.7706582  )
        18           Sr  tau(  18) = (   0.7482398   0.7454518   1.2622536  )
        19           Sr  tau(  19) = (   0.7441748   0.2558252   0.7725755  )
        20           Sr  tau(  20) = (   0.7441748   0.2558252   1.2603363  )
        21           O   tau(  21) = (   0.7322655   0.0078049   1.5135603  )
        22           O   tau(  22) = (   0.7558175   0.4996027   1.5135603  )
        23           O   tau(  23) = (   0.5003973   0.2441825   1.5135603  )
        24           O   tau(  24) = (   0.7527966   0.4978604   1.0164559  )
        25           O   tau(  25) = (   0.5021396   0.2472034   1.0164559  )
        26           O   tau(  26) = (   0.7517679   0.0000000   1.0164559  )
        27           O   tau(  27) = (   0.0114961   0.4948124   1.7455321  )
        28           O   tau(  28) = (   0.0048226   0.0077944   1.7715967  )
        29           Sr  tau(  29) = (   0.2545482   0.2517602   1.7648669  )
        30           O   tau(  30) = (   0.5048017   0.0015068   1.7786929  )
        31           Co  tau(  31) = (   0.0056869   0.5006215   1.0164559  )
        32           Co  tau(  32) = (   0.0065315   0.4997770   1.5135603  )
        33           Co  tau(  33) = (   0.0061999   0.0064171   1.0164559  )
        34           Co  tau(  34) = (   0.0000000   0.0126169   1.5135603  )
        35           O   tau(  35) = (   0.0114961   0.4948124   1.2815885  )
        36           O   tau(  36) = (   0.0114961   0.4948124   0.7513233  )
        37           O   tau(  37) = (   0.0051979   0.2673486   1.0164559  )
        38           O   tau(  38) = (   0.0130029   0.2478461   1.5135603  )
        39           O   tau(  39) = (   0.0048226   0.0077944   0.7773880  )
        40           O   tau(  40) = (   0.0048226   0.0077944   1.2555238  )
        41           Sr  tau(  41) = (   0.2545482   0.2517602   0.7706582  )
        42           Sr  tau(  42) = (   0.2545482   0.2517602   1.2622536  )
        43           Co  tau(  43) = (   0.4989925   0.0073160   1.5135603  )
        44           Co  tau(  44) = (   0.4998370   0.0064714   1.0164559  )
        45           O   tau(  45) = (   0.5048017   0.0015068   0.7844841  )
        46           O   tau(  46) = (   0.5048017   0.0015068   1.2484277  )
        47           O   tau(  47) = (   0.2621260   0.0059111   1.5135603  )
        48           O   tau(  48) = (   0.2591051   0.0041689   1.0164559  )
        49           O   tau(  49) = (   0.4264937   0.7108228   2.1602013  )
        50           O   tau(  50) = (   0.4264937   0.7108228   2.3186489  )
        51           H   tau(  51) = (   0.4264937   0.7108228   2.4431567  )

   Crystallographic axes

     site n.     atom                  positions (cryst. coord.)
         1           Sr  tau(   1) = (  0.2508693  0.7491307  0.6943562  )
         2           O   tau(   2) = (  0.4985141  0.5014859  0.6999492  )
         3           Sr  tau(   3) = (  0.7482398  0.7454518  0.6972903  )
         4           Sr  tau(   4) = (  0.7441748  0.2558252  0.6980478  )
         5           Sr  tau(   5) = (  0.2508693  0.7491307  0.5016443  )
         6           Sr  tau(   6) = (  0.2508693  0.7491307  0.3015492  )
         7           Co  tau(   7) = (  0.4998914  0.5001086  0.4015968  )
         8           Co  tau(   8) = (  0.4936915  0.5063085  0.5980003  )
         9           O   tau(   9) = (  0.4988895  0.7610401  0.4015968  )
        10           O   tau(  10) = (  0.2389599  0.5011105  0.4015968  )
        11           O   tau(  11) = (  0.0070918  0.7374880  0.4015968  )
        12           O   tau(  12) = (  0.0088340  0.7405089  0.5980003  )
        13           O   tau(  13) = (  0.5066944  0.7415376  0.5980003  )
        14           O   tau(  14) = (  0.2584624  0.4933056  0.5980003  )
        15           O   tau(  15) = (  0.4985141  0.5014859  0.3071422  )
        16           O   tau(  16) = (  0.4985141  0.5014859  0.4960513  )
        17           Sr  tau(  17) = (  0.7482398  0.7454518  0.3044833  )
        18           Sr  tau(  18) = (  0.7482398  0.7454518  0.4987103  )
        19           Sr  tau(  19) = (  0.7441748  0.2558252  0.3052408  )
        20           Sr  tau(  20) = (  0.7441748  0.2558252  0.4979527  )
        21           O   tau(  21) = (  0.7322655  0.0078049  0.5980003  )
        22           O   tau(  22) = (  0.7558175  0.4996027  0.5980003  )
        23           O   tau(  23) = (  0.5003973  0.2441825  0.5980003  )
        24           O   tau(  24) = (  0.7527966  0.4978604  0.4015968  )
        25           O   tau(  25) = (  0.5021396  0.2472034  0.4015968  )
        26           O   tau(  26) = (  0.7517679  0.0000000  0.4015968  )
        27           O   tau(  27) = (  0.0114961  0.4948124  0.6896512  )
        28           O   tau(  28) = (  0.0048226  0.0077944  0.6999492  )
        29           Sr  tau(  29) = (  0.2545482  0.2517602  0.6972903  )
        30           O   tau(  30) = (  0.5048017  0.0015068  0.7027529  )
        31           Co  tau(  31) = (  0.0056869  0.5006215  0.4015968  )
        32           Co  tau(  32) = (  0.0065315  0.4997770  0.5980003  )
        33           Co  tau(  33) = (  0.0061999  0.0064171  0.4015968  )
        34           Co  tau(  34) = (  0.0000000  0.0126169  0.5980003  )
        35           O   tau(  35) = (  0.0114961  0.4948124  0.5063494  )
        36           O   tau(  36) = (  0.0114961  0.4948124  0.2968442  )
        37           O   tau(  37) = (  0.0051979  0.2673486  0.4015968  )
        38           O   tau(  38) = (  0.0130029  0.2478461  0.5980003  )
        39           O   tau(  39) = (  0.0048226  0.0077944  0.3071422  )
        40           O   tau(  40) = (  0.0048226  0.0077944  0.4960513  )
        41           Sr  tau(  41) = (  0.2545482  0.2517602  0.3044833  )
        42           Sr  tau(  42) = (  0.2545482  0.2517602  0.4987103  )
        43           Co  tau(  43) = (  0.4989925  0.0073160  0.5980003  )
        44           Co  tau(  44) = (  0.4998370  0.0064714  0.4015968  )
        45           O   tau(  45) = (  0.5048017  0.0015068  0.3099459  )
        46           O   tau(  46) = (  0.5048017  0.0015068  0.4932477  )
        47           O   tau(  47) = (  0.2621260  0.0059111  0.5980003  )
        48           O   tau(  48) = (  0.2591051  0.0041689  0.4015968  )
        49           O   tau(  49) = (  0.4264937  0.7108228  0.8534850  )
        50           O   tau(  50) = (  0.4264937  0.7108228  0.9160869  )
        51           H   tau(  51) = (  0.4264937  0.7108228  0.9652793  )

     number of k points=    10  Gaussian smearing, width (Ry)=  0.0700
                       cart. coord. in units 2pi/alat
        k(    1) = (   0.0000000   0.0000000   0.0000000), wk =   0.1250000
        k(    2) = (   0.0000000   0.2500000   0.0000000), wk =   0.2500000
        k(    3) = (   0.0000000  -0.5000000   0.0000000), wk =   0.1250000
        k(    4) = (   0.2500000   0.2500000   0.0000000), wk =   0.2500000
        k(    5) = (   0.2500000  -0.5000000   0.0000000), wk =   0.2500000
        k(    6) = (  -0.5000000  -0.5000000   0.0000000), wk =   0.1250000
        k(    7) = (   0.2500000   0.0000000   0.0000000), wk =   0.2500000
        k(    8) = (  -0.5000000   0.0000000   0.0000000), wk =   0.1250000
        k(    9) = (  -0.2500000   0.2500000   0.0000000), wk =   0.2500000
        k(   10) = (  -0.5000000   0.2500000   0.0000000), wk =   0.2500000

                       cryst. coord.
        k(    1) = (   0.0000000   0.0000000   0.0000000), wk =   0.1250000
        k(    2) = (   0.0000000   0.2500000   0.0000000), wk =   0.2500000
        k(    3) = (   0.0000000  -0.5000000   0.0000000), wk =   0.1250000
        k(    4) = (   0.2500000   0.2500000   0.0000000), wk =   0.2500000
        k(    5) = (   0.2500000  -0.5000000   0.0000000), wk =   0.2500000
        k(    6) = (  -0.5000000  -0.5000000   0.0000000), wk =   0.1250000
        k(    7) = (   0.2500000   0.0000000   0.0000000), wk =   0.2500000
        k(    8) = (  -0.5000000   0.0000000   0.0000000), wk =   0.1250000
        k(    9) = (  -0.2500000   0.2500000   0.0000000), wk =   0.2500000
        k(   10) = (  -0.5000000   0.2500000   0.0000000), wk =   0.2500000

     Dense  grid:  1474595 G-vectors     FFT dimensions: ( 108, 108, 270)

     Smooth grid:   521381 G-vectors     FFT dimensions: (  75,  75, 192)

     Dynamical RAM for                 wfc:      10.90 MB

     Dynamical RAM for     wfc (w. buffer):      65.37 MB

     Dynamical RAM for           str. fact:       3.75 MB

     Dynamical RAM for           local pot:       0.00 MB

     Dynamical RAM for          nlocal pot:      24.94 MB

     Dynamical RAM for                qrad:       7.03 MB

     Dynamical RAM for          rho,v,vnew:       6.02 MB

     Dynamical RAM for               rhoin:       2.01 MB

     Dynamical RAM for            rho*nmix:      15.00 MB

     Dynamical RAM for           G-vectors:       3.68 MB

     Dynamical RAM for          h,s,v(r/c):       1.40 MB

     Dynamical RAM for          <psi|beta>:       2.42 MB

     Dynamical RAM for                 psi:      21.79 MB

     Dynamical RAM for                hpsi:      21.79 MB

     Dynamical RAM for                spsi:      21.79 MB

     Dynamical RAM for      wfcinit/wfcrot:      34.89 MB

     Dynamical RAM for           addusdens:     101.73 MB

     Estimated static dynamical RAM per process >     122.82 MB

     Estimated max dynamical RAM per process >     239.55 MB

     Estimated total dynamical RAM >      10.88 GB

     Check: negative core charge=   -0.000004

     Initial potential from superposition of free atoms

     starting charge     428.5961, renormalised to     437.0000

     negative rho (up, down):  7.813E-01 0.000E+00
     Starting wfcs are  381 randomized atomic wfcs
     Checking if some PAW data can be deallocated... 
       PAW data deallocated on   18 nodes for type:  2

     total cpu time spent up to now is        9.2 secs

     Self-consistent Calculation

     iteration #  1     ecut=    60.00 Ry     beta= 0.15
     Davidson diagonalization with overlap

---- Real-time Memory Report at c_bands before calling an iterative solver
             0 MiB given to the printing process from OS
             0 MiB allocation reported by mallinfo(arena+hblkhd)
          6872 MiB available memory on the node where the printing process lives
------------------
     ethr =  1.00E-02,  avg # of iterations =  2.0

     negative rho (up, down):  7.715E-01 0.000E+00

     total cpu time spent up to now is       25.6 secs

     total energy              =   -4489.28839986 Ry
     estimated scf accuracy    <      49.75370397 Ry

     iteration #  2     ecut=    60.00 Ry     beta= 0.15
     Davidson diagonalization with overlap

---- Real-time Memory Report at c_bands before calling an iterative solver
             0 MiB given to the printing process from OS
             0 MiB allocation reported by mallinfo(arena+hblkhd)
          7198 MiB available memory on the node where the printing process lives
------------------
     ethr =  1.00E-02,  avg # of iterations =  1.0

     negative rho (up, down):  7.612E-01 0.000E+00

     total cpu time spent up to now is       38.9 secs

     total energy              =   -4486.80241258 Ry
     estimated scf accuracy    <      35.30853145 Ry

     iteration #  3     ecut=    60.00 Ry     beta= 0.15
     Davidson diagonalization with overlap

---- Real-time Memory Report at c_bands before calling an iterative solver
             0 MiB given to the printing process from OS
             0 MiB allocation reported by mallinfo(arena+hblkhd)
          6395 MiB available memory on the node where the printing process lives
------------------
     ethr =  8.08E-03,  avg # of iterations =  1.0

     negative rho (up, down):  7.562E-01 0.000E+00

     total cpu time spent up to now is       52.4 secs

     total energy              =   -4486.76803282 Ry
     estimated scf accuracy    <      35.35206734 Ry

     iteration #  4     ecut=    60.00 Ry     beta= 0.15
     Davidson diagonalization with overlap

---- Real-time Memory Report at c_bands before calling an iterative solver
             0 MiB given to the printing process from OS
             0 MiB allocation reported by mallinfo(arena+hblkhd)
          6369 MiB available memory on the node where the printing process lives
------------------
     ethr =  8.08E-03,  avg # of iterations =  1.0

     negative rho (up, down):  7.575E-01 0.000E+00

     total cpu time spent up to now is       65.8 secs

     total energy              =   -4486.59161333 Ry
     estimated scf accuracy    <      34.25882559 Ry

     iteration #  5     ecut=    60.00 Ry     beta= 0.15
     Davidson diagonalization with overlap

---- Real-time Memory Report at c_bands before calling an iterative solver
             0 MiB given to the printing process from OS
             0 MiB allocation reported by mallinfo(arena+hblkhd)
          6351 MiB available memory on the node where the printing process lives
------------------
     ethr =  7.84E-03,  avg # of iterations =  1.0

     negative rho (up, down):  7.334E-01 0.000E+00

     total cpu time spent up to now is       79.4 secs

     total energy              =   -4482.50564225 Ry
     estimated scf accuracy    <      22.66673709 Ry

     iteration #  6     ecut=    60.00 Ry     beta= 0.15
     Davidson diagonalization with overlap

---- Real-time Memory Report at c_bands before calling an iterative solver
             0 MiB given to the printing process from OS
             0 MiB allocation reported by mallinfo(arena+hblkhd)
          6332 MiB available memory on the node where the printing process lives
------------------
     ethr =  5.19E-03,  avg # of iterations =  2.0

     negative rho (up, down):  7.487E-01 0.000E+00

     total cpu time spent up to now is       94.2 secs

     total energy              =   -4483.63870142 Ry
     estimated scf accuracy    <      37.86825000 Ry

     iteration #  7     ecut=    60.00 Ry     beta= 0.15
     Davidson diagonalization with overlap

---- Real-time Memory Report at c_bands before calling an iterative solver
             0 MiB given to the printing process from OS
             0 MiB allocation reported by mallinfo(arena+hblkhd)
          6305 MiB available memory on the node where the printing process lives
------------------
     ethr =  5.19E-03,  avg # of iterations =  1.0

     negative rho (up, down):  7.542E-01 0.000E+00

     total cpu time spent up to now is      107.3 secs

     total energy              =   -4483.50935633 Ry
     estimated scf accuracy    <      38.08640055 Ry

     iteration #  8     ecut=    60.00 Ry     beta= 0.15
     Davidson diagonalization with overlap

---- Real-time Memory Report at c_bands before calling an iterative solver
             0 MiB given to the printing process from OS
             0 MiB allocation reported by mallinfo(arena+hblkhd)
          6288 MiB available memory on the node where the printing process lives
------------------
     ethr =  5.19E-03,  avg # of iterations =  1.0

     negative rho (up, down):  7.516E-01 0.000E+00

     total cpu time spent up to now is      120.2 secs

     total energy              =   -4483.85355611 Ry
     estimated scf accuracy    <       6.47735780 Ry

     iteration #  9     ecut=    60.00 Ry     beta= 0.15
     Davidson diagonalization with overlap

---- Real-time Memory Report at c_bands before calling an iterative solver
             0 MiB given to the printing process from OS
             0 MiB allocation reported by mallinfo(arena+hblkhd)
          6265 MiB available memory on the node where the printing process lives
------------------
     ethr =  1.48E-03,  avg # of iterations =  3.3

     negative rho (up, down):  7.654E-01 0.000E+00

     total cpu time spent up to now is      135.2 secs

     total energy              =   -4483.79600423 Ry
     estimated scf accuracy    <       3.77225957 Ry

     iteration # 10     ecut=    60.00 Ry     beta= 0.15
     Davidson diagonalization with overlap

---- Real-time Memory Report at c_bands before calling an iterative solver
             0 MiB given to the printing process from OS
             0 MiB allocation reported by mallinfo(arena+hblkhd)
          6241 MiB available memory on the node where the printing process lives
------------------
     ethr =  8.63E-04,  avg # of iterations = 11.8

     negative rho (up, down):  7.881E-01 0.000E+00

     total cpu time spent up to now is      154.4 secs

     total energy              =   -4483.52399125 Ry
     estimated scf accuracy    <       4.79268462 Ry

     iteration # 11     ecut=    60.00 Ry     beta= 0.15
     Davidson diagonalization with overlap

---- Real-time Memory Report at c_bands before calling an iterative solver
             0 MiB given to the printing process from OS
             0 MiB allocation reported by mallinfo(arena+hblkhd)
          5922 MiB available memory on the node where the printing process lives
------------------
     ethr =  8.63E-04,  avg # of iterations =  7.5

     negative rho (up, down):  7.919E-01 0.000E+00

     total cpu time spent up to now is      171.3 secs

     total energy              =   -4483.21257108 Ry
     estimated scf accuracy    <       4.25596398 Ry

     iteration # 12     ecut=    60.00 Ry     beta= 0.15
     Davidson diagonalization with overlap

---- Real-time Memory Report at c_bands before calling an iterative solver
             0 MiB given to the printing process from OS
             0 MiB allocation reported by mallinfo(arena+hblkhd)
          5842 MiB available memory on the node where the printing process lives
------------------
     ethr =  8.63E-04,  avg # of iterations = 10.2

     negative rho (up, down):  8.019E-01 0.000E+00

     total cpu time spent up to now is      189.5 secs

     total energy              =   -4483.19977901 Ry
     estimated scf accuracy    <       2.23639221 Ry

     iteration # 13     ecut=    60.00 Ry     beta= 0.15
     Davidson diagonalization with overlap

---- Real-time Memory Report at c_bands before calling an iterative solver
             0 MiB given to the printing process from OS
             0 MiB allocation reported by mallinfo(arena+hblkhd)
          5796 MiB available memory on the node where the printing process lives
------------------
     ethr =  5.12E-04,  avg # of iterations =  2.0

     negative rho (up, down):  8.019E-01 0.000E+00

     total cpu time spent up to now is      203.7 secs

     total energy              =   -4483.27097717 Ry
     estimated scf accuracy    <       1.22399792 Ry

     iteration # 14     ecut=    60.00 Ry     beta= 0.15
     Davidson diagonalization with overlap

---- Real-time Memory Report at c_bands before calling an iterative solver
             0 MiB given to the printing process from OS
             0 MiB allocation reported by mallinfo(arena+hblkhd)
          5811 MiB available memory on the node where the printing process lives
------------------
     ethr =  2.80E-04,  avg # of iterations =  5.6

     negative rho (up, down):  8.116E-01 0.000E+00

     total cpu time spent up to now is      220.3 secs

     total energy              =   -4483.13957421 Ry
     estimated scf accuracy    <       0.84358270 Ry

     iteration # 15     ecut=    60.00 Ry     beta= 0.15
     Davidson diagonalization with overlap

---- Real-time Memory Report at c_bands before calling an iterative solver
             0 MiB given to the printing process from OS
             0 MiB allocation reported by mallinfo(arena+hblkhd)
          5759 MiB available memory on the node where the printing process lives
------------------
     ethr =  1.93E-04,  avg # of iterations =  3.9

     negative rho (up, down):  8.147E-01 0.000E+00

     total cpu time spent up to now is      235.9 secs

     total energy              =   -4483.14658836 Ry
     estimated scf accuracy    <       1.71864438 Ry

     iteration # 16     ecut=    60.00 Ry     beta= 0.15
     Davidson diagonalization with overlap

---- Real-time Memory Report at c_bands before calling an iterative solver
             0 MiB given to the printing process from OS
             0 MiB allocation reported by mallinfo(arena+hblkhd)
          5769 MiB available memory on the node where the printing process lives
------------------
     ethr =  1.93E-04,  avg # of iterations =  1.8

     negative rho (up, down):  8.138E-01 0.000E+00

     total cpu time spent up to now is      249.9 secs

     total energy              =   -4483.13136852 Ry
     estimated scf accuracy    <       0.82602097 Ry

     iteration # 17     ecut=    60.00 Ry     beta= 0.15
     Davidson diagonalization with overlap

---- Real-time Memory Report at c_bands before calling an iterative solver
             0 MiB given to the printing process from OS
             0 MiB allocation reported by mallinfo(arena+hblkhd)
          5772 MiB available memory on the node where the printing process lives
------------------
     ethr =  1.89E-04,  avg # of iterations =  1.8

     negative rho (up, down):  8.177E-01 0.000E+00

     total cpu time spent up to now is      264.3 secs

     total energy              =   -4483.06403513 Ry
     estimated scf accuracy    <       0.41800634 Ry

     iteration # 18     ecut=    60.00 Ry     beta= 0.15
     Davidson diagonalization with overlap

---- Real-time Memory Report at c_bands before calling an iterative solver
             0 MiB given to the printing process from OS
             0 MiB allocation reported by mallinfo(arena+hblkhd)
          5780 MiB available memory on the node where the printing process lives
------------------
     ethr =  9.57E-05,  avg # of iterations = 12.7

     negative rho (up, down):  8.178E-01 0.000E+00

     total cpu time spent up to now is      284.1 secs

     total energy              =   -4483.03933268 Ry
     estimated scf accuracy    <       0.75566340 Ry

     iteration # 19     ecut=    60.00 Ry     beta= 0.15
     Davidson diagonalization with overlap

---- Real-time Memory Report at c_bands before calling an iterative solver
             0 MiB given to the printing process from OS
             0 MiB allocation reported by mallinfo(arena+hblkhd)
          5761 MiB available memory on the node where the printing process lives
------------------
     ethr =  9.57E-05,  avg # of iterations =  4.8

     negative rho (up, down):  8.244E-01 0.000E+00

     total cpu time spent up to now is      300.5 secs

     total energy              =   -4483.02982700 Ry
     estimated scf accuracy    <       0.36156155 Ry

     iteration # 20     ecut=    60.00 Ry     beta= 0.15
     Davidson diagonalization with overlap

---- Real-time Memory Report at c_bands before calling an iterative solver
             0 MiB given to the printing process from OS
             0 MiB allocation reported by mallinfo(arena+hblkhd)
          5751 MiB available memory on the node where the printing process lives
------------------
     c_bands:  1 eigenvalues not converged
     ethr =  8.27E-05,  avg # of iterations =  7.4

     negative rho (up, down):  8.214E-01 0.000E+00

     total cpu time spent up to now is      318.8 secs

     total energy              =   -4483.00237014 Ry
     estimated scf accuracy    <       0.57323291 Ry

     iteration # 21     ecut=    60.00 Ry     beta= 0.15
     Davidson diagonalization with overlap

---- Real-time Memory Report at c_bands before calling an iterative solver
             0 MiB given to the printing process from OS
             0 MiB allocation reported by mallinfo(arena+hblkhd)
          5758 MiB available memory on the node where the printing process lives
------------------
     ethr =  8.27E-05,  avg # of iterations =  5.0

     negative rho (up, down):  8.354E-01 0.000E+00

     total cpu time spent up to now is      335.0 secs

     total energy              =   -4482.97922679 Ry
     estimated scf accuracy    <       0.28548816 Ry

     iteration # 22     ecut=    60.00 Ry     beta= 0.15
     Davidson diagonalization with overlap

---- Real-time Memory Report at c_bands before calling an iterative solver
             0 MiB given to the printing process from OS
             0 MiB allocation reported by mallinfo(arena+hblkhd)
          5755 MiB available memory on the node where the printing process lives
------------------
     ethr =  6.53E-05,  avg # of iterations =  8.7

     negative rho (up, down):  8.443E-01 0.000E+00

     total cpu time spent up to now is      353.3 secs

     total energy              =   -4482.97938464 Ry
     estimated scf accuracy    <       0.05669581 Ry

     iteration # 23     ecut=    60.00 Ry     beta= 0.15
     Davidson diagonalization with overlap

---- Real-time Memory Report at c_bands before calling an iterative solver
             0 MiB given to the printing process from OS
             0 MiB allocation reported by mallinfo(arena+hblkhd)
          5749 MiB available memory on the node where the printing process lives
------------------
     ethr =  1.30E-05,  avg # of iterations = 12.0

     negative rho (up, down):  8.354E-01 0.000E+00

     total cpu time spent up to now is      374.1 secs

     total energy              =   -4482.97544737 Ry
     estimated scf accuracy    <       0.03351443 Ry

     iteration # 24     ecut=    60.00 Ry     beta= 0.15
     Davidson diagonalization with overlap

---- Real-time Memory Report at c_bands before calling an iterative solver
             0 MiB given to the printing process from OS
             0 MiB allocation reported by mallinfo(arena+hblkhd)
          5582 MiB available memory on the node where the printing process lives
------------------
     ethr =  7.67E-06,  avg # of iterations = 11.6

     negative rho (up, down):  8.252E-01 0.000E+00

     total cpu time spent up to now is      393.4 secs

     total energy              =   -4482.97536210 Ry
     estimated scf accuracy    <       0.01786155 Ry

     iteration # 25     ecut=    60.00 Ry     beta= 0.15
     Davidson diagonalization with overlap

---- Real-time Memory Report at c_bands before calling an iterative solver
             0 MiB given to the printing process from OS
             0 MiB allocation reported by mallinfo(arena+hblkhd)
          5576 MiB available memory on the node where the printing process lives
------------------
     ethr =  4.09E-06,  avg # of iterations =  4.3

     negative rho (up, down):  8.076E-01 0.000E+00

     total cpu time spent up to now is      409.4 secs

     total energy              =   -4482.97181460 Ry
     estimated scf accuracy    <       0.01228506 Ry

     iteration # 26     ecut=    60.00 Ry     beta= 0.15
     Davidson diagonalization with overlap

---- Real-time Memory Report at c_bands before calling an iterative solver
             0 MiB given to the printing process from OS
             0 MiB allocation reported by mallinfo(arena+hblkhd)
          5573 MiB available memory on the node where the printing process lives
------------------
     ethr =  2.81E-06,  avg # of iterations =  8.4

     negative rho (up, down):  8.040E-01 0.000E+00

     total cpu time spent up to now is      428.7 secs

     total energy              =   -4482.97262185 Ry
     estimated scf accuracy    <       0.00473359 Ry

     iteration # 27     ecut=    60.00 Ry     beta= 0.15
     Davidson diagonalization with overlap

---- Real-time Memory Report at c_bands before calling an iterative solver
             0 MiB given to the printing process from OS
             0 MiB allocation reported by mallinfo(arena+hblkhd)
          5523 MiB available memory on the node where the printing process lives
------------------
     ethr =  1.08E-06,  avg # of iterations =  3.6

     negative rho (up, down):  7.990E-01 0.000E+00

     total cpu time spent up to now is      443.9 secs

     total energy              =   -4482.97238973 Ry
     estimated scf accuracy    <       0.00290288 Ry

     iteration # 28     ecut=    60.00 Ry     beta= 0.15
     Davidson diagonalization with overlap

---- Real-time Memory Report at c_bands before calling an iterative solver
             0 MiB given to the printing process from OS
             0 MiB allocation reported by mallinfo(arena+hblkhd)
          5522 MiB available memory on the node where the printing process lives
------------------
     ethr =  6.64E-07,  avg # of iterations =  9.7

     negative rho (up, down):  7.934E-01 0.000E+00

     total cpu time spent up to now is      461.9 secs

     total energy              =   -4482.97209608 Ry
     estimated scf accuracy    <       0.00158484 Ry

     iteration # 29     ecut=    60.00 Ry     beta= 0.15
     Davidson diagonalization with overlap

---- Real-time Memory Report at c_bands before calling an iterative solver
             0 MiB given to the printing process from OS
             0 MiB allocation reported by mallinfo(arena+hblkhd)
          5545 MiB available memory on the node where the printing process lives
------------------
     ethr =  3.63E-07,  avg # of iterations =  8.8

     negative rho (up, down):  7.932E-01 0.000E+00

     total cpu time spent up to now is      481.2 secs

     total energy              =   -4482.97221036 Ry
     estimated scf accuracy    <       0.00045499 Ry

     iteration # 30     ecut=    60.00 Ry     beta= 0.15
     Davidson diagonalization with overlap

---- Real-time Memory Report at c_bands before calling an iterative solver
             0 MiB given to the printing process from OS
             0 MiB allocation reported by mallinfo(arena+hblkhd)
          5527 MiB available memory on the node where the printing process lives
------------------
     ethr =  1.04E-07,  avg # of iterations =  3.3

     negative rho (up, down):  7.926E-01 0.000E+00

     total cpu time spent up to now is      496.6 secs

     total energy              =   -4482.97219387 Ry
     estimated scf accuracy    <       0.00027734 Ry

     iteration # 31     ecut=    60.00 Ry     beta= 0.15
     Davidson diagonalization with overlap

---- Real-time Memory Report at c_bands before calling an iterative solver
             0 MiB given to the printing process from OS
             0 MiB allocation reported by mallinfo(arena+hblkhd)
          5510 MiB available memory on the node where the printing process lives
------------------
     ethr =  6.35E-08,  avg # of iterations =  3.1

     negative rho (up, down):  7.923E-01 0.000E+00

     total cpu time spent up to now is      511.4 secs

     total energy              =   -4482.97218786 Ry
     estimated scf accuracy    <       0.00017347 Ry

     iteration # 32     ecut=    60.00 Ry     beta= 0.15
     Davidson diagonalization with overlap

---- Real-time Memory Report at c_bands before calling an iterative solver
             0 MiB given to the printing process from OS
             0 MiB allocation reported by mallinfo(arena+hblkhd)
          5527 MiB available memory on the node where the printing process lives
------------------
     ethr =  3.97E-08,  avg # of iterations =  4.0

     negative rho (up, down):  7.922E-01 0.000E+00

     total cpu time spent up to now is      526.9 secs

     total energy              =   -4482.97218895 Ry
     estimated scf accuracy    <       0.00008083 Ry

     iteration # 33     ecut=    60.00 Ry     beta= 0.15
     Davidson diagonalization with overlap

---- Real-time Memory Report at c_bands before calling an iterative solver
             0 MiB given to the printing process from OS
             0 MiB allocation reported by mallinfo(arena+hblkhd)
          5529 MiB available memory on the node where the printing process lives
------------------
     ethr =  1.85E-08,  avg # of iterations =  3.6

     negative rho (up, down):  7.922E-01 0.000E+00

     total cpu time spent up to now is      542.2 secs

     total energy              =   -4482.97219540 Ry
     estimated scf accuracy    <       0.00003870 Ry

     iteration # 34     ecut=    60.00 Ry     beta= 0.15
     Davidson diagonalization with overlap

---- Real-time Memory Report at c_bands before calling an iterative solver
             0 MiB given to the printing process from OS
             0 MiB allocation reported by mallinfo(arena+hblkhd)
          5529 MiB available memory on the node where the printing process lives
------------------
     ethr =  8.86E-09,  avg # of iterations =  3.2

     negative rho (up, down):  7.923E-01 0.000E+00

     total cpu time spent up to now is      557.0 secs

     total energy              =   -4482.97220280 Ry
     estimated scf accuracy    <       0.00003202 Ry

     iteration # 35     ecut=    60.00 Ry     beta= 0.15
     Davidson diagonalization with overlap

---- Real-time Memory Report at c_bands before calling an iterative solver
             0 MiB given to the printing process from OS
             0 MiB allocation reported by mallinfo(arena+hblkhd)
          5535 MiB available memory on the node where the printing process lives
------------------
     ethr =  7.33E-09,  avg # of iterations =  4.4

     negative rho (up, down):  7.923E-01 0.000E+00

     total cpu time spent up to now is      572.5 secs

     total energy              =   -4482.97220880 Ry
     estimated scf accuracy    <       0.00002537 Ry

     iteration # 36     ecut=    60.00 Ry     beta= 0.15
     Davidson diagonalization with overlap

---- Real-time Memory Report at c_bands before calling an iterative solver
             0 MiB given to the printing process from OS
             0 MiB allocation reported by mallinfo(arena+hblkhd)
          5550 MiB available memory on the node where the printing process lives
------------------
     ethr =  5.81E-09,  avg # of iterations =  2.0

     negative rho (up, down):  7.923E-01 0.000E+00

     total cpu time spent up to now is      586.9 secs

     total energy              =   -4482.97221631 Ry
     estimated scf accuracy    <       0.00002055 Ry

     iteration # 37     ecut=    60.00 Ry     beta= 0.15
     Davidson diagonalization with overlap

---- Real-time Memory Report at c_bands before calling an iterative solver
             0 MiB given to the printing process from OS
             0 MiB allocation reported by mallinfo(arena+hblkhd)
          5553 MiB available memory on the node where the printing process lives
------------------
     ethr =  4.70E-09,  avg # of iterations =  3.6

     negative rho (up, down):  7.923E-01 0.000E+00

     total cpu time spent up to now is      602.1 secs

     total energy              =   -4482.97221502 Ry
     estimated scf accuracy    <       0.00001344 Ry

     iteration # 38     ecut=    60.00 Ry     beta= 0.15
     Davidson diagonalization with overlap

---- Real-time Memory Report at c_bands before calling an iterative solver
             0 MiB given to the printing process from OS
             0 MiB allocation reported by mallinfo(arena+hblkhd)
          5549 MiB available memory on the node where the printing process lives
------------------
     ethr =  3.07E-09,  avg # of iterations =  4.9

     negative rho (up, down):  7.923E-01 0.000E+00

     total cpu time spent up to now is      618.2 secs

     total energy              =   -4482.97221494 Ry
     estimated scf accuracy    <       0.00000464 Ry

     iteration # 39     ecut=    60.00 Ry     beta= 0.15
     Davidson diagonalization with overlap

---- Real-time Memory Report at c_bands before calling an iterative solver
             0 MiB given to the printing process from OS
             0 MiB allocation reported by mallinfo(arena+hblkhd)
          5542 MiB available memory on the node where the printing process lives
------------------
     ethr =  1.06E-09,  avg # of iterations =  2.5

     negative rho (up, down):  7.923E-01 0.000E+00

     total cpu time spent up to now is      632.6 secs

     total energy              =   -4482.97221353 Ry
     estimated scf accuracy    <       0.00000407 Ry

     iteration # 40     ecut=    60.00 Ry     beta= 0.15
     Davidson diagonalization with overlap

---- Real-time Memory Report at c_bands before calling an iterative solver
             0 MiB given to the printing process from OS
             0 MiB allocation reported by mallinfo(arena+hblkhd)
          5544 MiB available memory on the node where the printing process lives
------------------
     ethr =  9.31E-10,  avg # of iterations =  2.9

     negative rho (up, down):  7.923E-01 0.000E+00

     total cpu time spent up to now is      647.5 secs

     total energy              =   -4482.97221626 Ry
     estimated scf accuracy    <       0.00000240 Ry

     iteration # 41     ecut=    60.00 Ry     beta= 0.15
     Davidson diagonalization with overlap

---- Real-time Memory Report at c_bands before calling an iterative solver
             0 MiB given to the printing process from OS
             0 MiB allocation reported by mallinfo(arena+hblkhd)
          5544 MiB available memory on the node where the printing process lives
------------------
     ethr =  5.49E-10,  avg # of iterations =  4.5

     negative rho (up, down):  7.924E-01 0.000E+00

     total cpu time spent up to now is      663.2 secs

     total energy              =   -4482.97221715 Ry
     estimated scf accuracy    <       0.00000119 Ry

     iteration # 42     ecut=    60.00 Ry     beta= 0.15
     Davidson diagonalization with overlap

---- Real-time Memory Report at c_bands before calling an iterative solver
             0 MiB given to the printing process from OS
             0 MiB allocation reported by mallinfo(arena+hblkhd)
          5535 MiB available memory on the node where the printing process lives
------------------
     ethr =  2.72E-10,  avg # of iterations =  4.6

     negative rho (up, down):  7.924E-01 0.000E+00

     total cpu time spent up to now is      678.9 secs

     total energy              =   -4482.97221755 Ry
     estimated scf accuracy    <       0.00000071 Ry

     iteration # 43     ecut=    60.00 Ry     beta= 0.15
     Davidson diagonalization with overlap

---- Real-time Memory Report at c_bands before calling an iterative solver
             0 MiB given to the printing process from OS
             0 MiB allocation reported by mallinfo(arena+hblkhd)
          5536 MiB available memory on the node where the printing process lives
------------------
     ethr =  1.62E-10,  avg # of iterations =  4.2

     negative rho (up, down):  7.923E-01 0.000E+00

     total cpu time spent up to now is      694.2 secs

     total energy              =   -4482.97221773 Ry
     estimated scf accuracy    <       0.00000054 Ry

     iteration # 44     ecut=    60.00 Ry     beta= 0.15
     Davidson diagonalization with overlap

---- Real-time Memory Report at c_bands before calling an iterative solver
             0 MiB given to the printing process from OS
             0 MiB allocation reported by mallinfo(arena+hblkhd)
          5533 MiB available memory on the node where the printing process lives
------------------
     ethr =  1.24E-10,  avg # of iterations =  4.5

     negative rho (up, down):  7.923E-01 0.000E+00

     total cpu time spent up to now is      709.7 secs

     total energy              =   -4482.97221777 Ry
     estimated scf accuracy    <       0.00000035 Ry

     iteration # 45     ecut=    60.00 Ry     beta= 0.15
     Davidson diagonalization with overlap

---- Real-time Memory Report at c_bands before calling an iterative solver
             0 MiB given to the printing process from OS
             0 MiB allocation reported by mallinfo(arena+hblkhd)
          5532 MiB available memory on the node where the printing process lives
------------------
     ethr =  8.02E-11,  avg # of iterations =  4.2

     negative rho (up, down):  7.923E-01 0.000E+00

     total cpu time spent up to now is      725.2 secs

     total energy              =   -4482.97221774 Ry
     estimated scf accuracy    <       0.00000025 Ry

     iteration # 46     ecut=    60.00 Ry     beta= 0.15
     Davidson diagonalization with overlap

---- Real-time Memory Report at c_bands before calling an iterative solver
             0 MiB given to the printing process from OS
             0 MiB allocation reported by mallinfo(arena+hblkhd)
          5534 MiB available memory on the node where the printing process lives
------------------
     ethr =  5.66E-11,  avg # of iterations =  3.7

     negative rho (up, down):  7.923E-01 0.000E+00

     total cpu time spent up to now is      740.9 secs

     total energy              =   -4482.97221775 Ry
     estimated scf accuracy    <       0.00000013 Ry

     iteration # 47     ecut=    60.00 Ry     beta= 0.15
     Davidson diagonalization with overlap

---- Real-time Memory Report at c_bands before calling an iterative solver
             0 MiB given to the printing process from OS
             0 MiB allocation reported by mallinfo(arena+hblkhd)
          5530 MiB available memory on the node where the printing process lives
------------------
     ethr =  2.90E-11,  avg # of iterations =  4.3

     negative rho (up, down):  7.923E-01 0.000E+00

     total cpu time spent up to now is      757.1 secs

     total energy              =   -4482.97221776 Ry
     estimated scf accuracy    <       0.00000007 Ry

     iteration # 48     ecut=    60.00 Ry     beta= 0.15
     Davidson diagonalization with overlap

---- Real-time Memory Report at c_bands before calling an iterative solver
             0 MiB given to the printing process from OS
             0 MiB allocation reported by mallinfo(arena+hblkhd)
          5536 MiB available memory on the node where the printing process lives
------------------
     ethr =  1.57E-11,  avg # of iterations =  3.0

     negative rho (up, down):  7.923E-01 0.000E+00

     total cpu time spent up to now is      772.3 secs

     total energy              =   -4482.97221778 Ry
     estimated scf accuracy    <       0.00000004 Ry

     iteration # 49     ecut=    60.00 Ry     beta= 0.15
     Davidson diagonalization with overlap

---- Real-time Memory Report at c_bands before calling an iterative solver
             0 MiB given to the printing process from OS
             0 MiB allocation reported by mallinfo(arena+hblkhd)
          5554 MiB available memory on the node where the printing process lives
------------------
     ethr =  9.53E-12,  avg # of iterations =  4.0

     negative rho (up, down):  7.923E-01 0.000E+00

     total cpu time spent up to now is      787.6 secs

     total energy              =   -4482.97221778 Ry
     estimated scf accuracy    <       0.00000002 Ry

     iteration # 50     ecut=    60.00 Ry     beta= 0.15
     Davidson diagonalization with overlap

---- Real-time Memory Report at c_bands before calling an iterative solver
             0 MiB given to the printing process from OS
             0 MiB allocation reported by mallinfo(arena+hblkhd)
          5558 MiB available memory on the node where the printing process lives
------------------
     ethr =  5.71E-12,  avg # of iterations =  4.4

     negative rho (up, down):  7.923E-01 0.000E+00

     total cpu time spent up to now is      803.2 secs

     End of self-consistent calculation

          k = 0.0000 0.0000 0.0000 ( 65197 PWs)   bands (ev):

   -92.3366 -92.2809 -92.1903 -92.1415 -92.0846 -92.0430 -92.0254 -91.9005
   -55.6898 -55.6672 -55.5483 -55.5377 -55.5293 -55.5245 -55.4859 -55.4600
   -55.4435 -55.4421 -55.4326 -55.3923 -55.3729 -55.3362 -55.3162 -55.2842
   -55.2770 -55.2317 -55.2287 -55.2283 -55.2202 -55.1745 -55.1562 -55.0677
   -30.9228 -30.9036 -30.7651 -30.7631 -30.7403 -30.6763 -30.5042 -30.4744
   -29.4877 -29.4442 -29.4193 -29.3102 -22.2528 -14.7215 -14.6850 -14.5999
   -14.4692 -14.2868 -14.1619 -13.8615 -13.8464 -13.8118 -13.7771 -13.7709
   -13.7306 -13.7234 -13.7048 -13.6899 -13.6619 -13.6359 -13.5707 -13.4235
   -13.2550 -13.2117 -13.1799 -13.1555 -13.1342 -13.0880 -13.0485 -12.9698
   -12.8974 -12.8073 -12.7901 -12.7556 -12.7441 -12.7206 -12.7043 -12.6924
   -12.6552 -12.6411 -12.6167 -12.5950 -12.5834 -12.5710 -12.5611 -12.5460
   -12.4860 -12.4732 -12.4494 -12.3908 -12.3423 -12.3212 -11.9882 -11.8434
   -11.7195 -11.6473 -11.5018 -11.4269 -11.4160 -11.3938 -11.3763 -11.3121
   -11.2951 -11.2600 -11.2314 -11.1203 -11.0395 -11.0359  -5.8848  -3.1601
    -3.1483  -2.5822  -2.3486  -2.1190  -1.9736  -1.9088  -1.7660  -1.4601
    -1.4459  -1.4245  -1.3434  -1.3240  -1.2558  -1.2403  -1.1975  -1.1540
    -0.9726  -0.7512  -0.7206  -0.5698  -0.5563  -0.5121  -0.4952  -0.4505
    -0.4345  -0.3734  -0.3472  -0.2777  -0.2675  -0.1860  -0.0595  -0.0453
    -0.0166   0.0615   0.0668   0.0840   0.1497   0.2304   0.2692   0.3211
     0.3469   0.4060   0.4780   0.5396   0.5546   0.5697   0.8227   0.8384
     1.0070   1.0796   1.1445   1.1806   1.2759   1.2911   1.3025   1.3782
     1.4054   1.4403   1.4994   1.6341   1.6878   1.7074   1.7224   1.7362
     1.8060   1.8841   1.9773   1.9897   2.0532   2.0728   2.1096   2.1279
     2.1350   2.1933   2.2446   2.2570   2.2823   2.3183   2.3825   2.5110
     2.5959   2.6406   2.6471   2.8044   2.8180   2.8705   2.8758   2.9743
     3.0152   3.0344   3.0439   3.0597   3.0727   3.0854   3.1533   3.2654
     3.2982   3.3131   3.3200   3.3863   3.3905   3.4147   3.4234   3.4306
     3.4411   3.4495   3.4622   3.4681   3.4811   3.4902   3.4986   3.5187
     3.5398   3.5448   3.5568   3.5789   3.6983   3.7436   4.4223   4.7518
     4.7948   5.1407   5.3925   5.4885   5.6930   6.2767   6.3240   6.3499
     6.6182   6.6322   6.6767   6.7242   6.9646   7.1670   7.2581   7.3417
     7.5154   7.6547   7.8205   7.9115   7.9376   7.9642   8.0085   8.0362
     8.3161   8.3586   8.3742   8.4245   8.5295   8.5779   8.6205

     occupation numbers 
     1.0000   1.0000   1.0000   1.0000   1.0000   1.0000   1.0000   1.0000
     1.0000   1.0000   1.0000   1.0000   1.0000   1.0000   1.0000   1.0000
     1.0000   1.0000   1.0000   1.0000   1.0000   1.0000   1.0000   1.0000
     1.0000   1.0000   1.0000   1.0000   1.0000   1.0000   1.0000   1.0000
     1.0000   1.0000   1.0000   1.0000   1.0000   1.0000   1.0000   1.0000
     1.0000   1.0000   1.0000   1.0000   1.0000   1.0000   1.0000   1.0000
     1.0000   1.0000   1.0000   1.0000   1.0000   1.0000   1.0000   1.0000
     1.0000   1.0000   1.0000   1.0000   1.0000   1.0000   1.0000   1.0000
     1.0000   1.0000   1.0000   1.0000   1.0000   1.0000   1.0000   1.0000
     1.0000   1.0000   1.0000   1.0000   1.0000   1.0000   1.0000   1.0000
     1.0000   1.0000   1.0000   1.0000   1.0000   1.0000   1.0000   1.0000
     1.0000   1.0000   1.0000   1.0000   1.0000   1.0000   1.0000   1.0000
     1.0000   1.0000   1.0000   1.0000   1.0000   1.0000   1.0000   1.0000
     1.0000   1.0000   1.0000   1.0000   1.0000   1.0000   1.0000   1.0000
     1.0000   1.0000   1.0000   1.0000   1.0000   1.0000   1.0000   1.0000
     1.0000   1.0000   1.0000   1.0000   1.0000   1.0000   1.0000   1.0000
     1.0000   1.0000   1.0000   1.0000   1.0000   1.0000   1.0000   1.0000
     1.0000   1.0000   1.0000   1.0000   1.0000   1.0000   1.0000   1.0000
     1.0000   1.0000   1.0000   1.0000   1.0000   1.0000   1.0000   1.0000
     1.0000   1.0000   1.0000   1.0000   1.0000   1.0000   1.0000   1.0000
     1.0000   0.9999   0.9999   0.9999   0.9998   0.9998   0.9998   0.9997
     0.9997   0.9996   0.9994   0.9989   0.9985   0.9984   0.9983   0.9981
     0.9974   0.9963   0.9945   0.9942   0.9925   0.9918   0.9905   0.9898
     0.9895   0.9869   0.9841   0.9833   0.9817   0.9792   0.9739   0.9600
     0.9479   0.9404   0.9392   0.9057   0.9023   0.8881   0.8866   0.8560
     0.8418   0.8348   0.8312   0.8253   0.8202   0.8153   0.7872   0.7357
     0.7195   0.7121   0.7086   0.6739   0.6717   0.6586   0.6538   0.6499
     0.6441   0.6394   0.6323   0.6290   0.6217   0.6166   0.6118   0.6003
     0.5882   0.5852   0.5783   0.5654   0.4950   0.4682   0.1384   0.0574
     0.0504   0.0156   0.0057   0.0038   0.0015   0.0001   0.0000   0.0000
     0.0000   0.0000   0.0000   0.0000   0.0000   0.0000   0.0000   0.0000
     0.0000   0.0000   0.0000   0.0000   0.0000   0.0000   0.0000   0.0000
     0.0000   0.0000   0.0000   0.0000   0.0000   0.0000   0.0000

          k = 0.0000 0.2500 0.0000 ( 65257 PWs)   bands (ev):

   -92.3366 -92.2809 -92.1903 -92.1415 -92.0846 -92.0430 -92.0254 -91.9005
   -55.6898 -55.6672 -55.5483 -55.5377 -55.5293 -55.5245 -55.4859 -55.4600
   -55.4435 -55.4421 -55.4326 -55.3923 -55.3729 -55.3362 -55.3162 -55.2842
   -55.2770 -55.2317 -55.2287 -55.2283 -55.2202 -55.1745 -55.1562 -55.0677
   -30.9226 -30.9035 -30.7639 -30.7633 -30.7416 -30.6764 -30.5031 -30.4756
   -29.4871 -29.4439 -29.4199 -29.3106 -22.2528 -14.6845 -14.6592 -14.5749
   -14.4400 -14.3244 -14.1525 -14.0078 -13.8279 -13.7985 -13.7789 -13.7734
   -13.7477 -13.6897 -13.6843 -13.6701 -13.6516 -13.6159 -13.4911 -13.4535
   -13.2923 -13.2774 -13.2216 -13.1887 -13.1480 -13.1020 -13.0661 -12.9886
   -12.9560 -12.9237 -12.8619 -12.7941 -12.7725 -12.7531 -12.7361 -12.6652
   -12.6289 -12.6030 -12.5801 -12.5503 -12.5228 -12.5169 -12.5113 -12.4781
   -12.4627 -12.4466 -12.4396 -12.3774 -12.2440 -12.1763 -12.0496 -11.8946
   -11.7762 -11.7154 -11.4672 -11.4237 -11.3965 -11.3682 -11.3515 -11.3041
   -11.2928 -11.2704 -11.2358 -11.1346 -11.0812 -11.0705  -5.8848  -3.1601
    -3.1484  -2.4470  -2.2243  -2.0871  -1.9051  -1.8614  -1.6969  -1.4801
    -1.3924  -1.3793  -1.3245  -1.2201  -1.2055  -1.1722  -1.1459  -1.1024
    -0.9039  -0.7756  -0.7633  -0.6891  -0.6762  -0.5718  -0.5411  -0.4868
    -0.4620  -0.4177  -0.3563  -0.3304  -0.2971  -0.2667  -0.2504  -0.2156
    -0.1436  -0.0909  -0.0359   0.0806   0.0969   0.1405   0.2670   0.3012
     0.3527   0.4087   0.4539   0.4846   0.5171   0.5758   0.8706   0.9578
     0.9925   1.0756   1.1144   1.1390   1.2643   1.2832   1.3782   1.4041
     1.4345   1.5481   1.6346   1.6638   1.6859   1.6999   1.7320   1.7940
     1.8183   1.8466   1.8955   1.9249   1.9548   2.0361   2.0652   2.1027
     2.1549   2.2115   2.2476   2.2715   2.3005   2.3264   2.4149   2.5529
     2.6177   2.6332   2.7187   2.7629   2.8026   2.8086   2.8712   2.9153
     2.9921   3.0293   3.0386   3.0496   3.0827   3.2264   3.2484   3.2805
     3.3009   3.3189   3.3280   3.3363   3.3439   3.3738   3.3756   3.3919
     3.3973   3.4092   3.4261   3.4366   3.4468   3.4692   3.4803   3.4848
     3.5204   3.5373   3.5975   3.9600   3.9713   4.2352   4.6049   4.7566
     4.9010   5.0868   5.4122   5.5314   5.8179   5.9250   6.1568   6.3022
     6.3358   6.4582   6.5288   6.7437   6.8837   7.0400   7.2974   7.5334
     7.5533   7.6821   7.7998   7.8832   7.9245   7.9914   8.0859   8.2010
     8.2548   8.4209   8.5164   8.5907   8.6297   8.6832   8.9594

     occupation numbers 
     1.0000   1.0000   1.0000   1.0000   1.0000   1.0000   1.0000   1.0000
     1.0000   1.0000   1.0000   1.0000   1.0000   1.0000   1.0000   1.0000
     1.0000   1.0000   1.0000   1.0000   1.0000   1.0000   1.0000   1.0000
     1.0000   1.0000   1.0000   1.0000   1.0000   1.0000   1.0000   1.0000
     1.0000   1.0000   1.0000   1.0000   1.0000   1.0000   1.0000   1.0000
     1.0000   1.0000   1.0000   1.0000   1.0000   1.0000   1.0000   1.0000
     1.0000   1.0000   1.0000   1.0000   1.0000   1.0000   1.0000   1.0000
     1.0000   1.0000   1.0000   1.0000   1.0000   1.0000   1.0000   1.0000
     1.0000   1.0000   1.0000   1.0000   1.0000   1.0000   1.0000   1.0000
     1.0000   1.0000   1.0000   1.0000   1.0000   1.0000   1.0000   1.0000
     1.0000   1.0000   1.0000   1.0000   1.0000   1.0000   1.0000   1.0000
     1.0000   1.0000   1.0000   1.0000   1.0000   1.0000   1.0000   1.0000
     1.0000   1.0000   1.0000   1.0000   1.0000   1.0000   1.0000   1.0000
     1.0000   1.0000   1.0000   1.0000   1.0000   1.0000   1.0000   1.0000
     1.0000   1.0000   1.0000   1.0000   1.0000   1.0000   1.0000   1.0000
     1.0000   1.0000   1.0000   1.0000   1.0000   1.0000   1.0000   1.0000
     1.0000   1.0000   1.0000   1.0000   1.0000   1.0000   1.0000   1.0000
     1.0000   1.0000   1.0000   1.0000   1.0000   1.0000   1.0000   1.0000
     1.0000   1.0000   1.0000   1.0000   1.0000   1.0000   1.0000   1.0000
     1.0000   1.0000   1.0000   1.0000   1.0000   1.0000   1.0000   1.0000
     1.0000   0.9999   0.9999   0.9999   0.9998   0.9998   0.9997   0.9997
     0.9996   0.9993   0.9989   0.9987   0.9985   0.9984   0.9982   0.9976
     0.9973   0.9969   0.9961   0.9956   0.9950   0.9930   0.9921   0.9908
     0.9887   0.9859   0.9839   0.9824   0.9804   0.9785   0.9708   0.9543
     0.9443   0.9417   0.9254   0.9157   0.9061   0.9047   0.8879   0.8750
     0.8499   0.8366   0.8332   0.8291   0.8163   0.7543   0.7439   0.7283
     0.7182   0.7091   0.7045   0.7002   0.6963   0.6805   0.6796   0.6709
     0.6680   0.6615   0.6523   0.6465   0.6409   0.6284   0.6222   0.6196
     0.5993   0.5896   0.5545   0.3441   0.3380   0.2090   0.0871   0.0566
     0.0361   0.0190   0.0053   0.0031   0.0008   0.0005   0.0001   0.0001
     0.0000   0.0000   0.0000   0.0000   0.0000   0.0000   0.0000   0.0000
     0.0000   0.0000   0.0000   0.0000   0.0000   0.0000   0.0000   0.0000
     0.0000   0.0000   0.0000   0.0000   0.0000   0.0000   0.0000

          k = 0.0000-0.5000 0.0000 ( 65180 PWs)   bands (ev):

   -92.3366 -92.2809 -92.1903 -92.1415 -92.0846 -92.0430 -92.0254 -91.9005
   -55.6898 -55.6672 -55.5483 -55.5377 -55.5293 -55.5245 -55.4859 -55.4600
   -55.4435 -55.4421 -55.4326 -55.3923 -55.3729 -55.3362 -55.3162 -55.2842
   -55.2770 -55.2317 -55.2287 -55.2283 -55.2202 -55.1745 -55.1562 -55.0677
   -30.9224 -30.9034 -30.7635 -30.7625 -30.7430 -30.6766 -30.5019 -30.4768
   -29.4864 -29.4436 -29.4206 -29.3109 -22.2528 -14.6526 -14.6035 -14.5532
   -14.4257 -14.3393 -14.2002 -14.0587 -13.9295 -13.7978 -13.7768 -13.7395
   -13.6913 -13.6787 -13.6336 -13.6134 -13.5697 -13.5521 -13.5247 -13.4873
   -13.4561 -13.4257 -13.2249 -13.1704 -13.1570 -13.0984 -13.0733 -13.0032
   -12.9950 -12.9387 -12.9297 -12.8646 -12.7599 -12.7502 -12.7277 -12.7110
   -12.6180 -12.6025 -12.5752 -12.5272 -12.5238 -12.5027 -12.4760 -12.4598
   -12.4232 -12.3785 -12.3502 -12.2972 -12.1607 -12.1047 -11.9700 -11.9539
   -11.8866 -11.8529 -11.4206 -11.4188 -11.3917 -11.3540 -11.3198 -11.3089
   -11.2656 -11.2617 -11.2171 -11.1563 -11.1421 -11.1277  -5.8848  -3.1601
    -3.1486  -2.2322  -2.1730  -2.0210  -1.9485  -1.6689  -1.5857  -1.4571
    -1.3184  -1.2844  -1.2626  -1.1845  -1.1524  -1.0719  -1.0361  -0.9602
    -0.9188  -0.8788  -0.8520  -0.7986  -0.7593  -0.7120  -0.6767  -0.6430
    -0.6083  -0.4987  -0.4532  -0.4216  -0.4204  -0.3338  -0.3012  -0.2775
    -0.2326  -0.1476  -0.0756   0.0039   0.0303   0.1459   0.1792   0.3300
     0.3515   0.3937   0.4296   0.5529   0.6220   0.7524   0.8177   0.8247
     0.9556   0.9979   1.0759   1.2359   1.3363   1.3691   1.4050   1.4113
     1.4437   1.4683   1.5058   1.5240   1.5345   1.6440   1.6994   1.7249
     1.7500   2.0120   2.0463   2.0718   2.1542   2.1781   2.2221   2.2366
     2.2692   2.2774   2.2848   2.3159   2.3593   2.3806   2.4056   2.4241
     2.4540   2.5093   2.5895   2.6220   2.7924   2.9641   2.9724   2.9841
     3.0226   3.0304   3.0354   3.0480   3.0786   3.0949   3.1074   3.1606
     3.1810   3.2574   3.2682   3.3386   3.3448   3.3706   3.3725   3.3916
     3.3945   3.3977   3.4037   3.4069   3.4194   3.4394   3.4408   3.5054
     3.5114   3.5269   3.5823   4.4684   4.4903   4.5450   4.5850   4.9773
     5.0918   5.2439   5.3718   5.5185   5.6888   5.8054   5.9007   6.0203
     6.2229   6.3586   6.3980   6.4279   7.0140   7.0890   7.1448   7.3862
     7.5793   7.6555   7.7349   8.0095   8.0511   8.0762   8.2122   8.4200
     8.4635   8.5854   8.6758   8.7525   8.7699   8.8496   8.9884

     occupation numbers 
     1.0000   1.0000   1.0000   1.0000   1.0000   1.0000   1.0000   1.0000
     1.0000   1.0000   1.0000   1.0000   1.0000   1.0000   1.0000   1.0000
     1.0000   1.0000   1.0000   1.0000   1.0000   1.0000   1.0000   1.0000
     1.0000   1.0000   1.0000   1.0000   1.0000   1.0000   1.0000   1.0000
     1.0000   1.0000   1.0000   1.0000   1.0000   1.0000   1.0000   1.0000
     1.0000   1.0000   1.0000   1.0000   1.0000   1.0000   1.0000   1.0000
     1.0000   1.0000   1.0000   1.0000   1.0000   1.0000   1.0000   1.0000
     1.0000   1.0000   1.0000   1.0000   1.0000   1.0000   1.0000   1.0000
     1.0000   1.0000   1.0000   1.0000   1.0000   1.0000   1.0000   1.0000
     1.0000   1.0000   1.0000   1.0000   1.0000   1.0000   1.0000   1.0000
     1.0000   1.0000   1.0000   1.0000   1.0000   1.0000   1.0000   1.0000
     1.0000   1.0000   1.0000   1.0000   1.0000   1.0000   1.0000   1.0000
     1.0000   1.0000   1.0000   1.0000   1.0000   1.0000   1.0000   1.0000
     1.0000   1.0000   1.0000   1.0000   1.0000   1.0000   1.0000   1.0000
     1.0000   1.0000   1.0000   1.0000   1.0000   1.0000   1.0000   1.0000
     1.0000   1.0000   1.0000   1.0000   1.0000   1.0000   1.0000   1.0000
     1.0000   1.0000   1.0000   1.0000   1.0000   1.0000   1.0000   1.0000
     1.0000   1.0000   1.0000   1.0000   1.0000   1.0000   1.0000   1.0000
     1.0000   1.0000   1.0000   1.0000   1.0000   1.0000   1.0000   1.0000
     1.0000   1.0000   1.0000   1.0000   1.0000   1.0000   1.0000   1.0000
     1.0000   1.0000   0.9999   0.9999   0.9998   0.9997   0.9997   0.9996
     0.9996   0.9995   0.9994   0.9993   0.9993   0.9988   0.9984   0.9982
     0.9980   0.9936   0.9927   0.9919   0.9887   0.9876   0.9854   0.9845
     0.9825   0.9820   0.9815   0.9793   0.9759   0.9741   0.9717   0.9699
     0.9668   0.9602   0.9489   0.9436   0.9087   0.8594   0.8566   0.8527
     0.8391   0.8363   0.8344   0.8297   0.8179   0.8115   0.8064   0.7840
     0.7750   0.7396   0.7344   0.6990   0.6958   0.6822   0.6812   0.6711
     0.6695   0.6678   0.6645   0.6628   0.6560   0.6450   0.6442   0.6079
     0.6045   0.5956   0.5634   0.1238   0.1173   0.1021   0.0919   0.0280
     0.0187   0.0105   0.0063   0.0033   0.0015   0.0008   0.0005   0.0003
     0.0001   0.0000   0.0000   0.0000   0.0000   0.0000   0.0000   0.0000
     0.0000   0.0000   0.0000   0.0000   0.0000   0.0000   0.0000   0.0000
     0.0000   0.0000   0.0000   0.0000   0.0000   0.0000   0.0000

          k = 0.2500 0.2500 0.0000 ( 65198 PWs)   bands (ev):

   -92.3366 -92.2809 -92.1903 -92.1415 -92.0846 -92.0430 -92.0254 -91.9005
   -55.6898 -55.6672 -55.5483 -55.5377 -55.5293 -55.5245 -55.4859 -55.4600
   -55.4435 -55.4421 -55.4326 -55.3923 -55.3729 -55.3362 -55.3162 -55.2842
   -55.2770 -55.2317 -55.2287 -55.2283 -55.2202 -55.1745 -55.1562 -55.0677
   -30.9209 -30.9052 -30.7638 -30.7630 -30.7415 -30.6768 -30.5032 -30.4757
   -29.4861 -29.4449 -29.4195 -29.3110 -22.2528 -14.6565 -14.6234 -14.5472
   -14.4295 -14.3165 -14.1914 -14.1129 -13.9126 -13.7771 -13.7514 -13.7401
   -13.7058 -13.6747 -13.6533 -13.6326 -13.5956 -13.5798 -13.4841 -13.4681
   -13.3079 -13.2943 -13.2643 -13.2441 -13.2085 -13.1546 -13.1055 -13.0712
   -12.9826 -12.9530 -12.8768 -12.7886 -12.7494 -12.7305 -12.7001 -12.6679
   -12.6574 -12.6094 -12.5940 -12.5783 -12.5525 -12.5247 -12.4781 -12.4372
   -12.4015 -12.3879 -12.3666 -12.3580 -12.1852 -12.0989 -12.0977 -11.9238
   -11.8090 -11.7590 -11.4394 -11.4073 -11.3969 -11.3897 -11.3270 -11.2925
   -11.2857 -11.2501 -11.2427 -11.1511 -11.1095 -11.0919  -5.8848  -3.1603
    -3.1484  -2.3089  -2.0986  -1.9813  -1.8882  -1.7655  -1.7001  -1.5052
    -1.3578  -1.3375  -1.3110  -1.2150  -1.1819  -1.0883  -1.0616  -1.0113
    -0.8788  -0.8317  -0.7600  -0.7137  -0.6706  -0.6455  -0.6202  -0.5788
    -0.5624  -0.4730  -0.4230  -0.3608  -0.3111  -0.2810  -0.2288  -0.2178
    -0.1551  -0.1042  -0.0532  -0.0146   0.0672   0.1247   0.1502   0.1929
     0.2458   0.3222   0.3547   0.3772   0.4491   0.4823   0.7640   0.9108
     0.9495   1.0044   1.0457   1.0841   1.1500   1.2152   1.2494   1.5232
     1.5964   1.6705   1.6976   1.7394   1.7760   1.8114   1.8488   1.8658
     1.8948   1.9333   1.9423   1.9611   1.9990   2.0389   2.0818   2.1363
     2.1706   2.1830   2.2106   2.2496   2.2991   2.3242   2.4565   2.5290
     2.5690   2.5954   2.6485   2.7216   2.7531   2.7908   2.8178   2.8249
     2.9350   2.9734   3.0360   3.0620   3.0842   3.2374   3.2545   3.2615
     3.2769   3.2910   3.3036   3.3171   3.3243   3.3339   3.3477   3.3589
     3.3786   3.3844   3.3959   3.4158   3.4305   3.4408   3.4712   3.7732
     3.8644   3.9008   3.9709   3.9837   4.2053   4.3148   4.6458   4.8005
     4.9739   5.1314   5.3346   5.5890   5.9129   5.9462   5.9970   6.1228
     6.2035   6.2461   6.3452   6.4239   6.9034   7.0123   7.1175   7.2095
     7.6945   7.7902   7.8512   7.9021   8.0241   8.1446   8.2122   8.3226
     8.3614   8.4670   8.5211   8.6975   8.7245   8.7933   8.9147

     occupation numbers 
     1.0000   1.0000   1.0000   1.0000   1.0000   1.0000   1.0000   1.0000
     1.0000   1.0000   1.0000   1.0000   1.0000   1.0000   1.0000   1.0000
     1.0000   1.0000   1.0000   1.0000   1.0000   1.0000   1.0000   1.0000
     1.0000   1.0000   1.0000   1.0000   1.0000   1.0000   1.0000   1.0000
     1.0000   1.0000   1.0000   1.0000   1.0000   1.0000   1.0000   1.0000
     1.0000   1.0000   1.0000   1.0000   1.0000   1.0000   1.0000   1.0000
     1.0000   1.0000   1.0000   1.0000   1.0000   1.0000   1.0000   1.0000
     1.0000   1.0000   1.0000   1.0000   1.0000   1.0000   1.0000   1.0000
     1.0000   1.0000   1.0000   1.0000   1.0000   1.0000   1.0000   1.0000
     1.0000   1.0000   1.0000   1.0000   1.0000   1.0000   1.0000   1.0000
     1.0000   1.0000   1.0000   1.0000   1.0000   1.0000   1.0000   1.0000
     1.0000   1.0000   1.0000   1.0000   1.0000   1.0000   1.0000   1.0000
     1.0000   1.0000   1.0000   1.0000   1.0000   1.0000   1.0000   1.0000
     1.0000   1.0000   1.0000   1.0000   1.0000   1.0000   1.0000   1.0000
     1.0000   1.0000   1.0000   1.0000   1.0000   1.0000   1.0000   1.0000
     1.0000   1.0000   1.0000   1.0000   1.0000   1.0000   1.0000   1.0000
     1.0000   1.0000   1.0000   1.0000   1.0000   1.0000   1.0000   1.0000
     1.0000   1.0000   1.0000   1.0000   1.0000   1.0000   1.0000   1.0000
     1.0000   1.0000   1.0000   1.0000   1.0000   1.0000   1.0000   1.0000
     1.0000   1.0000   1.0000   1.0000   1.0000   1.0000   1.0000   1.0000
     1.0000   1.0000   1.0000   0.9999   0.9999   0.9999   0.9999   0.9994
     0.9991   0.9986   0.9985   0.9981   0.9978   0.9974   0.9969   0.9966
     0.9962   0.9954   0.9953   0.9949   0.9940   0.9929   0.9915   0.9895
     0.9880   0.9874   0.9860   0.9838   0.9805   0.9787   0.9665   0.9576
     0.9520   0.9479   0.9390   0.9247   0.9179   0.9091   0.9023   0.9005
     0.8688   0.8563   0.8342   0.8244   0.8158   0.7491   0.7410   0.7376
     0.7301   0.7231   0.7168   0.7100   0.7063   0.7014   0.6943   0.6884
     0.6780   0.6749   0.6687   0.6579   0.6499   0.6442   0.6272   0.4508
     0.3978   0.3770   0.3382   0.3313   0.2220   0.1767   0.0779   0.0496
     0.0283   0.0162   0.0073   0.0024   0.0005   0.0004   0.0003   0.0002
     0.0001   0.0001   0.0000   0.0000   0.0000   0.0000   0.0000   0.0000
     0.0000   0.0000   0.0000   0.0000   0.0000   0.0000   0.0000   0.0000
     0.0000   0.0000   0.0000   0.0000   0.0000   0.0000   0.0000

          k = 0.2500-0.5000 0.0000 ( 65138 PWs)   bands (ev):

   -92.3366 -92.2809 -92.1903 -92.1415 -92.0846 -92.0430 -92.0254 -91.9005
   -55.6898 -55.6672 -55.5483 -55.5377 -55.5293 -55.5245 -55.4859 -55.4600
   -55.4435 -55.4421 -55.4326 -55.3923 -55.3729 -55.3362 -55.3162 -55.2842
   -55.2770 -55.2317 -55.2287 -55.2283 -55.2202 -55.1745 -55.1562 -55.0677
   -30.9207 -30.9051 -30.7632 -30.7624 -30.7429 -30.6770 -30.5020 -30.4769
   -29.4855 -29.4446 -29.4202 -29.3113 -22.2528 -14.6223 -14.5765 -14.5100
   -14.3940 -14.3636 -14.2409 -14.1592 -14.0266 -13.7768 -13.7152 -13.6692
   -13.6372 -13.6186 -13.6013 -13.5854 -13.5547 -13.5401 -13.5046 -13.4628
   -13.4435 -13.4134 -13.3085 -13.2600 -13.2264 -13.1810 -13.1276 -13.1105
   -13.0387 -13.0093 -12.8523 -12.7883 -12.7686 -12.7015 -12.6950 -12.6701
   -12.6351 -12.6170 -12.5897 -12.5587 -12.5222 -12.5096 -12.4752 -12.4609
   -12.4360 -12.3784 -12.3010 -12.2697 -12.1674 -12.0894 -11.9675 -11.9359
   -11.8766 -11.8510 -11.4147 -11.4029 -11.3920 -11.3650 -11.3332 -11.3054
   -11.2635 -11.2362 -11.2137 -11.1692 -11.1431 -11.1316  -5.8848  -3.1603
    -3.1486  -2.0907  -2.0254  -1.8950  -1.8175  -1.6895  -1.6061  -1.4816
    -1.3304  -1.2785  -1.2551  -1.1920  -1.1787  -1.0827  -1.0148  -0.9290
    -0.8821  -0.8723  -0.8077  -0.7680  -0.7311  -0.6842  -0.6470  -0.6119
    -0.5717  -0.5619  -0.5153  -0.4871  -0.4462  -0.4153  -0.3476  -0.2486
    -0.2099  -0.1311  -0.0665  -0.0196   0.0241   0.0469   0.0998   0.2611
     0.2695   0.3644   0.4056   0.4164   0.4608   0.4969   0.5299   0.5637
     0.6356   0.8998   0.9986   1.0408   1.1114   1.3847   1.4075   1.4984
     1.5217   1.6930   1.7236   1.7677   1.7936   1.8096   1.8299   1.8889
     1.9324   1.9715   2.0416   2.1398   2.1749   2.1965   2.2064   2.2448
     2.2589   2.2644   2.3066   2.3210   2.3406   2.3590   2.3880   2.4163
     2.4456   2.5076   2.5449   2.6228   2.7622   2.9167   2.9300   2.9501
     2.9754   3.0011   3.0275   3.0374   3.0526   3.0641   3.0779   3.0969
     3.1868   3.2362   3.2551   3.2567   3.2746   3.2947   3.3085   3.3271
     3.3353   3.3648   3.3759   3.3929   3.4011   3.4084   3.4212   3.9297
     3.9494   4.1048   4.1567   4.4819   4.5341   4.5461   4.6586   5.0363
     5.1158   5.2780   5.4110   5.4940   5.6540   5.7382   5.8471   5.9447
     6.0769   6.1017   6.3075   6.4668   6.5958   6.6371   7.1356   7.2926
     7.5283   7.6472   7.9579   8.0742   8.1814   8.2126   8.3599   8.4141
     8.5181   8.6122   8.6517   8.7939   8.8765   8.9133   8.9996

     occupation numbers 
     1.0000   1.0000   1.0000   1.0000   1.0000   1.0000   1.0000   1.0000
     1.0000   1.0000   1.0000   1.0000   1.0000   1.0000   1.0000   1.0000
     1.0000   1.0000   1.0000   1.0000   1.0000   1.0000   1.0000   1.0000
     1.0000   1.0000   1.0000   1.0000   1.0000   1.0000   1.0000   1.0000
     1.0000   1.0000   1.0000   1.0000   1.0000   1.0000   1.0000   1.0000
     1.0000   1.0000   1.0000   1.0000   1.0000   1.0000   1.0000   1.0000
     1.0000   1.0000   1.0000   1.0000   1.0000   1.0000   1.0000   1.0000
     1.0000   1.0000   1.0000   1.0000   1.0000   1.0000   1.0000   1.0000
     1.0000   1.0000   1.0000   1.0000   1.0000   1.0000   1.0000   1.0000
     1.0000   1.0000   1.0000   1.0000   1.0000   1.0000   1.0000   1.0000
     1.0000   1.0000   1.0000   1.0000   1.0000   1.0000   1.0000   1.0000
     1.0000   1.0000   1.0000   1.0000   1.0000   1.0000   1.0000   1.0000
     1.0000   1.0000   1.0000   1.0000   1.0000   1.0000   1.0000   1.0000
     1.0000   1.0000   1.0000   1.0000   1.0000   1.0000   1.0000   1.0000
     1.0000   1.0000   1.0000   1.0000   1.0000   1.0000   1.0000   1.0000
     1.0000   1.0000   1.0000   1.0000   1.0000   1.0000   1.0000   1.0000
     1.0000   1.0000   1.0000   1.0000   1.0000   1.0000   1.0000   1.0000
     1.0000   1.0000   1.0000   1.0000   1.0000   1.0000   1.0000   1.0000
     1.0000   1.0000   1.0000   1.0000   1.0000   1.0000   1.0000   1.0000
     1.0000   1.0000   1.0000   1.0000   1.0000   1.0000   1.0000   1.0000
     1.0000   1.0000   1.0000   1.0000   0.9999   0.9997   0.9996   0.9994
     0.9994   0.9985   0.9982   0.9978   0.9976   0.9974   0.9971   0.9963
     0.9955   0.9946   0.9928   0.9893   0.9878   0.9867   0.9862   0.9840
     0.9832   0.9829   0.9800   0.9790   0.9774   0.9759   0.9734   0.9707
     0.9677   0.9604   0.9554   0.9434   0.9158   0.8745   0.8704   0.8640
     0.8556   0.8468   0.8373   0.8337   0.8280   0.8236   0.8182   0.8107
     0.7724   0.7497   0.7407   0.7400   0.7313   0.7213   0.7144   0.7049
     0.7007   0.6853   0.6795   0.6704   0.6659   0.6620   0.6550   0.3608
     0.3499   0.2689   0.2441   0.1198   0.1050   0.1018   0.0751   0.0228
     0.0171   0.0092   0.0053   0.0037   0.0018   0.0012   0.0007   0.0004
     0.0002   0.0002   0.0001   0.0000   0.0000   0.0000   0.0000   0.0000
     0.0000   0.0000   0.0000   0.0000   0.0000   0.0000   0.0000   0.0000
     0.0000   0.0000   0.0000   0.0000   0.0000   0.0000   0.0000

          k =-0.5000-0.5000 0.0000 ( 65132 PWs)   bands (ev):

   -92.3366 -92.2809 -92.1903 -92.1415 -92.0846 -92.0430 -92.0254 -91.9005
   -55.6898 -55.6672 -55.5483 -55.5377 -55.5293 -55.5245 -55.4859 -55.4600
   -55.4435 -55.4421 -55.4326 -55.3923 -55.3729 -55.3362 -55.3162 -55.2842
   -55.2770 -55.2317 -55.2287 -55.2283 -55.2202 -55.1745 -55.1562 -55.0677
   -30.9184 -30.9073 -30.7628 -30.7623 -30.7428 -30.6774 -30.5021 -30.4770
   -29.4844 -29.4456 -29.4198 -29.3117 -22.2528 -14.5766 -14.5491 -14.4312
   -14.4216 -14.3305 -14.2883 -14.2603 -14.1264 -13.7768 -13.6272 -13.6162
   -13.5804 -13.5637 -13.5450 -13.5396 -13.5002 -13.4936 -13.4823 -13.4707
   -13.4560 -13.3777 -13.3703 -13.3474 -13.3225 -13.3074 -13.2063 -13.1902
   -13.0788 -13.0723 -12.8030 -12.7659 -12.7019 -12.6774 -12.6705 -12.6593
   -12.6310 -12.6274 -12.6190 -12.5995 -12.5201 -12.5054 -12.4795 -12.4583
   -12.4460 -12.3904 -12.2509 -12.2433 -12.1837 -12.0748 -11.9640 -11.9167
   -11.8677 -11.8488 -11.4113 -11.3989 -11.3811 -11.3646 -11.3296 -11.3115
   -11.2780 -11.2168 -11.1963 -11.1911 -11.1407 -11.1374  -5.8848  -3.1605
    -3.1486  -1.8678  -1.7904  -1.7813  -1.7100  -1.6698  -1.5912  -1.5234
    -1.3986  -1.2807  -1.2506  -1.2123  -1.1539  -1.0821  -1.0689  -0.9962
    -0.9546  -0.8390  -0.8118  -0.7628  -0.7303  -0.6664  -0.6230  -0.6030
    -0.5918  -0.5406  -0.4914  -0.4798  -0.3650  -0.3072  -0.2617  -0.2112
    -0.1895  -0.1780  -0.1399  -0.0999  -0.0664  -0.0518   0.0340   0.1049
     0.1503   0.1727   0.2480   0.3010   0.3118   0.3699   0.3848   0.4029
     0.4105   0.8650   0.9227   0.9858   1.0182   1.4169   1.4308   1.4594
     1.4974   1.7746   1.7946   1.8004   1.8371   1.9746   2.0717   2.0978
     2.1340   2.1507   2.1714   2.1819   2.2147   2.2220   2.2385   2.2415
     2.2989   2.3085   2.3316   2.3459   2.3615   2.3740   2.4180   2.4420
     2.4529   2.4911   2.5122   2.5902   2.6562   2.9302   2.9604   2.9787
     2.9990   3.0044   3.0216   3.0393   3.0463   3.0624   3.0730   3.0837
     3.0923   3.1162   3.1245   3.1872   3.1922   3.2119   3.2265   3.2372
     3.2556   3.2624   3.2722   3.3710   3.3775   3.4047   3.4143   4.3414
     4.3805   4.4125   4.4349   4.6804   4.7506   4.7812   5.0208   5.1275
     5.1432   5.2270   5.3528   5.4076   5.4664   5.5642   5.6306   5.7134
     5.9820   6.0784   6.1168   6.2204   6.5529   6.6829   6.7292   7.2307
     7.5161   7.5371   7.7165   8.2799   8.2944   8.3763   8.4559   8.5643
     8.6559   8.8186   8.8879   8.9029   8.9230   8.9609   9.0090

     occupation numbers 
     1.0000   1.0000   1.0000   1.0000   1.0000   1.0000   1.0000   1.0000
     1.0000   1.0000   1.0000   1.0000   1.0000   1.0000   1.0000   1.0000
     1.0000   1.0000   1.0000   1.0000   1.0000   1.0000   1.0000   1.0000
     1.0000   1.0000   1.0000   1.0000   1.0000   1.0000   1.0000   1.0000
     1.0000   1.0000   1.0000   1.0000   1.0000   1.0000   1.0000   1.0000
     1.0000   1.0000   1.0000   1.0000   1.0000   1.0000   1.0000   1.0000
     1.0000   1.0000   1.0000   1.0000   1.0000   1.0000   1.0000   1.0000
     1.0000   1.0000   1.0000   1.0000   1.0000   1.0000   1.0000   1.0000
     1.0000   1.0000   1.0000   1.0000   1.0000   1.0000   1.0000   1.0000
     1.0000   1.0000   1.0000   1.0000   1.0000   1.0000   1.0000   1.0000
     1.0000   1.0000   1.0000   1.0000   1.0000   1.0000   1.0000   1.0000
     1.0000   1.0000   1.0000   1.0000   1.0000   1.0000   1.0000   1.0000
     1.0000   1.0000   1.0000   1.0000   1.0000   1.0000   1.0000   1.0000
     1.0000   1.0000   1.0000   1.0000   1.0000   1.0000   1.0000   1.0000
     1.0000   1.0000   1.0000   1.0000   1.0000   1.0000   1.0000   1.0000
[...]
     0.0000   0.0000   0.0000   0.0000   0.0000   0.0000   0.0000   0.0000
     0.0000   0.0000   0.0000   0.0000   0.0000   0.0000   0.0000

          k =-0.5000 0.0000 0.0000 ( 65180 PWs)   bands (ev):

   -92.3366 -92.2809 -92.1903 -92.1415 -92.0846 -92.0430 -92.0254 -91.9005
   -55.6898 -55.6672 -55.5483 -55.5377 -55.5293 -55.5245 -55.4859 -55.4600
   -55.4435 -55.4421 -55.4326 -55.3923 -55.3729 -55.3362 -55.3162 -55.2842
   -55.2770 -55.2317 -55.2287 -55.2283 -55.2202 -55.1745 -55.1562 -55.0677
   -30.9188 -30.9076 -30.7649 -30.7624 -30.7401 -30.6771 -30.5045 -30.4747
   -29.4857 -29.4462 -29.4185 -29.3111 -22.2528 -14.6560 -14.6076 -14.5448
   -14.4410 -14.3305 -14.1881 -14.0462 -13.9117 -13.7787 -13.7751 -13.7699
   -13.7482 -13.6918 -13.6363 -13.6025 -13.5585 -13.5525 -13.5386 -13.4824
   -13.4765 -13.3783 -13.1962 -13.1810 -13.1369 -13.1286 -13.0795 -13.0075
   -12.9888 -12.9152 -12.9030 -12.8915 -12.7774 -12.7000 -12.6927 -12.6797
   -12.6648 -12.6572 -12.5995 -12.5904 -12.5798 -12.5604 -12.4598 -12.4013
   -12.3440 -12.3214 -12.2857 -12.2765 -12.1867 -12.1661 -12.0250 -11.9739
   -11.8647 -11.8241 -11.4181 -11.3971 -11.3901 -11.3752 -11.3573 -11.3158
   -11.2533 -11.2360 -11.2037 -11.1581 -11.1487 -11.1330  -5.8848  -3.1605
    -3.1482  -2.2221  -2.1832  -2.0186  -1.9795  -1.6680  -1.5934  -1.4431
    -1.3254  -1.2870  -1.2421  -1.1926  -1.1666  -1.0453  -0.9996  -0.9865
    -0.9032  -0.8674  -0.8549  -0.8202  -0.7646  -0.6949  -0.6646  -0.6394
    -0.5435  -0.4942  -0.4461  -0.4136  -0.3919  -0.3643  -0.3148  -0.2900
    -0.2508  -0.1599  -0.0866  -0.0250   0.0384   0.2058   0.2330   0.3029
     0.3240   0.3980   0.4099   0.5441   0.5777   0.6102   0.8013   0.8993
     0.9460   1.0068   1.0866   1.2104   1.2283   1.3597   1.3884   1.4396
     1.4589   1.5039   1.5200   1.5626   1.5899   1.6556   1.6977   1.7454
     1.7535   2.0534   2.0591   2.0769   2.0956   2.2152   2.2188   2.2291
     2.2448   2.2708   2.2846   2.3209   2.3515   2.3701   2.4377   2.4422
     2.4983   2.5130   2.5778   2.6710   2.7849   2.8625   2.8764   2.9583
     2.9889   3.0096   3.0396   3.0729   3.0824   3.0966   3.1030   3.1280
     3.1957   3.2430   3.2832   3.3169   3.3591   3.3650   3.3660   3.3787
     3.3914   3.4047   3.4201   3.4213   3.4432   3.4486   3.4715   3.4915
     3.4963   3.6245   3.6288   4.4053   4.4724   4.5415   4.6546   4.9581
     5.1384   5.2602   5.3442   5.4872   5.6362   5.8852   5.9200   5.9998
     6.1671   6.3867   6.3930   6.4524   6.9728   7.0962   7.1854   7.4476
     7.5388   7.6578   7.6882   7.9529   8.0912   8.1777   8.1953   8.2719
     8.5601   8.5874   8.6315   8.7377   8.7671   8.8594   8.9799

     occupation numbers 
     1.0000   1.0000   1.0000   1.0000   1.0000   1.0000   1.0000   1.0000
     1.0000   1.0000   1.0000   1.0000   1.0000   1.0000   1.0000   1.0000
     1.0000   1.0000   1.0000   1.0000   1.0000   1.0000   1.0000   1.0000
     1.0000   1.0000   1.0000   1.0000   1.0000   1.0000   1.0000   1.0000
     1.0000   1.0000   1.0000   1.0000   1.0000   1.0000   1.0000   1.0000
     1.0000   1.0000   1.0000   1.0000   1.0000   1.0000   1.0000   1.0000
     1.0000   1.0000   1.0000   1.0000   1.0000   1.0000   1.0000   1.0000
     1.0000   1.0000   1.0000   1.0000   1.0000   1.0000   1.0000   1.0000
     1.0000   1.0000   1.0000   1.0000   1.0000   1.0000   1.0000   1.0000
     1.0000   1.0000   1.0000   1.0000   1.0000   1.0000   1.0000   1.0000
     1.0000   1.0000   1.0000   1.0000   1.0000   1.0000   1.0000   1.0000
     1.0000   1.0000   1.0000   1.0000   1.0000   1.0000   1.0000   1.0000
     1.0000   1.0000   1.0000   1.0000   1.0000   1.0000   1.0000   1.0000
     1.0000   1.0000   1.0000   1.0000   1.0000   1.0000   1.0000   1.0000
     1.0000   1.0000   1.0000   1.0000   1.0000   1.0000   1.0000   1.0000
     1.0000   1.0000   1.0000   1.0000   1.0000   1.0000   1.0000   1.0000
     1.0000   1.0000   1.0000   1.0000   1.0000   1.0000   1.0000   1.0000
     1.0000   1.0000   1.0000   1.0000   1.0000   1.0000   1.0000   1.0000
     1.0000   1.0000   1.0000   1.0000   1.0000   1.0000   1.0000   1.0000
     1.0000   1.0000   1.0000   1.0000   1.0000   1.0000   1.0000   1.0000
     1.0000   1.0000   0.9999   0.9999   0.9999   0.9997   0.9997   0.9996
     0.9995   0.9994   0.9994   0.9992   0.9991   0.9987   0.9985   0.9981
     0.9980   0.9924   0.9923   0.9917   0.9910   0.9857   0.9855   0.9850
     0.9841   0.9824   0.9815   0.9790   0.9765   0.9750   0.9685   0.9680
     0.9616   0.9597   0.9507   0.9348   0.9105   0.8904   0.8865   0.8613
     0.8510   0.8437   0.8329   0.8202   0.8164   0.8108   0.8082   0.7979
     0.7684   0.7465   0.7270   0.7101   0.6883   0.6852   0.6847   0.6780
     0.6712   0.6640   0.6556   0.6549   0.6429   0.6399   0.6271   0.6158
     0.6131   0.5386   0.5361   0.1440   0.1226   0.1030   0.0760   0.0298
     0.0157   0.0099   0.0070   0.0038   0.0019   0.0006   0.0005   0.0003
     0.0001   0.0000   0.0000   0.0000   0.0000   0.0000   0.0000   0.0000
     0.0000   0.0000   0.0000   0.0000   0.0000   0.0000   0.0000   0.0000
     0.0000   0.0000   0.0000   0.0000   0.0000   0.0000   0.0000

          k =-0.2500 0.2500 0.0000 ( 65198 PWs)   bands (ev):

   -92.3366 -92.2809 -92.1903 -92.1415 -92.0846 -92.0430 -92.0254 -91.9005
   -55.6898 -55.6672 -55.5483 -55.5377 -55.5293 -55.5245 -55.4859 -55.4600
   -55.4435 -55.4421 -55.4326 -55.3923 -55.3729 -55.3362 -55.3162 -55.2842
   -55.2770 -55.2317 -55.2287 -55.2283 -55.2202 -55.1745 -55.1562 -55.0677
   -30.9209 -30.9052 -30.7638 -30.7630 -30.7415 -30.6768 -30.5032 -30.4757
   -29.4861 -29.4449 -29.4195 -29.3110 -22.2528 -14.6579 -14.6223 -14.5455
   -14.4275 -14.3231 -14.1953 -14.1049 -13.9042 -13.7771 -13.7590 -13.7284
   -13.7203 -13.6699 -13.6472 -13.6317 -13.6181 -13.5749 -13.4811 -13.4688
   -13.3167 -13.2897 -13.2625 -13.2421 -13.2110 -13.1401 -13.0970 -13.0809
   -12.9875 -12.9567 -12.8702 -12.7924 -12.7516 -12.7280 -12.6881 -12.6670
   -12.6442 -12.6232 -12.5895 -12.5768 -12.5633 -12.5312 -12.4801 -12.4353
   -12.4161 -12.4026 -12.3628 -12.3374 -12.1930 -12.0900 -12.0876 -11.9296
   -11.8058 -11.7632 -11.4386 -11.4167 -11.3899 -11.3775 -11.3367 -11.3022
   -11.2788 -11.2577 -11.2349 -11.1508 -11.1049 -11.0952  -5.8848  -3.1603
    -3.1484  -2.3072  -2.0975  -1.9769  -1.8901  -1.7697  -1.7027  -1.5029
    -1.3545  -1.3353  -1.3090  -1.2155  -1.1808  -1.0880  -1.0549  -1.0289
    -0.8844  -0.8295  -0.7633  -0.7338  -0.6740  -0.6506  -0.6105  -0.5813
    -0.5414  -0.4795  -0.4321  -0.3727  -0.3022  -0.2772  -0.2243  -0.1968
    -0.1516  -0.0955  -0.0553  -0.0091   0.0866   0.1233   0.1312   0.1792
     0.2443   0.3219   0.3572   0.3825   0.4525   0.4800   0.7455   0.9111
     0.9594   0.9960   1.0506   1.0850   1.1515   1.2202   1.2489   1.5309
     1.6475   1.6865   1.7172   1.7254   1.7688   1.7868   1.8301   1.8617
     1.8775   1.9036   1.9435   1.9559   2.0001   2.0165   2.0611   2.1521
     2.1597   2.1813   2.2132   2.2476   2.2819   2.3291   2.4469   2.5610
     2.5911   2.6312   2.6544   2.7195   2.7658   2.7935   2.8166   2.8363
     2.9358   2.9720   3.0357   3.0623   3.0844   3.2443   3.2531   3.2664
     3.2769   3.2867   3.3007   3.3066   3.3244   3.3316   3.3487   3.3581
     3.3714   3.3802   3.3852   3.4179   3.4301   3.4396   3.4729   3.7661
     3.8469   3.9045   3.9688   3.9978   4.1893   4.3233   4.6454   4.8005
     4.9715   5.1332   5.3433   5.5855   5.9299   5.9559   5.9748   6.1259
     6.1992   6.2498   6.3606   6.4002   6.9336   7.0143   7.0881   7.1938
     7.7102   7.7971   7.8659   7.9147   7.9861   8.1660   8.1985   8.3021
     8.3708   8.4622   8.5566   8.6937   8.7265   8.7849   8.8927

     occupation numbers 
     1.0000   1.0000   1.0000   1.0000   1.0000   1.0000   1.0000   1.0000
     1.0000   1.0000   1.0000   1.0000   1.0000   1.0000   1.0000   1.0000
     1.0000   1.0000   1.0000   1.0000   1.0000   1.0000   1.0000   1.0000
     1.0000   1.0000   1.0000   1.0000   1.0000   1.0000   1.0000   1.0000
     1.0000   1.0000   1.0000   1.0000   1.0000   1.0000   1.0000   1.0000
     1.0000   1.0000   1.0000   1.0000   1.0000   1.0000   1.0000   1.0000
     1.0000   1.0000   1.0000   1.0000   1.0000   1.0000   1.0000   1.0000
     1.0000   1.0000   1.0000   1.0000   1.0000   1.0000   1.0000   1.0000
     1.0000   1.0000   1.0000   1.0000   1.0000   1.0000   1.0000   1.0000
     1.0000   1.0000   1.0000   1.0000   1.0000   1.0000   1.0000   1.0000
     1.0000   1.0000   1.0000   1.0000   1.0000   1.0000   1.0000   1.0000
     1.0000   1.0000   1.0000   1.0000   1.0000   1.0000   1.0000   1.0000
     1.0000   1.0000   1.0000   1.0000   1.0000   1.0000   1.0000   1.0000
     1.0000   1.0000   1.0000   1.0000   1.0000   1.0000   1.0000   1.0000
     1.0000   1.0000   1.0000   1.0000   1.0000   1.0000   1.0000   1.0000
     1.0000   1.0000   1.0000   1.0000   1.0000   1.0000   1.0000   1.0000
     1.0000   1.0000   1.0000   1.0000   1.0000   1.0000   1.0000   1.0000
     1.0000   1.0000   1.0000   1.0000   1.0000   1.0000   1.0000   1.0000
     1.0000   1.0000   1.0000   1.0000   1.0000   1.0000   1.0000   1.0000
     1.0000   1.0000   1.0000   1.0000   1.0000   1.0000   1.0000   1.0000
     1.0000   1.0000   1.0000   0.9999   0.9999   0.9999   0.9999   0.9993
     0.9988   0.9985   0.9983   0.9982   0.9978   0.9976   0.9971   0.9967
     0.9964   0.9960   0.9952   0.9950   0.9939   0.9935   0.9922   0.9888
     0.9885   0.9875   0.9858   0.9839   0.9817   0.9783   0.9675   0.9532
     0.9486   0.9420   0.9379   0.9252   0.9150   0.9084   0.9026   0.8975
     0.8686   0.8568   0.8343   0.8243   0.8157   0.7459   0.7417   0.7352
     0.7301   0.7253   0.7183   0.7153   0.7063   0.7026   0.6937   0.6889
     0.6818   0.6772   0.6745   0.6568   0.6501   0.6449   0.6263   0.4549
     0.4078   0.3750   0.3393   0.3237   0.2291   0.1734   0.0779   0.0496
     0.0285   0.0160   0.0070   0.0024   0.0004   0.0004   0.0003   0.0001
     0.0001   0.0001   0.0000   0.0000   0.0000   0.0000   0.0000   0.0000
     0.0000   0.0000   0.0000   0.0000   0.0000   0.0000   0.0000   0.0000
     0.0000   0.0000   0.0000   0.0000   0.0000   0.0000   0.0000

          k =-0.5000 0.2500 0.0000 ( 65138 PWs)   bands (ev):

   -92.3366 -92.2809 -92.1903 -92.1415 -92.0846 -92.0430 -92.0254 -91.9005
   -55.6898 -55.6672 -55.5483 -55.5377 -55.5293 -55.5245 -55.4859 -55.4600
   -55.4435 -55.4421 -55.4326 -55.3923 -55.3729 -55.3362 -55.3162 -55.2842
   -55.2770 -55.2317 -55.2287 -55.2283 -55.2202 -55.1745 -55.1562 -55.0677
   -30.9186 -30.9075 -30.7637 -30.7626 -30.7413 -30.6772 -30.5033 -30.4758
   -29.4851 -29.4459 -29.4191 -29.3114 -22.2528 -14.6237 -14.5810 -14.5019
   -14.4059 -14.3613 -14.2341 -14.1499 -14.0243 -13.7769 -13.7095 -13.6794
   -13.6665 -13.6221 -13.6051 -13.5762 -13.5448 -13.5377 -13.5150 -13.4774
   -13.4619 -13.3662 -13.2807 -13.2412 -13.2300 -13.2195 -13.1361 -13.1134
   -13.0345 -12.9918 -12.8461 -12.8100 -12.7252 -12.7157 -12.6757 -12.6624
   -12.6549 -12.6221 -12.6044 -12.5873 -12.5793 -12.5300 -12.4684 -12.4295
   -12.3896 -12.3585 -12.2680 -12.2603 -12.1850 -12.1145 -11.9738 -11.9691
   -11.8614 -11.8352 -11.4111 -11.3984 -11.3841 -11.3725 -11.3510 -11.3207
   -11.2407 -11.2320 -11.2088 -11.1726 -11.1442 -11.1354  -5.8848  -3.1605
    -3.1484  -2.0802  -2.0379  -1.8885  -1.8465  -1.6872  -1.6122  -1.4673
    -1.3320  -1.2758  -1.2486  -1.2088  -1.1691  -1.0893  -0.9747  -0.9181
    -0.8947  -0.8699  -0.7951  -0.7638  -0.7268  -0.7077  -0.6471  -0.6206
    -0.5789  -0.5439  -0.5153  -0.4585  -0.4319  -0.3900  -0.3565  -0.2530
    -0.2248  -0.1432  -0.0795  -0.0473   0.0079   0.0958   0.1286   0.2304
     0.2687   0.3204   0.3722   0.3935   0.4766   0.4972   0.5289   0.5909
     0.6296   0.9279   1.0021   1.0430   1.0656   1.3697   1.4191   1.4985
     1.5228   1.7033   1.7413   1.7783   1.7937   1.8119   1.8296   1.8989
     1.9390   1.9801   2.0043   2.1312   2.1634   2.1912   2.2040   2.2399
     2.2705   2.2835   2.2953   2.3192   2.3417   2.3837   2.4098   2.4388
     2.4614   2.4890   2.5535   2.6681   2.7776   2.8089   2.8759   2.9154
     2.9734   3.0077   3.0191   3.0386   3.0539   3.0748   3.0986   3.1141
     3.1953   3.2387   3.2518   3.2584   3.2791   3.3026   3.3149   3.3299
     3.3425   3.3617   3.3742   3.3866   3.3936   3.4033   3.4146   3.9351
     3.9837   4.1341   4.1574   4.4166   4.5005   4.5471   4.7464   5.0261
     5.1414   5.2711   5.3599   5.4881   5.7009   5.7752   5.8045   5.9159
     6.0781   6.1084   6.2833   6.4966   6.6117   6.6413   7.1220   7.2706
     7.5457   7.6545   7.9712   8.0710   8.1899   8.2115   8.3352   8.3741
     8.5087   8.6243   8.7042   8.8156   8.8734   8.8982   8.9506

     occupation numbers 
     1.0000   1.0000   1.0000   1.0000   1.0000   1.0000   1.0000   1.0000
     1.0000   1.0000   1.0000   1.0000   1.0000   1.0000   1.0000   1.0000
     1.0000   1.0000   1.0000   1.0000   1.0000   1.0000   1.0000   1.0000
     1.0000   1.0000   1.0000   1.0000   1.0000   1.0000   1.0000   1.0000
     1.0000   1.0000   1.0000   1.0000   1.0000   1.0000   1.0000   1.0000
     1.0000   1.0000   1.0000   1.0000   1.0000   1.0000   1.0000   1.0000
     1.0000   1.0000   1.0000   1.0000   1.0000   1.0000   1.0000   1.0000
     1.0000   1.0000   1.0000   1.0000   1.0000   1.0000   1.0000   1.0000
     1.0000   1.0000   1.0000   1.0000   1.0000   1.0000   1.0000   1.0000
     1.0000   1.0000   1.0000   1.0000   1.0000   1.0000   1.0000   1.0000
     1.0000   1.0000   1.0000   1.0000   1.0000   1.0000   1.0000   1.0000
     1.0000   1.0000   1.0000   1.0000   1.0000   1.0000   1.0000   1.0000
     1.0000   1.0000   1.0000   1.0000   1.0000   1.0000   1.0000   1.0000
     1.0000   1.0000   1.0000   1.0000   1.0000   1.0000   1.0000   1.0000
     1.0000   1.0000   1.0000   1.0000   1.0000   1.0000   1.0000   1.0000
     1.0000   1.0000   1.0000   1.0000   1.0000   1.0000   1.0000   1.0000
     1.0000   1.0000   1.0000   1.0000   1.0000   1.0000   1.0000   1.0000
     1.0000   1.0000   1.0000   1.0000   1.0000   1.0000   1.0000   1.0000
     1.0000   1.0000   1.0000   1.0000   1.0000   1.0000   1.0000   1.0000
     1.0000   1.0000   1.0000   1.0000   1.0000   1.0000   1.0000   1.0000
     1.0000   1.0000   1.0000   1.0000   1.0000   0.9997   0.9996   0.9994
     0.9994   0.9984   0.9981   0.9977   0.9976   0.9974   0.9971   0.9961
     0.9953   0.9944   0.9938   0.9897   0.9883   0.9870   0.9863   0.9843
     0.9825   0.9816   0.9808   0.9791   0.9773   0.9738   0.9713   0.9684
     0.9659   0.9627   0.9542   0.9354   0.9122   0.9046   0.8866   0.8749
     0.8563   0.8444   0.8404   0.8332   0.8275   0.8195   0.8100   0.8037
     0.7686   0.7485   0.7423   0.7391   0.7290   0.7173   0.7111   0.7035
     0.6970   0.6870   0.6804   0.6737   0.6700   0.6648   0.6586   0.3579
     0.3313   0.2547   0.2437   0.1402   0.1143   0.1015   0.0583   0.0236
     0.0156   0.0094   0.0066   0.0038   0.0014   0.0010   0.0008   0.0005
     0.0002   0.0002   0.0001   0.0000   0.0000   0.0000   0.0000   0.0000
     0.0000   0.0000   0.0000   0.0000   0.0000   0.0000   0.0000   0.0000
     0.0000   0.0000   0.0000   0.0000   0.0000   0.0000   0.0000

     the Fermi energy is     3.6898 ev

!    total energy              =   -4482.97221778 Ry
     estimated scf accuracy    <          9.6E-09 Ry
     smearing contrib. (-TS)   =      -1.17268512 Ry
     internal energy E=F+TS    =   -4481.79953266 Ry

     The total energy is F=E-TS. E is the sum of the following terms:
     one-electron contribution =  -20252.97584183 Ry
     hartree contribution      =   10266.18403604 Ry
     xc contribution           =    -701.58172693 Ry
     ewald contribution        =    6492.22984499 Ry
     one-center paw contrib.   =    -285.65584493 Ry
      -> PAW hartree energy AE =      25.15038975 Ry
      -> PAW hartree energy PS =     -25.03447416 Ry
      -> PAW xc energy AE      =     -16.51563013 Ry
      -> PAW xc energy PS      =       6.87503170 Ry
      -> total E_H with PAW    =   10266.29995162 Ry
      -> total E_XC with PAW   =    -711.22232536 Ry

     convergence has been achieved in  50 iterations

     Writing all to output data dir /bsuhome/zayahcortright/scratch/pwscf.save/
 
     init_run     :      8.01s CPU      8.58s WALL (       1 calls)
     electrons    :    761.50s CPU    794.15s WALL (       1 calls)

     Called by init_run:
     wfcinit      :      6.28s CPU      6.49s WALL (       1 calls)
     wfcinit:atom :      0.06s CPU      0.09s WALL (       5 calls)
     wfcinit:wfcr :      5.93s CPU      6.06s WALL (       5 calls)
     potinit      :      0.17s CPU      0.19s WALL (       1 calls)
     hinit0       :      0.63s CPU      0.74s WALL (       1 calls)

     Called by electrons:
     c_bands      :    609.04s CPU    615.83s WALL (      50 calls)
     sum_band     :    115.32s CPU    130.14s WALL (      50 calls)
     v_of_rho     :      5.62s CPU      6.00s WALL (      51 calls)
     v_h          :      0.50s CPU      0.50s WALL (      51 calls)
     v_xc         :      5.12s CPU      5.50s WALL (      51 calls)
     newd         :     16.87s CPU     27.10s WALL (      51 calls)
     PAW_pot      :      1.74s CPU      1.76s WALL (      51 calls)
     mix_rho      :     12.56s CPU     12.94s WALL (      50 calls)

     Called by c_bands:
     init_us_2    :      7.27s CPU      7.34s WALL (     505 calls)
     init_us_2:cp :      7.26s CPU      7.34s WALL (     505 calls)
     cegterg      :    575.06s CPU    581.58s WALL (     250 calls)

     Called by sum_band:
     sum_band:wei :      0.35s CPU      0.36s WALL (      50 calls)
     sum_band:loo :     97.23s CPU     97.99s WALL (      50 calls)
     sum_band:buf :      1.46s CPU      1.51s WALL (     250 calls)
     sum_band:ini :      3.23s CPU      3.25s WALL (     250 calls)
     sum_band:cal :     20.76s CPU     20.84s WALL (     250 calls)
     sum_band:bec :      0.59s CPU      0.60s WALL (     250 calls)
     addusdens    :     16.04s CPU     30.04s WALL (      50 calls)
                                        0.00s GPU  (      50 calls)
     addusd:skk   :      0.34s CPU      0.98s WALL (     200 calls)
                                        0.00s GPU  (     200 calls)

     Called by *egterg:
     cdiaghg      :     61.64s CPU     61.90s WALL (    1422 calls)
     cegterg:over :     42.80s CPU     42.96s WALL (    1172 calls)
     cegterg:upda :     32.13s CPU     32.65s WALL (    1172 calls)
     cegterg:last :     65.90s CPU     66.13s WALL (     465 calls)
     cdiaghg:chol :      3.62s CPU      3.65s WALL (    1422 calls)
     cdiaghg:inve :      3.85s CPU      3.87s WALL (    1422 calls)
     cdiaghg:para :      8.03s CPU      8.09s WALL (    2844 calls)
     h_psi        :    312.91s CPU    316.11s WALL (    1427 calls)
     s_psi        :     42.97s CPU     43.09s WALL (    1427 calls)
     g_psi        :      1.10s CPU      1.11s WALL (    1172 calls)

     Called by h_psi:
     h_psi:calbec :     48.84s CPU     49.04s WALL (    1427 calls)
     vloc_psi     :    218.32s CPU    220.40s WALL (    1427 calls)
     add_vuspsi   :     42.83s CPU     43.04s WALL (    1427 calls)

     General routines
     calbec       :     69.59s CPU     69.87s WALL (    1677 calls)
     fft          :      3.87s CPU      3.92s WALL (     661 calls)
     ffts         :      4.59s CPU      4.63s WALL (    5192 calls)
     fftw         :    185.47s CPU    187.00s WALL (  344640 calls)
     interpolate  :      0.42s CPU      0.43s WALL (      51 calls)
 
     Parallel routines

     PAW routines
     PAW_pot      :      1.74s CPU      1.76s WALL (      51 calls)
 
     PWSCF        :  12m51.22s CPU  13m28.56s WALL

 
   This run was terminated on:   0:29:15  19Jun2024            

=------------------------------------------------------------------------------=
   JOB DONE.
=------------------------------------------------------------------------------=
