
     Program PWSCF v.7.2 starts on 21Jun2024 at 23:26:31 

     This program is part of the open-source Quantum ESPRESSO suite
     for quantum simulation of materials; please cite
         "P. Giannozzi et al., J. Phys.:Condens. Matter 21 395502 (2009);
         "P. Giannozzi et al., J. Phys.:Condens. Matter 29 465901 (2017);
         "P. Giannozzi et al., J. Chem. Phys. 152 154105 (2020);
          URL http://www.quantum-espresso.org", 
     in publications or presentations arising from this work. More details at
     http://www.quantum-espresso.org/quote

     Parallel version (MPI & OpenMP), running on      48 processor cores
     Number of MPI processes:                48
     Threads/MPI process:                     1

     MPI processes distributed on     1 nodes
     33239 MiB available memory on the printing compute node when the environment starts
 
     Reading input from espresso.pwi
Warning: card &CELL ignored
Warning: card / ignored
Warning: card &FCP ignored
Warning: card / ignored
Warning: card &RISM ignored
Warning: card / ignored

     Current dimensions of program PWSCF are:
     Max number of different atomic species (ntypx) = 10
     Max number of k-points (npk) =  40000
     Max angular momentum in pseudopotentials (lmaxx) =  4
     file O.pbe-n-kjpaw_psl.0.1.UPF: wavefunction(s)  2P renormalized
     signal trapping enabled: kill the code with -SIGUSR1 to stop cleanly the simulation 
 
     K-points division:     npool     =       2
     R & G space division:  proc/nbgrp/npool/nimage =      24
     Subspace diagonalization in iterative solution of the eigenvalue problem:
     one sub-group per band group will be used
     scalapack distributed-memory algorithm (size of sub-group:  3*  3 procs)

 
     Parallelization info
     --------------------
     sticks:   dense  smooth     PW     G-vecs:    dense   smooth      PW
     Min         350     175     47                61430    21716    3036
     Max         351     177     48                61449    21727    3041
     Sum        8421    4205   1137              1474595   521381   72913
 
     Using Slab Decomposition
 


     bravais-lattice index     =            0
     lattice parameter (alat)  =      14.8599  a.u.
     unit-cell volume          =    8305.1283 (a.u.)^3
     number of atoms/cell      =           50
     number of atomic types    =            4
     number of electrons       =       431.00
     number of Kohn-Sham states=          259
     kinetic-energy cutoff     =      60.0000  Ry
     charge density cutoff     =     480.0000  Ry
     scf convergence threshold =      1.0E-08
     mixing beta               =       0.1500
     number of iterations used =            8  local-TF  mixing
     Exchange-correlation= PBE
                           (   1   4   3   4   0   0   0)

     celldm(1)=  14.859904  celldm(2)=   0.000000  celldm(3)=   0.000000
     celldm(4)=   0.000000  celldm(5)=   0.000000  celldm(6)=   0.000000

     crystal axes: (cart. coord. in units of alat)
               a(1) = (   1.000000   0.000000   0.000000 )  
               a(2) = (   0.000000   1.000000   0.000000 )  
               a(3) = (   0.000000   0.000000   2.531036 )  

     reciprocal axes: (cart. coord. in units 2 pi/alat)
               b(1) = (  1.000000  0.000000  0.000000 )  
               b(2) = (  0.000000  1.000000  0.000000 )  
               b(3) = (  0.000000  0.000000  0.395095 )  


     PseudoPot. # 1 for Sr read from file:
     /bsuhome/zayahcortright/q-e/pseudo/Sr_pbe_v1.uspp.F.UPF
     MD5 check sum: 6b418c05fbe9db5448babca5e47b7a5b
     Pseudo is Ultrasoft + core correction, Zval = 10.0
     Generated by new atomic code, or converted to UPF format
     Using radial grid of  883 points,  6 beta functions with: 
                l(1) =   0
                l(2) =   0
                l(3) =   1
                l(4) =   1
                l(5) =   2
                l(6) =   2
     Q(r) pseudized with  6 coefficients,  rinner =    1.400   1.400   1.400
                                                       1.400   1.400

     PseudoPot. # 2 for O  read from file:
     /bsuhome/zayahcortright/q-e/pseudo/O.pbe-n-kjpaw_psl.0.1.UPF
     MD5 check sum: 0234752ac141de4415c5fc33072bef88
     Pseudo is Projector augmented-wave + core cor, Zval =  6.0
     Generated using "atomic" code by A. Dal Corso  v.5.0.99 svn rev. 10869
     Shape of augmentation charge: BESSEL
     Using radial grid of 1095 points,  4 beta functions with: 
                l(1) =   0
                l(2) =   0
                l(3) =   1
                l(4) =   1
     Q(r) pseudized with 0 coefficients 


     PseudoPot. # 3 for Co read from file:
     /bsuhome/zayahcortright/q-e/pseudo/Co_pbe_v1.2.uspp.F.UPF
     MD5 check sum: 5f91765df6ddd3222702df6e7b74a16d
     Pseudo is Ultrasoft + core correction, Zval = 17.0
     Generated by new atomic code, or converted to UPF format
     Using radial grid of  863 points,  6 beta functions with: 
                l(1) =   0
                l(2) =   0
                l(3) =   1
                l(4) =   1
                l(5) =   2
                l(6) =   2
     Q(r) pseudized with  8 coefficients,  rinner =    1.200   1.200   1.200
                                                       1.200   1.200

     PseudoPot. # 4 for H  read from file:
     /bsuhome/zayahcortright/q-e/pseudo/H.pbe-rrkjus_psl.1.0.0.UPF
     MD5 check sum: f52b6d4d1c606e5624b1dc7b2218f220
     Pseudo is Ultrasoft, Zval =  1.0
     Generated using "atomic" code by A. Dal Corso  v.5.1
     Using radial grid of  929 points,  2 beta functions with: 
                l(1) =   0
                l(2) =   0
     Q(r) pseudized with 0 coefficients 


     atomic species   valence    mass     pseudopotential
        Sr            10.00    87.62000     Sr( 1.00)
        O              6.00    15.99900     O ( 1.00)
        Co            17.00    58.93319     Co( 1.00)
        H              1.00     1.00800     H ( 1.00)

     No symmetry found


                                    s                        frac. trans.

      isym =  1     identity                                     

 cryst.   s( 1) = (     1          0          0      )
                  (     0          1          0      )
                  (     0          0          1      )

 cart.    s( 1) = (  1.0000000  0.0000000  0.0000000 )
                  (  0.0000000  1.0000000  0.0000000 )
                  (  0.0000000  0.0000000  1.0000000 )


   Cartesian axes

     site n.     atom                  positions (alat units)
         1           Sr  tau(   1) = (   0.2508693   0.7491307   1.7574407  )
         2           O   tau(   2) = (   0.4985141   0.5014859   1.7715967  )
         3           Sr  tau(   3) = (   0.7482398   0.7454518   1.7648669  )
         4           Sr  tau(   4) = (   0.7441748   0.2558252   1.7667843  )
         5           Sr  tau(   5) = (   0.2508693   0.7491307   1.2696799  )
         6           Sr  tau(   6) = (   0.2508693   0.7491307   0.7632319  )
         7           Co  tau(   7) = (   0.4998914   0.5001086   1.0164559  )
         8           Co  tau(   8) = (   0.4936915   0.5063085   1.5135603  )
         9           O   tau(   9) = (   0.4988895   0.7610401   1.0164559  )
        10           O   tau(  10) = (   0.2389599   0.5011105   1.0164559  )
        11           O   tau(  11) = (   0.0070918   0.7374880   1.0164559  )
        12           O   tau(  12) = (   0.0088340   0.7405089   1.5135603  )
        13           O   tau(  13) = (   0.5066944   0.7415376   1.5135603  )
        14           O   tau(  14) = (   0.2584624   0.4933056   1.5135603  )
        15           O   tau(  15) = (   0.4985141   0.5014859   0.7773880  )
        16           O   tau(  16) = (   0.4985141   0.5014859   1.2555238  )
        17           Sr  tau(  17) = (   0.7482398   0.7454518   0.7706582  )
        18           Sr  tau(  18) = (   0.7482398   0.7454518   1.2622536  )
        19           Sr  tau(  19) = (   0.7441748   0.2558252   0.7725755  )
        20           Sr  tau(  20) = (   0.7441748   0.2558252   1.2603363  )
        21           O   tau(  21) = (   0.7322655   0.0078049   1.5135603  )
        22           O   tau(  22) = (   0.7558175   0.4996027   1.5135603  )
        23           O   tau(  23) = (   0.5003973   0.2441825   1.5135603  )
        24           O   tau(  24) = (   0.7527966   0.4978604   1.0164559  )
        25           O   tau(  25) = (   0.5021396   0.2472034   1.0164559  )
        26           O   tau(  26) = (   0.7517679   0.0000000   1.0164559  )
        27           O   tau(  27) = (   0.0114961   0.4948124   1.7455321  )
        28           O   tau(  28) = (   0.0048226   0.0077944   1.7715967  )
        29           Sr  tau(  29) = (   0.2545482   0.2517602   1.7648669  )
        30           O   tau(  30) = (   0.5048017   0.0015068   1.7786929  )
        31           Co  tau(  31) = (   0.0056869   0.5006215   1.0164559  )
        32           Co  tau(  32) = (   0.0065315   0.4997770   1.5135603  )
        33           Co  tau(  33) = (   0.0061999   0.0064171   1.0164559  )
        34           Co  tau(  34) = (   0.0000000   0.0126169   1.5135603  )
        35           O   tau(  35) = (   0.0114961   0.4948124   1.2815885  )
        36           O   tau(  36) = (   0.0114961   0.4948124   0.7513233  )
        37           O   tau(  37) = (   0.0051979   0.2673486   1.0164559  )
        38           O   tau(  38) = (   0.0130029   0.2478461   1.5135603  )
        39           O   tau(  39) = (   0.0048226   0.0077944   0.7773880  )
        40           O   tau(  40) = (   0.0048226   0.0077944   1.2555238  )
        41           Sr  tau(  41) = (   0.2545482   0.2517602   0.7706582  )
        42           Sr  tau(  42) = (   0.2545482   0.2517602   1.2622536  )
        43           Co  tau(  43) = (   0.4989925   0.0073160   1.5135603  )
        44           Co  tau(  44) = (   0.4998370   0.0064714   1.0164559  )
        45           O   tau(  45) = (   0.5048017   0.0015068   0.7844841  )
        46           O   tau(  46) = (   0.5048017   0.0015068   1.2484277  )
        47           O   tau(  47) = (   0.2621260   0.0059111   1.5135603  )
        48           O   tau(  48) = (   0.2591051   0.0041689   1.0164559  )
        49           O   tau(  49) = (   0.5686583   0.8529874   2.1602013  )
        50           H   tau(  50) = (   0.5686583   0.8529874   2.2847091  )

   Crystallographic axes

     site n.     atom                  positions (cryst. coord.)
         1           Sr  tau(   1) = (  0.2508693  0.7491307  0.6943562  )
         2           O   tau(   2) = (  0.4985141  0.5014859  0.6999492  )
         3           Sr  tau(   3) = (  0.7482398  0.7454518  0.6972903  )
         4           Sr  tau(   4) = (  0.7441748  0.2558252  0.6980478  )
         5           Sr  tau(   5) = (  0.2508693  0.7491307  0.5016443  )
         6           Sr  tau(   6) = (  0.2508693  0.7491307  0.3015492  )
         7           Co  tau(   7) = (  0.4998914  0.5001086  0.4015968  )
         8           Co  tau(   8) = (  0.4936915  0.5063085  0.5980003  )
         9           O   tau(   9) = (  0.4988895  0.7610401  0.4015968  )
        10           O   tau(  10) = (  0.2389599  0.5011105  0.4015968  )
        11           O   tau(  11) = (  0.0070918  0.7374880  0.4015968  )
        12           O   tau(  12) = (  0.0088340  0.7405089  0.5980003  )
        13           O   tau(  13) = (  0.5066944  0.7415376  0.5980003  )
        14           O   tau(  14) = (  0.2584624  0.4933056  0.5980003  )
        15           O   tau(  15) = (  0.4985141  0.5014859  0.3071422  )
        16           O   tau(  16) = (  0.4985141  0.5014859  0.4960513  )
        17           Sr  tau(  17) = (  0.7482398  0.7454518  0.3044833  )
        18           Sr  tau(  18) = (  0.7482398  0.7454518  0.4987103  )
        19           Sr  tau(  19) = (  0.7441748  0.2558252  0.3052408  )
        20           Sr  tau(  20) = (  0.7441748  0.2558252  0.4979527  )
        21           O   tau(  21) = (  0.7322655  0.0078049  0.5980003  )
        22           O   tau(  22) = (  0.7558175  0.4996027  0.5980003  )
        23           O   tau(  23) = (  0.5003973  0.2441825  0.5980003  )
        24           O   tau(  24) = (  0.7527966  0.4978604  0.4015968  )
        25           O   tau(  25) = (  0.5021396  0.2472034  0.4015968  )
        26           O   tau(  26) = (  0.7517679  0.0000000  0.4015968  )
        27           O   tau(  27) = (  0.0114961  0.4948124  0.6896512  )
        28           O   tau(  28) = (  0.0048226  0.0077944  0.6999492  )
        29           Sr  tau(  29) = (  0.2545482  0.2517602  0.6972903  )
        30           O   tau(  30) = (  0.5048017  0.0015068  0.7027529  )
        31           Co  tau(  31) = (  0.0056869  0.5006215  0.4015968  )
        32           Co  tau(  32) = (  0.0065315  0.4997770  0.5980003  )
        33           Co  tau(  33) = (  0.0061999  0.0064171  0.4015968  )
        34           Co  tau(  34) = (  0.0000000  0.0126169  0.5980003  )
        35           O   tau(  35) = (  0.0114961  0.4948124  0.5063494  )
        36           O   tau(  36) = (  0.0114961  0.4948124  0.2968442  )
        37           O   tau(  37) = (  0.0051979  0.2673486  0.4015968  )
        38           O   tau(  38) = (  0.0130029  0.2478461  0.5980003  )
        39           O   tau(  39) = (  0.0048226  0.0077944  0.3071422  )
        40           O   tau(  40) = (  0.0048226  0.0077944  0.4960513  )
        41           Sr  tau(  41) = (  0.2545482  0.2517602  0.3044833  )
        42           Sr  tau(  42) = (  0.2545482  0.2517602  0.4987103  )
        43           Co  tau(  43) = (  0.4989925  0.0073160  0.5980003  )
        44           Co  tau(  44) = (  0.4998370  0.0064714  0.4015968  )
        45           O   tau(  45) = (  0.5048017  0.0015068  0.3099459  )
        46           O   tau(  46) = (  0.5048017  0.0015068  0.4932477  )
        47           O   tau(  47) = (  0.2621260  0.0059111  0.5980003  )
        48           O   tau(  48) = (  0.2591051  0.0041689  0.4015968  )
        49           O   tau(  49) = (  0.5686583  0.8529874  0.8534850  )
        50           H   tau(  50) = (  0.5686583  0.8529874  0.9026774  )

     number of k points=    10  Gaussian smearing, width (Ry)=  0.0700
                       cart. coord. in units 2pi/alat
        k(    1) = (   0.0000000   0.0000000   0.0000000), wk =   0.1250000
        k(    2) = (   0.0000000   0.2500000   0.0000000), wk =   0.2500000
        k(    3) = (   0.0000000  -0.5000000   0.0000000), wk =   0.1250000
        k(    4) = (   0.2500000   0.2500000   0.0000000), wk =   0.2500000
        k(    5) = (   0.2500000  -0.5000000   0.0000000), wk =   0.2500000
        k(    6) = (  -0.5000000  -0.5000000   0.0000000), wk =   0.1250000
        k(    7) = (   0.2500000   0.0000000   0.0000000), wk =   0.2500000
        k(    8) = (  -0.5000000   0.0000000   0.0000000), wk =   0.1250000
        k(    9) = (  -0.2500000   0.2500000   0.0000000), wk =   0.2500000
        k(   10) = (  -0.5000000   0.2500000   0.0000000), wk =   0.2500000

                       cryst. coord.
        k(    1) = (   0.0000000   0.0000000   0.0000000), wk =   0.1250000
        k(    2) = (   0.0000000   0.2500000   0.0000000), wk =   0.2500000
        k(    3) = (   0.0000000  -0.5000000   0.0000000), wk =   0.1250000
        k(    4) = (   0.2500000   0.2500000   0.0000000), wk =   0.2500000
        k(    5) = (   0.2500000  -0.5000000   0.0000000), wk =   0.2500000
        k(    6) = (  -0.5000000  -0.5000000   0.0000000), wk =   0.1250000
        k(    7) = (   0.2500000   0.0000000   0.0000000), wk =   0.2500000
        k(    8) = (  -0.5000000   0.0000000   0.0000000), wk =   0.1250000
        k(    9) = (  -0.2500000   0.2500000   0.0000000), wk =   0.2500000
        k(   10) = (  -0.5000000   0.2500000   0.0000000), wk =   0.2500000

     Dense  grid:  1474595 G-vectors     FFT dimensions: ( 108, 108, 270)

     Smooth grid:   521381 G-vectors     FFT dimensions: (  75,  75, 192)

     Dynamical RAM for                 wfc:      10.73 MB

     Dynamical RAM for     wfc (w. buffer):      64.38 MB

     Dynamical RAM for           str. fact:       3.75 MB

     Dynamical RAM for           local pot:       0.00 MB

     Dynamical RAM for          nlocal pot:      24.61 MB

     Dynamical RAM for                qrad:       7.03 MB

     Dynamical RAM for          rho,v,vnew:       6.02 MB

     Dynamical RAM for               rhoin:       2.01 MB

     Dynamical RAM for            rho*nmix:      15.00 MB

     Dynamical RAM for           G-vectors:       3.68 MB

     Dynamical RAM for          h,s,v(r/c):       1.35 MB

     Dynamical RAM for          <psi|beta>:       2.35 MB

     Dynamical RAM for                 psi:      21.46 MB

     Dynamical RAM for                hpsi:      21.46 MB

     Dynamical RAM for                spsi:      21.46 MB

     Dynamical RAM for      wfcinit/wfcrot:      34.49 MB

     Dynamical RAM for           addusdens:     101.26 MB

     Estimated static dynamical RAM per process >     121.50 MB

     Estimated max dynamical RAM per process >     237.76 MB

     Estimated total dynamical RAM >      10.79 GB

     Check: negative core charge=   -0.000004

     Initial potential from superposition of free atoms

     starting charge     422.5961, renormalised to     431.0000

     negative rho (up, down):  7.820E-01 0.000E+00
     Starting wfcs are  377 randomized atomic wfcs
     Checking if some PAW data can be deallocated... 
       PAW data deallocated on   19 nodes for type:  2

     total cpu time spent up to now is        9.8 secs

     Self-consistent Calculation

     iteration #  1     ecut=    60.00 Ry     beta= 0.15
     Davidson diagonalization with overlap

---- Real-time Memory Report at c_bands before calling an iterative solver
             0 MiB given to the printing process from OS
             0 MiB allocation reported by mallinfo(arena+hblkhd)
         23991 MiB available memory on the node where the printing process lives
------------------
     ethr =  1.00E-02,  avg # of iterations =  2.0

     negative rho (up, down):  7.715E-01 0.000E+00

     total cpu time spent up to now is       27.1 secs

     total energy              =   -4446.61346263 Ry
     estimated scf accuracy    <      44.79558324 Ry

     iteration #  2     ecut=    60.00 Ry     beta= 0.15
     Davidson diagonalization with overlap

---- Real-time Memory Report at c_bands before calling an iterative solver
             0 MiB given to the printing process from OS
             0 MiB allocation reported by mallinfo(arena+hblkhd)
         24253 MiB available memory on the node where the printing process lives
------------------
     ethr =  1.00E-02,  avg # of iterations =  1.0

     negative rho (up, down):  7.581E-01 0.000E+00

     total cpu time spent up to now is       42.2 secs

     total energy              =   -4443.25898466 Ry
     estimated scf accuracy    <      29.59919791 Ry

     iteration #  3     ecut=    60.00 Ry     beta= 0.15
     Davidson diagonalization with overlap

---- Real-time Memory Report at c_bands before calling an iterative solver
             0 MiB given to the printing process from OS
             0 MiB allocation reported by mallinfo(arena+hblkhd)
         23417 MiB available memory on the node where the printing process lives
------------------
     ethr =  6.87E-03,  avg # of iterations =  1.0

     negative rho (up, down):  7.554E-01 0.000E+00

     total cpu time spent up to now is       57.5 secs

     total energy              =   -4444.26543048 Ry
     estimated scf accuracy    <      29.04822339 Ry

     iteration #  4     ecut=    60.00 Ry     beta= 0.15
     Davidson diagonalization with overlap

---- Real-time Memory Report at c_bands before calling an iterative solver
             0 MiB given to the printing process from OS
             0 MiB allocation reported by mallinfo(arena+hblkhd)
         23387 MiB available memory on the node where the printing process lives
------------------
     ethr =  6.74E-03,  avg # of iterations =  1.0

     negative rho (up, down):  7.493E-01 0.000E+00

     total cpu time spent up to now is       72.9 secs

     total energy              =   -4443.06016350 Ry
     estimated scf accuracy    <      20.93921001 Ry

     iteration #  5     ecut=    60.00 Ry     beta= 0.15
     Davidson diagonalization with overlap

---- Real-time Memory Report at c_bands before calling an iterative solver
             0 MiB given to the printing process from OS
             0 MiB allocation reported by mallinfo(arena+hblkhd)
         23378 MiB available memory on the node where the printing process lives
------------------
     ethr =  4.86E-03,  avg # of iterations =  1.0

     negative rho (up, down):  7.406E-01 0.000E+00

     total cpu time spent up to now is       88.1 secs

     total energy              =   -4442.57988872 Ry
     estimated scf accuracy    <      10.13801403 Ry

     iteration #  6     ecut=    60.00 Ry     beta= 0.15
     Davidson diagonalization with overlap

---- Real-time Memory Report at c_bands before calling an iterative solver
             0 MiB given to the printing process from OS
             0 MiB allocation reported by mallinfo(arena+hblkhd)
         23353 MiB available memory on the node where the printing process lives
------------------
     ethr =  2.35E-03,  avg # of iterations =  1.1

     negative rho (up, down):  7.431E-01 0.000E+00

     total cpu time spent up to now is      103.6 secs

     total energy              =   -4442.80617821 Ry
     estimated scf accuracy    <       4.88000231 Ry

     iteration #  7     ecut=    60.00 Ry     beta= 0.15
     Davidson diagonalization with overlap

---- Real-time Memory Report at c_bands before calling an iterative solver
             0 MiB given to the printing process from OS
             0 MiB allocation reported by mallinfo(arena+hblkhd)
         23339 MiB available memory on the node where the printing process lives
------------------
     ethr =  1.13E-03,  avg # of iterations =  1.7

     negative rho (up, down):  7.643E-01 0.000E+00

     total cpu time spent up to now is      119.3 secs

     total energy              =   -4441.65762086 Ry
     estimated scf accuracy    <       3.92687014 Ry

     iteration #  8     ecut=    60.00 Ry     beta= 0.15
     Davidson diagonalization with overlap

---- Real-time Memory Report at c_bands before calling an iterative solver
             0 MiB given to the printing process from OS
             0 MiB allocation reported by mallinfo(arena+hblkhd)
         23314 MiB available memory on the node where the printing process lives
------------------
     ethr =  9.11E-04,  avg # of iterations =  5.8

     negative rho (up, down):  7.720E-01 0.000E+00

     total cpu time spent up to now is      140.3 secs

     total energy              =   -4441.53081222 Ry
     estimated scf accuracy    <      14.04641437 Ry

     iteration #  9     ecut=    60.00 Ry     beta= 0.15
     Davidson diagonalization with overlap

---- Real-time Memory Report at c_bands before calling an iterative solver
             0 MiB given to the printing process from OS
             0 MiB allocation reported by mallinfo(arena+hblkhd)
         23135 MiB available memory on the node where the printing process lives
------------------
     ethr =  9.11E-04,  avg # of iterations =  9.7

     negative rho (up, down):  7.703E-01 0.000E+00

     total cpu time spent up to now is      162.8 secs

     total energy              =   -4441.79462143 Ry
     estimated scf accuracy    <       2.22743677 Ry

     iteration # 10     ecut=    60.00 Ry     beta= 0.15
     Davidson diagonalization with overlap

---- Real-time Memory Report at c_bands before calling an iterative solver
             0 MiB given to the printing process from OS
             0 MiB allocation reported by mallinfo(arena+hblkhd)
         22830 MiB available memory on the node where the printing process lives
------------------
     ethr =  5.17E-04,  avg # of iterations =  2.8

     negative rho (up, down):  7.792E-01 0.000E+00

     total cpu time spent up to now is      180.4 secs

     total energy              =   -4441.92581030 Ry
     estimated scf accuracy    <       1.10611955 Ry

     iteration # 11     ecut=    60.00 Ry     beta= 0.15
     Davidson diagonalization with overlap

---- Real-time Memory Report at c_bands before calling an iterative solver
             0 MiB given to the printing process from OS
             0 MiB allocation reported by mallinfo(arena+hblkhd)
         22816 MiB available memory on the node where the printing process lives
------------------
     ethr =  2.57E-04,  avg # of iterations =  3.8

     negative rho (up, down):  8.082E-01 0.000E+00

     total cpu time spent up to now is      199.4 secs

     total energy              =   -4441.72154766 Ry
     estimated scf accuracy    <       1.43249648 Ry

     iteration # 12     ecut=    60.00 Ry     beta= 0.15
     Davidson diagonalization with overlap

---- Real-time Memory Report at c_bands before calling an iterative solver
             0 MiB given to the printing process from OS
             0 MiB allocation reported by mallinfo(arena+hblkhd)
         22812 MiB available memory on the node where the printing process lives
------------------
     ethr =  2.57E-04,  avg # of iterations =  7.9

     negative rho (up, down):  8.129E-01 0.000E+00

     total cpu time spent up to now is      220.0 secs

     total energy              =   -4441.84043568 Ry
     estimated scf accuracy    <       0.87199810 Ry

     iteration # 13     ecut=    60.00 Ry     beta= 0.15
     Davidson diagonalization with overlap

---- Real-time Memory Report at c_bands before calling an iterative solver
             0 MiB given to the printing process from OS
             0 MiB allocation reported by mallinfo(arena+hblkhd)
         22765 MiB available memory on the node where the printing process lives
------------------
     ethr =  2.02E-04,  avg # of iterations =  3.0

     negative rho (up, down):  8.179E-01 0.000E+00

     total cpu time spent up to now is      237.6 secs

     total energy              =   -4441.78916509 Ry
     estimated scf accuracy    <       0.54878446 Ry

     iteration # 14     ecut=    60.00 Ry     beta= 0.15
     Davidson diagonalization with overlap

---- Real-time Memory Report at c_bands before calling an iterative solver
             0 MiB given to the printing process from OS
             0 MiB allocation reported by mallinfo(arena+hblkhd)
         22769 MiB available memory on the node where the printing process lives
------------------
     c_bands:  1 eigenvalues not converged
     ethr =  1.27E-04,  avg # of iterations =  6.8

     negative rho (up, down):  8.271E-01 0.000E+00

     total cpu time spent up to now is      257.3 secs

     total energy              =   -4441.71272526 Ry
     estimated scf accuracy    <       0.36165622 Ry

     iteration # 15     ecut=    60.00 Ry     beta= 0.15
     Davidson diagonalization with overlap

---- Real-time Memory Report at c_bands before calling an iterative solver
             0 MiB given to the printing process from OS
             0 MiB allocation reported by mallinfo(arena+hblkhd)
         22759 MiB available memory on the node where the printing process lives
------------------
     ethr =  8.39E-05,  avg # of iterations = 14.1

     negative rho (up, down):  8.340E-01 0.000E+00

     total cpu time spent up to now is      281.7 secs

     total energy              =   -4441.72454813 Ry
     estimated scf accuracy    <       0.35376232 Ry

     iteration # 16     ecut=    60.00 Ry     beta= 0.15
     Davidson diagonalization with overlap

---- Real-time Memory Report at c_bands before calling an iterative solver
             0 MiB given to the printing process from OS
             0 MiB allocation reported by mallinfo(arena+hblkhd)
         22685 MiB available memory on the node where the printing process lives
------------------
     ethr =  8.21E-05,  avg # of iterations =  2.5

     negative rho (up, down):  8.274E-01 0.000E+00

     total cpu time spent up to now is      298.8 secs

     total energy              =   -4441.70631164 Ry
     estimated scf accuracy    <       0.27271359 Ry

     iteration # 17     ecut=    60.00 Ry     beta= 0.15
     Davidson diagonalization with overlap

---- Real-time Memory Report at c_bands before calling an iterative solver
             0 MiB given to the printing process from OS
             0 MiB allocation reported by mallinfo(arena+hblkhd)
         22704 MiB available memory on the node where the printing process lives
------------------
     ethr =  6.33E-05,  avg # of iterations =  1.5

     negative rho (up, down):  8.069E-01 0.000E+00

     total cpu time spent up to now is      315.1 secs

     total energy              =   -4441.67099952 Ry
     estimated scf accuracy    <       0.16258037 Ry

     iteration # 18     ecut=    60.00 Ry     beta= 0.15
     Davidson diagonalization with overlap

---- Real-time Memory Report at c_bands before calling an iterative solver
             0 MiB given to the printing process from OS
             0 MiB allocation reported by mallinfo(arena+hblkhd)
         22710 MiB available memory on the node where the printing process lives
------------------
     ethr =  3.77E-05,  avg # of iterations =  8.9

     negative rho (up, down):  8.450E-01 0.000E+00

     total cpu time spent up to now is      337.3 secs

     total energy              =   -4441.66586747 Ry
     estimated scf accuracy    <       0.07647387 Ry

     iteration # 19     ecut=    60.00 Ry     beta= 0.15
     Davidson diagonalization with overlap

---- Real-time Memory Report at c_bands before calling an iterative solver
             0 MiB given to the printing process from OS
             0 MiB allocation reported by mallinfo(arena+hblkhd)
         22666 MiB available memory on the node where the printing process lives
------------------
     ethr =  1.77E-05,  avg # of iterations = 11.3

     negative rho (up, down):  8.358E-01 0.000E+00

     total cpu time spent up to now is      361.0 secs

     total energy              =   -4441.66578585 Ry
     estimated scf accuracy    <       0.04246673 Ry

     iteration # 20     ecut=    60.00 Ry     beta= 0.15
     Davidson diagonalization with overlap

---- Real-time Memory Report at c_bands before calling an iterative solver
             0 MiB given to the printing process from OS
             0 MiB allocation reported by mallinfo(arena+hblkhd)
         22666 MiB available memory on the node where the printing process lives
------------------
     ethr =  9.85E-06,  avg # of iterations =  1.9

     negative rho (up, down):  8.074E-01 0.000E+00

     total cpu time spent up to now is      378.4 secs

     total energy              =   -4441.66130661 Ry
     estimated scf accuracy    <       0.03049357 Ry

     iteration # 21     ecut=    60.00 Ry     beta= 0.15
     Davidson diagonalization with overlap

---- Real-time Memory Report at c_bands before calling an iterative solver
             0 MiB given to the printing process from OS
             0 MiB allocation reported by mallinfo(arena+hblkhd)
         22671 MiB available memory on the node where the printing process lives
------------------
     ethr =  7.08E-06,  avg # of iterations =  6.2

     negative rho (up, down):  8.023E-01 0.000E+00

     total cpu time spent up to now is      397.6 secs

     total energy              =   -4441.66003368 Ry
     estimated scf accuracy    <       0.02151439 Ry

     iteration # 22     ecut=    60.00 Ry     beta= 0.15
     Davidson diagonalization with overlap

---- Real-time Memory Report at c_bands before calling an iterative solver
             0 MiB given to the printing process from OS
             0 MiB allocation reported by mallinfo(arena+hblkhd)
         22666 MiB available memory on the node where the printing process lives
------------------
     ethr =  4.99E-06,  avg # of iterations =  6.0

     negative rho (up, down):  7.957E-01 0.000E+00

     total cpu time spent up to now is      416.8 secs

     total energy              =   -4441.65674864 Ry
     estimated scf accuracy    <       0.01672957 Ry

     iteration # 23     ecut=    60.00 Ry     beta= 0.15
     Davidson diagonalization with overlap

---- Real-time Memory Report at c_bands before calling an iterative solver
             0 MiB given to the printing process from OS
             0 MiB allocation reported by mallinfo(arena+hblkhd)
         22706 MiB available memory on the node where the printing process lives
------------------
     c_bands:  1 eigenvalues not converged
     ethr =  3.88E-06,  avg # of iterations = 12.6

     negative rho (up, down):  7.990E-01 0.000E+00

     total cpu time spent up to now is      441.5 secs

     total energy              =   -4441.65608753 Ry
     estimated scf accuracy    <       0.00807976 Ry

     iteration # 24     ecut=    60.00 Ry     beta= 0.15
     Davidson diagonalization with overlap

---- Real-time Memory Report at c_bands before calling an iterative solver
             0 MiB given to the printing process from OS
             0 MiB allocation reported by mallinfo(arena+hblkhd)
         22689 MiB available memory on the node where the printing process lives
------------------
     ethr =  1.87E-06,  avg # of iterations =  6.2

     negative rho (up, down):  8.005E-01 0.000E+00

     total cpu time spent up to now is      461.9 secs

     total energy              =   -4441.65605894 Ry
     estimated scf accuracy    <       0.00361039 Ry

     iteration # 25     ecut=    60.00 Ry     beta= 0.15
     Davidson diagonalization with overlap

---- Real-time Memory Report at c_bands before calling an iterative solver
             0 MiB given to the printing process from OS
             0 MiB allocation reported by mallinfo(arena+hblkhd)
         22651 MiB available memory on the node where the printing process lives
------------------
     c_bands:  1 eigenvalues not converged
     ethr =  8.38E-07,  avg # of iterations = 11.6

     negative rho (up, down):  8.019E-01 0.000E+00

     total cpu time spent up to now is      485.4 secs

     total energy              =   -4441.65633212 Ry
     estimated scf accuracy    <       0.00124254 Ry

     iteration # 26     ecut=    60.00 Ry     beta= 0.15
     Davidson diagonalization with overlap

---- Real-time Memory Report at c_bands before calling an iterative solver
             0 MiB given to the printing process from OS
             0 MiB allocation reported by mallinfo(arena+hblkhd)
         22645 MiB available memory on the node where the printing process lives
------------------
     ethr =  2.88E-07,  avg # of iterations =  6.8

     negative rho (up, down):  8.004E-01 0.000E+00

     total cpu time spent up to now is      505.7 secs

     total energy              =   -4441.65632172 Ry
     estimated scf accuracy    <       0.00071859 Ry

     iteration # 27     ecut=    60.00 Ry     beta= 0.15
     Davidson diagonalization with overlap

---- Real-time Memory Report at c_bands before calling an iterative solver
             0 MiB given to the printing process from OS
             0 MiB allocation reported by mallinfo(arena+hblkhd)
         22635 MiB available memory on the node where the printing process lives
------------------
     ethr =  1.67E-07,  avg # of iterations =  4.8

     negative rho (up, down):  7.968E-01 0.000E+00

     total cpu time spent up to now is      524.8 secs

     total energy              =   -4441.65621350 Ry
     estimated scf accuracy    <       0.00047786 Ry

     iteration # 28     ecut=    60.00 Ry     beta= 0.15
     Davidson diagonalization with overlap

---- Real-time Memory Report at c_bands before calling an iterative solver
             0 MiB given to the printing process from OS
             0 MiB allocation reported by mallinfo(arena+hblkhd)
         22644 MiB available memory on the node where the printing process lives
------------------
     c_bands:  1 eigenvalues not converged
     ethr =  1.11E-07,  avg # of iterations =  8.3

     negative rho (up, down):  7.943E-01 0.000E+00

     total cpu time spent up to now is      546.7 secs

     total energy              =   -4441.65620529 Ry
     estimated scf accuracy    <       0.00021714 Ry

     iteration # 29     ecut=    60.00 Ry     beta= 0.15
     Davidson diagonalization with overlap

---- Real-time Memory Report at c_bands before calling an iterative solver
             0 MiB given to the printing process from OS
             0 MiB allocation reported by mallinfo(arena+hblkhd)
         22666 MiB available memory on the node where the printing process lives
------------------
     ethr =  5.04E-08,  avg # of iterations =  4.2

     negative rho (up, down):  7.935E-01 0.000E+00

     total cpu time spent up to now is      565.4 secs

     total energy              =   -4441.65620990 Ry
     estimated scf accuracy    <       0.00010120 Ry

     iteration # 30     ecut=    60.00 Ry     beta= 0.15
     Davidson diagonalization with overlap

---- Real-time Memory Report at c_bands before calling an iterative solver
             0 MiB given to the printing process from OS
             0 MiB allocation reported by mallinfo(arena+hblkhd)
         22694 MiB available memory on the node where the printing process lives
------------------
     ethr =  2.35E-08,  avg # of iterations =  4.9

     negative rho (up, down):  7.930E-01 0.000E+00

     total cpu time spent up to now is      585.5 secs

     total energy              =   -4441.65621572 Ry
     estimated scf accuracy    <       0.00004196 Ry

     iteration # 31     ecut=    60.00 Ry     beta= 0.15
     Davidson diagonalization with overlap

---- Real-time Memory Report at c_bands before calling an iterative solver
             0 MiB given to the printing process from OS
             0 MiB allocation reported by mallinfo(arena+hblkhd)
         22673 MiB available memory on the node where the printing process lives
------------------
     ethr =  9.74E-09,  avg # of iterations =  2.7

     negative rho (up, down):  7.925E-01 0.000E+00

     total cpu time spent up to now is      603.4 secs

     total energy              =   -4441.65621627 Ry
     estimated scf accuracy    <       0.00002423 Ry

     iteration # 32     ecut=    60.00 Ry     beta= 0.15
     Davidson diagonalization with overlap

---- Real-time Memory Report at c_bands before calling an iterative solver
             0 MiB given to the printing process from OS
             0 MiB allocation reported by mallinfo(arena+hblkhd)
         22710 MiB available memory on the node where the printing process lives
------------------
     ethr =  5.62E-09,  avg # of iterations =  3.3

     negative rho (up, down):  7.923E-01 0.000E+00

     total cpu time spent up to now is      621.8 secs

     total energy              =   -4441.65621683 Ry
     estimated scf accuracy    <       0.00001468 Ry

     iteration # 33     ecut=    60.00 Ry     beta= 0.15
     Davidson diagonalization with overlap

---- Real-time Memory Report at c_bands before calling an iterative solver
             0 MiB given to the printing process from OS
             0 MiB allocation reported by mallinfo(arena+hblkhd)
         22714 MiB available memory on the node where the printing process lives
------------------
     ethr =  3.41E-09,  avg # of iterations =  2.2

     negative rho (up, down):  7.923E-01 0.000E+00

     total cpu time spent up to now is      639.2 secs

     total energy              =   -4441.65621829 Ry
     estimated scf accuracy    <       0.00001058 Ry

     iteration # 34     ecut=    60.00 Ry     beta= 0.15
     Davidson diagonalization with overlap

---- Real-time Memory Report at c_bands before calling an iterative solver
             0 MiB given to the printing process from OS
             0 MiB allocation reported by mallinfo(arena+hblkhd)
         22703 MiB available memory on the node where the printing process lives
------------------
     ethr =  2.45E-09,  avg # of iterations =  2.2

     negative rho (up, down):  7.923E-01 0.000E+00

     total cpu time spent up to now is      656.7 secs

     total energy              =   -4441.65622139 Ry
     estimated scf accuracy    <       0.00000648 Ry

     iteration # 35     ecut=    60.00 Ry     beta= 0.15
     Davidson diagonalization with overlap

---- Real-time Memory Report at c_bands before calling an iterative solver
             0 MiB given to the printing process from OS
             0 MiB allocation reported by mallinfo(arena+hblkhd)
         22706 MiB available memory on the node where the printing process lives
------------------
     ethr =  1.50E-09,  avg # of iterations =  2.2

     negative rho (up, down):  7.924E-01 0.000E+00

     total cpu time spent up to now is      674.1 secs

     total energy              =   -4441.65622406 Ry
     estimated scf accuracy    <       0.00000437 Ry

     iteration # 36     ecut=    60.00 Ry     beta= 0.15
     Davidson diagonalization with overlap

---- Real-time Memory Report at c_bands before calling an iterative solver
             0 MiB given to the printing process from OS
             0 MiB allocation reported by mallinfo(arena+hblkhd)
         22708 MiB available memory on the node where the printing process lives
------------------
     ethr =  1.01E-09,  avg # of iterations =  2.3

     negative rho (up, down):  7.925E-01 0.000E+00

     total cpu time spent up to now is      691.5 secs

     total energy              =   -4441.65622588 Ry
     estimated scf accuracy    <       0.00000311 Ry

     iteration # 37     ecut=    60.00 Ry     beta= 0.15
     Davidson diagonalization with overlap

---- Real-time Memory Report at c_bands before calling an iterative solver
             0 MiB given to the printing process from OS
             0 MiB allocation reported by mallinfo(arena+hblkhd)
         22714 MiB available memory on the node where the printing process lives
------------------
     ethr =  7.21E-10,  avg # of iterations =  3.0

     negative rho (up, down):  7.926E-01 0.000E+00

     total cpu time spent up to now is      709.4 secs

     total energy              =   -4441.65622655 Ry
     estimated scf accuracy    <       0.00000227 Ry

     iteration # 38     ecut=    60.00 Ry     beta= 0.15
     Davidson diagonalization with overlap

---- Real-time Memory Report at c_bands before calling an iterative solver
             0 MiB given to the printing process from OS
             0 MiB allocation reported by mallinfo(arena+hblkhd)
         22715 MiB available memory on the node where the printing process lives
------------------
     ethr =  5.28E-10,  avg # of iterations =  2.9

     negative rho (up, down):  7.926E-01 0.000E+00

     total cpu time spent up to now is      727.1 secs

     total energy              =   -4441.65622700 Ry
     estimated scf accuracy    <       0.00000179 Ry

     iteration # 39     ecut=    60.00 Ry     beta= 0.15
     Davidson diagonalization with overlap

---- Real-time Memory Report at c_bands before calling an iterative solver
             0 MiB given to the printing process from OS
             0 MiB allocation reported by mallinfo(arena+hblkhd)
         22716 MiB available memory on the node where the printing process lives
------------------
     ethr =  4.16E-10,  avg # of iterations =  3.0

     negative rho (up, down):  7.925E-01 0.000E+00

     total cpu time spent up to now is      745.1 secs

     total energy              =   -4441.65622705 Ry
     estimated scf accuracy    <       0.00000120 Ry

     iteration # 40     ecut=    60.00 Ry     beta= 0.15
     Davidson diagonalization with overlap

---- Real-time Memory Report at c_bands before calling an iterative solver
             0 MiB given to the printing process from OS
             0 MiB allocation reported by mallinfo(arena+hblkhd)
         22716 MiB available memory on the node where the printing process lives
------------------
     ethr =  2.78E-10,  avg # of iterations =  2.8

     negative rho (up, down):  7.925E-01 0.000E+00

     total cpu time spent up to now is      763.0 secs

     total energy              =   -4441.65622689 Ry
     estimated scf accuracy    <       0.00000075 Ry

     iteration # 41     ecut=    60.00 Ry     beta= 0.15
     Davidson diagonalization with overlap

---- Real-time Memory Report at c_bands before calling an iterative solver
             0 MiB given to the printing process from OS
             0 MiB allocation reported by mallinfo(arena+hblkhd)
         22717 MiB available memory on the node where the printing process lives
------------------
     ethr =  1.75E-10,  avg # of iterations =  2.9

     negative rho (up, down):  7.925E-01 0.000E+00

     total cpu time spent up to now is      780.8 secs

     total energy              =   -4441.65622688 Ry
     estimated scf accuracy    <       0.00000038 Ry

     iteration # 42     ecut=    60.00 Ry     beta= 0.15
     Davidson diagonalization with overlap

---- Real-time Memory Report at c_bands before calling an iterative solver
             0 MiB given to the printing process from OS
             0 MiB allocation reported by mallinfo(arena+hblkhd)
         22727 MiB available memory on the node where the printing process lives
------------------
     ethr =  8.81E-11,  avg # of iterations =  2.1

     negative rho (up, down):  7.925E-01 0.000E+00

     total cpu time spent up to now is      798.3 secs

     total energy              =   -4441.65622692 Ry
     estimated scf accuracy    <       0.00000026 Ry

     iteration # 43     ecut=    60.00 Ry     beta= 0.15
     Davidson diagonalization with overlap

---- Real-time Memory Report at c_bands before calling an iterative solver
             0 MiB given to the printing process from OS
             0 MiB allocation reported by mallinfo(arena+hblkhd)
         22737 MiB available memory on the node where the printing process lives
------------------
     ethr =  6.12E-11,  avg # of iterations =  2.1

     negative rho (up, down):  7.925E-01 0.000E+00

     total cpu time spent up to now is      815.8 secs

     total energy              =   -4441.65622700 Ry
     estimated scf accuracy    <       0.00000019 Ry

     iteration # 44     ecut=    60.00 Ry     beta= 0.15
     Davidson diagonalization with overlap

---- Real-time Memory Report at c_bands before calling an iterative solver
             0 MiB given to the printing process from OS
             0 MiB allocation reported by mallinfo(arena+hblkhd)
         22742 MiB available memory on the node where the printing process lives
------------------
     ethr =  4.43E-11,  avg # of iterations =  3.8

     negative rho (up, down):  7.924E-01 0.000E+00

     total cpu time spent up to now is      834.4 secs

     total energy              =   -4441.65622700 Ry
     estimated scf accuracy    <       0.00000004 Ry

     iteration # 45     ecut=    60.00 Ry     beta= 0.15
     Davidson diagonalization with overlap

---- Real-time Memory Report at c_bands before calling an iterative solver
             0 MiB given to the printing process from OS
             0 MiB allocation reported by mallinfo(arena+hblkhd)
         22734 MiB available memory on the node where the printing process lives
------------------
     ethr =  8.38E-12,  avg # of iterations =  4.0

     negative rho (up, down):  7.925E-01 0.000E+00

     total cpu time spent up to now is      853.0 secs

     total energy              =   -4441.65622700 Ry
     estimated scf accuracy    <       0.00000001 Ry

     iteration # 46     ecut=    60.00 Ry     beta= 0.15
     Davidson diagonalization with overlap

---- Real-time Memory Report at c_bands before calling an iterative solver
             0 MiB given to the printing process from OS
             0 MiB allocation reported by mallinfo(arena+hblkhd)
         22717 MiB available memory on the node where the printing process lives
------------------
     ethr =  2.59E-12,  avg # of iterations =  2.2

     negative rho (up, down):  7.925E-01 0.000E+00

     total cpu time spent up to now is      870.2 secs

     End of self-consistent calculation

          k = 0.0000 0.0000 0.0000 ( 65197 PWs)   bands (ev):

   -92.6835 -92.6298 -92.5367 -92.4906 -92.4333 -92.3896 -92.3719 -92.2503
   -56.0371 -56.0163 -55.8942 -55.8840 -55.8759 -55.8709 -55.8342 -55.8060
   -55.7905 -55.7892 -55.7807 -55.7404 -55.7224 -55.6839 -55.6630 -55.6334
   -55.6257 -55.5776 -55.5758 -55.5748 -55.5663 -55.5253 -55.5023 -55.4170
   -31.2605 -31.2411 -31.0996 -31.0129 -30.9934 -30.8708 -30.8260 -30.7950
   -29.8298 -29.7863 -29.7612 -29.6535 -15.0635 -15.0205 -14.9386 -14.8093
   -14.6163 -14.4934 -14.2014 -14.1774 -14.1506 -14.1042 -14.0613 -14.0535
   -14.0390 -14.0201 -13.9932 -13.9558 -13.9474 -13.9103 -13.7596 -13.5859
   -13.5477 -13.5188 -13.4887 -13.4714 -13.4151 -13.3813 -13.3052 -13.2330
   -13.0946 -13.0803 -13.0769 -13.0566 -13.0396 -13.0121 -12.9841 -12.9714
   -12.9588 -12.9347 -12.9056 -12.8833 -12.8243 -12.8179 -12.7883 -12.7588
   -12.7233 -12.7125 -12.6812 -12.6617 -12.6425 -12.3253 -12.1796 -11.9971
   -11.9386 -11.8434 -11.7691 -11.7582 -11.7355 -11.7178 -11.6544 -11.6372
   -11.6019 -11.5727 -11.4624 -11.3820 -11.3785  -2.9237  -2.6914  -2.4620
    -2.3149  -2.2519  -2.1098  -1.8027  -1.7887  -1.7689  -1.6855  -1.6651
    -1.5973  -1.5807  -1.5397  -1.4964  -1.3138  -1.1195  -1.0865  -1.0594
    -0.9130  -0.8986  -0.8520  -0.8337  -0.7882  -0.7700  -0.7157  -0.6892
    -0.6138  -0.6026  -0.5288  -0.3965  -0.3834  -0.3554  -0.2740  -0.2642
    -0.2513  -0.1832  -0.1099  -0.0439  -0.0116   0.0274   0.0865   0.1519
     0.1995   0.2196   0.2342   0.4927   0.5044   0.6845   0.7453   0.8197
     0.8557   0.9444   0.9607   0.9723   1.0417   1.0683   1.1021   1.1608
     1.2917   1.3550   1.3708   1.3882   1.4039   1.4713   1.5397   1.6495
     1.6570   1.7306   1.7414   1.7817   1.7943   1.8026   1.8617   1.9168
     1.9574   1.9755   2.0145   2.0457   2.1777   2.2655   2.3041   2.3198
     2.4559   2.4844   2.4959   2.5057   2.5310   2.5419   2.6421   2.6760
     2.7011   2.7200   2.7342   2.8156   2.9260   2.9559   2.9689   2.9756
     3.0437   3.0478   3.0713   3.0788   3.0874   3.1022   3.1073   3.1207
     3.1259   3.1389   3.1468   3.1551   3.1748   3.1958   3.2007   3.2131
     3.2484   3.3543   3.4275   4.1236   4.4609   4.7893   4.8771   5.0609
     5.7470   5.9567   6.0076   6.0224   6.3321   6.3789   6.4925   6.5019
     6.7352   7.0186   7.0974   7.3341   7.4361   7.5591   7.6639   7.6764
     7.7042   7.8978   7.9799   8.0686   8.1252   8.1894   8.4115   8.4714
     8.7182   8.8427   8.8824

     occupation numbers 
     1.0000   1.0000   1.0000   1.0000   1.0000   1.0000   1.0000   1.0000
     1.0000   1.0000   1.0000   1.0000   1.0000   1.0000   1.0000   1.0000
     1.0000   1.0000   1.0000   1.0000   1.0000   1.0000   1.0000   1.0000
     1.0000   1.0000   1.0000   1.0000   1.0000   1.0000   1.0000   1.0000
     1.0000   1.0000   1.0000   1.0000   1.0000   1.0000   1.0000   1.0000
     1.0000   1.0000   1.0000   1.0000   1.0000   1.0000   1.0000   1.0000
     1.0000   1.0000   1.0000   1.0000   1.0000   1.0000   1.0000   1.0000
     1.0000   1.0000   1.0000   1.0000   1.0000   1.0000   1.0000   1.0000
     1.0000   1.0000   1.0000   1.0000   1.0000   1.0000   1.0000   1.0000
     1.0000   1.0000   1.0000   1.0000   1.0000   1.0000   1.0000   1.0000
     1.0000   1.0000   1.0000   1.0000   1.0000   1.0000   1.0000   1.0000
     1.0000   1.0000   1.0000   1.0000   1.0000   1.0000   1.0000   1.0000
     1.0000   1.0000   1.0000   1.0000   1.0000   1.0000   1.0000   1.0000
     1.0000   1.0000   1.0000   1.0000   1.0000   1.0000   1.0000   1.0000
     1.0000   1.0000   1.0000   1.0000   1.0000   1.0000   1.0000   1.0000
     1.0000   1.0000   1.0000   1.0000   1.0000   1.0000   1.0000   1.0000
     1.0000   1.0000   1.0000   1.0000   1.0000   1.0000   1.0000   1.0000
     1.0000   1.0000   1.0000   1.0000   1.0000   1.0000   1.0000   1.0000
     1.0000   1.0000   1.0000   1.0000   1.0000   1.0000   1.0000   1.0000
     1.0000   1.0000   1.0000   1.0000   1.0000   1.0000   0.9999   0.9999
     0.9999   0.9998   0.9998   0.9998   0.9997   0.9996   0.9996   0.9994
     0.9988   0.9984   0.9983   0.9982   0.9980   0.9973   0.9963   0.9941
     0.9939   0.9917   0.9914   0.9899   0.9893   0.9890   0.9862   0.9830
     0.9803   0.9790   0.9759   0.9731   0.9584   0.9455   0.9388   0.9360
     0.9065   0.8992   0.8962   0.8936   0.8865   0.8833   0.8516   0.8396
     0.8304   0.8231   0.8176   0.7839   0.7329   0.7181   0.7115   0.7081
     0.6725   0.6703   0.6575   0.6535   0.6487   0.6405   0.6377   0.6302
     0.6273   0.6200   0.6155   0.6108   0.5995   0.5874   0.5846   0.5774
     0.5568   0.4943   0.4510   0.1237   0.0487   0.0160   0.0114   0.0054
     0.0002   0.0001   0.0000   0.0000   0.0000   0.0000   0.0000   0.0000
     0.0000   0.0000   0.0000   0.0000   0.0000   0.0000   0.0000   0.0000
     0.0000   0.0000   0.0000   0.0000   0.0000   0.0000   0.0000   0.0000
     0.0000   0.0000   0.0000

          k = 0.0000 0.2500 0.0000 ( 65257 PWs)   bands (ev):

   -92.6835 -92.6298 -92.5367 -92.4906 -92.4333 -92.3896 -92.3719 -92.2503
   -56.0371 -56.0163 -55.8942 -55.8840 -55.8759 -55.8709 -55.8342 -55.8060
   -55.7905 -55.7892 -55.7807 -55.7404 -55.7224 -55.6839 -55.6630 -55.6334
   -55.6257 -55.5776 -55.5759 -55.5748 -55.5663 -55.5253 -55.5023 -55.4170
   -31.2603 -31.2410 -31.0998 -31.0130 -30.9931 -30.8710 -30.8250 -30.7960
   -29.8292 -29.7860 -29.7618 -29.6538 -15.0269 -14.9947 -14.9135 -14.7797
   -14.6569 -14.4833 -14.3467 -14.1672 -14.1302 -14.1084 -14.0810 -14.0229
   -14.0180 -14.0045 -13.9809 -13.9475 -13.9270 -13.8304 -13.7895 -13.6303
   -13.6085 -13.5588 -13.5255 -13.4812 -13.4343 -13.3864 -13.3245 -13.2901
   -13.1900 -13.1437 -13.1299 -13.0911 -13.0707 -12.9936 -12.9682 -12.9420
   -12.9174 -12.8853 -12.8607 -12.8493 -12.7821 -12.7770 -12.7629 -12.7417
   -12.7122 -12.6929 -12.6698 -12.5539 -12.4801 -12.3866 -12.2308 -12.0533
   -12.0068 -11.8089 -11.7659 -11.7381 -11.7101 -11.6934 -11.6461 -11.6348
   -11.6120 -11.5772 -11.4768 -11.4238 -11.4131  -2.7885  -2.5671  -2.4295
    -2.2474  -2.2039  -2.0402  -1.8213  -1.7364  -1.7234  -1.6668  -1.5631
    -1.5469  -1.5145  -1.4867  -1.4432  -1.2451  -1.1249  -1.1081  -1.1025
    -1.0287  -1.0175  -0.9126  -0.8837  -0.8260  -0.8003  -0.7603  -0.6967
    -0.6690  -0.6376  -0.6018  -0.5867  -0.5542  -0.4801  -0.4309  -0.3697
    -0.2528  -0.2375  -0.1895  -0.0684  -0.0266   0.0346   0.0799   0.1349
     0.1520   0.1816   0.2473   0.5403   0.6259   0.6604   0.7508   0.7952
     0.8172   0.9289   0.9464   1.0479   1.0718   1.0950   1.2084   1.3019
     1.3289   1.3496   1.3652   1.3936   1.4533   1.4807   1.5091   1.5560
     1.5921   1.6238   1.7117   1.7368   1.7848   1.8264   1.8882   1.9459
     1.9634   1.9810   2.0028   2.0962   2.2152   2.2858   2.3027   2.3779
     2.4290   2.4524   2.4751   2.4932   2.5092   2.5357   2.5724   2.6585
     2.6936   2.7098   2.8830   2.9059   2.9389   2.9595   2.9766   2.9848
     2.9924   3.0019   3.0306   3.0324   3.0518   3.0547   3.0659   3.0851
     3.0960   3.1039   3.1256   3.1366   3.1412   3.1764   3.1937   3.2540
     3.6335   3.6552   3.8965   4.3127   4.4596   4.7289   5.0288   5.0844
     5.6581   5.7998   5.9275   6.0086   6.1001   6.1223   6.2014   6.6092
     6.8356   7.0864   7.1224   7.3432   7.4984   7.5129   7.5628   7.6559
     7.8583   7.9388   8.0255   8.1808   8.2913   8.3760   8.4279   8.4375
     8.6039   8.8414   8.9477

     occupation numbers 
     1.0000   1.0000   1.0000   1.0000   1.0000   1.0000   1.0000   1.0000
     1.0000   1.0000   1.0000   1.0000   1.0000   1.0000   1.0000   1.0000
     1.0000   1.0000   1.0000   1.0000   1.0000   1.0000   1.0000   1.0000
     1.0000   1.0000   1.0000   1.0000   1.0000   1.0000   1.0000   1.0000
     1.0000   1.0000   1.0000   1.0000   1.0000   1.0000   1.0000   1.0000
     1.0000   1.0000   1.0000   1.0000   1.0000   1.0000   1.0000   1.0000
     1.0000   1.0000   1.0000   1.0000   1.0000   1.0000   1.0000   1.0000
     1.0000   1.0000   1.0000   1.0000   1.0000   1.0000   1.0000   1.0000
     1.0000   1.0000   1.0000   1.0000   1.0000   1.0000   1.0000   1.0000
     1.0000   1.0000   1.0000   1.0000   1.0000   1.0000   1.0000   1.0000
     1.0000   1.0000   1.0000   1.0000   1.0000   1.0000   1.0000   1.0000
     1.0000   1.0000   1.0000   1.0000   1.0000   1.0000   1.0000   1.0000
     1.0000   1.0000   1.0000   1.0000   1.0000   1.0000   1.0000   1.0000
     1.0000   1.0000   1.0000   1.0000   1.0000   1.0000   1.0000   1.0000
     1.0000   1.0000   1.0000   1.0000   1.0000   1.0000   1.0000   1.0000
     1.0000   1.0000   1.0000   1.0000   1.0000   1.0000   1.0000   1.0000
     1.0000   1.0000   1.0000   1.0000   1.0000   1.0000   1.0000   1.0000
     1.0000   1.0000   1.0000   1.0000   1.0000   1.0000   1.0000   1.0000
     1.0000   1.0000   1.0000   1.0000   1.0000   1.0000   1.0000   1.0000
     1.0000   1.0000   1.0000   1.0000   1.0000   1.0000   0.9999   0.9999
     0.9999   0.9998   0.9998   0.9997   0.9996   0.9996   0.9992   0.9988
     0.9986   0.9985   0.9984   0.9981   0.9975   0.9972   0.9968   0.9960
     0.9954   0.9947   0.9923   0.9915   0.9897   0.9879   0.9847   0.9811
     0.9799   0.9786   0.9768   0.9681   0.9532   0.9421   0.9391   0.9244
     0.9130   0.9074   0.9017   0.8969   0.8926   0.8852   0.8742   0.8458
     0.8331   0.8271   0.7535   0.7426   0.7265   0.7163   0.7076   0.7034
     0.6995   0.6946   0.6795   0.6785   0.6682   0.6666   0.6605   0.6500
     0.6440   0.6396   0.6275   0.6213   0.6187   0.5986   0.5886   0.5535
     0.3340   0.3223   0.2062   0.0753   0.0489   0.0199   0.0062   0.0049
     0.0003   0.0001   0.0001   0.0000   0.0000   0.0000   0.0000   0.0000
     0.0000   0.0000   0.0000   0.0000   0.0000   0.0000   0.0000   0.0000
     0.0000   0.0000   0.0000   0.0000   0.0000   0.0000   0.0000   0.0000
     0.0000   0.0000   0.0000

          k = 0.0000-0.5000 0.0000 ( 65180 PWs)   bands (ev):

   -92.6835 -92.6298 -92.5367 -92.4906 -92.4333 -92.3896 -92.3719 -92.2503
   -56.0371 -56.0163 -55.8942 -55.8840 -55.8759 -55.8709 -55.8342 -55.8060
   -55.7905 -55.7892 -55.7807 -55.7404 -55.7224 -55.6839 -55.6630 -55.6334
   -55.6257 -55.5776 -55.5758 -55.5748 -55.5663 -55.5253 -55.5023 -55.4170
   -31.2601 -31.2409 -31.1000 -31.0132 -30.9929 -30.8712 -30.8238 -30.7972
   -29.8286 -29.7857 -29.7624 -29.6542 -14.9925 -14.9432 -14.8918 -14.7584
   -14.6791 -14.5387 -14.3915 -14.2577 -14.1398 -14.0628 -14.0231 -14.0168
   -13.9689 -13.9524 -13.9492 -13.9052 -13.8838 -13.8581 -13.8215 -13.7710
   -13.7450 -13.5655 -13.5077 -13.4883 -13.4391 -13.3741 -13.3411 -13.2804
   -13.2659 -13.2199 -13.2007 -13.0918 -13.0708 -12.9859 -12.9521 -12.9354
   -12.9127 -12.9041 -12.8636 -12.7821 -12.7545 -12.7265 -12.7131 -12.6886
   -12.6854 -12.6710 -12.6343 -12.4976 -12.4065 -12.3060 -12.2481 -12.1762
   -12.1300 -11.7628 -11.7605 -11.7331 -11.6963 -11.6617 -11.6502 -11.6072
   -11.6035 -11.5586 -11.4989 -11.4849 -11.4705  -2.5743  -2.5140  -2.3642
    -2.2918  -2.0112  -1.9259  -1.8003  -1.6620  -1.6269  -1.6055  -1.5277
    -1.4938  -1.4147  -1.3780  -1.3011  -1.2610  -1.2222  -1.1948  -1.1387
    -1.1166  -1.0982  -1.0525  -1.0144  -0.9850  -0.9484  -0.8406  -0.7957
    -0.7612  -0.7594  -0.6729  -0.6409  -0.6165  -0.5677  -0.4868  -0.4090
    -0.3279  -0.2997  -0.1875  -0.1405  -0.0116   0.0209   0.0561   0.1093
     0.2620   0.2922   0.4098   0.4806   0.4866   0.6148   0.6683   0.7799
     0.8953   1.0022   1.0342   1.0720   1.0762   1.1150   1.1311   1.1693
     1.1945   1.2009   1.3076   1.3685   1.3911   1.4170   1.6808   1.7173
     1.7540   1.8382   1.8631   1.8920   1.9093   1.9321   1.9586   1.9716
     1.9941   2.0216   2.0507   2.0845   2.0879   2.1196   2.1746   2.2560
     2.2910   2.4511   2.4843   2.4995   2.6224   2.6364   2.6507   2.6857
     2.6937   2.7019   2.7514   2.7624   2.8166   2.8380   2.9184   2.9282
     2.9970   3.0067   3.0274   3.0299   3.0485   3.0540   3.0561   3.0613
     3.0642   3.0780   3.0962   3.0971   3.1614   3.1673   3.1834   3.2375
     4.1446   4.1898   4.2180   4.2719   4.7531   4.9225   5.0424   5.1740
     5.4285   5.4800   5.5995   5.7329   6.0367   6.0688   6.2750   6.4936
     6.8647   6.9644   7.2390   7.3151   7.3610   7.4933   7.6328   7.7687
     7.9235   8.0202   8.1682   8.2427   8.3783   8.4899   8.5500   8.6847
     8.8293   8.8472   8.8897

     occupation numbers 
     1.0000   1.0000   1.0000   1.0000   1.0000   1.0000   1.0000   1.0000
     1.0000   1.0000   1.0000   1.0000   1.0000   1.0000   1.0000   1.0000
     1.0000   1.0000   1.0000   1.0000   1.0000   1.0000   1.0000   1.0000
     1.0000   1.0000   1.0000   1.0000   1.0000   1.0000   1.0000   1.0000
     1.0000   1.0000   1.0000   1.0000   1.0000   1.0000   1.0000   1.0000
     1.0000   1.0000   1.0000   1.0000   1.0000   1.0000   1.0000   1.0000
     1.0000   1.0000   1.0000   1.0000   1.0000   1.0000   1.0000   1.0000
     1.0000   1.0000   1.0000   1.0000   1.0000   1.0000   1.0000   1.0000
     1.0000   1.0000   1.0000   1.0000   1.0000   1.0000   1.0000   1.0000
     1.0000   1.0000   1.0000   1.0000   1.0000   1.0000   1.0000   1.0000
     1.0000   1.0000   1.0000   1.0000   1.0000   1.0000   1.0000   1.0000
     1.0000   1.0000   1.0000   1.0000   1.0000   1.0000   1.0000   1.0000
     1.0000   1.0000   1.0000   1.0000   1.0000   1.0000   1.0000   1.0000
     1.0000   1.0000   1.0000   1.0000   1.0000   1.0000   1.0000   1.0000
     1.0000   1.0000   1.0000   1.0000   1.0000   1.0000   1.0000   1.0000
     1.0000   1.0000   1.0000   1.0000   1.0000   1.0000   1.0000   1.0000
     1.0000   1.0000   1.0000   1.0000   1.0000   1.0000   1.0000   1.0000
     1.0000   1.0000   1.0000   1.0000   1.0000   1.0000   1.0000   1.0000
     1.0000   1.0000   1.0000   1.0000   1.0000   1.0000   1.0000   1.0000
     1.0000   1.0000   1.0000   1.0000   1.0000   1.0000   1.0000   0.9999
     0.9999   0.9997   0.9997   0.9996   0.9996   0.9995   0.9995   0.9994
     0.9993   0.9993   0.9988   0.9983   0.9981   0.9979   0.9933   0.9922
     0.9909   0.9873   0.9861   0.9845   0.9835   0.9820   0.9802   0.9793
     0.9775   0.9753   0.9727   0.9693   0.9690   0.9655   0.9588   0.9470
     0.9412   0.9077   0.8993   0.8952   0.8582   0.8535   0.8486   0.8361
     0.8331   0.8300   0.8108   0.8063   0.7835   0.7741   0.7366   0.7318
     0.6971   0.6921   0.6812   0.6799   0.6699   0.6670   0.6658   0.6630
     0.6614   0.6539   0.6439   0.6434   0.6072   0.6038   0.5946   0.5631
     0.1174   0.1047   0.0973   0.0843   0.0182   0.0096   0.0059   0.0033
     0.0010   0.0008   0.0004   0.0002   0.0000   0.0000   0.0000   0.0000
     0.0000   0.0000   0.0000   0.0000   0.0000   0.0000   0.0000   0.0000
     0.0000   0.0000   0.0000   0.0000   0.0000   0.0000   0.0000   0.0000
     0.0000   0.0000   0.0000

          k = 0.2500 0.2500 0.0000 ( 65198 PWs)   bands (ev):

   -92.6835 -92.6298 -92.5367 -92.4906 -92.4333 -92.3896 -92.3719 -92.2503
   -56.0371 -56.0163 -55.8942 -55.8840 -55.8759 -55.8709 -55.8342 -55.8060
   -55.7905 -55.7892 -55.7807 -55.7404 -55.7224 -55.6839 -55.6630 -55.6334
   -55.6257 -55.5776 -55.5758 -55.5748 -55.5663 -55.5253 -55.5023 -55.4170
   -31.2586 -31.2427 -31.0994 -31.0134 -30.9930 -30.8704 -30.8256 -30.7962
   -29.8282 -29.7870 -29.7614 -29.6543 -14.9983 -14.9601 -14.8856 -14.7689
   -14.6495 -14.5234 -14.4520 -14.2431 -14.0903 -14.0759 -14.0401 -14.0093
   -13.9898 -13.9658 -13.9499 -13.9237 -13.8890 -13.8213 -13.8040 -13.6455
   -13.6304 -13.6019 -13.5816 -13.5316 -13.4929 -13.4141 -13.4080 -13.2534
   -13.2269 -13.2083 -13.1239 -13.0838 -13.0314 -13.0007 -12.9682 -12.9454
   -12.9290 -12.8980 -12.8466 -12.8069 -12.7784 -12.7441 -12.7265 -12.7126
   -12.6961 -12.6868 -12.6521 -12.4933 -12.4351 -12.3706 -12.2600 -12.0814
   -12.0589 -11.7811 -11.7495 -11.7387 -11.7314 -11.6689 -11.6341 -11.6276
   -11.5923 -11.5839 -11.4935 -11.4520 -11.4346  -2.6502  -2.4413  -2.3235
    -2.2293  -2.1085  -2.0435  -1.8463  -1.7012  -1.6820  -1.6534  -1.5581
    -1.5246  -1.4297  -1.4026  -1.3523  -1.2204  -1.1733  -1.1145  -1.1007
    -1.0547  -1.0107  -0.9856  -0.9623  -0.9192  -0.9042  -0.8144  -0.7629
    -0.6997  -0.6490  -0.6169  -0.5698  -0.5538  -0.4912  -0.4436  -0.3883
    -0.3526  -0.2676  -0.2110  -0.1834  -0.1455  -0.0906  -0.0004   0.0281
     0.0480   0.1345   0.1605   0.4278   0.5754   0.6111   0.6741   0.7177
     0.7715   0.8421   0.8909   0.9220   1.1918   1.2588   1.3323   1.3581
     1.4055   1.4389   1.4730   1.5109   1.5273   1.5550   1.6008   1.6074
     1.6229   1.6656   1.7071   1.7465   1.8155   1.8502   1.8598   1.9014
     1.9281   1.9856   2.0237   2.1373   2.1964   2.2317   2.2530   2.3175
     2.3874   2.4165   2.4502   2.4667   2.4836   2.4897   2.5118   2.6022
     2.6345   2.7230   2.8945   2.9110   2.9176   2.9334   2.9489   2.9607
     2.9747   2.9812   2.9914   3.0045   3.0165   3.0356   3.0414   3.0536
     3.0762   3.0874   3.0969   3.1281   3.4290   3.5237   3.5639   3.6365
     3.6745   3.8717   3.9721   4.3263   4.5434   4.7347   5.0004   5.1758
     5.6638   5.7165   5.7700   5.8544   5.9129   6.0805   6.1726   6.2245
     6.9080   6.9326   7.0782   7.2691   7.5655   7.6158   7.7253   7.8403
     7.8990   8.0295   8.1785   8.2241   8.3146   8.3804   8.4573   8.4693
     8.5432   8.8271   8.9319

     occupation numbers 
     1.0000   1.0000   1.0000   1.0000   1.0000   1.0000   1.0000   1.0000
     1.0000   1.0000   1.0000   1.0000   1.0000   1.0000   1.0000   1.0000
     1.0000   1.0000   1.0000   1.0000   1.0000   1.0000   1.0000   1.0000
     1.0000   1.0000   1.0000   1.0000   1.0000   1.0000   1.0000   1.0000
     1.0000   1.0000   1.0000   1.0000   1.0000   1.0000   1.0000   1.0000
     1.0000   1.0000   1.0000   1.0000   1.0000   1.0000   1.0000   1.0000
     1.0000   1.0000   1.0000   1.0000   1.0000   1.0000   1.0000   1.0000
     1.0000   1.0000   1.0000   1.0000   1.0000   1.0000   1.0000   1.0000
     1.0000   1.0000   1.0000   1.0000   1.0000   1.0000   1.0000   1.0000
     1.0000   1.0000   1.0000   1.0000   1.0000   1.0000   1.0000   1.0000
     1.0000   1.0000   1.0000   1.0000   1.0000   1.0000   1.0000   1.0000
     1.0000   1.0000   1.0000   1.0000   1.0000   1.0000   1.0000   1.0000
     1.0000   1.0000   1.0000   1.0000   1.0000   1.0000   1.0000   1.0000
     1.0000   1.0000   1.0000   1.0000   1.0000   1.0000   1.0000   1.0000
     1.0000   1.0000   1.0000   1.0000   1.0000   1.0000   1.0000   1.0000
     1.0000   1.0000   1.0000   1.0000   1.0000   1.0000   1.0000   1.0000
     1.0000   1.0000   1.0000   1.0000   1.0000   1.0000   1.0000   1.0000
     1.0000   1.0000   1.0000   1.0000   1.0000   1.0000   1.0000   1.0000
     1.0000   1.0000   1.0000   1.0000   1.0000   1.0000   1.0000   1.0000
     1.0000   1.0000   1.0000   1.0000   1.0000   1.0000   1.0000   1.0000
     0.9999   0.9999   0.9999   0.9998   0.9993   0.9990   0.9986   0.9984
     0.9980   0.9977   0.9973   0.9968   0.9965   0.9961   0.9952   0.9951
     0.9947   0.9937   0.9925   0.9912   0.9884   0.9868   0.9863   0.9839
     0.9823   0.9782   0.9751   0.9635   0.9559   0.9508   0.9475   0.9364
     0.9224   0.9159   0.9079   0.9038   0.8995   0.8979   0.8919   0.8649
     0.8542   0.8220   0.7480   0.7402   0.7370   0.7293   0.7216   0.7157
     0.7086   0.7052   0.7000   0.6932   0.6869   0.6768   0.6737   0.6671
     0.6549   0.6487   0.6435   0.6261   0.4501   0.3951   0.3723   0.3323
     0.3121   0.2169   0.1757   0.0725   0.0375   0.0195   0.0070   0.0033
     0.0003   0.0002   0.0002   0.0001   0.0001   0.0000   0.0000   0.0000
     0.0000   0.0000   0.0000   0.0000   0.0000   0.0000   0.0000   0.0000
     0.0000   0.0000   0.0000   0.0000   0.0000   0.0000   0.0000   0.0000
     0.0000   0.0000   0.0000

          k = 0.2500-0.5000 0.0000 ( 65138 PWs)   bands (ev):

   -92.6835 -92.6298 -92.5367 -92.4906 -92.4333 -92.3896 -92.3719 -92.2503
   -56.0371 -56.0163 -55.8942 -55.8840 -55.8759 -55.8709 -55.8342 -55.8060
   -55.7905 -55.7892 -55.7807 -55.7404 -55.7224 -55.6839 -55.6630 -55.6334
   -55.6257 -55.5776 -55.5758 -55.5748 -55.5663 -55.5253 -55.5023 -55.4170
   -31.2584 -31.2426 -31.0996 -31.0135 -30.9927 -30.8706 -30.8245 -30.7973
   -29.8276 -29.7866 -29.7620 -29.6546 -14.9622 -14.9164 -14.8489 -14.7285
   -14.7011 -14.5801 -14.4917 -14.3564 -14.0546 -13.9999 -13.9741 -13.9539
   -13.9496 -13.9339 -13.9253 -13.8899 -13.8725 -13.8348 -13.8012 -13.7679
   -13.7305 -13.6482 -13.5991 -13.5486 -13.5210 -13.4516 -13.4192 -13.3151
   -13.2751 -13.1895 -13.1249 -13.1001 -13.0152 -12.9784 -12.9643 -12.9421
   -12.9256 -12.8943 -12.8525 -12.7873 -12.7683 -12.7538 -12.7197 -12.6881
   -12.6691 -12.6381 -12.6065 -12.5041 -12.3894 -12.3036 -12.2330 -12.1642
   -12.1248 -11.7567 -11.7447 -11.7339 -11.7067 -11.6748 -11.6469 -11.6046
   -11.5783 -11.5553 -11.5119 -11.4860 -11.4746  -2.4325  -2.3658  -2.2381
    -2.1606  -2.0315  -1.9463  -1.8246  -1.6737  -1.6210  -1.5979  -1.5345
    -1.5216  -1.4255  -1.3564  -1.2724  -1.2230  -1.2132  -1.1510  -1.1141
    -1.1078  -1.0732  -1.0255  -0.9879  -0.9532  -0.9135  -0.9027  -0.8560
    -0.8268  -0.7850  -0.7543  -0.6878  -0.5877  -0.5448  -0.4684  -0.4024
    -0.3533  -0.3099  -0.2896  -0.2336  -0.0716  -0.0575   0.0333   0.0775
     0.0847   0.1244   0.1643   0.2104   0.2320   0.2939   0.5703   0.6702
     0.7404   0.8161   1.0534   1.0824   1.1680   1.1904   1.3556   1.3886
     1.4316   1.4555   1.4707   1.4900   1.5515   1.5970   1.6342   1.7131
     1.8134   1.8518   1.8689   1.8794   1.9187   1.9319   1.9414   1.9841
     1.9923   2.0252   2.0425   2.0671   2.0788   2.1145   2.1739   2.2107
     2.2910   2.4228   2.4758   2.4947   2.5752   2.5924   2.6120   2.6373
     2.6649   2.6886   2.7095   2.7247   2.7490   2.8438   2.8955   2.9126
     2.9148   2.9309   2.9512   2.9647   2.9838   2.9917   3.0246   3.0351
     3.0495   3.0588   3.0666   3.0789   3.6060   3.6129   3.7609   3.8138
     4.1658   4.2101   4.2252   4.3333   4.7734   4.9443   5.0792   5.1491
     5.3242   5.4460   5.6172   5.6404   5.7867   5.8066   6.3648   6.4109
     6.5038   6.6288   7.2148   7.3518   7.5671   7.7125   7.8257   7.8371
     7.8969   8.0541   8.3030   8.4173   8.4462   8.5443   8.5704   8.5890
     8.7273   8.7631   8.8008

     occupation numbers 
     1.0000   1.0000   1.0000   1.0000   1.0000   1.0000   1.0000   1.0000
     1.0000   1.0000   1.0000   1.0000   1.0000   1.0000   1.0000   1.0000
     1.0000   1.0000   1.0000   1.0000   1.0000   1.0000   1.0000   1.0000
     1.0000   1.0000   1.0000   1.0000   1.0000   1.0000   1.0000   1.0000
     1.0000   1.0000   1.0000   1.0000   1.0000   1.0000   1.0000   1.0000
     1.0000   1.0000   1.0000   1.0000   1.0000   1.0000   1.0000   1.0000
     1.0000   1.0000   1.0000   1.0000   1.0000   1.0000   1.0000   1.0000
     1.0000   1.0000   1.0000   1.0000   1.0000   1.0000   1.0000   1.0000
     1.0000   1.0000   1.0000   1.0000   1.0000   1.0000   1.0000   1.0000
     1.0000   1.0000   1.0000   1.0000   1.0000   1.0000   1.0000   1.0000
     1.0000   1.0000   1.0000   1.0000   1.0000   1.0000   1.0000   1.0000
     1.0000   1.0000   1.0000   1.0000   1.0000   1.0000   1.0000   1.0000
     1.0000   1.0000   1.0000   1.0000   1.0000   1.0000   1.0000   1.0000
     1.0000   1.0000   1.0000   1.0000   1.0000   1.0000   1.0000   1.0000
     1.0000   1.0000   1.0000   1.0000   1.0000   1.0000   1.0000   1.0000
     1.0000   1.0000   1.0000   1.0000   1.0000   1.0000   1.0000   1.0000
     1.0000   1.0000   1.0000   1.0000   1.0000   1.0000   1.0000   1.0000
     1.0000   1.0000   1.0000   1.0000   1.0000   1.0000   1.0000   1.0000
     1.0000   1.0000   1.0000   1.0000   1.0000   1.0000   1.0000   1.0000
     1.0000   1.0000   1.0000   1.0000   1.0000   1.0000   1.0000   1.0000
     0.9999   0.9999   0.9997   0.9996   0.9994   0.9993   0.9984   0.9982
     0.9977   0.9975   0.9973   0.9971   0.9961   0.9953   0.9945   0.9923
     0.9885   0.9867   0.9858   0.9852   0.9829   0.9820   0.9814   0.9783
     0.9777   0.9750   0.9734   0.9711   0.9699   0.9661   0.9589   0.9539
     0.9412   0.9145   0.9015   0.8965   0.8734   0.8680   0.8617   0.8532
     0.8436   0.8350   0.8272   0.8213   0.8118   0.7715   0.7476   0.7394
     0.7383   0.7305   0.7205   0.7137   0.7039   0.6999   0.6827   0.6771
     0.6693   0.6644   0.6601   0.6534   0.3489   0.3452   0.2682   0.2430
     0.1114   0.0994   0.0955   0.0710   0.0169   0.0088   0.0050   0.0037
     0.0016   0.0009   0.0004   0.0003   0.0001   0.0001   0.0000   0.0000
     0.0000   0.0000   0.0000   0.0000   0.0000   0.0000   0.0000   0.0000
     0.0000   0.0000   0.0000   0.0000   0.0000   0.0000   0.0000   0.0000
     0.0000   0.0000   0.0000

          k =-0.5000-0.5000 0.0000 ( 65132 PWs)   bands (ev):

   -92.6835 -92.6298 -92.5367 -92.4906 -92.4333 -92.3896 -92.3719 -92.2503
   -56.0371 -56.0163 -55.8942 -55.8840 -55.8759 -55.8709 -55.8342 -55.8060
   -55.7905 -55.7892 -55.7807 -55.7404 -55.7224 -55.6839 -55.6630 -55.6334
   -55.6257 -55.5776 -55.5758 -55.5748 -55.5663 -55.5253 -55.5023 -55.4170
   -31.2562 -31.2448 -31.0993 -31.0139 -30.9926 -30.8699 -30.8252 -30.7975
   -29.8266 -29.7877 -29.7616 -29.6550 -14.9164 -14.8895 -14.7714 -14.7603
   -14.6632 -14.6291 -14.5900 -14.4571 -13.9657 -13.9528 -13.9493 -13.9180
   -13.8996 -13.8830 -13.8718 -13.8416 -13.8320 -13.8175 -13.8045 -13.7855
   -13.7147 -13.7078 -13.6723 -13.6437 -13.6412 -13.5415 -13.4740 -13.3526
   -13.3210 -13.1401 -13.0968 -13.0331 -13.0082 -12.9764 -12.9670 -12.9574
   -12.9397 -12.9214 -12.8105 -12.7827 -12.7805 -12.7587 -12.7398 -12.6954
   -12.6807 -12.5876 -12.5801 -12.5205 -12.3734 -12.2999 -12.2175 -12.1523
   -12.1192 -11.7535 -11.7410 -11.7229 -11.7063 -11.6710 -11.6530 -11.6190
   -11.5589 -11.5379 -11.5339 -11.4836 -11.4805  -2.2087  -2.1327  -2.1202
    -2.0512  -2.0122  -1.9336  -1.8658  -1.7402  -1.6242  -1.5933  -1.5556
    -1.4974  -1.4249  -1.4112  -1.3398  -1.2974  -1.1797  -1.1530  -1.1115
    -1.1023  -1.0742  -1.0099  -0.9645  -0.9442  -0.9320  -0.8804  -0.8348
    -0.8188  -0.7057  -0.6488  -0.6033  -0.5518  -0.5263  -0.5158  -0.4789
    -0.4333  -0.4008  -0.3863  -0.3039  -0.2334  -0.1924  -0.1616  -0.0920
    -0.0336  -0.0059   0.0394   0.0551   0.0743   0.0860   0.5377   0.5972
     0.6816   0.7509   1.0908   1.0996   1.1308   1.1686   1.4393   1.4595
     1.4660   1.5033   1.6345   1.7309   1.7582   1.7950   1.8200   1.8416
     1.8507   1.8793   1.8944   1.9151   1.9189   1.9653   1.9688   1.9971
     2.0294   2.0550   2.0576   2.0976   2.1138   2.1269   2.1571   2.1840
     2.2521   2.3175   2.4649   2.4906   2.5917   2.6181   2.6411   2.6557
     2.6736   2.6977   2.6999   2.7197   2.7321   2.7471   2.7682   2.7795
     2.8447   2.8490   2.8689   2.8844   2.8968   2.9150   2.9193   2.9291
     3.0321   3.0380   3.0634   3.0732   4.0188   4.0503   4.1039   4.1317
     4.3369   4.4101   4.4363   4.6777   4.7993   4.8818   5.0107   5.1000
     5.1089   5.2234   5.3242   5.4093   5.8666   5.9000   5.9685   6.0391
     6.5837   6.8325   6.9365   7.0990   7.9000   7.9245   7.9381   7.9734
     7.9927   8.0429   8.1044   8.2861   8.5108   8.6044   8.6335   8.6526
     8.6760   8.7574   8.7618

     occupation numbers 
     1.0000   1.0000   1.0000   1.0000   1.0000   1.0000   1.0000   1.0000
     1.0000   1.0000   1.0000   1.0000   1.0000   1.0000   1.0000   1.0000
     1.0000   1.0000   1.0000   1.0000   1.0000   1.0000   1.0000   1.0000
     1.0000   1.0000   1.0000   1.0000   1.0000   1.0000   1.0000   1.0000
     1.0000   1.0000   1.0000   1.0000   1.0000   1.0000   1.0000   1.0000
     1.0000   1.0000   1.0000   1.0000   1.0000   1.0000   1.0000   1.0000
     1.0000   1.0000   1.0000   1.0000   1.0000   1.0000   1.0000   1.0000
     1.0000   1.0000   1.0000   1.0000   1.0000   1.0000   1.0000   1.0000
     1.0000   1.0000   1.0000   1.0000   1.0000   1.0000   1.0000   1.0000
     1.0000   1.0000   1.0000   1.0000   1.0000   1.0000   1.0000   1.0000
     1.0000   1.0000   1.0000   1.0000   1.0000   1.0000   1.0000   1.0000
     1.0000   1.0000   1.0000   1.0000   1.0000   1.0000   1.0000   1.0000
     1.0000   1.0000   1.0000   1.0000   1.0000   1.0000   1.0000   1.0000
     1.0000   1.0000   1.0000   1.0000   1.0000   1.0000   1.0000   1.0000
     1.0000   1.0000   1.0000   1.0000   1.0000   1.0000   1.0000   1.0000
     1.0000   1.0000   1.0000   1.0000   1.0000   1.0000   1.0000   1.0000
     1.0000   1.0000   1.0000   1.0000   1.0000   1.0000   1.0000   1.0000
     1.0000   1.0000   1.0000   1.0000   1.0000   1.0000   1.0000   1.0000
     1.0000   1.0000   1.0000   1.0000   1.0000   1.0000   1.0000   1.0000
     1.0000   1.0000   1.0000   1.0000   1.0000   1.0000   1.0000   1.0000
     1.0000   0.9999   0.9996   0.9996   0.9995   0.9994   0.9977   0.9974
     0.9974   0.9969   0.9944   0.9917   0.9908   0.9893   0.9882   0.9872
     0.9867   0.9852   0.9844   0.9831   0.9829   0.9797   0.9795   0.9773
     0.9746   0.9722   0.9720   0.9680   0.9662   0.9647   0.9611   0.9576
     0.9476   0.9364   0.9043   0.8976   0.8682   0.8597   0.8519   0.8468
     0.8404   0.8316   0.8308   0.8233   0.8184   0.8125   0.8040   0.7993
     0.7710   0.7691   0.7600   0.7528   0.7469   0.7382   0.7362   0.7314
     0.6787   0.6755   0.6618   0.6565   0.1584   0.1473   0.1298   0.1212
     0.0703   0.0568   0.0525   0.0239   0.0154   0.0112   0.0067   0.0046
     0.0044   0.0026   0.0016   0.0011   0.0001   0.0001   0.0000   0.0000
     0.0000   0.0000   0.0000   0.0000   0.0000   0.0000   0.0000   0.0000
     0.0000   0.0000   0.0000   0.0000   0.0000   0.0000   0.0000   0.0000
     0.0000   0.0000   0.0000

          k = 0.2500 0.0000 0.0000 ( 65257 PWs)   bands (ev):

   -92.6835 -92.6298 -92.5367 -92.4906 -92.4333 -92.3896 -92.3719 -92.2503
   -56.0371 -56.0163 -55.8942 -55.8840 -55.8759 -55.8709 -55.8342 -55.8060
   -55.7905 -55.7892 -55.7807 -55.7404 -55.7224 -55.6839 -55.6630 -55.6334
   -55.6257 -55.5776 -55.5759 -55.5748 -55.5663 -55.5253 -55.5023 -55.4170
   -31.2588 -31.2428 -31.0992 -31.0133 -30.9932 -30.8701 -30.8266 -30.7952
   -29.8289 -29.7873 -29.7608 -29.6539 -15.0305 -14.9903 -14.9189 -14.7726
   -14.6655 -14.4725 -14.3364 -14.1555 -14.1401 -14.1093 -14.0803 -14.0533
   -14.0231 -14.0038 -13.9787 -13.9504 -13.9294 -13.8217 -13.7897 -13.6419
   -13.5710 -13.5652 -13.5037 -13.4743 -13.4619 -13.3942 -13.3271 -13.2956
   -13.1829 -13.1420 -13.1336 -13.0434 -13.0273 -13.0126 -13.0016 -12.9785
   -12.9543 -12.9160 -12.8622 -12.8028 -12.7861 -12.7666 -12.7542 -12.7486
   -12.7205 -12.6646 -12.6350 -12.5726 -12.4989 -12.3887 -12.2318 -12.0521
   -12.0059 -11.8082 -11.7562 -11.7389 -11.7258 -11.6988 -11.6487 -11.6251
   -11.6172 -11.5661 -11.4783 -11.4221 -11.4161  -2.7879  -2.5662  -2.4362
    -2.2636  -2.2001  -2.0301  -1.8228  -1.7455  -1.7014  -1.6672  -1.5658
    -1.5515  -1.5171  -1.4978  -1.4285  -1.2481  -1.1421  -1.1142  -1.0978
    -1.0022  -0.9918  -0.9114  -0.8849  -0.8337  -0.7919  -0.7398  -0.7128
    -0.6626  -0.6350  -0.6135  -0.5610  -0.5451  -0.4556  -0.4470  -0.3840
    -0.2895  -0.2383  -0.1089  -0.0975  -0.0398   0.0255   0.0654   0.0921
     0.1321   0.1917   0.2313   0.5136   0.6488   0.6790   0.7721   0.8111
     0.8268   0.8561   0.9269   1.0374   1.0859   1.1088   1.1495   1.2941
     1.3297   1.3621   1.3687   1.4119   1.4567   1.4975   1.5329   1.5852
     1.6365   1.6528   1.7071   1.7548   1.7960   1.8192   1.9013   1.9210
[...]
     0.3504   0.3296   0.2046   0.0790   0.0438   0.0216   0.0061   0.0049
     0.0003   0.0001   0.0001   0.0000   0.0000   0.0000   0.0000   0.0000
     0.0000   0.0000   0.0000   0.0000   0.0000   0.0000   0.0000   0.0000
     0.0000   0.0000   0.0000   0.0000   0.0000   0.0000   0.0000   0.0000
     0.0000   0.0000   0.0000

          k =-0.5000 0.0000 0.0000 ( 65180 PWs)   bands (ev):

   -92.6835 -92.6298 -92.5367 -92.4906 -92.4333 -92.3896 -92.3719 -92.2503
   -56.0371 -56.0163 -55.8942 -55.8840 -55.8759 -55.8709 -55.8342 -55.8060
   -55.7905 -55.7892 -55.7807 -55.7404 -55.7224 -55.6839 -55.6630 -55.6334
   -55.6257 -55.5776 -55.5758 -55.5748 -55.5663 -55.5253 -55.5023 -55.4170
   -31.2566 -31.2450 -31.0989 -31.0136 -30.9931 -30.8694 -30.8273 -30.7953
   -29.8278 -29.7883 -29.7604 -29.6543 -14.9970 -14.9466 -14.8837 -14.7720
   -14.6708 -14.5272 -14.3823 -14.2346 -14.1142 -14.0987 -14.0904 -14.0225
   -13.9739 -13.9497 -13.9412 -13.8911 -13.8819 -13.8687 -13.8202 -13.7927
   -13.6891 -13.5370 -13.5137 -13.4774 -13.4692 -13.3828 -13.3470 -13.2853
   -13.2507 -13.2272 -13.1951 -13.0371 -13.0254 -13.0053 -12.9931 -12.9660
   -12.9301 -12.9111 -12.9040 -12.7850 -12.7590 -12.7371 -12.7256 -12.6662
   -12.6311 -12.6229 -12.6137 -12.5237 -12.4247 -12.3100 -12.2793 -12.1615
   -12.1219 -11.7602 -11.7389 -11.7318 -11.7174 -11.6991 -11.6574 -11.5954
   -11.5775 -11.5440 -11.5010 -11.4917 -11.4759  -2.5637  -2.5251  -2.3618
    -2.3222  -2.0092  -1.9350  -1.7860  -1.6679  -1.6293  -1.5847  -1.5360
    -1.5107  -1.3873  -1.3427  -1.3279  -1.2458  -1.2093  -1.1952  -1.1633
    -1.1164  -1.1038  -1.0364  -1.0079  -0.9780  -0.8764  -0.8356  -0.7871
    -0.7545  -0.7323  -0.7036  -0.6549  -0.6292  -0.5879  -0.4972  -0.4184
    -0.3589  -0.2955  -0.1094  -0.0902  -0.0370  -0.0079   0.0704   0.0777
     0.2227   0.2482   0.2825   0.4592   0.5581   0.6083   0.6849   0.7887
     0.8776   0.9040   1.0297   1.0502   1.1024   1.1261   1.1696   1.1842
     1.2288   1.2506   1.3188   1.3666   1.4133   1.4198   1.7267   1.7346
     1.7484   1.7933   1.8811   1.8870   1.9101   1.9276   1.9409   1.9538
     1.9967   2.0166   2.0533   2.0957   2.1151   2.1615   2.1890   2.2391
     2.3441   2.4628   2.4677   2.4970   2.5274   2.5407   2.6235   2.6443
     2.6749   2.7412   2.7479   2.7565   2.7853   2.8544   2.9019   2.9435
     2.9784   3.0180   3.0220   3.0234   3.0357   3.0490   3.0615   3.0759
     3.0789   3.1021   3.1044   3.1287   3.1472   3.1524   3.2826   3.2912
     4.0817   4.1423   4.2141   4.3721   4.8092   4.8836   5.0557   5.0715
     5.4997   5.5232   5.6109   5.6701   6.0421   6.0554   6.3010   6.4510
     6.8097   7.0154   7.2727   7.2988   7.3396   7.4616   7.7171   7.7934
     7.9028   8.0312   8.1259   8.2809   8.4327   8.4748   8.5395   8.6443
     8.7754   8.8413   8.9391

     occupation numbers 
     1.0000   1.0000   1.0000   1.0000   1.0000   1.0000   1.0000   1.0000
     1.0000   1.0000   1.0000   1.0000   1.0000   1.0000   1.0000   1.0000
     1.0000   1.0000   1.0000   1.0000   1.0000   1.0000   1.0000   1.0000
     1.0000   1.0000   1.0000   1.0000   1.0000   1.0000   1.0000   1.0000
     1.0000   1.0000   1.0000   1.0000   1.0000   1.0000   1.0000   1.0000
     1.0000   1.0000   1.0000   1.0000   1.0000   1.0000   1.0000   1.0000
     1.0000   1.0000   1.0000   1.0000   1.0000   1.0000   1.0000   1.0000
     1.0000   1.0000   1.0000   1.0000   1.0000   1.0000   1.0000   1.0000
     1.0000   1.0000   1.0000   1.0000   1.0000   1.0000   1.0000   1.0000
     1.0000   1.0000   1.0000   1.0000   1.0000   1.0000   1.0000   1.0000
     1.0000   1.0000   1.0000   1.0000   1.0000   1.0000   1.0000   1.0000
     1.0000   1.0000   1.0000   1.0000   1.0000   1.0000   1.0000   1.0000
     1.0000   1.0000   1.0000   1.0000   1.0000   1.0000   1.0000   1.0000
     1.0000   1.0000   1.0000   1.0000   1.0000   1.0000   1.0000   1.0000
     1.0000   1.0000   1.0000   1.0000   1.0000   1.0000   1.0000   1.0000
     1.0000   1.0000   1.0000   1.0000   1.0000   1.0000   1.0000   1.0000
     1.0000   1.0000   1.0000   1.0000   1.0000   1.0000   1.0000   1.0000
     1.0000   1.0000   1.0000   1.0000   1.0000   1.0000   1.0000   1.0000
     1.0000   1.0000   1.0000   1.0000   1.0000   1.0000   1.0000   1.0000
     1.0000   1.0000   1.0000   1.0000   1.0000   1.0000   1.0000   0.9999
     0.9999   0.9999   0.9997   0.9997   0.9996   0.9995   0.9994   0.9993
     0.9992   0.9991   0.9987   0.9983   0.9979   0.9979   0.9919   0.9916
     0.9911   0.9894   0.9851   0.9848   0.9834   0.9823   0.9814   0.9805
     0.9773   0.9757   0.9724   0.9682   0.9661   0.9605   0.9569   0.9497
     0.9313   0.9048   0.9036   0.8959   0.8875   0.8837   0.8579   0.8508
     0.8400   0.8149   0.8122   0.8087   0.7969   0.7667   0.7445   0.7243
     0.7067   0.6861   0.6840   0.6833   0.6768   0.6696   0.6629   0.6550
     0.6534   0.6406   0.6393   0.6257   0.6153   0.6123   0.5367   0.5316
     0.1368   0.1181   0.0983   0.0635   0.0148   0.0111   0.0055   0.0052
     0.0007   0.0006   0.0004   0.0003   0.0000   0.0000   0.0000   0.0000
     0.0000   0.0000   0.0000   0.0000   0.0000   0.0000   0.0000   0.0000
     0.0000   0.0000   0.0000   0.0000   0.0000   0.0000   0.0000   0.0000
     0.0000   0.0000   0.0000

          k =-0.2500 0.2500 0.0000 ( 65198 PWs)   bands (ev):

   -92.6835 -92.6298 -92.5367 -92.4906 -92.4333 -92.3896 -92.3719 -92.2503
   -56.0371 -56.0163 -55.8942 -55.8840 -55.8759 -55.8709 -55.8342 -55.8060
   -55.7905 -55.7892 -55.7807 -55.7404 -55.7224 -55.6839 -55.6630 -55.6334
   -55.6257 -55.5776 -55.5758 -55.5748 -55.5663 -55.5253 -55.5023 -55.4170
   -31.2586 -31.2427 -31.0994 -31.0134 -30.9930 -30.8704 -30.8256 -30.7962
   -29.8282 -29.7870 -29.7614 -29.6543 -14.9996 -14.9591 -14.8839 -14.7677
   -14.6550 -14.5287 -14.4439 -14.2338 -14.0967 -14.0675 -14.0520 -14.0068
   -13.9804 -13.9650 -13.9538 -13.9384 -13.8911 -13.8173 -13.8036 -13.6544
   -13.6268 -13.5991 -13.5783 -13.5374 -13.4787 -13.4183 -13.4003 -13.2595
   -13.2314 -13.2048 -13.1282 -13.0847 -13.0223 -12.9914 -12.9736 -12.9529
   -12.9252 -12.9101 -12.8347 -12.8190 -12.7734 -12.7544 -12.7396 -12.7105
   -12.6817 -12.6754 -12.6581 -12.4699 -12.4248 -12.3981 -12.2657 -12.0881
   -12.0489 -11.7803 -11.7588 -11.7318 -11.7195 -11.6784 -11.6439 -11.6206
   -11.5993 -11.5766 -11.4932 -11.4474 -11.4380  -2.6486  -2.4403  -2.3194
    -2.2309  -2.1126  -2.0462  -1.8440  -1.6980  -1.6797  -1.6514  -1.5586
    -1.5235  -1.4293  -1.3960  -1.3696  -1.2271  -1.1701  -1.1184  -1.1006
    -1.0735  -1.0147  -0.9912  -0.9520  -0.9236  -0.8835  -0.8197  -0.7716
    -0.7110  -0.6411  -0.6127  -0.5632  -0.5332  -0.4888  -0.4342  -0.3900
    -0.3478  -0.2491  -0.2142  -0.1998  -0.1595  -0.0920  -0.0061   0.0326
     0.0572   0.1347   0.1600   0.4093   0.5769   0.6202   0.6635   0.7217
     0.7743   0.8430   0.9013   0.9186   1.1995   1.3102   1.3497   1.3814
     1.3870   1.4303   1.4478   1.4927   1.5236   1.5372   1.5633   1.6088
     1.6240   1.6664   1.6817   1.7277   1.8254   1.8438   1.8593   1.9099
     1.9297   1.9641   2.0260   2.1280   2.2261   2.2516   2.2975   2.3181
     2.3908   2.4220   2.4518   2.4737   2.4804   2.4978   2.5137   2.6028
     2.6336   2.7228   2.9007   2.9097   2.9229   2.9335   2.9441   2.9578
     2.9644   2.9825   2.9901   3.0057   3.0151   3.0275   3.0367   3.0430
     3.0769   3.0878   3.0957   3.1299   3.4221   3.5044   3.5685   3.6511
     3.6719   3.8563   3.9808   4.3255   4.5430   4.7349   5.0096   5.1758
     5.6648   5.7136   5.7733   5.8520   5.9140   6.0815   6.1842   6.2119
     6.9066   6.9355   7.0938   7.2376   7.5793   7.6229   7.6829   7.8702
     7.9171   8.0117   8.1850   8.1950   8.3283   8.3880   8.4639   8.4804
     8.5924   8.7621   8.9172

     occupation numbers 
     1.0000   1.0000   1.0000   1.0000   1.0000   1.0000   1.0000   1.0000
     1.0000   1.0000   1.0000   1.0000   1.0000   1.0000   1.0000   1.0000
     1.0000   1.0000   1.0000   1.0000   1.0000   1.0000   1.0000   1.0000
     1.0000   1.0000   1.0000   1.0000   1.0000   1.0000   1.0000   1.0000
     1.0000   1.0000   1.0000   1.0000   1.0000   1.0000   1.0000   1.0000
     1.0000   1.0000   1.0000   1.0000   1.0000   1.0000   1.0000   1.0000
     1.0000   1.0000   1.0000   1.0000   1.0000   1.0000   1.0000   1.0000
     1.0000   1.0000   1.0000   1.0000   1.0000   1.0000   1.0000   1.0000
     1.0000   1.0000   1.0000   1.0000   1.0000   1.0000   1.0000   1.0000
     1.0000   1.0000   1.0000   1.0000   1.0000   1.0000   1.0000   1.0000
     1.0000   1.0000   1.0000   1.0000   1.0000   1.0000   1.0000   1.0000
     1.0000   1.0000   1.0000   1.0000   1.0000   1.0000   1.0000   1.0000
     1.0000   1.0000   1.0000   1.0000   1.0000   1.0000   1.0000   1.0000
     1.0000   1.0000   1.0000   1.0000   1.0000   1.0000   1.0000   1.0000
     1.0000   1.0000   1.0000   1.0000   1.0000   1.0000   1.0000   1.0000
     1.0000   1.0000   1.0000   1.0000   1.0000   1.0000   1.0000   1.0000
     1.0000   1.0000   1.0000   1.0000   1.0000   1.0000   1.0000   1.0000
     1.0000   1.0000   1.0000   1.0000   1.0000   1.0000   1.0000   1.0000
     1.0000   1.0000   1.0000   1.0000   1.0000   1.0000   1.0000   1.0000
     1.0000   1.0000   1.0000   1.0000   1.0000   1.0000   1.0000   1.0000
     0.9999   0.9999   0.9999   0.9998   0.9993   0.9987   0.9985   0.9982
     0.9982   0.9978   0.9976   0.9970   0.9966   0.9964   0.9959   0.9950
     0.9947   0.9936   0.9932   0.9918   0.9880   0.9871   0.9863   0.9834
     0.9822   0.9798   0.9749   0.9646   0.9516   0.9477   0.9400   0.9363
     0.9216   0.9146   0.9075   0.9020   0.9003   0.8957   0.8914   0.8647
     0.8545   0.8221   0.7451   0.7408   0.7344   0.7292   0.7240   0.7172
     0.7138   0.7046   0.7007   0.6926   0.6877   0.6811   0.6762   0.6728
     0.6545   0.6485   0.6441   0.6250   0.4542   0.4062   0.3698   0.3245
     0.3135   0.2237   0.1724   0.0726   0.0376   0.0195   0.0067   0.0033
     0.0003   0.0002   0.0002   0.0001   0.0001   0.0000   0.0000   0.0000
     0.0000   0.0000   0.0000   0.0000   0.0000   0.0000   0.0000   0.0000
     0.0000   0.0000   0.0000   0.0000   0.0000   0.0000   0.0000   0.0000
     0.0000   0.0000   0.0000

          k =-0.5000 0.2500 0.0000 ( 65138 PWs)   bands (ev):

   -92.6835 -92.6298 -92.5367 -92.4906 -92.4333 -92.3896 -92.3719 -92.2503
   -56.0371 -56.0163 -55.8942 -55.8840 -55.8759 -55.8709 -55.8342 -55.8060
   -55.7905 -55.7892 -55.7807 -55.7404 -55.7224 -55.6839 -55.6630 -55.6334
   -55.6257 -55.5776 -55.5758 -55.5748 -55.5663 -55.5253 -55.5023 -55.4170
   -31.2564 -31.2449 -31.0991 -31.0138 -30.9928 -30.8697 -30.8263 -30.7964
   -29.8272 -29.7880 -29.7610 -29.6547 -14.9644 -14.9203 -14.8410 -14.7386
   -14.6992 -14.5738 -14.4846 -14.3517 -14.0472 -14.0153 -14.0040 -13.9608
   -13.9497 -13.9358 -13.9144 -13.8773 -13.8660 -13.8484 -13.8066 -13.7908
   -13.6833 -13.6195 -13.5727 -13.5687 -13.5551 -13.4518 -13.4289 -13.3183
   -13.2596 -13.1828 -13.1461 -13.0494 -13.0094 -12.9984 -12.9724 -12.9480
   -12.9278 -12.9202 -12.8626 -12.8010 -12.7624 -12.7482 -12.7213 -12.6828
   -12.6552 -12.6046 -12.5971 -12.5218 -12.3972 -12.3053 -12.2492 -12.1547
   -12.1216 -11.7531 -11.7404 -11.7261 -11.7140 -11.6927 -11.6622 -11.5820
   -11.5740 -11.5498 -11.5155 -11.4873 -11.4784  -2.4214  -2.3795  -2.2316
    -2.1887  -2.0282  -1.9536  -1.8103  -1.6741  -1.6185  -1.5914  -1.5520
    -1.5132  -1.4325  -1.3169  -1.2603  -1.2367  -1.2114  -1.1353  -1.1187
    -1.1016  -1.0665  -1.0495  -0.9892  -0.9600  -0.9208  -0.8853  -0.8567
    -0.7992  -0.7709  -0.7277  -0.6956  -0.5922  -0.5621  -0.4787  -0.4127
    -0.3841  -0.3289  -0.2408  -0.2025  -0.1076  -0.0547  -0.0098   0.0484
     0.0695   0.1426   0.1654   0.1960   0.2492   0.2913   0.5984   0.6760
     0.7294   0.7891   1.0425   1.0887   1.1683   1.1901   1.3678   1.4052
     1.4423   1.4545   1.4729   1.4909   1.5598   1.6032   1.6471   1.6706
     1.8133   1.8385   1.8616   1.8755   1.9281   1.9442   1.9592   1.9718
     1.9910   2.0146   2.0667   2.0729   2.1083   2.1291   2.1655   2.2173
     2.3363   2.4446   2.4605   2.4731   2.5007   2.5421   2.5712   2.6409
     2.6709   2.6770   2.7142   2.7470   2.7701   2.8540   2.8979   2.9097
     2.9149   2.9363   2.9589   2.9715   2.9866   3.0001   3.0213   3.0329
     3.0436   3.0511   3.0612   3.0724   3.5991   3.6601   3.7921   3.8175
     4.0891   4.1705   4.2215   4.4435   4.8038   4.9017   5.0537   5.0996
     5.4205   5.4484   5.6024   5.6366   5.7669   5.7991   6.3891   6.4052
     6.5136   6.5772   7.2765   7.3178   7.5795   7.7287   7.8074   7.8255
     7.9075   8.0403   8.2987   8.4165   8.4820   8.5591   8.5831   8.6020
     8.6771   8.7463   8.7802

     occupation numbers 
     1.0000   1.0000   1.0000   1.0000   1.0000   1.0000   1.0000   1.0000
     1.0000   1.0000   1.0000   1.0000   1.0000   1.0000   1.0000   1.0000
     1.0000   1.0000   1.0000   1.0000   1.0000   1.0000   1.0000   1.0000
     1.0000   1.0000   1.0000   1.0000   1.0000   1.0000   1.0000   1.0000
     1.0000   1.0000   1.0000   1.0000   1.0000   1.0000   1.0000   1.0000
     1.0000   1.0000   1.0000   1.0000   1.0000   1.0000   1.0000   1.0000
     1.0000   1.0000   1.0000   1.0000   1.0000   1.0000   1.0000   1.0000
     1.0000   1.0000   1.0000   1.0000   1.0000   1.0000   1.0000   1.0000
     1.0000   1.0000   1.0000   1.0000   1.0000   1.0000   1.0000   1.0000
     1.0000   1.0000   1.0000   1.0000   1.0000   1.0000   1.0000   1.0000
     1.0000   1.0000   1.0000   1.0000   1.0000   1.0000   1.0000   1.0000
     1.0000   1.0000   1.0000   1.0000   1.0000   1.0000   1.0000   1.0000
     1.0000   1.0000   1.0000   1.0000   1.0000   1.0000   1.0000   1.0000
     1.0000   1.0000   1.0000   1.0000   1.0000   1.0000   1.0000   1.0000
     1.0000   1.0000   1.0000   1.0000   1.0000   1.0000   1.0000   1.0000
     1.0000   1.0000   1.0000   1.0000   1.0000   1.0000   1.0000   1.0000
     1.0000   1.0000   1.0000   1.0000   1.0000   1.0000   1.0000   1.0000
     1.0000   1.0000   1.0000   1.0000   1.0000   1.0000   1.0000   1.0000
     1.0000   1.0000   1.0000   1.0000   1.0000   1.0000   1.0000   1.0000
     1.0000   1.0000   1.0000   1.0000   1.0000   1.0000   1.0000   1.0000
     0.9999   0.9999   0.9997   0.9996   0.9994   0.9993   0.9983   0.9980
     0.9976   0.9975   0.9973   0.9970   0.9960   0.9951   0.9941   0.9935
     0.9885   0.9873   0.9862   0.9854   0.9823   0.9812   0.9802   0.9792
     0.9778   0.9759   0.9711   0.9705   0.9668   0.9645   0.9600   0.9529
     0.9328   0.9093   0.9054   0.9022   0.8949   0.8833   0.8746   0.8520
     0.8414   0.8392   0.8254   0.8126   0.8032   0.7668   0.7464   0.7408
     0.7383   0.7278   0.7166   0.7102   0.7025   0.6955   0.6844   0.6783
     0.6726   0.6685   0.6631   0.6570   0.3527   0.3197   0.2532   0.2413
     0.1345   0.1100   0.0964   0.0514   0.0151   0.0104   0.0056   0.0046
     0.0010   0.0009   0.0004   0.0003   0.0002   0.0001   0.0000   0.0000
     0.0000   0.0000   0.0000   0.0000   0.0000   0.0000   0.0000   0.0000
     0.0000   0.0000   0.0000   0.0000   0.0000   0.0000   0.0000   0.0000
     0.0000   0.0000   0.0000

     the Fermi energy is     3.3446 ev

!    total energy              =   -4441.65622701 Ry
     estimated scf accuracy    <          7.1E-09 Ry
     smearing contrib. (-TS)   =      -1.15486945 Ry
     internal energy E=F+TS    =   -4440.50135757 Ry

     The total energy is F=E-TS. E is the sum of the following terms:
     one-electron contribution =  -20804.83488837 Ry
     hartree contribution      =   10534.66627343 Ry
     xc contribution           =    -694.18286351 Ry
     ewald contribution        =    6800.02037976 Ry
     one-center paw contrib.   =    -276.17025888 Ry
      -> PAW hartree energy AE =      25.14665883 Ry
      -> PAW hartree energy PS =     -25.03072709 Ry
      -> PAW xc energy AE      =     -16.51518599 Ry
      -> PAW xc energy PS      =       6.87453761 Ry
      -> total E_H with PAW    =   10534.78220517 Ry
      -> total E_XC with PAW   =    -703.82351190 Ry

     convergence has been achieved in  46 iterations

     Writing all to output data dir /bsuhome/zayahcortright/scratch/pwscf.save/
 
     init_run     :      8.26s CPU      9.24s WALL (       1 calls)
     electrons    :    779.56s CPU    860.58s WALL (       1 calls)

     Called by init_run:
     wfcinit      :      6.91s CPU      7.13s WALL (       1 calls)
     wfcinit:atom :      0.05s CPU      0.07s WALL (       5 calls)
     wfcinit:wfcr :      6.58s CPU      6.72s WALL (       5 calls)
     potinit      :      0.17s CPU      0.20s WALL (       1 calls)
     hinit0       :      0.34s CPU      0.77s WALL (       1 calls)

     Called by electrons:
     c_bands      :    630.78s CPU    642.59s WALL (      46 calls)
     sum_band     :    111.47s CPU    149.81s WALL (      46 calls)
     v_of_rho     :      5.28s CPU      5.66s WALL (      47 calls)
     v_h          :      0.44s CPU      0.44s WALL (      47 calls)
     v_xc         :      4.84s CPU      5.21s WALL (      47 calls)
     newd         :     17.81s CPU     47.89s WALL (      47 calls)
     PAW_pot      :      1.51s CPU      1.54s WALL (      47 calls)
     mix_rho      :     12.36s CPU     12.79s WALL (      46 calls)

     Called by c_bands:
     init_us_2    :      7.10s CPU      7.19s WALL (     465 calls)
     init_us_2:cp :      7.09s CPU      7.19s WALL (     465 calls)
     cegterg      :    596.90s CPU    608.41s WALL (     230 calls)

     Called by sum_band:
     sum_band:wei :      0.33s CPU      0.34s WALL (      46 calls)
     sum_band:loo :     91.30s CPU     92.20s WALL (      46 calls)
     sum_band:buf :      1.42s CPU      1.54s WALL (     230 calls)
     sum_band:ini :      3.19s CPU      3.21s WALL (     230 calls)
     sum_band:cal :     18.34s CPU     18.42s WALL (     230 calls)
     sum_band:bec :      0.58s CPU      0.61s WALL (     230 calls)
     addusdens    :     16.08s CPU     53.43s WALL (      46 calls)
                                        0.00s GPU  (      46 calls)
     addusd:skk   :      0.29s CPU      2.32s WALL (     184 calls)
                                        0.00s GPU  (     184 calls)

     Called by *egterg:
     cdiaghg      :     56.28s CPU     56.55s WALL (    1288 calls)
     cegterg:over :     44.86s CPU     45.05s WALL (    1058 calls)
     cegterg:upda :     47.53s CPU     48.44s WALL (    1058 calls)
     cegterg:last :     68.58s CPU     68.87s WALL (     425 calls)
     cdiaghg:chol :      3.22s CPU      3.25s WALL (    1288 calls)
     cdiaghg:inve :      3.48s CPU      3.51s WALL (    1288 calls)
     cdiaghg:para :      7.49s CPU      7.55s WALL (    2576 calls)
     h_psi        :    312.27s CPU    317.13s WALL (    1293 calls)
     s_psi        :     42.56s CPU     42.77s WALL (    1293 calls)
     g_psi        :      2.17s CPU      2.19s WALL (    1058 calls)

     Called by h_psi:
     h_psi:calbec :     43.74s CPU     44.07s WALL (    1293 calls)
     vloc_psi     :    220.62s CPU    222.72s WALL (    1293 calls)
     add_vuspsi   :     42.76s CPU     43.09s WALL (    1293 calls)

     General routines
     calbec       :     62.08s CPU     62.48s WALL (    1523 calls)
     fft          :      5.96s CPU      6.02s WALL (     609 calls)
     ffts         :      4.44s CPU      4.52s WALL (    4946 calls)
     fftw         :    171.44s CPU    172.89s WALL (  312450 calls)
     interpolate  :      0.40s CPU      0.41s WALL (      47 calls)
 
     Parallel routines

     PAW routines
     PAW_pot      :      1.51s CPU      1.54s WALL (      47 calls)
 
     PWSCF        :  13m 9.53s CPU  14m34.94s WALL

 
   This run was terminated on:  23:41: 5  21Jun2024            

=------------------------------------------------------------------------------=
   JOB DONE.
=------------------------------------------------------------------------------=
