
     Program PWSCF v.7.2 starts on 22Jun2024 at  2:49:31 

     This program is part of the open-source Quantum ESPRESSO suite
     for quantum simulation of materials; please cite
         "P. Giannozzi et al., J. Phys.:Condens. Matter 21 395502 (2009);
         "P. Giannozzi et al., J. Phys.:Condens. Matter 29 465901 (2017);
         "P. Giannozzi et al., J. Chem. Phys. 152 154105 (2020);
          URL http://www.quantum-espresso.org", 
     in publications or presentations arising from this work. More details at
     http://www.quantum-espresso.org/quote

     Parallel version (MPI & OpenMP), running on      48 processor cores
     Number of MPI processes:                48
     Threads/MPI process:                     1

     MPI processes distributed on     1 nodes
     33230 MiB available memory on the printing compute node when the environment starts
 
     Reading input from espresso.pwi
Warning: card &CELL ignored
Warning: card / ignored
Warning: card &FCP ignored
Warning: card / ignored
Warning: card &RISM ignored
Warning: card / ignored

     Current dimensions of program PWSCF are:
     Max number of different atomic species (ntypx) = 10
     Max number of k-points (npk) =  40000
     Max angular momentum in pseudopotentials (lmaxx) =  4
     file O.pbe-n-kjpaw_psl.0.1.UPF: wavefunction(s)  2P renormalized
     signal trapping enabled: kill the code with -SIGUSR1 to stop cleanly the simulation 
 
     K-points division:     npool     =       2
     R & G space division:  proc/nbgrp/npool/nimage =      24
     Subspace diagonalization in iterative solution of the eigenvalue problem:
     one sub-group per band group will be used
     scalapack distributed-memory algorithm (size of sub-group:  3*  3 procs)

 
     Parallelization info
     --------------------
     sticks:   dense  smooth     PW     G-vecs:    dense   smooth      PW
     Min         350     175     47                61430    21716    3036
     Max         351     177     48                61449    21727    3041
     Sum        8421    4205   1137              1474595   521381   72913
 
     Using Slab Decomposition
 


     bravais-lattice index     =            0
     lattice parameter (alat)  =      14.8599  a.u.
     unit-cell volume          =    8305.1283 (a.u.)^3
     number of atoms/cell      =           50
     number of atomic types    =            4
     number of electrons       =       431.00
     number of Kohn-Sham states=          259
     kinetic-energy cutoff     =      60.0000  Ry
     charge density cutoff     =     480.0000  Ry
     scf convergence threshold =      1.0E-08
     mixing beta               =       0.1500
     number of iterations used =            8  local-TF  mixing
     Exchange-correlation= PBE
                           (   1   4   3   4   0   0   0)

     celldm(1)=  14.859904  celldm(2)=   0.000000  celldm(3)=   0.000000
     celldm(4)=   0.000000  celldm(5)=   0.000000  celldm(6)=   0.000000

     crystal axes: (cart. coord. in units of alat)
               a(1) = (   1.000000   0.000000   0.000000 )  
               a(2) = (   0.000000   1.000000   0.000000 )  
               a(3) = (   0.000000   0.000000   2.531036 )  

     reciprocal axes: (cart. coord. in units 2 pi/alat)
               b(1) = (  1.000000  0.000000  0.000000 )  
               b(2) = (  0.000000  1.000000  0.000000 )  
               b(3) = (  0.000000  0.000000  0.395095 )  


     PseudoPot. # 1 for Sr read from file:
     /bsuhome/zayahcortright/q-e/pseudo/Sr_pbe_v1.uspp.F.UPF
     MD5 check sum: 6b418c05fbe9db5448babca5e47b7a5b
     Pseudo is Ultrasoft + core correction, Zval = 10.0
     Generated by new atomic code, or converted to UPF format
     Using radial grid of  883 points,  6 beta functions with: 
                l(1) =   0
                l(2) =   0
                l(3) =   1
                l(4) =   1
                l(5) =   2
                l(6) =   2
     Q(r) pseudized with  6 coefficients,  rinner =    1.400   1.400   1.400
                                                       1.400   1.400

     PseudoPot. # 2 for O  read from file:
     /bsuhome/zayahcortright/q-e/pseudo/O.pbe-n-kjpaw_psl.0.1.UPF
     MD5 check sum: 0234752ac141de4415c5fc33072bef88
     Pseudo is Projector augmented-wave + core cor, Zval =  6.0
     Generated using "atomic" code by A. Dal Corso  v.5.0.99 svn rev. 10869
     Shape of augmentation charge: BESSEL
     Using radial grid of 1095 points,  4 beta functions with: 
                l(1) =   0
                l(2) =   0
                l(3) =   1
                l(4) =   1
     Q(r) pseudized with 0 coefficients 


     PseudoPot. # 3 for Co read from file:
     /bsuhome/zayahcortright/q-e/pseudo/Co_pbe_v1.2.uspp.F.UPF
     MD5 check sum: 5f91765df6ddd3222702df6e7b74a16d
     Pseudo is Ultrasoft + core correction, Zval = 17.0
     Generated by new atomic code, or converted to UPF format
     Using radial grid of  863 points,  6 beta functions with: 
                l(1) =   0
                l(2) =   0
                l(3) =   1
                l(4) =   1
                l(5) =   2
                l(6) =   2
     Q(r) pseudized with  8 coefficients,  rinner =    1.200   1.200   1.200
                                                       1.200   1.200

     PseudoPot. # 4 for H  read from file:
     /bsuhome/zayahcortright/q-e/pseudo/H.pbe-rrkjus_psl.1.0.0.UPF
     MD5 check sum: f52b6d4d1c606e5624b1dc7b2218f220
     Pseudo is Ultrasoft, Zval =  1.0
     Generated using "atomic" code by A. Dal Corso  v.5.1
     Using radial grid of  929 points,  2 beta functions with: 
                l(1) =   0
                l(2) =   0
     Q(r) pseudized with 0 coefficients 


     atomic species   valence    mass     pseudopotential
        Sr            10.00    87.62000     Sr( 1.00)
        O              6.00    15.99900     O ( 1.00)
        Co            17.00    58.93319     Co( 1.00)
        H              1.00     1.00800     H ( 1.00)

     No symmetry found


                                    s                        frac. trans.

      isym =  1     identity                                     

 cryst.   s( 1) = (     1          0          0      )
                  (     0          1          0      )
                  (     0          0          1      )

 cart.    s( 1) = (  1.0000000  0.0000000  0.0000000 )
                  (  0.0000000  1.0000000  0.0000000 )
                  (  0.0000000  0.0000000  1.0000000 )


   Cartesian axes

     site n.     atom                  positions (alat units)
         1           Sr  tau(   1) = (   0.2508693   0.7491307   1.7574407  )
         2           O   tau(   2) = (   0.4985141   0.5014859   1.7715967  )
         3           Sr  tau(   3) = (   0.7482398   0.7454518   1.7648669  )
         4           Sr  tau(   4) = (   0.7441748   0.2558252   1.7667843  )
         5           Sr  tau(   5) = (   0.2508693   0.7491307   1.2696799  )
         6           Sr  tau(   6) = (   0.2508693   0.7491307   0.7632319  )
         7           Co  tau(   7) = (   0.4998914   0.5001086   1.0164559  )
         8           Co  tau(   8) = (   0.4936915   0.5063085   1.5135603  )
         9           O   tau(   9) = (   0.4988895   0.7610401   1.0164559  )
        10           O   tau(  10) = (   0.2389599   0.5011105   1.0164559  )
        11           O   tau(  11) = (   0.0070918   0.7374880   1.0164559  )
        12           O   tau(  12) = (   0.0088340   0.7405089   1.5135603  )
        13           O   tau(  13) = (   0.5066944   0.7415376   1.5135603  )
        14           O   tau(  14) = (   0.2584624   0.4933056   1.5135603  )
        15           O   tau(  15) = (   0.4985141   0.5014859   0.7773880  )
        16           O   tau(  16) = (   0.4985141   0.5014859   1.2555238  )
        17           Sr  tau(  17) = (   0.7482398   0.7454518   0.7706582  )
        18           Sr  tau(  18) = (   0.7482398   0.7454518   1.2622536  )
        19           Sr  tau(  19) = (   0.7441748   0.2558252   0.7725755  )
        20           Sr  tau(  20) = (   0.7441748   0.2558252   1.2603363  )
        21           O   tau(  21) = (   0.7322655   0.0078049   1.5135603  )
        22           O   tau(  22) = (   0.7558175   0.4996027   1.5135603  )
        23           O   tau(  23) = (   0.5003973   0.2441825   1.5135603  )
        24           O   tau(  24) = (   0.7527966   0.4978604   1.0164559  )
        25           O   tau(  25) = (   0.5021396   0.2472034   1.0164559  )
        26           O   tau(  26) = (   0.7517679   0.0000000   1.0164559  )
        27           O   tau(  27) = (   0.0114961   0.4948124   1.7455321  )
        28           O   tau(  28) = (   0.0048226   0.0077944   1.7715967  )
        29           Sr  tau(  29) = (   0.2545482   0.2517602   1.7648669  )
        30           O   tau(  30) = (   0.5048017   0.0015068   1.7786929  )
        31           Co  tau(  31) = (   0.0056869   0.5006215   1.0164559  )
        32           Co  tau(  32) = (   0.0065315   0.4997770   1.5135603  )
        33           Co  tau(  33) = (   0.0061999   0.0064171   1.0164559  )
        34           Co  tau(  34) = (   0.0000000   0.0126169   1.5135603  )
        35           O   tau(  35) = (   0.0114961   0.4948124   1.2815885  )
        36           O   tau(  36) = (   0.0114961   0.4948124   0.7513233  )
        37           O   tau(  37) = (   0.0051979   0.2673486   1.0164559  )
        38           O   tau(  38) = (   0.0130029   0.2478461   1.5135603  )
        39           O   tau(  39) = (   0.0048226   0.0077944   0.7773880  )
        40           O   tau(  40) = (   0.0048226   0.0077944   1.2555238  )
        41           Sr  tau(  41) = (   0.2545482   0.2517602   0.7706582  )
        42           Sr  tau(  42) = (   0.2545482   0.2517602   1.2622536  )
        43           Co  tau(  43) = (   0.4989925   0.0073160   1.5135603  )
        44           Co  tau(  44) = (   0.4998370   0.0064714   1.0164559  )
        45           O   tau(  45) = (   0.5048017   0.0015068   0.7844841  )
        46           O   tau(  46) = (   0.5048017   0.0015068   1.2484277  )
        47           O   tau(  47) = (   0.2621260   0.0059111   1.5135603  )
        48           O   tau(  48) = (   0.2591051   0.0041689   1.0164559  )
        49           O   tau(  49) = (   0.8529874   0.5686583   2.1602013  )
        50           H   tau(  50) = (   0.8529874   0.5686583   2.2847091  )

   Crystallographic axes

     site n.     atom                  positions (cryst. coord.)
         1           Sr  tau(   1) = (  0.2508693  0.7491307  0.6943562  )
         2           O   tau(   2) = (  0.4985141  0.5014859  0.6999492  )
         3           Sr  tau(   3) = (  0.7482398  0.7454518  0.6972903  )
         4           Sr  tau(   4) = (  0.7441748  0.2558252  0.6980478  )
         5           Sr  tau(   5) = (  0.2508693  0.7491307  0.5016443  )
         6           Sr  tau(   6) = (  0.2508693  0.7491307  0.3015492  )
         7           Co  tau(   7) = (  0.4998914  0.5001086  0.4015968  )
         8           Co  tau(   8) = (  0.4936915  0.5063085  0.5980003  )
         9           O   tau(   9) = (  0.4988895  0.7610401  0.4015968  )
        10           O   tau(  10) = (  0.2389599  0.5011105  0.4015968  )
        11           O   tau(  11) = (  0.0070918  0.7374880  0.4015968  )
        12           O   tau(  12) = (  0.0088340  0.7405089  0.5980003  )
        13           O   tau(  13) = (  0.5066944  0.7415376  0.5980003  )
        14           O   tau(  14) = (  0.2584624  0.4933056  0.5980003  )
        15           O   tau(  15) = (  0.4985141  0.5014859  0.3071422  )
        16           O   tau(  16) = (  0.4985141  0.5014859  0.4960513  )
        17           Sr  tau(  17) = (  0.7482398  0.7454518  0.3044833  )
        18           Sr  tau(  18) = (  0.7482398  0.7454518  0.4987103  )
        19           Sr  tau(  19) = (  0.7441748  0.2558252  0.3052408  )
        20           Sr  tau(  20) = (  0.7441748  0.2558252  0.4979527  )
        21           O   tau(  21) = (  0.7322655  0.0078049  0.5980003  )
        22           O   tau(  22) = (  0.7558175  0.4996027  0.5980003  )
        23           O   tau(  23) = (  0.5003973  0.2441825  0.5980003  )
        24           O   tau(  24) = (  0.7527966  0.4978604  0.4015968  )
        25           O   tau(  25) = (  0.5021396  0.2472034  0.4015968  )
        26           O   tau(  26) = (  0.7517679  0.0000000  0.4015968  )
        27           O   tau(  27) = (  0.0114961  0.4948124  0.6896512  )
        28           O   tau(  28) = (  0.0048226  0.0077944  0.6999492  )
        29           Sr  tau(  29) = (  0.2545482  0.2517602  0.6972903  )
        30           O   tau(  30) = (  0.5048017  0.0015068  0.7027529  )
        31           Co  tau(  31) = (  0.0056869  0.5006215  0.4015968  )
        32           Co  tau(  32) = (  0.0065315  0.4997770  0.5980003  )
        33           Co  tau(  33) = (  0.0061999  0.0064171  0.4015968  )
        34           Co  tau(  34) = (  0.0000000  0.0126169  0.5980003  )
        35           O   tau(  35) = (  0.0114961  0.4948124  0.5063494  )
        36           O   tau(  36) = (  0.0114961  0.4948124  0.2968442  )
        37           O   tau(  37) = (  0.0051979  0.2673486  0.4015968  )
        38           O   tau(  38) = (  0.0130029  0.2478461  0.5980003  )
        39           O   tau(  39) = (  0.0048226  0.0077944  0.3071422  )
        40           O   tau(  40) = (  0.0048226  0.0077944  0.4960513  )
        41           Sr  tau(  41) = (  0.2545482  0.2517602  0.3044833  )
        42           Sr  tau(  42) = (  0.2545482  0.2517602  0.4987103  )
        43           Co  tau(  43) = (  0.4989925  0.0073160  0.5980003  )
        44           Co  tau(  44) = (  0.4998370  0.0064714  0.4015968  )
        45           O   tau(  45) = (  0.5048017  0.0015068  0.3099459  )
        46           O   tau(  46) = (  0.5048017  0.0015068  0.4932477  )
        47           O   tau(  47) = (  0.2621260  0.0059111  0.5980003  )
        48           O   tau(  48) = (  0.2591051  0.0041689  0.4015968  )
        49           O   tau(  49) = (  0.8529874  0.5686583  0.8534850  )
        50           H   tau(  50) = (  0.8529874  0.5686583  0.9026774  )

     number of k points=    10  Gaussian smearing, width (Ry)=  0.0700
                       cart. coord. in units 2pi/alat
        k(    1) = (   0.0000000   0.0000000   0.0000000), wk =   0.1250000
        k(    2) = (   0.0000000   0.2500000   0.0000000), wk =   0.2500000
        k(    3) = (   0.0000000  -0.5000000   0.0000000), wk =   0.1250000
        k(    4) = (   0.2500000   0.2500000   0.0000000), wk =   0.2500000
        k(    5) = (   0.2500000  -0.5000000   0.0000000), wk =   0.2500000
        k(    6) = (  -0.5000000  -0.5000000   0.0000000), wk =   0.1250000
        k(    7) = (   0.2500000   0.0000000   0.0000000), wk =   0.2500000
        k(    8) = (  -0.5000000   0.0000000   0.0000000), wk =   0.1250000
        k(    9) = (  -0.2500000   0.2500000   0.0000000), wk =   0.2500000
        k(   10) = (  -0.5000000   0.2500000   0.0000000), wk =   0.2500000

                       cryst. coord.
        k(    1) = (   0.0000000   0.0000000   0.0000000), wk =   0.1250000
        k(    2) = (   0.0000000   0.2500000   0.0000000), wk =   0.2500000
        k(    3) = (   0.0000000  -0.5000000   0.0000000), wk =   0.1250000
        k(    4) = (   0.2500000   0.2500000   0.0000000), wk =   0.2500000
        k(    5) = (   0.2500000  -0.5000000   0.0000000), wk =   0.2500000
        k(    6) = (  -0.5000000  -0.5000000   0.0000000), wk =   0.1250000
        k(    7) = (   0.2500000   0.0000000   0.0000000), wk =   0.2500000
        k(    8) = (  -0.5000000   0.0000000   0.0000000), wk =   0.1250000
        k(    9) = (  -0.2500000   0.2500000   0.0000000), wk =   0.2500000
        k(   10) = (  -0.5000000   0.2500000   0.0000000), wk =   0.2500000

     Dense  grid:  1474595 G-vectors     FFT dimensions: ( 108, 108, 270)

     Smooth grid:   521381 G-vectors     FFT dimensions: (  75,  75, 192)

     Dynamical RAM for                 wfc:      10.73 MB

     Dynamical RAM for     wfc (w. buffer):      64.38 MB

     Dynamical RAM for           str. fact:       3.75 MB

     Dynamical RAM for           local pot:       0.00 MB

     Dynamical RAM for          nlocal pot:      24.61 MB

     Dynamical RAM for                qrad:       7.03 MB

     Dynamical RAM for          rho,v,vnew:       6.02 MB

     Dynamical RAM for               rhoin:       2.01 MB

     Dynamical RAM for            rho*nmix:      15.00 MB

     Dynamical RAM for           G-vectors:       3.68 MB

     Dynamical RAM for          h,s,v(r/c):       1.35 MB

     Dynamical RAM for          <psi|beta>:       2.35 MB

     Dynamical RAM for                 psi:      21.46 MB

     Dynamical RAM for                hpsi:      21.46 MB

     Dynamical RAM for                spsi:      21.46 MB

     Dynamical RAM for      wfcinit/wfcrot:      34.49 MB

     Dynamical RAM for           addusdens:     101.26 MB

     Estimated static dynamical RAM per process >     121.50 MB

     Estimated max dynamical RAM per process >     237.76 MB

     Estimated total dynamical RAM >      10.79 GB

     Check: negative core charge=   -0.000004

     Initial potential from superposition of free atoms

     starting charge     422.5961, renormalised to     431.0000

     negative rho (up, down):  7.820E-01 0.000E+00
     Starting wfcs are  377 randomized atomic wfcs
     Checking if some PAW data can be deallocated... 
       PAW data deallocated on   19 nodes for type:  2

     total cpu time spent up to now is        9.0 secs

     Self-consistent Calculation

     iteration #  1     ecut=    60.00 Ry     beta= 0.15
     Davidson diagonalization with overlap

---- Real-time Memory Report at c_bands before calling an iterative solver
             0 MiB given to the printing process from OS
             0 MiB allocation reported by mallinfo(arena+hblkhd)
         23993 MiB available memory on the node where the printing process lives
------------------
     ethr =  1.00E-02,  avg # of iterations =  2.0

     negative rho (up, down):  7.716E-01 0.000E+00

     total cpu time spent up to now is       25.5 secs

     total energy              =   -4446.62012763 Ry
     estimated scf accuracy    <      44.74573458 Ry

     iteration #  2     ecut=    60.00 Ry     beta= 0.15
     Davidson diagonalization with overlap

---- Real-time Memory Report at c_bands before calling an iterative solver
             0 MiB given to the printing process from OS
             0 MiB allocation reported by mallinfo(arena+hblkhd)
         24261 MiB available memory on the node where the printing process lives
------------------
     ethr =  1.00E-02,  avg # of iterations =  1.0

     negative rho (up, down):  7.584E-01 0.000E+00

     total cpu time spent up to now is       40.7 secs

     total energy              =   -4443.33937017 Ry
     estimated scf accuracy    <      29.70952707 Ry

     iteration #  3     ecut=    60.00 Ry     beta= 0.15
     Davidson diagonalization with overlap

---- Real-time Memory Report at c_bands before calling an iterative solver
             0 MiB given to the printing process from OS
             0 MiB allocation reported by mallinfo(arena+hblkhd)
         23423 MiB available memory on the node where the printing process lives
------------------
     ethr =  6.89E-03,  avg # of iterations =  1.0

     negative rho (up, down):  7.554E-01 0.000E+00

     total cpu time spent up to now is       56.0 secs

     total energy              =   -4444.26277227 Ry
     estimated scf accuracy    <      27.88314871 Ry

     iteration #  4     ecut=    60.00 Ry     beta= 0.15
     Davidson diagonalization with overlap

---- Real-time Memory Report at c_bands before calling an iterative solver
             0 MiB given to the printing process from OS
             0 MiB allocation reported by mallinfo(arena+hblkhd)
         23396 MiB available memory on the node where the printing process lives
------------------
     ethr =  6.47E-03,  avg # of iterations =  1.0

     negative rho (up, down):  7.502E-01 0.000E+00

     total cpu time spent up to now is       70.8 secs

     total energy              =   -4443.05700585 Ry
     estimated scf accuracy    <      20.55601851 Ry

     iteration #  5     ecut=    60.00 Ry     beta= 0.15
     Davidson diagonalization with overlap

---- Real-time Memory Report at c_bands before calling an iterative solver
             0 MiB given to the printing process from OS
             0 MiB allocation reported by mallinfo(arena+hblkhd)
         23388 MiB available memory on the node where the printing process lives
------------------
     ethr =  4.77E-03,  avg # of iterations =  1.0

     negative rho (up, down):  7.398E-01 0.000E+00

     total cpu time spent up to now is       85.4 secs

     total energy              =   -4442.49809411 Ry
     estimated scf accuracy    <      12.10599107 Ry

     iteration #  6     ecut=    60.00 Ry     beta= 0.15
     Davidson diagonalization with overlap

---- Real-time Memory Report at c_bands before calling an iterative solver
             0 MiB given to the printing process from OS
             0 MiB allocation reported by mallinfo(arena+hblkhd)
         23366 MiB available memory on the node where the printing process lives
------------------
     ethr =  2.81E-03,  avg # of iterations =  1.0

     negative rho (up, down):  7.425E-01 0.000E+00

     total cpu time spent up to now is      100.0 secs

     total energy              =   -4442.82720014 Ry
     estimated scf accuracy    <       5.05703961 Ry

     iteration #  7     ecut=    60.00 Ry     beta= 0.15
     Davidson diagonalization with overlap

---- Real-time Memory Report at c_bands before calling an iterative solver
             0 MiB given to the printing process from OS
             0 MiB allocation reported by mallinfo(arena+hblkhd)
         23347 MiB available memory on the node where the printing process lives
------------------
     ethr =  1.17E-03,  avg # of iterations =  1.8

     negative rho (up, down):  7.645E-01 0.000E+00

     total cpu time spent up to now is      115.3 secs

     total energy              =   -4441.69078326 Ry
     estimated scf accuracy    <       3.97397677 Ry

     iteration #  8     ecut=    60.00 Ry     beta= 0.15
     Davidson diagonalization with overlap

---- Real-time Memory Report at c_bands before calling an iterative solver
             0 MiB given to the printing process from OS
             0 MiB allocation reported by mallinfo(arena+hblkhd)
         23325 MiB available memory on the node where the printing process lives
------------------
     ethr =  9.22E-04,  avg # of iterations =  3.9

     negative rho (up, down):  7.737E-01 0.000E+00

     total cpu time spent up to now is      134.3 secs

     total energy              =   -4441.31922555 Ry
     estimated scf accuracy    <      21.96291369 Ry

     iteration #  9     ecut=    60.00 Ry     beta= 0.15
     Davidson diagonalization with overlap

---- Real-time Memory Report at c_bands before calling an iterative solver
             0 MiB given to the printing process from OS
             0 MiB allocation reported by mallinfo(arena+hblkhd)
         23213 MiB available memory on the node where the printing process lives
------------------
     ethr =  9.22E-04,  avg # of iterations = 10.6

     negative rho (up, down):  7.706E-01 0.000E+00

     total cpu time spent up to now is      157.2 secs

     total energy              =   -4441.71267968 Ry
     estimated scf accuracy    <       4.02778283 Ry

     iteration # 10     ecut=    60.00 Ry     beta= 0.15
     Davidson diagonalization with overlap

---- Real-time Memory Report at c_bands before calling an iterative solver
             0 MiB given to the printing process from OS
             0 MiB allocation reported by mallinfo(arena+hblkhd)
         22823 MiB available memory on the node where the printing process lives
------------------
     ethr =  9.22E-04,  avg # of iterations =  1.1

     negative rho (up, down):  7.741E-01 0.000E+00

     total cpu time spent up to now is      172.3 secs

     total energy              =   -4441.89256998 Ry
     estimated scf accuracy    <       1.63048219 Ry

     iteration # 11     ecut=    60.00 Ry     beta= 0.15
     Davidson diagonalization with overlap

---- Real-time Memory Report at c_bands before calling an iterative solver
             0 MiB given to the printing process from OS
             0 MiB allocation reported by mallinfo(arena+hblkhd)
         22814 MiB available memory on the node where the printing process lives
------------------
     ethr =  3.78E-04,  avg # of iterations =  2.1

     negative rho (up, down):  7.994E-01 0.000E+00

     total cpu time spent up to now is      188.4 secs

     total energy              =   -4441.78945980 Ry
     estimated scf accuracy    <       0.93761389 Ry

     iteration # 12     ecut=    60.00 Ry     beta= 0.15
     Davidson diagonalization with overlap

---- Real-time Memory Report at c_bands before calling an iterative solver
             0 MiB given to the printing process from OS
             0 MiB allocation reported by mallinfo(arena+hblkhd)
         22806 MiB available memory on the node where the printing process lives
------------------
     ethr =  2.18E-04,  avg # of iterations =  4.4

     negative rho (up, down):  8.170E-01 0.000E+00

     total cpu time spent up to now is      206.2 secs

     total energy              =   -4441.88423610 Ry
     estimated scf accuracy    <       1.45299530 Ry

     iteration # 13     ecut=    60.00 Ry     beta= 0.15
     Davidson diagonalization with overlap

---- Real-time Memory Report at c_bands before calling an iterative solver
             0 MiB given to the printing process from OS
             0 MiB allocation reported by mallinfo(arena+hblkhd)
         22797 MiB available memory on the node where the printing process lives
------------------
     ethr =  2.18E-04,  avg # of iterations =  9.4

     negative rho (up, down):  8.184E-01 0.000E+00

     total cpu time spent up to now is      227.0 secs

     total energy              =   -4441.81044740 Ry
     estimated scf accuracy    <       1.14381555 Ry

     iteration # 14     ecut=    60.00 Ry     beta= 0.15
     Davidson diagonalization with overlap

---- Real-time Memory Report at c_bands before calling an iterative solver
             0 MiB given to the printing process from OS
             0 MiB allocation reported by mallinfo(arena+hblkhd)
         22763 MiB available memory on the node where the printing process lives
------------------
     ethr =  2.18E-04,  avg # of iterations =  3.6

     negative rho (up, down):  8.151E-01 0.000E+00

     total cpu time spent up to now is      244.4 secs

     total energy              =   -4441.74942354 Ry
     estimated scf accuracy    <       0.45310967 Ry

     iteration # 15     ecut=    60.00 Ry     beta= 0.15
     Davidson diagonalization with overlap

---- Real-time Memory Report at c_bands before calling an iterative solver
             0 MiB given to the printing process from OS
             0 MiB allocation reported by mallinfo(arena+hblkhd)
         22760 MiB available memory on the node where the printing process lives
------------------
     ethr =  1.05E-04,  avg # of iterations =  5.6

     negative rho (up, down):  8.260E-01 0.000E+00

     total cpu time spent up to now is      263.0 secs

     total energy              =   -4441.74141452 Ry
     estimated scf accuracy    <       0.34011762 Ry

     iteration # 16     ecut=    60.00 Ry     beta= 0.15
     Davidson diagonalization with overlap

---- Real-time Memory Report at c_bands before calling an iterative solver
             0 MiB given to the printing process from OS
             0 MiB allocation reported by mallinfo(arena+hblkhd)
         22745 MiB available memory on the node where the printing process lives
------------------
     ethr =  7.89E-05,  avg # of iterations =  6.6

     negative rho (up, down):  8.304E-01 0.000E+00

     total cpu time spent up to now is      282.4 secs

     total energy              =   -4441.73445435 Ry
     estimated scf accuracy    <       0.30862879 Ry

     iteration # 17     ecut=    60.00 Ry     beta= 0.15
     Davidson diagonalization with overlap

---- Real-time Memory Report at c_bands before calling an iterative solver
             0 MiB given to the printing process from OS
             0 MiB allocation reported by mallinfo(arena+hblkhd)
         22753 MiB available memory on the node where the printing process lives
------------------
     c_bands:  1 eigenvalues not converged
     c_bands:  1 eigenvalues not converged
     ethr =  7.16E-05,  avg # of iterations = 10.5

     negative rho (up, down):  8.287E-01 0.000E+00

     total cpu time spent up to now is      303.5 secs

     total energy              =   -4441.72188689 Ry
     estimated scf accuracy    <       0.23990698 Ry

     iteration # 18     ecut=    60.00 Ry     beta= 0.15
     Davidson diagonalization with overlap

---- Real-time Memory Report at c_bands before calling an iterative solver
             0 MiB given to the printing process from OS
             0 MiB allocation reported by mallinfo(arena+hblkhd)
         22742 MiB available memory on the node where the printing process lives
------------------
     ethr =  5.57E-05,  avg # of iterations =  3.3

     negative rho (up, down):  8.140E-01 0.000E+00

     total cpu time spent up to now is      320.8 secs

     total energy              =   -4441.69494345 Ry
     estimated scf accuracy    <       0.15787833 Ry

     iteration # 19     ecut=    60.00 Ry     beta= 0.15
     Davidson diagonalization with overlap

---- Real-time Memory Report at c_bands before calling an iterative solver
             0 MiB given to the printing process from OS
             0 MiB allocation reported by mallinfo(arena+hblkhd)
         22744 MiB available memory on the node where the printing process lives
------------------
     ethr =  3.66E-05,  avg # of iterations =  9.6

     negative rho (up, down):  8.214E-01 0.000E+00

     total cpu time spent up to now is      341.8 secs

     total energy              =   -4441.68218689 Ry
     estimated scf accuracy    <       0.10850401 Ry

     iteration # 20     ecut=    60.00 Ry     beta= 0.15
     Davidson diagonalization with overlap

---- Real-time Memory Report at c_bands before calling an iterative solver
             0 MiB given to the printing process from OS
             0 MiB allocation reported by mallinfo(arena+hblkhd)
         22731 MiB available memory on the node where the printing process lives
------------------
     ethr =  2.52E-05,  avg # of iterations =  8.4

     negative rho (up, down):  8.184E-01 0.000E+00

     total cpu time spent up to now is      362.1 secs

     total energy              =   -4441.67506195 Ry
     estimated scf accuracy    <       0.06457428 Ry

     iteration # 21     ecut=    60.00 Ry     beta= 0.15
     Davidson diagonalization with overlap

---- Real-time Memory Report at c_bands before calling an iterative solver
             0 MiB given to the printing process from OS
             0 MiB allocation reported by mallinfo(arena+hblkhd)
         22767 MiB available memory on the node where the printing process lives
------------------
     ethr =  1.50E-05,  avg # of iterations =  9.9

     negative rho (up, down):  8.194E-01 0.000E+00

     total cpu time spent up to now is      383.6 secs

     total energy              =   -4441.67454084 Ry
     estimated scf accuracy    <       0.03477991 Ry

     iteration # 22     ecut=    60.00 Ry     beta= 0.15
     Davidson diagonalization with overlap

---- Real-time Memory Report at c_bands before calling an iterative solver
             0 MiB given to the printing process from OS
             0 MiB allocation reported by mallinfo(arena+hblkhd)
         22739 MiB available memory on the node where the printing process lives
------------------
     ethr =  8.07E-06,  avg # of iterations =  8.3

     negative rho (up, down):  8.122E-01 0.000E+00

     total cpu time spent up to now is      404.2 secs

     total energy              =   -4441.67451852 Ry
     estimated scf accuracy    <       0.02283233 Ry

     iteration # 23     ecut=    60.00 Ry     beta= 0.15
     Davidson diagonalization with overlap

---- Real-time Memory Report at c_bands before calling an iterative solver
             0 MiB given to the printing process from OS
             0 MiB allocation reported by mallinfo(arena+hblkhd)
         22739 MiB available memory on the node where the printing process lives
------------------
     ethr =  5.30E-06,  avg # of iterations =  1.4

     negative rho (up, down):  7.891E-01 0.000E+00

     total cpu time spent up to now is      420.1 secs

     total energy              =   -4441.67050172 Ry
     estimated scf accuracy    <       0.01874463 Ry

     iteration # 24     ecut=    60.00 Ry     beta= 0.15
     Davidson diagonalization with overlap

---- Real-time Memory Report at c_bands before calling an iterative solver
             0 MiB given to the printing process from OS
             0 MiB allocation reported by mallinfo(arena+hblkhd)
         22743 MiB available memory on the node where the printing process lives
------------------
     ethr =  4.35E-06,  avg # of iterations =  6.6

     negative rho (up, down):  7.903E-01 0.000E+00

     total cpu time spent up to now is      439.4 secs

     total energy              =   -4441.66981576 Ry
     estimated scf accuracy    <       0.01236293 Ry

     iteration # 25     ecut=    60.00 Ry     beta= 0.15
     Davidson diagonalization with overlap

---- Real-time Memory Report at c_bands before calling an iterative solver
             0 MiB given to the printing process from OS
             0 MiB allocation reported by mallinfo(arena+hblkhd)
         22743 MiB available memory on the node where the printing process lives
------------------
     ethr =  2.87E-06,  avg # of iterations = 10.4

     negative rho (up, down):  7.940E-01 0.000E+00

     total cpu time spent up to now is      460.8 secs

     total energy              =   -4441.66930742 Ry
     estimated scf accuracy    <       0.00649015 Ry

     iteration # 26     ecut=    60.00 Ry     beta= 0.15
     Davidson diagonalization with overlap

---- Real-time Memory Report at c_bands before calling an iterative solver
             0 MiB given to the printing process from OS
             0 MiB allocation reported by mallinfo(arena+hblkhd)
         22718 MiB available memory on the node where the printing process lives
------------------
     ethr =  1.51E-06,  avg # of iterations =  7.4

     negative rho (up, down):  7.969E-01 0.000E+00

     total cpu time spent up to now is      481.1 secs

     total energy              =   -4441.66907178 Ry
     estimated scf accuracy    <       0.00413540 Ry

     iteration # 27     ecut=    60.00 Ry     beta= 0.15
     Davidson diagonalization with overlap

---- Real-time Memory Report at c_bands before calling an iterative solver
             0 MiB given to the printing process from OS
             0 MiB allocation reported by mallinfo(arena+hblkhd)
         22704 MiB available memory on the node where the printing process lives
------------------
     ethr =  9.59E-07,  avg # of iterations =  5.1

     negative rho (up, down):  7.960E-01 0.000E+00

     total cpu time spent up to now is      499.6 secs

     total energy              =   -4441.66913282 Ry
     estimated scf accuracy    <       0.00180300 Ry

     iteration # 28     ecut=    60.00 Ry     beta= 0.15
     Davidson diagonalization with overlap

---- Real-time Memory Report at c_bands before calling an iterative solver
             0 MiB given to the printing process from OS
             0 MiB allocation reported by mallinfo(arena+hblkhd)
         22711 MiB available memory on the node where the printing process lives
------------------
     c_bands:  1 eigenvalues not converged
     ethr =  4.18E-07,  avg # of iterations =  9.9

     negative rho (up, down):  7.939E-01 0.000E+00

     total cpu time spent up to now is      520.8 secs

     total energy              =   -4441.66918439 Ry
     estimated scf accuracy    <       0.00066305 Ry

     iteration # 29     ecut=    60.00 Ry     beta= 0.15
     Davidson diagonalization with overlap

---- Real-time Memory Report at c_bands before calling an iterative solver
             0 MiB given to the printing process from OS
             0 MiB allocation reported by mallinfo(arena+hblkhd)
         22686 MiB available memory on the node where the printing process lives
------------------
     ethr =  1.54E-07,  avg # of iterations =  4.3

     negative rho (up, down):  7.933E-01 0.000E+00

     total cpu time spent up to now is      538.6 secs

     total energy              =   -4441.66922049 Ry
     estimated scf accuracy    <       0.00029208 Ry

     iteration # 30     ecut=    60.00 Ry     beta= 0.15
     Davidson diagonalization with overlap

---- Real-time Memory Report at c_bands before calling an iterative solver
             0 MiB given to the printing process from OS
             0 MiB allocation reported by mallinfo(arena+hblkhd)
         22711 MiB available memory on the node where the printing process lives
------------------
     ethr =  6.78E-08,  avg # of iterations =  3.0

     negative rho (up, down):  7.933E-01 0.000E+00

     total cpu time spent up to now is      556.0 secs

     total energy              =   -4441.66921833 Ry
     estimated scf accuracy    <       0.00014921 Ry

     iteration # 31     ecut=    60.00 Ry     beta= 0.15
     Davidson diagonalization with overlap

---- Real-time Memory Report at c_bands before calling an iterative solver
             0 MiB given to the printing process from OS
             0 MiB allocation reported by mallinfo(arena+hblkhd)
         22774 MiB available memory on the node where the printing process lives
------------------
     ethr =  3.46E-08,  avg # of iterations =  6.6

     negative rho (up, down):  7.931E-01 0.000E+00

     total cpu time spent up to now is      575.0 secs

     total energy              =   -4441.66922667 Ry
     estimated scf accuracy    <       0.00008120 Ry

     iteration # 32     ecut=    60.00 Ry     beta= 0.15
     Davidson diagonalization with overlap

---- Real-time Memory Report at c_bands before calling an iterative solver
             0 MiB given to the printing process from OS
             0 MiB allocation reported by mallinfo(arena+hblkhd)
         22773 MiB available memory on the node where the printing process lives
------------------
     ethr =  1.88E-08,  avg # of iterations =  1.7

     negative rho (up, down):  7.926E-01 0.000E+00

     total cpu time spent up to now is      591.1 secs

     total energy              =   -4441.66922678 Ry
     estimated scf accuracy    <       0.00005424 Ry

     iteration # 33     ecut=    60.00 Ry     beta= 0.15
     Davidson diagonalization with overlap

---- Real-time Memory Report at c_bands before calling an iterative solver
             0 MiB given to the printing process from OS
             0 MiB allocation reported by mallinfo(arena+hblkhd)
         22775 MiB available memory on the node where the printing process lives
------------------
     ethr =  1.26E-08,  avg # of iterations =  2.2

     negative rho (up, down):  7.922E-01 0.000E+00

     total cpu time spent up to now is      607.8 secs

     total energy              =   -4441.66923322 Ry
     estimated scf accuracy    <       0.00002929 Ry

     iteration # 34     ecut=    60.00 Ry     beta= 0.15
     Davidson diagonalization with overlap

---- Real-time Memory Report at c_bands before calling an iterative solver
             0 MiB given to the printing process from OS
             0 MiB allocation reported by mallinfo(arena+hblkhd)
         22776 MiB available memory on the node where the printing process lives
------------------
     ethr =  6.80E-09,  avg # of iterations =  2.1

     negative rho (up, down):  7.922E-01 0.000E+00

     total cpu time spent up to now is      624.5 secs

     total energy              =   -4441.66923506 Ry
     estimated scf accuracy    <       0.00001551 Ry

     iteration # 35     ecut=    60.00 Ry     beta= 0.15
     Davidson diagonalization with overlap

---- Real-time Memory Report at c_bands before calling an iterative solver
             0 MiB given to the printing process from OS
             0 MiB allocation reported by mallinfo(arena+hblkhd)
         22797 MiB available memory on the node where the printing process lives
------------------
     ethr =  3.60E-09,  avg # of iterations =  1.9

     negative rho (up, down):  7.922E-01 0.000E+00

     total cpu time spent up to now is      641.1 secs

     total energy              =   -4441.66923998 Ry
     estimated scf accuracy    <       0.00001178 Ry

     iteration # 36     ecut=    60.00 Ry     beta= 0.15
     Davidson diagonalization with overlap

---- Real-time Memory Report at c_bands before calling an iterative solver
             0 MiB given to the printing process from OS
             0 MiB allocation reported by mallinfo(arena+hblkhd)
         22792 MiB available memory on the node where the printing process lives
------------------
     ethr =  2.73E-09,  avg # of iterations =  1.8

     negative rho (up, down):  7.923E-01 0.000E+00

     total cpu time spent up to now is      657.3 secs

     total energy              =   -4441.66924666 Ry
     estimated scf accuracy    <       0.00000866 Ry

     iteration # 37     ecut=    60.00 Ry     beta= 0.15
     Davidson diagonalization with overlap

---- Real-time Memory Report at c_bands before calling an iterative solver
             0 MiB given to the printing process from OS
             0 MiB allocation reported by mallinfo(arena+hblkhd)
         22796 MiB available memory on the node where the printing process lives
------------------
     ethr =  2.01E-09,  avg # of iterations =  2.3

     negative rho (up, down):  7.923E-01 0.000E+00

     total cpu time spent up to now is      674.1 secs

     total energy              =   -4441.66925390 Ry
     estimated scf accuracy    <       0.00000612 Ry

     iteration # 38     ecut=    60.00 Ry     beta= 0.15
     Davidson diagonalization with overlap

---- Real-time Memory Report at c_bands before calling an iterative solver
             0 MiB given to the printing process from OS
             0 MiB allocation reported by mallinfo(arena+hblkhd)
         22793 MiB available memory on the node where the printing process lives
------------------
     ethr =  1.42E-09,  avg # of iterations =  3.0

     negative rho (up, down):  7.924E-01 0.000E+00

     total cpu time spent up to now is      691.4 secs

     total energy              =   -4441.66925730 Ry
     estimated scf accuracy    <       0.00000418 Ry

     iteration # 39     ecut=    60.00 Ry     beta= 0.15
     Davidson diagonalization with overlap

---- Real-time Memory Report at c_bands before calling an iterative solver
             0 MiB given to the printing process from OS
             0 MiB allocation reported by mallinfo(arena+hblkhd)
         22792 MiB available memory on the node where the printing process lives
------------------
     ethr =  9.70E-10,  avg # of iterations =  3.4

     negative rho (up, down):  7.925E-01 0.000E+00

     total cpu time spent up to now is      709.1 secs

     total energy              =   -4441.66925808 Ry
     estimated scf accuracy    <       0.00000231 Ry

     iteration # 40     ecut=    60.00 Ry     beta= 0.15
     Davidson diagonalization with overlap

---- Real-time Memory Report at c_bands before calling an iterative solver
             0 MiB given to the printing process from OS
             0 MiB allocation reported by mallinfo(arena+hblkhd)
         22798 MiB available memory on the node where the printing process lives
------------------
     ethr =  5.36E-10,  avg # of iterations =  3.6

     negative rho (up, down):  7.926E-01 0.000E+00

     total cpu time spent up to now is      726.8 secs

     total energy              =   -4441.66925787 Ry
     estimated scf accuracy    <       0.00000088 Ry

     iteration # 41     ecut=    60.00 Ry     beta= 0.15
     Davidson diagonalization with overlap

---- Real-time Memory Report at c_bands before calling an iterative solver
             0 MiB given to the printing process from OS
             0 MiB allocation reported by mallinfo(arena+hblkhd)
         22804 MiB available memory on the node where the printing process lives
------------------
     ethr =  2.04E-10,  avg # of iterations =  3.4

     negative rho (up, down):  7.926E-01 0.000E+00

     total cpu time spent up to now is      744.4 secs

     total energy              =   -4441.66925791 Ry
     estimated scf accuracy    <       0.00000031 Ry

     iteration # 42     ecut=    60.00 Ry     beta= 0.15
     Davidson diagonalization with overlap

---- Real-time Memory Report at c_bands before calling an iterative solver
             0 MiB given to the printing process from OS
             0 MiB allocation reported by mallinfo(arena+hblkhd)
         22806 MiB available memory on the node where the printing process lives
------------------
     ethr =  7.15E-11,  avg # of iterations =  2.1

     negative rho (up, down):  7.926E-01 0.000E+00

     total cpu time spent up to now is      761.1 secs

     total energy              =   -4441.66925796 Ry
     estimated scf accuracy    <       0.00000018 Ry

     iteration # 43     ecut=    60.00 Ry     beta= 0.15
     Davidson diagonalization with overlap

---- Real-time Memory Report at c_bands before calling an iterative solver
             0 MiB given to the printing process from OS
             0 MiB allocation reported by mallinfo(arena+hblkhd)
         22807 MiB available memory on the node where the printing process lives
------------------
     ethr =  4.26E-11,  avg # of iterations =  2.1

     negative rho (up, down):  7.926E-01 0.000E+00

     total cpu time spent up to now is      777.9 secs

     total energy              =   -4441.66925802 Ry
     estimated scf accuracy    <       0.00000010 Ry

     iteration # 44     ecut=    60.00 Ry     beta= 0.15
     Davidson diagonalization with overlap

---- Real-time Memory Report at c_bands before calling an iterative solver
             0 MiB given to the printing process from OS
             0 MiB allocation reported by mallinfo(arena+hblkhd)
         22807 MiB available memory on the node where the printing process lives
------------------
     ethr =  2.39E-11,  avg # of iterations =  2.2

     negative rho (up, down):  7.925E-01 0.000E+00

     total cpu time spent up to now is      794.9 secs

     total energy              =   -4441.66925810 Ry
     estimated scf accuracy    <       0.00000006 Ry

     iteration # 45     ecut=    60.00 Ry     beta= 0.15
     Davidson diagonalization with overlap

---- Real-time Memory Report at c_bands before calling an iterative solver
             0 MiB given to the printing process from OS
             0 MiB allocation reported by mallinfo(arena+hblkhd)
         22810 MiB available memory on the node where the printing process lives
------------------
     ethr =  1.48E-11,  avg # of iterations =  2.9

     negative rho (up, down):  7.925E-01 0.000E+00

     total cpu time spent up to now is      812.2 secs

     total energy              =   -4441.66925817 Ry
     estimated scf accuracy    <       0.00000004 Ry

     iteration # 46     ecut=    60.00 Ry     beta= 0.15
     Davidson diagonalization with overlap

---- Real-time Memory Report at c_bands before calling an iterative solver
             0 MiB given to the printing process from OS
             0 MiB allocation reported by mallinfo(arena+hblkhd)
         22812 MiB available memory on the node where the printing process lives
------------------
     ethr =  9.02E-12,  avg # of iterations =  3.2

     negative rho (up, down):  7.925E-01 0.000E+00

     total cpu time spent up to now is      829.7 secs

     total energy              =   -4441.66925820 Ry
     estimated scf accuracy    <       0.00000002 Ry

     iteration # 47     ecut=    60.00 Ry     beta= 0.15
     Davidson diagonalization with overlap

---- Real-time Memory Report at c_bands before calling an iterative solver
             0 MiB given to the printing process from OS
             0 MiB allocation reported by mallinfo(arena+hblkhd)
         22811 MiB available memory on the node where the printing process lives
------------------
     ethr =  5.31E-12,  avg # of iterations =  2.8

     negative rho (up, down):  7.925E-01 0.000E+00

     total cpu time spent up to now is      846.8 secs

     total energy              =   -4441.66925822 Ry
     estimated scf accuracy    <       0.00000002 Ry

     iteration # 48     ecut=    60.00 Ry     beta= 0.15
     Davidson diagonalization with overlap

---- Real-time Memory Report at c_bands before calling an iterative solver
             0 MiB given to the printing process from OS
             0 MiB allocation reported by mallinfo(arena+hblkhd)
         22813 MiB available memory on the node where the printing process lives
------------------
     ethr =  3.68E-12,  avg # of iterations =  3.7

     negative rho (up, down):  7.925E-01 0.000E+00

     total cpu time spent up to now is      864.2 secs

     End of self-consistent calculation

          k = 0.0000 0.0000 0.0000 ( 65197 PWs)   bands (ev):

   -92.7130 -92.6661 -92.5677 -92.5203 -92.4641 -92.4198 -92.4021 -92.2812
   -56.0664 -56.0530 -55.9247 -55.9137 -55.9077 -55.9005 -55.8683 -55.8367
   -55.8206 -55.8194 -55.8164 -55.7710 -55.7510 -55.7146 -55.6945 -55.6643
   -55.6557 -55.6078 -55.6076 -55.6049 -55.5965 -55.5563 -55.5324 -55.4467
   -31.2896 -31.2703 -31.1286 -31.0420 -30.9277 -30.8975 -30.8572 -30.8115
   -29.8593 -29.8161 -29.7904 -29.6832 -15.0932 -15.0461 -14.9665 -14.8381
   -14.6378 -14.5204 -14.2297 -14.2040 -14.1800 -14.1323 -14.0872 -14.0753
   -14.0647 -14.0438 -14.0214 -13.9838 -13.9715 -13.9405 -13.7870 -13.6019
   -13.5750 -13.5460 -13.5067 -13.4904 -13.4406 -13.4060 -13.3341 -13.2616
   -13.1245 -13.1164 -13.1091 -13.0864 -13.0682 -13.0131 -13.0080 -12.9926
   -12.9693 -12.9583 -12.9345 -12.9112 -12.8137 -12.7985 -12.7784 -12.7504
   -12.7315 -12.7229 -12.7150 -12.6912 -12.6785 -12.3544 -12.2084 -12.0284
   -11.9534 -11.8727 -11.7987 -11.7876 -11.7649 -11.7472 -11.6838 -11.6666
   -11.6315 -11.6019 -11.4917 -11.4115 -11.4080  -2.9522  -2.7209  -2.4914
    -2.3425  -2.2814  -2.1396  -1.8314  -1.8167  -1.7983  -1.7106  -1.6929
    -1.6253  -1.6089  -1.5681  -1.5246  -1.3428  -1.1909  -1.1140  -1.0807
    -0.9426  -0.9276  -0.8796  -0.8592  -0.8120  -0.7975  -0.7453  -0.7177
    -0.6425  -0.6325  -0.5582  -0.4264  -0.4140  -0.3822  -0.3029  -0.2802
    -0.2291  -0.2031  -0.1374  -0.0885  -0.0343  -0.0161   0.0554   0.1204
     0.1691   0.1925   0.2027   0.4655   0.4791   0.6571   0.7146   0.7796
     0.8278   0.9174   0.9276   0.9453   1.0130   1.0411   1.0738   1.1313
     1.2626   1.3212   1.3429   1.3680   1.3824   1.4424   1.5093   1.6247
     1.6439   1.6957   1.7044   1.7489   1.7693   1.7805   1.8341   1.9008
     1.9055   1.9419   1.9670   2.0166   2.1487   2.2359   2.2762   2.2926
     2.4168   2.4390   2.4515   2.4628   2.5005   2.5052   2.6146   2.6477
     2.6749   2.6945   2.7135   2.7945   2.8964   2.9326   2.9402   2.9458
     3.0133   3.0198   3.0417   3.0490   3.0584   3.0706   3.0786   3.0927
     3.0992   3.1085   3.1171   3.1246   3.1450   3.1666   3.1710   3.1837
     3.2062   3.3238   3.4065   4.0947   4.4184   4.7595   4.8600   5.0330
     5.8425   5.9441   5.9790   5.9974   6.3026   6.3491   6.4750   6.4837
     6.7692   7.0005   7.0977   7.3086   7.5508   7.6468   7.6583   7.7016
     7.7195   7.9358   8.0297   8.0518   8.1044   8.1883   8.3911   8.4561
     8.7083   8.8375   8.8733

     occupation numbers 
     1.0000   1.0000   1.0000   1.0000   1.0000   1.0000   1.0000   1.0000
     1.0000   1.0000   1.0000   1.0000   1.0000   1.0000   1.0000   1.0000
     1.0000   1.0000   1.0000   1.0000   1.0000   1.0000   1.0000   1.0000
     1.0000   1.0000   1.0000   1.0000   1.0000   1.0000   1.0000   1.0000
     1.0000   1.0000   1.0000   1.0000   1.0000   1.0000   1.0000   1.0000
     1.0000   1.0000   1.0000   1.0000   1.0000   1.0000   1.0000   1.0000
     1.0000   1.0000   1.0000   1.0000   1.0000   1.0000   1.0000   1.0000
     1.0000   1.0000   1.0000   1.0000   1.0000   1.0000   1.0000   1.0000
     1.0000   1.0000   1.0000   1.0000   1.0000   1.0000   1.0000   1.0000
     1.0000   1.0000   1.0000   1.0000   1.0000   1.0000   1.0000   1.0000
     1.0000   1.0000   1.0000   1.0000   1.0000   1.0000   1.0000   1.0000
     1.0000   1.0000   1.0000   1.0000   1.0000   1.0000   1.0000   1.0000
     1.0000   1.0000   1.0000   1.0000   1.0000   1.0000   1.0000   1.0000
     1.0000   1.0000   1.0000   1.0000   1.0000   1.0000   1.0000   1.0000
     1.0000   1.0000   1.0000   1.0000   1.0000   1.0000   1.0000   1.0000
     1.0000   1.0000   1.0000   1.0000   1.0000   1.0000   1.0000   1.0000
     1.0000   1.0000   1.0000   1.0000   1.0000   1.0000   1.0000   1.0000
     1.0000   1.0000   1.0000   1.0000   1.0000   1.0000   1.0000   1.0000
     1.0000   1.0000   1.0000   1.0000   1.0000   1.0000   1.0000   1.0000
     1.0000   1.0000   1.0000   1.0000   1.0000   1.0000   0.9999   0.9999
     0.9999   0.9998   0.9998   0.9998   0.9997   0.9996   0.9996   0.9994
     0.9988   0.9985   0.9983   0.9981   0.9979   0.9973   0.9963   0.9940
     0.9934   0.9919   0.9916   0.9900   0.9891   0.9886   0.9860   0.9821
     0.9818   0.9792   0.9773   0.9730   0.9583   0.9454   0.9385   0.9354
     0.9088   0.9032   0.9000   0.8970   0.8866   0.8853   0.8507   0.8390
     0.8289   0.8214   0.8140   0.7800   0.7327   0.7147   0.7109   0.7080
     0.6727   0.6692   0.6574   0.6534   0.6482   0.6415   0.6370   0.6291
     0.6254   0.6202   0.6154   0.6111   0.5994   0.5870   0.5845   0.5771
     0.5639   0.4946   0.4457   0.1234   0.0506   0.0160   0.0109   0.0054
     0.0001   0.0000   0.0000   0.0000   0.0000   0.0000   0.0000   0.0000
     0.0000   0.0000   0.0000   0.0000   0.0000   0.0000   0.0000   0.0000
     0.0000   0.0000   0.0000   0.0000   0.0000   0.0000   0.0000   0.0000
     0.0000   0.0000   0.0000

          k = 0.0000 0.2500 0.0000 ( 65257 PWs)   bands (ev):

   -92.7130 -92.6661 -92.5677 -92.5203 -92.4641 -92.4198 -92.4021 -92.2812
   -56.0664 -56.0530 -55.9247 -55.9137 -55.9077 -55.9005 -55.8683 -55.8367
   -55.8206 -55.8194 -55.8164 -55.7710 -55.7510 -55.7146 -55.6945 -55.6643
   -55.6557 -55.6078 -55.6076 -55.6049 -55.5965 -55.5563 -55.5324 -55.4467
   -31.2894 -31.2702 -31.1288 -31.0421 -30.9272 -30.8973 -30.8576 -30.8119
   -29.8586 -29.8158 -29.7910 -29.6836 -15.0567 -15.0200 -14.9419 -14.8081
   -14.6815 -14.5076 -14.3752 -14.1958 -14.1554 -14.1369 -14.1079 -14.0502
   -14.0433 -14.0301 -14.0027 -13.9819 -13.9436 -13.8595 -13.8174 -13.6589
   -13.6246 -13.5877 -13.5510 -13.4885 -13.4620 -13.4056 -13.3536 -13.3191
   -13.2298 -13.1650 -13.1576 -13.1202 -13.1001 -12.9976 -12.9763 -12.9577
   -12.9459 -12.9129 -12.8782 -12.8513 -12.8109 -12.7724 -12.7626 -12.7401
   -12.7261 -12.7077 -12.6816 -12.5858 -12.5010 -12.4157 -12.2595 -12.0868
   -12.0216 -11.8383 -11.7955 -11.7674 -11.7394 -11.7229 -11.6755 -11.6642
   -11.6414 -11.6069 -11.5061 -11.4533 -11.4427  -2.8168  -2.5966  -2.4585
    -2.2760  -2.2327  -2.0698  -1.8480  -1.7661  -1.7530  -1.6906  -1.5915
    -1.5760  -1.5429  -1.5149  -1.4709  -1.2745  -1.1927  -1.1394  -1.1291
    -1.0547  -1.0454  -0.9414  -0.9129  -0.8521  -0.8247  -0.7885  -0.7231
    -0.6955  -0.6631  -0.6328  -0.6166  -0.5831  -0.5114  -0.4596  -0.3808
    -0.2780  -0.2470  -0.2012  -0.0990  -0.0570   0.0041   0.0523   0.1060
     0.1202   0.1495   0.2080   0.5130   0.6002   0.6379   0.7182   0.7639
     0.7846   0.8990   0.9169   1.0170   1.0409   1.0667   1.1803   1.2783
     1.2977   1.3246   1.3437   1.3641   1.4245   1.4536   1.4813   1.5270
     1.5631   1.5992   1.6897   1.7221   1.7472   1.8038   1.8565   1.8992
     1.9226   1.9468   1.9617   2.0691   2.1885   2.2585   2.2774   2.3491
     2.3940   2.4159   2.4332   2.4408   2.4633   2.5071   2.5431   2.6284
     2.6771   2.6919   2.8545   2.8750   2.9093   2.9338   2.9475   2.9568
     2.9625   2.9710   3.0013   3.0035   3.0212   3.0299   3.0357   3.0570
     3.0665   3.0754   3.0958   3.1066   3.1123   3.1476   3.1643   3.2230
     3.5930   3.6274   3.8692   4.2858   4.4122   4.7060   5.0136   5.0550
     5.6370   5.8174   5.9678   6.0086   6.0765   6.1001   6.1732   6.5910
     6.9016   7.0982   7.1360   7.3214   7.4776   7.4909   7.6362   7.7368
     7.8773   7.9999   8.0864   8.1894   8.3355   8.3729   8.3961   8.4365
     8.5135   8.8237   8.9486

     occupation numbers 
     1.0000   1.0000   1.0000   1.0000   1.0000   1.0000   1.0000   1.0000
     1.0000   1.0000   1.0000   1.0000   1.0000   1.0000   1.0000   1.0000
     1.0000   1.0000   1.0000   1.0000   1.0000   1.0000   1.0000   1.0000
     1.0000   1.0000   1.0000   1.0000   1.0000   1.0000   1.0000   1.0000
     1.0000   1.0000   1.0000   1.0000   1.0000   1.0000   1.0000   1.0000
     1.0000   1.0000   1.0000   1.0000   1.0000   1.0000   1.0000   1.0000
     1.0000   1.0000   1.0000   1.0000   1.0000   1.0000   1.0000   1.0000
     1.0000   1.0000   1.0000   1.0000   1.0000   1.0000   1.0000   1.0000
     1.0000   1.0000   1.0000   1.0000   1.0000   1.0000   1.0000   1.0000
     1.0000   1.0000   1.0000   1.0000   1.0000   1.0000   1.0000   1.0000
     1.0000   1.0000   1.0000   1.0000   1.0000   1.0000   1.0000   1.0000
     1.0000   1.0000   1.0000   1.0000   1.0000   1.0000   1.0000   1.0000
     1.0000   1.0000   1.0000   1.0000   1.0000   1.0000   1.0000   1.0000
     1.0000   1.0000   1.0000   1.0000   1.0000   1.0000   1.0000   1.0000
     1.0000   1.0000   1.0000   1.0000   1.0000   1.0000   1.0000   1.0000
     1.0000   1.0000   1.0000   1.0000   1.0000   1.0000   1.0000   1.0000
     1.0000   1.0000   1.0000   1.0000   1.0000   1.0000   1.0000   1.0000
     1.0000   1.0000   1.0000   1.0000   1.0000   1.0000   1.0000   1.0000
     1.0000   1.0000   1.0000   1.0000   1.0000   1.0000   1.0000   1.0000
     1.0000   1.0000   1.0000   1.0000   1.0000   1.0000   0.9999   0.9999
     0.9999   0.9998   0.9998   0.9997   0.9996   0.9996   0.9992   0.9988
     0.9986   0.9984   0.9983   0.9981   0.9975   0.9971   0.9968   0.9960
     0.9954   0.9946   0.9921   0.9910   0.9900   0.9876   0.9848   0.9822
     0.9806   0.9789   0.9777   0.9678   0.9528   0.9416   0.9382   0.9242
     0.9142   0.9090   0.9047   0.9028   0.8969   0.8847   0.8740   0.8459
     0.8281   0.8224   0.7527   0.7430   0.7264   0.7141   0.7071   0.7024
     0.6994   0.6951   0.6791   0.6780   0.6685   0.6638   0.6606   0.6490
     0.6437   0.6388   0.6274   0.6213   0.6181   0.5979   0.5883   0.5541
     0.3397   0.3212   0.2051   0.0746   0.0516   0.0194   0.0058   0.0049
     0.0003   0.0001   0.0000   0.0000   0.0000   0.0000   0.0000   0.0000
     0.0000   0.0000   0.0000   0.0000   0.0000   0.0000   0.0000   0.0000
     0.0000   0.0000   0.0000   0.0000   0.0000   0.0000   0.0000   0.0000
     0.0000   0.0000   0.0000

          k = 0.0000-0.5000 0.0000 ( 65180 PWs)   bands (ev):

   -92.7130 -92.6661 -92.5677 -92.5203 -92.4641 -92.4198 -92.4021 -92.2812
   -56.0664 -56.0530 -55.9247 -55.9137 -55.9077 -55.9005 -55.8683 -55.8367
   -55.8206 -55.8194 -55.8164 -55.7710 -55.7510 -55.7146 -55.6945 -55.6643
   -55.6557 -55.6078 -55.6076 -55.6049 -55.5965 -55.5563 -55.5324 -55.4467
   -31.2892 -31.2700 -31.1290 -31.0422 -30.9267 -30.8970 -30.8580 -30.8122
   -29.8580 -29.8155 -29.7917 -29.6839 -15.0202 -14.9718 -14.9187 -14.7855
   -14.7062 -14.5675 -14.4128 -14.2860 -14.1692 -14.0871 -14.0519 -14.0410
   -13.9957 -13.9836 -13.9782 -13.9335 -13.9021 -13.8855 -13.8482 -13.7893
   -13.7677 -13.5950 -13.5356 -13.4893 -13.4684 -13.3876 -13.3700 -13.3125
   -13.2949 -13.2573 -13.2297 -13.1210 -13.1004 -12.9818 -12.9712 -12.9413
   -12.9255 -12.9206 -12.8913 -12.7734 -12.7565 -12.7289 -12.7183 -12.7157
   -12.7055 -12.6899 -12.6637 -12.5267 -12.4225 -12.3345 -12.2743 -12.1948
   -12.1607 -11.7923 -11.7898 -11.7623 -11.7256 -11.6908 -11.6795 -11.6368
   -11.6329 -11.5885 -11.5280 -11.5143 -11.5001  -2.6015  -2.5437  -2.3935
    -2.3216  -2.0368  -1.9561  -1.8284  -1.6921  -1.6487  -1.6344  -1.5571
    -1.5233  -1.4432  -1.4072  -1.3279  -1.2905  -1.2520  -1.2247  -1.1957
    -1.1603  -1.1252  -1.0785  -1.0406  -1.0131  -0.9773  -0.8689  -0.8252
    -0.7879  -0.7818  -0.6969  -0.6690  -0.6458  -0.5992  -0.5076  -0.4401
    -0.3464  -0.2979  -0.2135  -0.1853  -0.0416   0.0238   0.0336   0.0747
     0.1965   0.2657   0.3800   0.4519   0.4637   0.5859   0.6555   0.7326
     0.8660   0.9692   1.0039   1.0436   1.0581   1.0884   1.1038   1.1393
     1.1571   1.1748   1.2775   1.3370   1.3720   1.4021   1.6778   1.6916
     1.7164   1.8014   1.8228   1.8631   1.8786   1.9017   1.9269   1.9294
     1.9497   1.9972   2.0208   2.0564   2.0571   2.0880   2.1406   2.2338
     2.2677   2.4114   2.4295   2.4559   2.5930   2.6058   2.6191   2.6601
     2.6700   2.6748   2.7224   2.7327   2.7871   2.8078   2.8880   2.9047
     2.9718   2.9756   3.0015   3.0049   3.0183   3.0215   3.0257   3.0335
     3.0358   3.0484   3.0663   3.0676   3.1327   3.1369   3.1537   3.2085
     4.1143   4.1270   4.1819   4.2560   4.7256   4.8961   5.0157   5.1718
     5.4059   5.4545   5.5770   5.7323   6.0273   6.0349   6.4069   6.5078
     6.8450   6.9463   7.2117   7.3086   7.4031   7.4900   7.7404   7.8977
     7.9017   8.1133   8.2128   8.3233   8.3520   8.3750   8.4886   8.6572
     8.8028   8.8514   8.8555

     occupation numbers 
     1.0000   1.0000   1.0000   1.0000   1.0000   1.0000   1.0000   1.0000
     1.0000   1.0000   1.0000   1.0000   1.0000   1.0000   1.0000   1.0000
     1.0000   1.0000   1.0000   1.0000   1.0000   1.0000   1.0000   1.0000
     1.0000   1.0000   1.0000   1.0000   1.0000   1.0000   1.0000   1.0000
     1.0000   1.0000   1.0000   1.0000   1.0000   1.0000   1.0000   1.0000
     1.0000   1.0000   1.0000   1.0000   1.0000   1.0000   1.0000   1.0000
     1.0000   1.0000   1.0000   1.0000   1.0000   1.0000   1.0000   1.0000
     1.0000   1.0000   1.0000   1.0000   1.0000   1.0000   1.0000   1.0000
     1.0000   1.0000   1.0000   1.0000   1.0000   1.0000   1.0000   1.0000
     1.0000   1.0000   1.0000   1.0000   1.0000   1.0000   1.0000   1.0000
     1.0000   1.0000   1.0000   1.0000   1.0000   1.0000   1.0000   1.0000
     1.0000   1.0000   1.0000   1.0000   1.0000   1.0000   1.0000   1.0000
     1.0000   1.0000   1.0000   1.0000   1.0000   1.0000   1.0000   1.0000
     1.0000   1.0000   1.0000   1.0000   1.0000   1.0000   1.0000   1.0000
     1.0000   1.0000   1.0000   1.0000   1.0000   1.0000   1.0000   1.0000
     1.0000   1.0000   1.0000   1.0000   1.0000   1.0000   1.0000   1.0000
     1.0000   1.0000   1.0000   1.0000   1.0000   1.0000   1.0000   1.0000
     1.0000   1.0000   1.0000   1.0000   1.0000   1.0000   1.0000   1.0000
     1.0000   1.0000   1.0000   1.0000   1.0000   1.0000   1.0000   1.0000
     1.0000   1.0000   1.0000   1.0000   1.0000   1.0000   1.0000   0.9999
     0.9999   0.9998   0.9997   0.9996   0.9996   0.9995   0.9995   0.9994
     0.9993   0.9993   0.9988   0.9983   0.9980   0.9977   0.9925   0.9920
     0.9912   0.9877   0.9866   0.9844   0.9835   0.9820   0.9803   0.9802
     0.9787   0.9748   0.9726   0.9691   0.9691   0.9657   0.9594   0.9457
     0.9400   0.9101   0.9056   0.8989   0.8580   0.8537   0.8491   0.8344
     0.8308   0.8289   0.8104   0.8062   0.7833   0.7742   0.7368   0.7286
     0.6946   0.6927   0.6790   0.6772   0.6700   0.6683   0.6661   0.6618
     0.6606   0.6537   0.6438   0.6431   0.6064   0.6040   0.5944   0.5626
     0.1175   0.1138   0.0989   0.0811   0.0181   0.0094   0.0058   0.0029
     0.0010   0.0007   0.0004   0.0002   0.0000   0.0000   0.0000   0.0000
     0.0000   0.0000   0.0000   0.0000   0.0000   0.0000   0.0000   0.0000
     0.0000   0.0000   0.0000   0.0000   0.0000   0.0000   0.0000   0.0000
     0.0000   0.0000   0.0000

          k = 0.2500 0.2500 0.0000 ( 65198 PWs)   bands (ev):

   -92.7130 -92.6661 -92.5677 -92.5203 -92.4641 -92.4198 -92.4021 -92.2812
   -56.0664 -56.0530 -55.9247 -55.9137 -55.9077 -55.9005 -55.8683 -55.8367
   -55.8206 -55.8194 -55.8164 -55.7710 -55.7510 -55.7146 -55.6945 -55.6643
   -55.6557 -55.6078 -55.6076 -55.6049 -55.5965 -55.5563 -55.5324 -55.4467
   -31.2877 -31.2719 -31.1284 -31.0425 -30.9269 -30.8966 -30.8584 -30.8121
   -29.8577 -29.8168 -29.7906 -29.6840 -15.0278 -14.9858 -14.9138 -14.7974
   -14.6733 -14.5501 -14.4803 -14.2680 -14.1187 -14.1044 -14.0674 -14.0372
   -14.0165 -13.9908 -13.9808 -13.9474 -13.9052 -13.8488 -13.8304 -13.6739
   -13.6582 -13.6276 -13.6103 -13.5295 -13.5187 -13.4386 -13.4289 -13.2907
   -13.2523 -13.2359 -13.1532 -13.1127 -13.0600 -13.0296 -12.9868 -12.9598
   -12.9282 -12.9065 -12.8625 -12.7912 -12.7833 -12.7568 -12.7448 -12.7268
   -12.7198 -12.7041 -12.6764 -12.5163 -12.4642 -12.3828 -12.2886 -12.1163
   -12.0759 -11.8104 -11.7790 -11.7680 -11.7607 -11.6984 -11.6633 -11.6571
   -11.6219 -11.6131 -11.5229 -11.4815 -11.4642  -2.6783  -2.4708  -2.3526
    -2.2567  -2.1377  -2.0733  -1.8726  -1.7305  -1.7117  -1.6784  -1.5861
    -1.5533  -1.4585  -1.4309  -1.3805  -1.2495  -1.2039  -1.1855  -1.1267
    -1.0823  -1.0351  -1.0134  -0.9908  -0.9478  -0.9331  -0.8418  -0.7919
    -0.7213  -0.6741  -0.6461  -0.5992  -0.5849  -0.5200  -0.4698  -0.4030
    -0.3785  -0.2839  -0.2387  -0.2055  -0.1710  -0.1163  -0.0354  -0.0040
     0.0305   0.0970   0.1289   0.4023   0.5552   0.5851   0.6483   0.6866
     0.7415   0.7877   0.8582   0.8987   1.1685   1.2317   1.3045   1.3286
     1.3849   1.4094   1.4464   1.4841   1.4998   1.5275   1.5749   1.5817
     1.5998   1.6456   1.6802   1.7205   1.7834   1.8156   1.8306   1.8607
     1.8950   1.9527   1.9723   2.1059   2.1682   2.2050   2.2235   2.2934
     2.3545   2.3847   2.4136   2.4228   2.4431   2.4542   2.4647   2.5709
     2.6152   2.7053   2.8649   2.8834   2.8877   2.9043   2.9202   2.9334
     2.9452   2.9508   2.9634   2.9761   2.9915   3.0061   3.0125   3.0250
     3.0499   3.0586   3.0678   3.0988   3.3992   3.4914   3.5402   3.6083
     3.6211   3.8513   3.9420   4.2959   4.4982   4.7109   4.9724   5.1613
     5.6397   5.6966   5.7829   5.8265   5.8858   6.1457   6.1624   6.2100
     6.8891   7.0058   7.1821   7.3157   7.5440   7.5975   7.7037   7.8568
     7.9194   8.0534   8.2049   8.2501   8.3380   8.4341   8.4382   8.5034
     8.5690   8.6679   8.9182

     occupation numbers 
     1.0000   1.0000   1.0000   1.0000   1.0000   1.0000   1.0000   1.0000
     1.0000   1.0000   1.0000   1.0000   1.0000   1.0000   1.0000   1.0000
     1.0000   1.0000   1.0000   1.0000   1.0000   1.0000   1.0000   1.0000
     1.0000   1.0000   1.0000   1.0000   1.0000   1.0000   1.0000   1.0000
     1.0000   1.0000   1.0000   1.0000   1.0000   1.0000   1.0000   1.0000
     1.0000   1.0000   1.0000   1.0000   1.0000   1.0000   1.0000   1.0000
     1.0000   1.0000   1.0000   1.0000   1.0000   1.0000   1.0000   1.0000
     1.0000   1.0000   1.0000   1.0000   1.0000   1.0000   1.0000   1.0000
     1.0000   1.0000   1.0000   1.0000   1.0000   1.0000   1.0000   1.0000
     1.0000   1.0000   1.0000   1.0000   1.0000   1.0000   1.0000   1.0000
     1.0000   1.0000   1.0000   1.0000   1.0000   1.0000   1.0000   1.0000
     1.0000   1.0000   1.0000   1.0000   1.0000   1.0000   1.0000   1.0000
     1.0000   1.0000   1.0000   1.0000   1.0000   1.0000   1.0000   1.0000
     1.0000   1.0000   1.0000   1.0000   1.0000   1.0000   1.0000   1.0000
     1.0000   1.0000   1.0000   1.0000   1.0000   1.0000   1.0000   1.0000
     1.0000   1.0000   1.0000   1.0000   1.0000   1.0000   1.0000   1.0000
     1.0000   1.0000   1.0000   1.0000   1.0000   1.0000   1.0000   1.0000
     1.0000   1.0000   1.0000   1.0000   1.0000   1.0000   1.0000   1.0000
     1.0000   1.0000   1.0000   1.0000   1.0000   1.0000   1.0000   1.0000
     1.0000   1.0000   1.0000   1.0000   1.0000   1.0000   1.0000   1.0000
     0.9999   0.9999   0.9999   0.9998   0.9993   0.9990   0.9986   0.9984
     0.9979   0.9977   0.9972   0.9967   0.9965   0.9960   0.9951   0.9950
     0.9946   0.9934   0.9924   0.9910   0.9885   0.9870   0.9862   0.9846
     0.9825   0.9784   0.9769   0.9637   0.9557   0.9503   0.9474   0.9353
     0.9230   0.9163   0.9095   0.9073   0.9022   0.8993   0.8965   0.8653
     0.8505   0.8172   0.7478   0.7390   0.7369   0.7288   0.7209   0.7143
     0.7084   0.7055   0.6990   0.6924   0.6843   0.6766   0.6731   0.6664
     0.6529   0.6481   0.6430   0.6257   0.4500   0.3965   0.3688   0.3314
     0.3245   0.2127   0.1758   0.0725   0.0394   0.0191   0.0069   0.0031
     0.0003   0.0002   0.0001   0.0001   0.0001   0.0000   0.0000   0.0000
     0.0000   0.0000   0.0000   0.0000   0.0000   0.0000   0.0000   0.0000
     0.0000   0.0000   0.0000   0.0000   0.0000   0.0000   0.0000   0.0000
     0.0000   0.0000   0.0000

          k = 0.2500-0.5000 0.0000 ( 65138 PWs)   bands (ev):

   -92.7130 -92.6661 -92.5677 -92.5203 -92.4641 -92.4198 -92.4021 -92.2812
   -56.0664 -56.0530 -55.9247 -55.9137 -55.9077 -55.9005 -55.8683 -55.8367
   -55.8206 -55.8194 -55.8164 -55.7710 -55.7510 -55.7146 -55.6945 -55.6643
   -55.6557 -55.6078 -55.6076 -55.6049 -55.5965 -55.5563 -55.5324 -55.4467
   -31.2875 -31.2718 -31.1286 -31.0426 -30.9265 -30.8962 -30.8588 -30.8125
   -29.8570 -29.8165 -29.7913 -29.6843 -14.9897 -14.9450 -14.8759 -14.7566
   -14.7275 -14.6090 -14.5145 -14.3837 -14.0835 -14.0259 -14.0024 -13.9840
   -13.9783 -13.9600 -13.9539 -13.9170 -13.8916 -13.8586 -13.8299 -13.7917
   -13.7483 -13.6770 -13.6287 -13.5511 -13.5437 -13.4799 -13.4303 -13.3457
   -13.3139 -13.2187 -13.1539 -13.1296 -13.0445 -13.0024 -12.9861 -12.9558
   -12.9240 -12.8959 -12.8714 -12.7869 -12.7708 -12.7543 -12.7262 -12.7028
   -12.6909 -12.6671 -12.6358 -12.5332 -12.4038 -12.3320 -12.2554 -12.1814
   -12.1591 -11.7861 -11.7740 -11.7633 -11.7360 -11.7042 -11.6760 -11.6340
   -11.6078 -11.5850 -11.5411 -11.5154 -11.5042  -2.4590  -2.3956  -2.2673
    -2.1903  -2.0574  -1.9759  -1.8527  -1.7027  -1.6461  -1.6253  -1.5639
    -1.5511  -1.4538  -1.3858  -1.3022  -1.2512  -1.2427  -1.1886  -1.1762
    -1.1346  -1.1023  -1.0531  -1.0144  -0.9808  -0.9428  -0.9293  -0.8852
    -0.8555  -0.8087  -0.7821  -0.7145  -0.6084  -0.5758  -0.4936  -0.4272
    -0.3719  -0.3351  -0.3188  -0.2507  -0.1039  -0.0918   0.0328   0.0432
     0.0540   0.0965   0.1363   0.1678   0.2015   0.2655   0.5640   0.6490
     0.6991   0.7542   1.0372   1.0485   1.1415   1.1656   1.3289   1.3686
     1.4032   1.4295   1.4396   1.4628   1.5278   1.5809   1.6139   1.6824
     1.7892   1.8171   1.8388   1.8463   1.8856   1.8983   1.9078   1.9496
     1.9618   1.9800   2.0142   2.0264   2.0501   2.0830   2.1409   2.1880
     2.2674   2.3936   2.4148   2.4509   2.5451   2.5620   2.5804   2.6157
     2.6342   2.6600   2.6804   2.6947   2.7179   2.8138   2.8666   2.8840
     2.8926   2.9014   2.9215   2.9352   2.9543   2.9627   3.0036   3.0102
     3.0220   3.0289   3.0387   3.0488   3.5643   3.5909   3.7308   3.7855
     4.1163   4.1745   4.1874   4.3107   4.7454   4.9173   5.0515   5.1366
     5.2937   5.4259   5.6005   5.6506   5.7610   5.7844   6.3895   6.4791
     6.5191   6.6368   7.3517   7.4166   7.5947   7.6935   7.7874   7.8405
     7.8885   8.0312   8.3968   8.4759   8.4980   8.5412   8.5523   8.5738
     8.6939   8.7152   8.7680

     occupation numbers 
     1.0000   1.0000   1.0000   1.0000   1.0000   1.0000   1.0000   1.0000
     1.0000   1.0000   1.0000   1.0000   1.0000   1.0000   1.0000   1.0000
     1.0000   1.0000   1.0000   1.0000   1.0000   1.0000   1.0000   1.0000
     1.0000   1.0000   1.0000   1.0000   1.0000   1.0000   1.0000   1.0000
     1.0000   1.0000   1.0000   1.0000   1.0000   1.0000   1.0000   1.0000
     1.0000   1.0000   1.0000   1.0000   1.0000   1.0000   1.0000   1.0000
     1.0000   1.0000   1.0000   1.0000   1.0000   1.0000   1.0000   1.0000
     1.0000   1.0000   1.0000   1.0000   1.0000   1.0000   1.0000   1.0000
     1.0000   1.0000   1.0000   1.0000   1.0000   1.0000   1.0000   1.0000
     1.0000   1.0000   1.0000   1.0000   1.0000   1.0000   1.0000   1.0000
     1.0000   1.0000   1.0000   1.0000   1.0000   1.0000   1.0000   1.0000
     1.0000   1.0000   1.0000   1.0000   1.0000   1.0000   1.0000   1.0000
     1.0000   1.0000   1.0000   1.0000   1.0000   1.0000   1.0000   1.0000
     1.0000   1.0000   1.0000   1.0000   1.0000   1.0000   1.0000   1.0000
     1.0000   1.0000   1.0000   1.0000   1.0000   1.0000   1.0000   1.0000
     1.0000   1.0000   1.0000   1.0000   1.0000   1.0000   1.0000   1.0000
     1.0000   1.0000   1.0000   1.0000   1.0000   1.0000   1.0000   1.0000
     1.0000   1.0000   1.0000   1.0000   1.0000   1.0000   1.0000   1.0000
     1.0000   1.0000   1.0000   1.0000   1.0000   1.0000   1.0000   1.0000
     1.0000   1.0000   1.0000   1.0000   1.0000   1.0000   1.0000   1.0000
     0.9999   0.9999   0.9996   0.9996   0.9994   0.9993   0.9984   0.9981
     0.9977   0.9974   0.9973   0.9970   0.9960   0.9950   0.9942   0.9923
     0.9882   0.9869   0.9858   0.9854   0.9831   0.9823   0.9816   0.9787
     0.9777   0.9762   0.9733   0.9721   0.9698   0.9663   0.9593   0.9528
     0.9400   0.9143   0.9093   0.9002   0.8734   0.8681   0.8622   0.8503
     0.8438   0.8345   0.8269   0.8213   0.8122   0.7715   0.7470   0.7387
     0.7345   0.7303   0.7203   0.7134   0.7037   0.6993   0.6779   0.6744
     0.6680   0.6643   0.6590   0.6535   0.3554   0.3408   0.2683   0.2422
     0.1169   0.1008   0.0975   0.0695   0.0168   0.0087   0.0050   0.0034
     0.0016   0.0009   0.0003   0.0003   0.0001   0.0001   0.0000   0.0000
     0.0000   0.0000   0.0000   0.0000   0.0000   0.0000   0.0000   0.0000
     0.0000   0.0000   0.0000   0.0000   0.0000   0.0000   0.0000   0.0000
     0.0000   0.0000   0.0000

          k =-0.5000-0.5000 0.0000 ( 65132 PWs)   bands (ev):

   -92.7130 -92.6661 -92.5677 -92.5203 -92.4641 -92.4198 -92.4021 -92.2812
   -56.0664 -56.0530 -55.9247 -55.9137 -55.9077 -55.9005 -55.8683 -55.8367
   -55.8206 -55.8194 -55.8164 -55.7710 -55.7510 -55.7146 -55.6945 -55.6643
   -55.6557 -55.6078 -55.6076 -55.6049 -55.5965 -55.5563 -55.5324 -55.4467
   -31.2853 -31.2740 -31.1283 -31.0430 -30.9262 -30.8954 -30.8596 -30.8128
   -29.8560 -29.8175 -29.7909 -29.6847 -14.9435 -14.9180 -14.8005 -14.7877
   -14.6881 -14.6585 -14.6145 -14.4833 -13.9943 -13.9837 -13.9796 -13.9469
   -13.9282 -13.9130 -13.8887 -13.8705 -13.8599 -13.8419 -13.8314 -13.8087
   -13.7427 -13.7377 -13.6922 -13.6710 -13.6332 -13.5682 -13.4807 -13.3835
   -13.3599 -13.1696 -13.1259 -13.0613 -13.0371 -13.0016 -12.9960 -12.9863
   -12.9673 -12.8617 -12.8365 -12.7871 -12.7843 -12.7560 -12.7481 -12.7115
   -12.7049 -12.6170 -12.6091 -12.5495 -12.3863 -12.3283 -12.2356 -12.1667
   -12.1594 -11.7830 -11.7703 -11.7521 -11.7356 -11.7002 -11.6828 -11.6478
   -11.5884 -11.5673 -11.5634 -11.5131 -11.5101  -2.2326  -2.1599  -2.1521
    -2.0797  -2.0408  -1.9624  -1.8944  -1.7673  -1.6531  -1.6236  -1.5807
    -1.5271  -1.4539  -1.4397  -1.3695  -1.3267  -1.2083  -1.1951  -1.1677
    -1.1291  -1.1041  -1.0392  -0.9916  -0.9736  -0.9611  -0.9052  -0.8644
    -0.8417  -0.7320  -0.6775  -0.6320  -0.5812  -0.5514  -0.5321  -0.5035
    -0.4643  -0.4222  -0.4151  -0.3321  -0.2618  -0.2220  -0.1914  -0.1211
    -0.0556  -0.0525   0.0100   0.0406   0.0488   0.0733   0.5420   0.5723
     0.6501   0.6618   1.0630   1.0728   1.1108   1.1484   1.4150   1.4333
     1.4418   1.4871   1.6076   1.7016   1.7295   1.7664   1.7981   1.8097
     1.8202   1.8504   1.8651   1.8851   1.8894   1.9377   1.9414   1.9692
     1.9872   2.0042   2.0179   2.0581   2.0828   2.0983   2.1273   2.1616
     2.2234   2.2913   2.4101   2.4463   2.5619   2.5889   2.6111   2.6262
     2.6393   2.6686   2.6719   2.6901   2.7008   2.7168   2.7388   2.7497
     2.8154   2.8197   2.8402   2.8536   2.8716   2.8910   2.8925   2.9010
     3.0081   3.0158   3.0332   3.0471   3.9930   4.0353   4.0421   4.0834
     4.3070   4.3816   4.4065   4.6465   4.7697   4.8518   4.9815   5.0736
     5.0831   5.1972   5.2877   5.4488   5.8503   5.8809   5.9502   6.0251
     6.7401   6.9104   7.0022   7.1299   7.9196   7.9508   7.9622   7.9716
     7.9913   8.0173   8.0822   8.2634   8.5799   8.6060   8.6162   8.6533
     8.7253   8.7438   8.8077

     occupation numbers 
     1.0000   1.0000   1.0000   1.0000   1.0000   1.0000   1.0000   1.0000
     1.0000   1.0000   1.0000   1.0000   1.0000   1.0000   1.0000   1.0000
     1.0000   1.0000   1.0000   1.0000   1.0000   1.0000   1.0000   1.0000
     1.0000   1.0000   1.0000   1.0000   1.0000   1.0000   1.0000   1.0000
     1.0000   1.0000   1.0000   1.0000   1.0000   1.0000   1.0000   1.0000
     1.0000   1.0000   1.0000   1.0000   1.0000   1.0000   1.0000   1.0000
     1.0000   1.0000   1.0000   1.0000   1.0000   1.0000   1.0000   1.0000
     1.0000   1.0000   1.0000   1.0000   1.0000   1.0000   1.0000   1.0000
     1.0000   1.0000   1.0000   1.0000   1.0000   1.0000   1.0000   1.0000
     1.0000   1.0000   1.0000   1.0000   1.0000   1.0000   1.0000   1.0000
     1.0000   1.0000   1.0000   1.0000   1.0000   1.0000   1.0000   1.0000
     1.0000   1.0000   1.0000   1.0000   1.0000   1.0000   1.0000   1.0000
     1.0000   1.0000   1.0000   1.0000   1.0000   1.0000   1.0000   1.0000
     1.0000   1.0000   1.0000   1.0000   1.0000   1.0000   1.0000   1.0000
     1.0000   1.0000   1.0000   1.0000   1.0000   1.0000   1.0000   1.0000
     1.0000   1.0000   1.0000   1.0000   1.0000   1.0000   1.0000   1.0000
     1.0000   1.0000   1.0000   1.0000   1.0000   1.0000   1.0000   1.0000
     1.0000   1.0000   1.0000   1.0000   1.0000   1.0000   1.0000   1.0000
     1.0000   1.0000   1.0000   1.0000   1.0000   1.0000   1.0000   1.0000
     1.0000   1.0000   1.0000   1.0000   1.0000   1.0000   1.0000   1.0000
     1.0000   1.0000   0.9996   0.9996   0.9995   0.9994   0.9976   0.9974
     0.9973   0.9967   0.9944   0.9917   0.9907   0.9892   0.9878   0.9873
     0.9868   0.9852   0.9843   0.9831   0.9828   0.9795   0.9793   0.9771
     0.9756   0.9742   0.9729   0.9690   0.9663   0.9645   0.9611   0.9566
     0.9474   0.9357   0.9104   0.9014   0.8682   0.8594   0.8519   0.8467
     0.8420   0.8313   0.8301   0.8231   0.8190   0.8126   0.8037   0.7992
     0.7707   0.7688   0.7594   0.7532   0.7447   0.7353   0.7346   0.7305
     0.6755   0.6714   0.6620   0.6544   0.1569   0.1423   0.1400   0.1268
     0.0703   0.0565   0.0525   0.0240   0.0154   0.0112   0.0067   0.0045
     0.0043   0.0026   0.0017   0.0008   0.0001   0.0001   0.0000   0.0000
     0.0000   0.0000   0.0000   0.0000   0.0000   0.0000   0.0000   0.0000
     0.0000   0.0000   0.0000   0.0000   0.0000   0.0000   0.0000   0.0000
     0.0000   0.0000   0.0000

          k = 0.2500 0.0000 0.0000 ( 65257 PWs)   bands (ev):

   -92.7130 -92.6661 -92.5677 -92.5203 -92.4641 -92.4198 -92.4021 -92.2812
   -56.0664 -56.0530 -55.9247 -55.9137 -55.9077 -55.9005 -55.8683 -55.8367
   -55.8206 -55.8194 -55.8164 -55.7710 -55.7510 -55.7146 -55.6945 -55.6643
   -55.6557 -55.6078 -55.6076 -55.6049 -55.5965 -55.5563 -55.5324 -55.4467
   -31.2879 -31.2720 -31.1282 -31.0423 -30.9274 -30.8969 -30.8580 -30.8117
   -29.8583 -29.8171 -29.7900 -29.6836 -15.0604 -15.0158 -14.9468 -14.8016
[...]
     0.3550   0.3250   0.2035   0.0784   0.0461   0.0216   0.0058   0.0048
     0.0003   0.0001   0.0000   0.0000   0.0000   0.0000   0.0000   0.0000
     0.0000   0.0000   0.0000   0.0000   0.0000   0.0000   0.0000   0.0000
     0.0000   0.0000   0.0000   0.0000   0.0000   0.0000   0.0000   0.0000
     0.0000   0.0000   0.0000

          k =-0.5000 0.0000 0.0000 ( 65180 PWs)   bands (ev):

   -92.7130 -92.6661 -92.5677 -92.5203 -92.4641 -92.4198 -92.4021 -92.2812
   -56.0664 -56.0530 -55.9247 -55.9137 -55.9077 -55.9005 -55.8683 -55.8367
   -55.8206 -55.8194 -55.8164 -55.7710 -55.7510 -55.7146 -55.6945 -55.6643
   -55.6557 -55.6078 -55.6076 -55.6049 -55.5965 -55.5563 -55.5324 -55.4467
   -31.2857 -31.2742 -31.1279 -31.0427 -30.9271 -30.8962 -30.8587 -30.8120
   -29.8572 -29.8182 -29.7896 -29.6841 -15.0264 -14.9731 -14.9121 -14.7953
   -14.7005 -14.5548 -14.4122 -14.2526 -14.1438 -14.1222 -14.1189 -14.0523
   -14.0031 -13.9822 -13.9709 -13.9186 -13.8997 -13.8909 -13.8458 -13.8076
   -13.7168 -13.5670 -13.5195 -13.5043 -13.4940 -13.4003 -13.3758 -13.3156
   -13.2796 -13.2561 -13.2256 -13.0662 -13.0530 -13.0276 -13.0178 -12.9601
   -12.9413 -12.9277 -12.9254 -12.7641 -12.7513 -12.7370 -12.7216 -12.7111
   -12.6743 -12.6522 -12.6430 -12.5528 -12.4234 -12.3384 -12.2759 -12.1960
   -12.1609 -11.7895 -11.7681 -11.7611 -11.7472 -11.7286 -11.6872 -11.6248
   -11.6064 -11.5729 -11.5306 -11.5214 -11.5055  -2.5921  -2.5538  -2.3912
    -2.3515  -2.0369  -1.9600  -1.8161  -1.6969  -1.6572  -1.6106  -1.5649
    -1.5402  -1.4164  -1.3723  -1.3556  -1.2744  -1.2387  -1.2270  -1.1922
    -1.1822  -1.1307  -1.0644  -1.0373  -0.9998  -0.9069  -0.8648  -0.8148
    -0.7831  -0.7624  -0.7274  -0.6823  -0.6575  -0.6184  -0.5106  -0.4507
    -0.3722  -0.3118  -0.1545  -0.1180  -0.0677  -0.0074   0.0362   0.0499
     0.1908   0.2208   0.2588   0.4287   0.5290   0.5789   0.6743   0.7305
     0.8491   0.8632   0.9946   1.0217   1.0759   1.1106   1.1437   1.1529
     1.2061   1.2226   1.2928   1.3397   1.3842   1.4045   1.6944   1.7125
     1.7274   1.7519   1.8505   1.8614   1.8770   1.8861   1.9149   1.9281
     1.9637   1.9864   2.0111   2.0660   2.0824   2.1364   2.1559   2.2124
     2.3191   2.4178   2.4217   2.4490   2.4945   2.5068   2.5905   2.6145
     2.6484   2.7151   2.7223   2.7316   2.7614   2.8244   2.8702   2.9271
     2.9437   2.9889   2.9945   2.9967   3.0055   3.0221   3.0337   3.0460
     3.0525   3.0714   3.0746   3.0987   3.1174   3.1224   3.2513   3.2576
     4.0529   4.1237   4.1882   4.3062   4.7802   4.8570   5.0345   5.0561
     5.4778   5.5029   5.5988   5.6443   6.0230   6.0438   6.3776   6.5369
     6.7904   6.9983   7.2731   7.3076   7.4065   7.4696   7.7661   7.7905
     7.8771   8.1123   8.2417   8.2585   8.3995   8.4351   8.5159   8.6171
     8.7524   8.8075   8.9041

     occupation numbers 
     1.0000   1.0000   1.0000   1.0000   1.0000   1.0000   1.0000   1.0000
     1.0000   1.0000   1.0000   1.0000   1.0000   1.0000   1.0000   1.0000
     1.0000   1.0000   1.0000   1.0000   1.0000   1.0000   1.0000   1.0000
     1.0000   1.0000   1.0000   1.0000   1.0000   1.0000   1.0000   1.0000
     1.0000   1.0000   1.0000   1.0000   1.0000   1.0000   1.0000   1.0000
     1.0000   1.0000   1.0000   1.0000   1.0000   1.0000   1.0000   1.0000
     1.0000   1.0000   1.0000   1.0000   1.0000   1.0000   1.0000   1.0000
     1.0000   1.0000   1.0000   1.0000   1.0000   1.0000   1.0000   1.0000
     1.0000   1.0000   1.0000   1.0000   1.0000   1.0000   1.0000   1.0000
     1.0000   1.0000   1.0000   1.0000   1.0000   1.0000   1.0000   1.0000
     1.0000   1.0000   1.0000   1.0000   1.0000   1.0000   1.0000   1.0000
     1.0000   1.0000   1.0000   1.0000   1.0000   1.0000   1.0000   1.0000
     1.0000   1.0000   1.0000   1.0000   1.0000   1.0000   1.0000   1.0000
     1.0000   1.0000   1.0000   1.0000   1.0000   1.0000   1.0000   1.0000
     1.0000   1.0000   1.0000   1.0000   1.0000   1.0000   1.0000   1.0000
     1.0000   1.0000   1.0000   1.0000   1.0000   1.0000   1.0000   1.0000
     1.0000   1.0000   1.0000   1.0000   1.0000   1.0000   1.0000   1.0000
     1.0000   1.0000   1.0000   1.0000   1.0000   1.0000   1.0000   1.0000
     1.0000   1.0000   1.0000   1.0000   1.0000   1.0000   1.0000   1.0000
     1.0000   1.0000   1.0000   1.0000   1.0000   1.0000   1.0000   0.9999
     0.9999   0.9999   0.9997   0.9997   0.9996   0.9995   0.9994   0.9993
     0.9991   0.9991   0.9987   0.9983   0.9979   0.9977   0.9919   0.9913
     0.9908   0.9898   0.9852   0.9845   0.9836   0.9831   0.9812   0.9802
     0.9776   0.9757   0.9735   0.9681   0.9664   0.9599   0.9573   0.9492
     0.9303   0.9085   0.9076   0.9007   0.8884   0.8848   0.8589   0.8507
     0.8387   0.8133   0.8104   0.8067   0.7943   0.7666   0.7453   0.7175
     0.7091   0.6857   0.6827   0.6816   0.6769   0.6680   0.6617   0.6550
     0.6515   0.6410   0.6392   0.6257   0.6152   0.6123   0.5374   0.5337
     0.1365   0.1148   0.0973   0.0705   0.0148   0.0110   0.0053   0.0049
     0.0007   0.0006   0.0003   0.0003   0.0000   0.0000   0.0000   0.0000
     0.0000   0.0000   0.0000   0.0000   0.0000   0.0000   0.0000   0.0000
     0.0000   0.0000   0.0000   0.0000   0.0000   0.0000   0.0000   0.0000
     0.0000   0.0000   0.0000

          k =-0.2500 0.2500 0.0000 ( 65198 PWs)   bands (ev):

   -92.7130 -92.6661 -92.5677 -92.5203 -92.4641 -92.4198 -92.4021 -92.2812
   -56.0664 -56.0530 -55.9247 -55.9137 -55.9077 -55.9005 -55.8683 -55.8367
   -55.8206 -55.8194 -55.8164 -55.7710 -55.7510 -55.7146 -55.6945 -55.6643
   -55.6557 -55.6078 -55.6076 -55.6049 -55.5965 -55.5563 -55.5324 -55.4467
   -31.2877 -31.2719 -31.1284 -31.0425 -30.9269 -30.8965 -30.8584 -30.8121
   -29.8577 -29.8168 -29.7906 -29.6840 -15.0291 -14.9847 -14.9121 -14.7965
   -14.6785 -14.5558 -14.4721 -14.2584 -14.1248 -14.0968 -14.0790 -14.0345
   -14.0082 -13.9900 -13.9824 -13.9594 -13.9129 -13.8440 -13.8302 -13.6833
   -13.6546 -13.6226 -13.6059 -13.5345 -13.5078 -13.4468 -13.4167 -13.2935
   -13.2585 -13.2330 -13.1576 -13.1136 -13.0513 -13.0183 -12.9966 -12.9585
   -12.9394 -12.9123 -12.8541 -12.8028 -12.7846 -12.7732 -12.7433 -12.7209
   -12.7045 -12.6979 -12.6806 -12.4866 -12.4540 -12.4142 -12.2943 -12.1257
   -12.0638 -11.8096 -11.7882 -11.7613 -11.7489 -11.7078 -11.6732 -11.6502
   -11.6284 -11.6061 -11.5226 -11.4769 -11.4676  -2.6767  -2.4698  -2.3486
    -2.2580  -2.1420  -2.0760  -1.8701  -1.7275  -1.7093  -1.6764  -1.5867
    -1.5522  -1.4584  -1.4238  -1.3981  -1.2563  -1.2058  -1.1826  -1.1261
    -1.1013  -1.0400  -1.0206  -0.9806  -0.9522  -0.9119  -0.8476  -0.8004
    -0.7291  -0.6681  -0.6427  -0.5933  -0.5634  -0.5185  -0.4587  -0.4051
    -0.3743  -0.2668  -0.2412  -0.2224  -0.1801  -0.1197  -0.0398  -0.0057
     0.0406   0.1020   0.1271   0.3814   0.5601   0.5922   0.6379   0.6926
     0.7404   0.7923   0.8667   0.8939   1.1764   1.2835   1.3228   1.3559
     1.3636   1.4022   1.4182   1.4659   1.4970   1.5084   1.5349   1.5842
     1.6002   1.6384   1.6633   1.7053   1.7946   1.8086   1.8327   1.8614
     1.8928   1.9356   1.9789   2.0935   2.2005   2.2240   2.2714   2.2900
     2.3542   2.3955   2.4122   2.4278   2.4428   2.4584   2.4720   2.5713
     2.6140   2.7044   2.8726   2.8801   2.8944   2.9032   2.9147   2.9284
     2.9371   2.9545   2.9641   2.9764   2.9877   2.9979   3.0071   3.0152
     3.0499   3.0598   3.0667   3.1009   3.3925   3.4734   3.5424   3.6086
     3.6341   3.8360   3.9506   4.2952   4.4960   4.7122   4.9818   5.1614
     5.6409   5.6945   5.7862   5.8226   5.8865   6.1554   6.1665   6.1945
     6.8891   7.0133   7.1731   7.3237   7.5575   7.6049   7.6646   7.8729
     7.9131   8.0499   8.2199   8.2343   8.3353   8.4227   8.4389   8.5275
     8.5677   8.6690   8.9190

     occupation numbers 
     1.0000   1.0000   1.0000   1.0000   1.0000   1.0000   1.0000   1.0000
     1.0000   1.0000   1.0000   1.0000   1.0000   1.0000   1.0000   1.0000
     1.0000   1.0000   1.0000   1.0000   1.0000   1.0000   1.0000   1.0000
     1.0000   1.0000   1.0000   1.0000   1.0000   1.0000   1.0000   1.0000
     1.0000   1.0000   1.0000   1.0000   1.0000   1.0000   1.0000   1.0000
     1.0000   1.0000   1.0000   1.0000   1.0000   1.0000   1.0000   1.0000
     1.0000   1.0000   1.0000   1.0000   1.0000   1.0000   1.0000   1.0000
     1.0000   1.0000   1.0000   1.0000   1.0000   1.0000   1.0000   1.0000
     1.0000   1.0000   1.0000   1.0000   1.0000   1.0000   1.0000   1.0000
     1.0000   1.0000   1.0000   1.0000   1.0000   1.0000   1.0000   1.0000
     1.0000   1.0000   1.0000   1.0000   1.0000   1.0000   1.0000   1.0000
     1.0000   1.0000   1.0000   1.0000   1.0000   1.0000   1.0000   1.0000
     1.0000   1.0000   1.0000   1.0000   1.0000   1.0000   1.0000   1.0000
     1.0000   1.0000   1.0000   1.0000   1.0000   1.0000   1.0000   1.0000
     1.0000   1.0000   1.0000   1.0000   1.0000   1.0000   1.0000   1.0000
     1.0000   1.0000   1.0000   1.0000   1.0000   1.0000   1.0000   1.0000
     1.0000   1.0000   1.0000   1.0000   1.0000   1.0000   1.0000   1.0000
     1.0000   1.0000   1.0000   1.0000   1.0000   1.0000   1.0000   1.0000
     1.0000   1.0000   1.0000   1.0000   1.0000   1.0000   1.0000   1.0000
     1.0000   1.0000   1.0000   1.0000   1.0000   1.0000   1.0000   1.0000
     0.9999   0.9999   0.9999   0.9998   0.9993   0.9987   0.9984   0.9982
     0.9981   0.9977   0.9976   0.9970   0.9965   0.9963   0.9959   0.9949
     0.9945   0.9936   0.9929   0.9916   0.9880   0.9873   0.9861   0.9845
     0.9826   0.9797   0.9763   0.9651   0.9510   0.9473   0.9393   0.9359
     0.9231   0.9138   0.9099   0.9061   0.9023   0.8982   0.8946   0.8652
     0.8509   0.8176   0.7442   0.7406   0.7337   0.7294   0.7237   0.7168
     0.7125   0.7036   0.6987   0.6923   0.6863   0.6809   0.6760   0.6717
     0.6528   0.6474   0.6436   0.6245   0.4540   0.4068   0.3676   0.3312
     0.3176   0.2194   0.1725   0.0727   0.0397   0.0190   0.0067   0.0031
     0.0003   0.0002   0.0001   0.0001   0.0001   0.0000   0.0000   0.0000
     0.0000   0.0000   0.0000   0.0000   0.0000   0.0000   0.0000   0.0000
     0.0000   0.0000   0.0000   0.0000   0.0000   0.0000   0.0000   0.0000
     0.0000   0.0000   0.0000

          k =-0.5000 0.2500 0.0000 ( 65138 PWs)   bands (ev):

   -92.7130 -92.6661 -92.5677 -92.5203 -92.4641 -92.4198 -92.4021 -92.2812
   -56.0664 -56.0530 -55.9247 -55.9137 -55.9077 -55.9005 -55.8683 -55.8367
   -55.8206 -55.8194 -55.8164 -55.7710 -55.7510 -55.7146 -55.6945 -55.6643
   -55.6557 -55.6078 -55.6076 -55.6049 -55.5965 -55.5563 -55.5324 -55.4467
   -31.2855 -31.2741 -31.1281 -31.0429 -30.9266 -30.8958 -30.8592 -30.8124
   -29.8566 -29.8178 -29.7902 -29.6844 -14.9934 -14.9469 -14.8693 -14.7640
   -14.7261 -14.6023 -14.5134 -14.3740 -14.0755 -14.0439 -14.0315 -13.9903
   -13.9833 -13.9617 -13.9426 -13.9050 -13.8818 -13.8716 -13.8333 -13.8086
   -13.7094 -13.6490 -13.5996 -13.5922 -13.5581 -13.4805 -13.4418 -13.3488
   -13.2939 -13.2122 -13.1752 -13.0777 -13.0383 -13.0274 -12.9963 -12.9619
   -12.9506 -12.8923 -12.8853 -12.7818 -12.7679 -12.7537 -12.7302 -12.7014
   -12.6880 -12.6339 -12.6263 -12.5509 -12.4041 -12.3337 -12.2560 -12.1826
   -12.1589 -11.7824 -11.7698 -11.7555 -11.7433 -11.7222 -11.6919 -11.6109
   -11.6033 -11.5789 -11.5451 -11.5170 -11.5079  -2.4492  -2.4079  -2.2608
    -2.2181  -2.0566  -1.9788  -1.8402  -1.7027  -1.6452  -1.6186  -1.5807
    -1.5430  -1.4618  -1.3460  -1.2892  -1.2658  -1.2384  -1.1923  -1.1563
    -1.1341  -1.0945  -1.0785  -1.0183  -0.9832  -0.9486  -0.9145  -0.8858
    -0.8265  -0.7989  -0.7570  -0.7214  -0.6166  -0.5922  -0.4923  -0.4427
    -0.4079  -0.3435  -0.2706  -0.2352  -0.1325  -0.0940  -0.0345   0.0159
     0.0603   0.1127   0.1385   0.1706   0.2203   0.2617   0.5953   0.6487
     0.6985   0.7097   1.0086   1.0715   1.1440   1.1721   1.3441   1.3772
     1.4159   1.4265   1.4443   1.4621   1.5313   1.5811   1.6189   1.6546
     1.7719   1.8158   1.8367   1.8474   1.8821   1.9123   1.9310   1.9403
     1.9570   1.9830   2.0245   2.0411   2.0763   2.1022   2.1348   2.1884
     2.3114   2.4066   2.4154   2.4328   2.4595   2.5062   2.5422   2.6056
     2.6436   2.6496   2.6903   2.7191   2.7442   2.8242   2.8690   2.8821
     2.8881   2.9099   2.9294   2.9417   2.9572   2.9714   2.9945   3.0066
     3.0159   3.0246   3.0320   3.0445   3.5749   3.6150   3.7640   3.7835
     4.0619   4.1407   4.1948   4.3919   4.7744   4.8747   5.0357   5.0735
     5.4030   5.4223   5.5839   5.6262   5.7362   5.7997   6.3865   6.4757
     6.4997   6.6748   7.3427   7.4252   7.5799   7.7075   7.7875   7.8486
     7.8814   8.0186   8.3702   8.4654   8.5131   8.5411   8.5600   8.5792
     8.6607   8.7257   8.7550

     occupation numbers 
     1.0000   1.0000   1.0000   1.0000   1.0000   1.0000   1.0000   1.0000
     1.0000   1.0000   1.0000   1.0000   1.0000   1.0000   1.0000   1.0000
     1.0000   1.0000   1.0000   1.0000   1.0000   1.0000   1.0000   1.0000
     1.0000   1.0000   1.0000   1.0000   1.0000   1.0000   1.0000   1.0000
     1.0000   1.0000   1.0000   1.0000   1.0000   1.0000   1.0000   1.0000
     1.0000   1.0000   1.0000   1.0000   1.0000   1.0000   1.0000   1.0000
     1.0000   1.0000   1.0000   1.0000   1.0000   1.0000   1.0000   1.0000
     1.0000   1.0000   1.0000   1.0000   1.0000   1.0000   1.0000   1.0000
     1.0000   1.0000   1.0000   1.0000   1.0000   1.0000   1.0000   1.0000
     1.0000   1.0000   1.0000   1.0000   1.0000   1.0000   1.0000   1.0000
     1.0000   1.0000   1.0000   1.0000   1.0000   1.0000   1.0000   1.0000
     1.0000   1.0000   1.0000   1.0000   1.0000   1.0000   1.0000   1.0000
     1.0000   1.0000   1.0000   1.0000   1.0000   1.0000   1.0000   1.0000
     1.0000   1.0000   1.0000   1.0000   1.0000   1.0000   1.0000   1.0000
     1.0000   1.0000   1.0000   1.0000   1.0000   1.0000   1.0000   1.0000
     1.0000   1.0000   1.0000   1.0000   1.0000   1.0000   1.0000   1.0000
     1.0000   1.0000   1.0000   1.0000   1.0000   1.0000   1.0000   1.0000
     1.0000   1.0000   1.0000   1.0000   1.0000   1.0000   1.0000   1.0000
     1.0000   1.0000   1.0000   1.0000   1.0000   1.0000   1.0000   1.0000
     1.0000   1.0000   1.0000   1.0000   1.0000   1.0000   1.0000   1.0000
     0.9999   0.9999   0.9997   0.9996   0.9994   0.9993   0.9983   0.9980
     0.9976   0.9975   0.9973   0.9970   0.9960   0.9950   0.9941   0.9931
     0.9890   0.9870   0.9859   0.9853   0.9833   0.9813   0.9800   0.9794
     0.9781   0.9760   0.9723   0.9707   0.9670   0.9641   0.9601   0.9528
     0.9318   0.9112   0.9091   0.9048   0.8979   0.8850   0.8743   0.8538
     0.8405   0.8383   0.8231   0.8117   0.8015   0.7667   0.7459   0.7396
     0.7367   0.7261   0.7163   0.7101   0.7022   0.6948   0.6827   0.6763
     0.6713   0.6666   0.6626   0.6558   0.3495   0.3278   0.2523   0.2431
     0.1336   0.1100   0.0956   0.0548   0.0151   0.0103   0.0053   0.0045
     0.0010   0.0009   0.0004   0.0003   0.0002   0.0001   0.0000   0.0000
     0.0000   0.0000   0.0000   0.0000   0.0000   0.0000   0.0000   0.0000
     0.0000   0.0000   0.0000   0.0000   0.0000   0.0000   0.0000   0.0000
     0.0000   0.0000   0.0000

     the Fermi energy is     3.3146 ev

!    total energy              =   -4441.66925820 Ry
     estimated scf accuracy    <          8.1E-09 Ry
     smearing contrib. (-TS)   =      -1.15466481 Ry
     internal energy E=F+TS    =   -4440.51459339 Ry

     The total energy is F=E-TS. E is the sum of the following terms:
     one-electron contribution =  -20802.96747104 Ry
     hartree contribution      =   10533.30251539 Ry
     xc contribution           =    -694.18584506 Ry
     ewald contribution        =    6799.50496993 Ry
     one-center paw contrib.   =    -276.16876261 Ry
      -> PAW hartree energy AE =      25.14321018 Ry
      -> PAW hartree energy PS =     -25.02730559 Ry
      -> PAW xc energy AE      =     -16.51472044 Ry
      -> PAW xc energy PS      =       6.87404045 Ry
      -> total E_H with PAW    =   10533.41841998 Ry
      -> total E_XC with PAW   =    -703.82652505 Ry

     convergence has been achieved in  48 iterations

     Writing all to output data dir /bsuhome/zayahcortright/scratch/pwscf.save/
 
     init_run     :      7.71s CPU      8.39s WALL (       1 calls)
     electrons    :    768.98s CPU    855.43s WALL (       1 calls)

     Called by init_run:
     wfcinit      :      6.09s CPU      6.30s WALL (       1 calls)
     wfcinit:atom :      0.04s CPU      0.06s WALL (       5 calls)
     wfcinit:wfcr :      5.77s CPU      5.91s WALL (       5 calls)
     potinit      :      0.19s CPU      0.21s WALL (       1 calls)
     hinit0       :      0.51s CPU      0.75s WALL (       1 calls)

     Called by electrons:
     c_bands      :    621.77s CPU    634.76s WALL (      48 calls)
     sum_band     :    106.69s CPU    147.76s WALL (      48 calls)
     v_of_rho     :      5.78s CPU      6.27s WALL (      49 calls)
     v_h          :      0.45s CPU      0.46s WALL (      49 calls)
     v_xc         :      5.33s CPU      5.81s WALL (      49 calls)
     newd         :     19.26s CPU     50.60s WALL (      49 calls)
     PAW_pot      :      1.63s CPU      1.66s WALL (      49 calls)
     mix_rho      :     13.53s CPU     14.07s WALL (      48 calls)

     Called by c_bands:
     init_us_2    :      6.70s CPU      6.78s WALL (     485 calls)
     init_us_2:cp :      6.70s CPU      6.78s WALL (     485 calls)
     cegterg      :    586.72s CPU    599.33s WALL (     240 calls)

     Called by sum_band:
     sum_band:wei :      0.34s CPU      0.35s WALL (      48 calls)
     sum_band:loo :     86.70s CPU     87.39s WALL (      48 calls)
     sum_band:buf :      1.43s CPU      1.49s WALL (     240 calls)
     sum_band:ini :      3.10s CPU      3.12s WALL (     240 calls)
     sum_band:cal :     19.33s CPU     19.38s WALL (     240 calls)
     sum_band:bec :      0.57s CPU      0.61s WALL (     240 calls)
     addusdens    :     17.67s CPU     57.97s WALL (      48 calls)
                                        0.00s GPU  (      48 calls)
     addusd:skk   :      0.32s CPU      2.23s WALL (     192 calls)
                                        0.00s GPU  (     192 calls)

     Called by *egterg:
     cdiaghg      :     55.30s CPU     55.56s WALL (    1297 calls)
     cegterg:over :     49.05s CPU     49.27s WALL (    1057 calls)
     cegterg:upda :     49.22s CPU     50.34s WALL (    1057 calls)
     cegterg:last :     69.98s CPU     70.34s WALL (     435 calls)
     cdiaghg:chol :      3.17s CPU      3.19s WALL (    1297 calls)
     cdiaghg:inve :      3.51s CPU      3.53s WALL (    1297 calls)
     cdiaghg:para :      7.14s CPU      7.19s WALL (    2594 calls)
     h_psi        :    296.47s CPU    301.39s WALL (    1302 calls)
     s_psi        :     38.90s CPU     39.02s WALL (    1302 calls)
     g_psi        :      2.74s CPU      2.76s WALL (    1057 calls)

     Called by h_psi:
     h_psi:calbec :     44.89s CPU     45.08s WALL (    1302 calls)
     vloc_psi     :    206.70s CPU    208.70s WALL (    1302 calls)
     add_vuspsi   :     38.23s CPU     38.43s WALL (    1302 calls)

     General routines
     calbec       :     64.21s CPU     64.46s WALL (    1542 calls)
     fft          :      4.90s CPU      4.96s WALL (     635 calls)
     ffts         :      4.60s CPU      4.65s WALL (    5182 calls)
     fftw         :    176.05s CPU    177.57s WALL (  324258 calls)
     interpolate  :      0.43s CPU      0.44s WALL (      49 calls)
 
     Parallel routines

     PAW routines
     PAW_pot      :      1.63s CPU      1.66s WALL (      49 calls)
 
     PWSCF        :  12m58.40s CPU  14m28.54s WALL

 
   This run was terminated on:   3: 3:59  22Jun2024            

=------------------------------------------------------------------------------=
   JOB DONE.
=------------------------------------------------------------------------------=
