
     Program PWSCF v.7.2 starts on 21Jun2024 at 14:30:33 

     This program is part of the open-source Quantum ESPRESSO suite
     for quantum simulation of materials; please cite
         "P. Giannozzi et al., J. Phys.:Condens. Matter 21 395502 (2009);
         "P. Giannozzi et al., J. Phys.:Condens. Matter 29 465901 (2017);
         "P. Giannozzi et al., J. Chem. Phys. 152 154105 (2020);
          URL http://www.quantum-espresso.org", 
     in publications or presentations arising from this work. More details at
     http://www.quantum-espresso.org/quote

     Parallel version (MPI & OpenMP), running on      48 processor cores
     Number of MPI processes:                48
     Threads/MPI process:                     1

     MPI processes distributed on     1 nodes
     33230 MiB available memory on the printing compute node when the environment starts
 
     Reading input from espresso.pwi
Warning: card &CELL ignored
Warning: card / ignored
Warning: card &FCP ignored
Warning: card / ignored
Warning: card &RISM ignored
Warning: card / ignored

     Current dimensions of program PWSCF are:
     Max number of different atomic species (ntypx) = 10
     Max number of k-points (npk) =  40000
     Max angular momentum in pseudopotentials (lmaxx) =  4
     file O.pbe-n-kjpaw_psl.0.1.UPF: wavefunction(s)  2P renormalized
     signal trapping enabled: kill the code with -SIGUSR1 to stop cleanly the simulation 
 
     K-points division:     npool     =       2
     R & G space division:  proc/nbgrp/npool/nimage =      24
     Subspace diagonalization in iterative solution of the eigenvalue problem:
     one sub-group per band group will be used
     scalapack distributed-memory algorithm (size of sub-group:  3*  3 procs)

 
     Parallelization info
     --------------------
     sticks:   dense  smooth     PW     G-vecs:    dense   smooth      PW
     Min         350     175     47                61430    21716    3036
     Max         351     177     48                61449    21727    3041
     Sum        8421    4205   1137              1474595   521381   72913
 
     Using Slab Decomposition
 


     bravais-lattice index     =            0
     lattice parameter (alat)  =      14.8599  a.u.
     unit-cell volume          =    8305.1283 (a.u.)^3
     number of atoms/cell      =           50
     number of atomic types    =            4
     number of electrons       =       431.00
     number of Kohn-Sham states=          259
     kinetic-energy cutoff     =      60.0000  Ry
     charge density cutoff     =     480.0000  Ry
     scf convergence threshold =      1.0E-08
     mixing beta               =       0.1500
     number of iterations used =            8  local-TF  mixing
     Exchange-correlation= PBE
                           (   1   4   3   4   0   0   0)

     celldm(1)=  14.859904  celldm(2)=   0.000000  celldm(3)=   0.000000
     celldm(4)=   0.000000  celldm(5)=   0.000000  celldm(6)=   0.000000

     crystal axes: (cart. coord. in units of alat)
               a(1) = (   1.000000   0.000000   0.000000 )  
               a(2) = (   0.000000   1.000000   0.000000 )  
               a(3) = (   0.000000   0.000000   2.531036 )  

     reciprocal axes: (cart. coord. in units 2 pi/alat)
               b(1) = (  1.000000  0.000000  0.000000 )  
               b(2) = (  0.000000  1.000000  0.000000 )  
               b(3) = (  0.000000  0.000000  0.395095 )  


     PseudoPot. # 1 for Sr read from file:
     /bsuhome/zayahcortright/q-e/pseudo/Sr_pbe_v1.uspp.F.UPF
     MD5 check sum: 6b418c05fbe9db5448babca5e47b7a5b
     Pseudo is Ultrasoft + core correction, Zval = 10.0
     Generated by new atomic code, or converted to UPF format
     Using radial grid of  883 points,  6 beta functions with: 
                l(1) =   0
                l(2) =   0
                l(3) =   1
                l(4) =   1
                l(5) =   2
                l(6) =   2
     Q(r) pseudized with  6 coefficients,  rinner =    1.400   1.400   1.400
                                                       1.400   1.400

     PseudoPot. # 2 for O  read from file:
     /bsuhome/zayahcortright/q-e/pseudo/O.pbe-n-kjpaw_psl.0.1.UPF
     MD5 check sum: 0234752ac141de4415c5fc33072bef88
     Pseudo is Projector augmented-wave + core cor, Zval =  6.0
     Generated using "atomic" code by A. Dal Corso  v.5.0.99 svn rev. 10869
     Shape of augmentation charge: BESSEL
     Using radial grid of 1095 points,  4 beta functions with: 
                l(1) =   0
                l(2) =   0
                l(3) =   1
                l(4) =   1
     Q(r) pseudized with 0 coefficients 


     PseudoPot. # 3 for Co read from file:
     /bsuhome/zayahcortright/q-e/pseudo/Co_pbe_v1.2.uspp.F.UPF
     MD5 check sum: 5f91765df6ddd3222702df6e7b74a16d
     Pseudo is Ultrasoft + core correction, Zval = 17.0
     Generated by new atomic code, or converted to UPF format
     Using radial grid of  863 points,  6 beta functions with: 
                l(1) =   0
                l(2) =   0
                l(3) =   1
                l(4) =   1
                l(5) =   2
                l(6) =   2
     Q(r) pseudized with  8 coefficients,  rinner =    1.200   1.200   1.200
                                                       1.200   1.200

     PseudoPot. # 4 for H  read from file:
     /bsuhome/zayahcortright/q-e/pseudo/H.pbe-rrkjus_psl.1.0.0.UPF
     MD5 check sum: f52b6d4d1c606e5624b1dc7b2218f220
     Pseudo is Ultrasoft, Zval =  1.0
     Generated using "atomic" code by A. Dal Corso  v.5.1
     Using radial grid of  929 points,  2 beta functions with: 
                l(1) =   0
                l(2) =   0
     Q(r) pseudized with 0 coefficients 


     atomic species   valence    mass     pseudopotential
        Sr            10.00    87.62000     Sr( 1.00)
        O              6.00    15.99900     O ( 1.00)
        Co            17.00    58.93319     Co( 1.00)
        H              1.00     1.00800     H ( 1.00)

     No symmetry found


                                    s                        frac. trans.

      isym =  1     identity                                     

 cryst.   s( 1) = (     1          0          0      )
                  (     0          1          0      )
                  (     0          0          1      )

 cart.    s( 1) = (  1.0000000  0.0000000  0.0000000 )
                  (  0.0000000  1.0000000  0.0000000 )
                  (  0.0000000  0.0000000  1.0000000 )


   Cartesian axes

     site n.     atom                  positions (alat units)
         1           Sr  tau(   1) = (   0.2508693   0.7491307   1.7574407  )
         2           O   tau(   2) = (   0.4985141   0.5014859   1.7715967  )
         3           Sr  tau(   3) = (   0.7482398   0.7454518   1.7648669  )
         4           Sr  tau(   4) = (   0.7441748   0.2558252   1.7667843  )
         5           Sr  tau(   5) = (   0.2508693   0.7491307   1.2696799  )
         6           Sr  tau(   6) = (   0.2508693   0.7491307   0.7632319  )
         7           Co  tau(   7) = (   0.4998914   0.5001086   1.0164559  )
         8           Co  tau(   8) = (   0.4936915   0.5063085   1.5135603  )
         9           O   tau(   9) = (   0.4988895   0.7610401   1.0164559  )
        10           O   tau(  10) = (   0.2389599   0.5011105   1.0164559  )
        11           O   tau(  11) = (   0.0070918   0.7374880   1.0164559  )
        12           O   tau(  12) = (   0.0088340   0.7405089   1.5135603  )
        13           O   tau(  13) = (   0.5066944   0.7415376   1.5135603  )
        14           O   tau(  14) = (   0.2584624   0.4933056   1.5135603  )
        15           O   tau(  15) = (   0.4985141   0.5014859   0.7773880  )
        16           O   tau(  16) = (   0.4985141   0.5014859   1.2555238  )
        17           Sr  tau(  17) = (   0.7482398   0.7454518   0.7706582  )
        18           Sr  tau(  18) = (   0.7482398   0.7454518   1.2622536  )
        19           Sr  tau(  19) = (   0.7441748   0.2558252   0.7725755  )
        20           Sr  tau(  20) = (   0.7441748   0.2558252   1.2603363  )
        21           O   tau(  21) = (   0.7322655   0.0078049   1.5135603  )
        22           O   tau(  22) = (   0.7558175   0.4996027   1.5135603  )
        23           O   tau(  23) = (   0.5003973   0.2441825   1.5135603  )
        24           O   tau(  24) = (   0.7527966   0.4978604   1.0164559  )
        25           O   tau(  25) = (   0.5021396   0.2472034   1.0164559  )
        26           O   tau(  26) = (   0.7517679   0.0000000   1.0164559  )
        27           O   tau(  27) = (   0.0114961   0.4948124   1.7455321  )
        28           O   tau(  28) = (   0.0048226   0.0077944   1.7715967  )
        29           Sr  tau(  29) = (   0.2545482   0.2517602   1.7648669  )
        30           O   tau(  30) = (   0.5048017   0.0015068   1.7786929  )
        31           Co  tau(  31) = (   0.0056869   0.5006215   1.0164559  )
        32           Co  tau(  32) = (   0.0065315   0.4997770   1.5135603  )
        33           Co  tau(  33) = (   0.0061999   0.0064171   1.0164559  )
        34           Co  tau(  34) = (   0.0000000   0.0126169   1.5135603  )
        35           O   tau(  35) = (   0.0114961   0.4948124   1.2815885  )
        36           O   tau(  36) = (   0.0114961   0.4948124   0.7513233  )
        37           O   tau(  37) = (   0.0051979   0.2673486   1.0164559  )
        38           O   tau(  38) = (   0.0130029   0.2478461   1.5135603  )
        39           O   tau(  39) = (   0.0048226   0.0077944   0.7773880  )
        40           O   tau(  40) = (   0.0048226   0.0077944   1.2555238  )
        41           Sr  tau(  41) = (   0.2545482   0.2517602   0.7706582  )
        42           Sr  tau(  42) = (   0.2545482   0.2517602   1.2622536  )
        43           Co  tau(  43) = (   0.4989925   0.0073160   1.5135603  )
        44           Co  tau(  44) = (   0.4998370   0.0064714   1.0164559  )
        45           O   tau(  45) = (   0.5048017   0.0015068   0.7844841  )
        46           O   tau(  46) = (   0.5048017   0.0015068   1.2484277  )
        47           O   tau(  47) = (   0.2621260   0.0059111   1.5135603  )
        48           O   tau(  48) = (   0.2591051   0.0041689   1.0164559  )
        49           O   tau(  49) = (   0.0000000   0.1421646   2.1602013  )
        50           H   tau(  50) = (   0.0000000   0.1421646   2.2847091  )

   Crystallographic axes

     site n.     atom                  positions (cryst. coord.)
         1           Sr  tau(   1) = (  0.2508693  0.7491307  0.6943562  )
         2           O   tau(   2) = (  0.4985141  0.5014859  0.6999492  )
         3           Sr  tau(   3) = (  0.7482398  0.7454518  0.6972903  )
         4           Sr  tau(   4) = (  0.7441748  0.2558252  0.6980478  )
         5           Sr  tau(   5) = (  0.2508693  0.7491307  0.5016443  )
         6           Sr  tau(   6) = (  0.2508693  0.7491307  0.3015492  )
         7           Co  tau(   7) = (  0.4998914  0.5001086  0.4015968  )
         8           Co  tau(   8) = (  0.4936915  0.5063085  0.5980003  )
         9           O   tau(   9) = (  0.4988895  0.7610401  0.4015968  )
        10           O   tau(  10) = (  0.2389599  0.5011105  0.4015968  )
        11           O   tau(  11) = (  0.0070918  0.7374880  0.4015968  )
        12           O   tau(  12) = (  0.0088340  0.7405089  0.5980003  )
        13           O   tau(  13) = (  0.5066944  0.7415376  0.5980003  )
        14           O   tau(  14) = (  0.2584624  0.4933056  0.5980003  )
        15           O   tau(  15) = (  0.4985141  0.5014859  0.3071422  )
        16           O   tau(  16) = (  0.4985141  0.5014859  0.4960513  )
        17           Sr  tau(  17) = (  0.7482398  0.7454518  0.3044833  )
        18           Sr  tau(  18) = (  0.7482398  0.7454518  0.4987103  )
        19           Sr  tau(  19) = (  0.7441748  0.2558252  0.3052408  )
        20           Sr  tau(  20) = (  0.7441748  0.2558252  0.4979527  )
        21           O   tau(  21) = (  0.7322655  0.0078049  0.5980003  )
        22           O   tau(  22) = (  0.7558175  0.4996027  0.5980003  )
        23           O   tau(  23) = (  0.5003973  0.2441825  0.5980003  )
        24           O   tau(  24) = (  0.7527966  0.4978604  0.4015968  )
        25           O   tau(  25) = (  0.5021396  0.2472034  0.4015968  )
        26           O   tau(  26) = (  0.7517679  0.0000000  0.4015968  )
        27           O   tau(  27) = (  0.0114961  0.4948124  0.6896512  )
        28           O   tau(  28) = (  0.0048226  0.0077944  0.6999492  )
        29           Sr  tau(  29) = (  0.2545482  0.2517602  0.6972903  )
        30           O   tau(  30) = (  0.5048017  0.0015068  0.7027529  )
        31           Co  tau(  31) = (  0.0056869  0.5006215  0.4015968  )
        32           Co  tau(  32) = (  0.0065315  0.4997770  0.5980003  )
        33           Co  tau(  33) = (  0.0061999  0.0064171  0.4015968  )
        34           Co  tau(  34) = (  0.0000000  0.0126169  0.5980003  )
        35           O   tau(  35) = (  0.0114961  0.4948124  0.5063494  )
        36           O   tau(  36) = (  0.0114961  0.4948124  0.2968442  )
        37           O   tau(  37) = (  0.0051979  0.2673486  0.4015968  )
        38           O   tau(  38) = (  0.0130029  0.2478461  0.5980003  )
        39           O   tau(  39) = (  0.0048226  0.0077944  0.3071422  )
        40           O   tau(  40) = (  0.0048226  0.0077944  0.4960513  )
        41           Sr  tau(  41) = (  0.2545482  0.2517602  0.3044833  )
        42           Sr  tau(  42) = (  0.2545482  0.2517602  0.4987103  )
        43           Co  tau(  43) = (  0.4989925  0.0073160  0.5980003  )
        44           Co  tau(  44) = (  0.4998370  0.0064714  0.4015968  )
        45           O   tau(  45) = (  0.5048017  0.0015068  0.3099459  )
        46           O   tau(  46) = (  0.5048017  0.0015068  0.4932477  )
        47           O   tau(  47) = (  0.2621260  0.0059111  0.5980003  )
        48           O   tau(  48) = (  0.2591051  0.0041689  0.4015968  )
        49           O   tau(  49) = (  0.0000000  0.1421646  0.8534850  )
        50           H   tau(  50) = (  0.0000000  0.1421646  0.9026774  )

     number of k points=    10  Gaussian smearing, width (Ry)=  0.0700
                       cart. coord. in units 2pi/alat
        k(    1) = (   0.0000000   0.0000000   0.0000000), wk =   0.1250000
        k(    2) = (   0.0000000   0.2500000   0.0000000), wk =   0.2500000
        k(    3) = (   0.0000000  -0.5000000   0.0000000), wk =   0.1250000
        k(    4) = (   0.2500000   0.2500000   0.0000000), wk =   0.2500000
        k(    5) = (   0.2500000  -0.5000000   0.0000000), wk =   0.2500000
        k(    6) = (  -0.5000000  -0.5000000   0.0000000), wk =   0.1250000
        k(    7) = (   0.2500000   0.0000000   0.0000000), wk =   0.2500000
        k(    8) = (  -0.5000000   0.0000000   0.0000000), wk =   0.1250000
        k(    9) = (  -0.2500000   0.2500000   0.0000000), wk =   0.2500000
        k(   10) = (  -0.5000000   0.2500000   0.0000000), wk =   0.2500000

                       cryst. coord.
        k(    1) = (   0.0000000   0.0000000   0.0000000), wk =   0.1250000
        k(    2) = (   0.0000000   0.2500000   0.0000000), wk =   0.2500000
        k(    3) = (   0.0000000  -0.5000000   0.0000000), wk =   0.1250000
        k(    4) = (   0.2500000   0.2500000   0.0000000), wk =   0.2500000
        k(    5) = (   0.2500000  -0.5000000   0.0000000), wk =   0.2500000
        k(    6) = (  -0.5000000  -0.5000000   0.0000000), wk =   0.1250000
        k(    7) = (   0.2500000   0.0000000   0.0000000), wk =   0.2500000
        k(    8) = (  -0.5000000   0.0000000   0.0000000), wk =   0.1250000
        k(    9) = (  -0.2500000   0.2500000   0.0000000), wk =   0.2500000
        k(   10) = (  -0.5000000   0.2500000   0.0000000), wk =   0.2500000

     Dense  grid:  1474595 G-vectors     FFT dimensions: ( 108, 108, 270)

     Smooth grid:   521381 G-vectors     FFT dimensions: (  75,  75, 192)

     Dynamical RAM for                 wfc:      10.73 MB

     Dynamical RAM for     wfc (w. buffer):      64.38 MB

     Dynamical RAM for           str. fact:       3.75 MB

     Dynamical RAM for           local pot:       0.00 MB

     Dynamical RAM for          nlocal pot:      24.61 MB

     Dynamical RAM for                qrad:       7.03 MB

     Dynamical RAM for          rho,v,vnew:       6.02 MB

     Dynamical RAM for               rhoin:       2.01 MB

     Dynamical RAM for            rho*nmix:      15.00 MB

     Dynamical RAM for           G-vectors:       3.68 MB

     Dynamical RAM for          h,s,v(r/c):       1.35 MB

     Dynamical RAM for          <psi|beta>:       2.35 MB

     Dynamical RAM for                 psi:      21.46 MB

     Dynamical RAM for                hpsi:      21.46 MB

     Dynamical RAM for                spsi:      21.46 MB

     Dynamical RAM for      wfcinit/wfcrot:      34.49 MB

     Dynamical RAM for           addusdens:     101.26 MB

     Estimated static dynamical RAM per process >     121.50 MB

     Estimated max dynamical RAM per process >     237.76 MB

     Estimated total dynamical RAM >      10.79 GB

     Check: negative core charge=   -0.000004

     Initial potential from superposition of free atoms

     starting charge     422.5961, renormalised to     431.0000

     negative rho (up, down):  7.819E-01 0.000E+00
     Starting wfcs are  377 randomized atomic wfcs
     Checking if some PAW data can be deallocated... 
       PAW data deallocated on   19 nodes for type:  2

     total cpu time spent up to now is        9.5 secs

     Self-consistent Calculation

     iteration #  1     ecut=    60.00 Ry     beta= 0.15
     Davidson diagonalization with overlap

---- Real-time Memory Report at c_bands before calling an iterative solver
             0 MiB given to the printing process from OS
             0 MiB allocation reported by mallinfo(arena+hblkhd)
         23998 MiB available memory on the node where the printing process lives
------------------
     ethr =  1.00E-02,  avg # of iterations =  2.0

     negative rho (up, down):  7.717E-01 0.000E+00

     total cpu time spent up to now is       26.9 secs

     total energy              =   -4446.65827047 Ry
     estimated scf accuracy    <      44.79599840 Ry

     iteration #  2     ecut=    60.00 Ry     beta= 0.15
     Davidson diagonalization with overlap

---- Real-time Memory Report at c_bands before calling an iterative solver
             0 MiB given to the printing process from OS
             0 MiB allocation reported by mallinfo(arena+hblkhd)
         24258 MiB available memory on the node where the printing process lives
------------------
     ethr =  1.00E-02,  avg # of iterations =  1.0

     negative rho (up, down):  7.582E-01 0.000E+00

     total cpu time spent up to now is       42.0 secs

     total energy              =   -4443.26521186 Ry
     estimated scf accuracy    <      29.79856514 Ry

     iteration #  3     ecut=    60.00 Ry     beta= 0.15
     Davidson diagonalization with overlap

---- Real-time Memory Report at c_bands before calling an iterative solver
             0 MiB given to the printing process from OS
             0 MiB allocation reported by mallinfo(arena+hblkhd)
         23435 MiB available memory on the node where the printing process lives
------------------
     ethr =  6.91E-03,  avg # of iterations =  1.0

     negative rho (up, down):  7.554E-01 0.000E+00

     total cpu time spent up to now is       57.3 secs

     total energy              =   -4444.26328219 Ry
     estimated scf accuracy    <      28.78660248 Ry

     iteration #  4     ecut=    60.00 Ry     beta= 0.15
     Davidson diagonalization with overlap

---- Real-time Memory Report at c_bands before calling an iterative solver
             0 MiB given to the printing process from OS
             0 MiB allocation reported by mallinfo(arena+hblkhd)
         23409 MiB available memory on the node where the printing process lives
------------------
     ethr =  6.68E-03,  avg # of iterations =  1.0

     negative rho (up, down):  7.496E-01 0.000E+00

     total cpu time spent up to now is       72.5 secs

     total energy              =   -4443.06059010 Ry
     estimated scf accuracy    <      20.85310348 Ry

     iteration #  5     ecut=    60.00 Ry     beta= 0.15
     Davidson diagonalization with overlap

---- Real-time Memory Report at c_bands before calling an iterative solver
             0 MiB given to the printing process from OS
             0 MiB allocation reported by mallinfo(arena+hblkhd)
         23388 MiB available memory on the node where the printing process lives
------------------
     ethr =  4.84E-03,  avg # of iterations =  1.0

     negative rho (up, down):  7.404E-01 0.000E+00

     total cpu time spent up to now is       87.9 secs

     total energy              =   -4442.56644923 Ry
     estimated scf accuracy    <      10.74081064 Ry

     iteration #  6     ecut=    60.00 Ry     beta= 0.15
     Davidson diagonalization with overlap

---- Real-time Memory Report at c_bands before calling an iterative solver
             0 MiB given to the printing process from OS
             0 MiB allocation reported by mallinfo(arena+hblkhd)
         23370 MiB available memory on the node where the printing process lives
------------------
     ethr =  2.49E-03,  avg # of iterations =  1.1

     negative rho (up, down):  7.427E-01 0.000E+00

     total cpu time spent up to now is      103.4 secs

     total energy              =   -4442.81316708 Ry
     estimated scf accuracy    <       4.92287780 Ry

     iteration #  7     ecut=    60.00 Ry     beta= 0.15
     Davidson diagonalization with overlap

---- Real-time Memory Report at c_bands before calling an iterative solver
             0 MiB given to the printing process from OS
             0 MiB allocation reported by mallinfo(arena+hblkhd)
         23358 MiB available memory on the node where the printing process lives
------------------
     ethr =  1.14E-03,  avg # of iterations =  1.7

     negative rho (up, down):  7.656E-01 0.000E+00

     total cpu time spent up to now is      119.0 secs

     total energy              =   -4441.65058559 Ry
     estimated scf accuracy    <       3.95134270 Ry

     iteration #  8     ecut=    60.00 Ry     beta= 0.15
     Davidson diagonalization with overlap

---- Real-time Memory Report at c_bands before calling an iterative solver
             0 MiB given to the printing process from OS
             0 MiB allocation reported by mallinfo(arena+hblkhd)
         23334 MiB available memory on the node where the printing process lives
------------------
     ethr =  9.17E-04,  avg # of iterations =  4.2

     negative rho (up, down):  7.724E-01 0.000E+00

     total cpu time spent up to now is      138.9 secs

     total energy              =   -4441.49917727 Ry
     estimated scf accuracy    <      16.28917083 Ry

     iteration #  9     ecut=    60.00 Ry     beta= 0.15
     Davidson diagonalization with overlap

---- Real-time Memory Report at c_bands before calling an iterative solver
             0 MiB given to the printing process from OS
             0 MiB allocation reported by mallinfo(arena+hblkhd)
         23155 MiB available memory on the node where the printing process lives
------------------
     ethr =  9.17E-04,  avg # of iterations = 10.1

     negative rho (up, down):  7.703E-01 0.000E+00

     total cpu time spent up to now is      161.3 secs

     total energy              =   -4441.76816368 Ry
     estimated scf accuracy    <       2.74597108 Ry

     iteration # 10     ecut=    60.00 Ry     beta= 0.15
     Davidson diagonalization with overlap

---- Real-time Memory Report at c_bands before calling an iterative solver
             0 MiB given to the printing process from OS
             0 MiB allocation reported by mallinfo(arena+hblkhd)
         22880 MiB available memory on the node where the printing process lives
------------------
     ethr =  6.37E-04,  avg # of iterations =  1.4

     negative rho (up, down):  7.763E-01 0.000E+00

     total cpu time spent up to now is      177.7 secs

     total energy              =   -4441.91484730 Ry
     estimated scf accuracy    <       1.22443100 Ry

     iteration # 11     ecut=    60.00 Ry     beta= 0.15
     Davidson diagonalization with overlap

---- Real-time Memory Report at c_bands before calling an iterative solver
             0 MiB given to the printing process from OS
             0 MiB allocation reported by mallinfo(arena+hblkhd)
         22864 MiB available memory on the node where the printing process lives
------------------
     ethr =  2.84E-04,  avg # of iterations =  3.3

     negative rho (up, down):  8.101E-01 0.000E+00

     total cpu time spent up to now is      195.7 secs

     total energy              =   -4441.69921575 Ry
     estimated scf accuracy    <       1.27980108 Ry

     iteration # 12     ecut=    60.00 Ry     beta= 0.15
     Davidson diagonalization with overlap

---- Real-time Memory Report at c_bands before calling an iterative solver
             0 MiB given to the printing process from OS
             0 MiB allocation reported by mallinfo(arena+hblkhd)
         22869 MiB available memory on the node where the printing process lives
------------------
     ethr =  2.84E-04,  avg # of iterations =  9.1

     negative rho (up, down):  8.179E-01 0.000E+00

     total cpu time spent up to now is      216.8 secs

     total energy              =   -4441.85799880 Ry
     estimated scf accuracy    <       1.44683970 Ry

     iteration # 13     ecut=    60.00 Ry     beta= 0.15
     Davidson diagonalization with overlap

---- Real-time Memory Report at c_bands before calling an iterative solver
             0 MiB given to the printing process from OS
             0 MiB allocation reported by mallinfo(arena+hblkhd)
         22832 MiB available memory on the node where the printing process lives
------------------
     ethr =  2.84E-04,  avg # of iterations =  4.3

     negative rho (up, down):  8.186E-01 0.000E+00

     total cpu time spent up to now is      235.3 secs

     total energy              =   -4441.79077520 Ry
     estimated scf accuracy    <       0.93404887 Ry

     iteration # 14     ecut=    60.00 Ry     beta= 0.15
     Davidson diagonalization with overlap

---- Real-time Memory Report at c_bands before calling an iterative solver
             0 MiB given to the printing process from OS
             0 MiB allocation reported by mallinfo(arena+hblkhd)
         22818 MiB available memory on the node where the printing process lives
------------------
     ethr =  2.17E-04,  avg # of iterations =  3.9

     negative rho (up, down):  8.206E-01 0.000E+00

     total cpu time spent up to now is      253.3 secs

     total energy              =   -4441.75150137 Ry
     estimated scf accuracy    <       0.37605703 Ry

     iteration # 15     ecut=    60.00 Ry     beta= 0.15
     Davidson diagonalization with overlap

---- Real-time Memory Report at c_bands before calling an iterative solver
             0 MiB given to the printing process from OS
             0 MiB allocation reported by mallinfo(arena+hblkhd)
         22816 MiB available memory on the node where the printing process lives
------------------
     c_bands:  3 eigenvalues not converged
     ethr =  8.73E-05,  avg # of iterations = 12.6

     negative rho (up, down):  8.300E-01 0.000E+00

     total cpu time spent up to now is      276.9 secs

     total energy              =   -4441.72002273 Ry
     estimated scf accuracy    <       0.27640229 Ry

     iteration # 16     ecut=    60.00 Ry     beta= 0.15
     Davidson diagonalization with overlap

---- Real-time Memory Report at c_bands before calling an iterative solver
             0 MiB given to the printing process from OS
             0 MiB allocation reported by mallinfo(arena+hblkhd)
         22757 MiB available memory on the node where the printing process lives
------------------
     ethr =  6.41E-05,  avg # of iterations =  8.2

     negative rho (up, down):  8.316E-01 0.000E+00

     total cpu time spent up to now is      298.6 secs

     total energy              =   -4441.72096735 Ry
     estimated scf accuracy    <       0.26538485 Ry

     iteration # 17     ecut=    60.00 Ry     beta= 0.15
     Davidson diagonalization with overlap

---- Real-time Memory Report at c_bands before calling an iterative solver
             0 MiB given to the printing process from OS
             0 MiB allocation reported by mallinfo(arena+hblkhd)
         22806 MiB available memory on the node where the printing process lives
------------------
     ethr =  6.16E-05,  avg # of iterations =  1.0

     negative rho (up, down):  8.145E-01 0.000E+00

     total cpu time spent up to now is      314.2 secs

     total energy              =   -4441.68945336 Ry
     estimated scf accuracy    <       0.22169318 Ry

     iteration # 18     ecut=    60.00 Ry     beta= 0.15
     Davidson diagonalization with overlap

---- Real-time Memory Report at c_bands before calling an iterative solver
             0 MiB given to the printing process from OS
             0 MiB allocation reported by mallinfo(arena+hblkhd)
         22776 MiB available memory on the node where the printing process lives
------------------
     c_bands:  2 eigenvalues not converged
     ethr =  5.14E-05,  avg # of iterations =  7.9

     negative rho (up, down):  8.230E-01 0.000E+00

     total cpu time spent up to now is      335.6 secs

     total energy              =   -4441.66884790 Ry
     estimated scf accuracy    <       0.12043509 Ry

     iteration # 19     ecut=    60.00 Ry     beta= 0.15
     Davidson diagonalization with overlap

---- Real-time Memory Report at c_bands before calling an iterative solver
             0 MiB given to the printing process from OS
             0 MiB allocation reported by mallinfo(arena+hblkhd)
         22753 MiB available memory on the node where the printing process lives
------------------
     ethr =  2.79E-05,  avg # of iterations =  9.2

     negative rho (up, down):  8.340E-01 0.000E+00

     total cpu time spent up to now is      358.0 secs

     total energy              =   -4441.66353261 Ry
     estimated scf accuracy    <       0.08038110 Ry

     iteration # 20     ecut=    60.00 Ry     beta= 0.15
     Davidson diagonalization with overlap

---- Real-time Memory Report at c_bands before calling an iterative solver
             0 MiB given to the printing process from OS
             0 MiB allocation reported by mallinfo(arena+hblkhd)
         22690 MiB available memory on the node where the printing process lives
------------------
     ethr =  1.86E-05,  avg # of iterations =  5.5

     negative rho (up, down):  8.229E-01 0.000E+00

     total cpu time spent up to now is      377.4 secs

     total energy              =   -4441.66242468 Ry
     estimated scf accuracy    <       0.03959325 Ry

     iteration # 21     ecut=    60.00 Ry     beta= 0.15
     Davidson diagonalization with overlap

---- Real-time Memory Report at c_bands before calling an iterative solver
             0 MiB given to the printing process from OS
             0 MiB allocation reported by mallinfo(arena+hblkhd)
         22721 MiB available memory on the node where the printing process lives
------------------
     c_bands:  1 eigenvalues not converged
     ethr =  9.19E-06,  avg # of iterations = 13.0

     negative rho (up, down):  8.121E-01 0.000E+00

     total cpu time spent up to now is      400.5 secs

     total energy              =   -4441.66021595 Ry
     estimated scf accuracy    <       0.02762589 Ry

     iteration # 22     ecut=    60.00 Ry     beta= 0.15
     Davidson diagonalization with overlap

---- Real-time Memory Report at c_bands before calling an iterative solver
             0 MiB given to the printing process from OS
             0 MiB allocation reported by mallinfo(arena+hblkhd)
         22679 MiB available memory on the node where the printing process lives
------------------
     ethr =  6.41E-06,  avg # of iterations =  3.9

     negative rho (up, down):  8.041E-01 0.000E+00

     total cpu time spent up to now is      418.7 secs

     total energy              =   -4441.65742100 Ry
     estimated scf accuracy    <       0.01754618 Ry

     iteration # 23     ecut=    60.00 Ry     beta= 0.15
     Davidson diagonalization with overlap

---- Real-time Memory Report at c_bands before calling an iterative solver
             0 MiB given to the printing process from OS
             0 MiB allocation reported by mallinfo(arena+hblkhd)
         22704 MiB available memory on the node where the printing process lives
------------------
     ethr =  4.07E-06,  avg # of iterations = 12.9

     negative rho (up, down):  7.971E-01 0.000E+00

     total cpu time spent up to now is      442.8 secs

     total energy              =   -4441.65636992 Ry
     estimated scf accuracy    <       0.00980881 Ry

     iteration # 24     ecut=    60.00 Ry     beta= 0.15
     Davidson diagonalization with overlap

---- Real-time Memory Report at c_bands before calling an iterative solver
             0 MiB given to the printing process from OS
             0 MiB allocation reported by mallinfo(arena+hblkhd)
         22685 MiB available memory on the node where the printing process lives
------------------
     ethr =  2.28E-06,  avg # of iterations =  7.5

     negative rho (up, down):  7.983E-01 0.000E+00

     total cpu time spent up to now is      464.3 secs

     total energy              =   -4441.65615436 Ry
     estimated scf accuracy    <       0.00524394 Ry

     iteration # 25     ecut=    60.00 Ry     beta= 0.15
     Davidson diagonalization with overlap

---- Real-time Memory Report at c_bands before calling an iterative solver
             0 MiB given to the printing process from OS
             0 MiB allocation reported by mallinfo(arena+hblkhd)
         22631 MiB available memory on the node where the printing process lives
------------------
     ethr =  1.22E-06,  avg # of iterations =  2.9

     negative rho (up, down):  7.956E-01 0.000E+00

     total cpu time spent up to now is      482.6 secs

     total energy              =   -4441.65600677 Ry
     estimated scf accuracy    <       0.00246823 Ry

     iteration # 26     ecut=    60.00 Ry     beta= 0.15
     Davidson diagonalization with overlap

---- Real-time Memory Report at c_bands before calling an iterative solver
             0 MiB given to the printing process from OS
             0 MiB allocation reported by mallinfo(arena+hblkhd)
         22661 MiB available memory on the node where the printing process lives
------------------
     ethr =  5.73E-07,  avg # of iterations = 11.0

     negative rho (up, down):  7.948E-01 0.000E+00

     total cpu time spent up to now is      506.0 secs

     total energy              =   -4441.65608451 Ry
     estimated scf accuracy    <       0.00134784 Ry

     iteration # 27     ecut=    60.00 Ry     beta= 0.15
     Davidson diagonalization with overlap

---- Real-time Memory Report at c_bands before calling an iterative solver
             0 MiB given to the printing process from OS
             0 MiB allocation reported by mallinfo(arena+hblkhd)
         22630 MiB available memory on the node where the printing process lives
------------------
     ethr =  3.13E-07,  avg # of iterations =  8.8

     negative rho (up, down):  7.948E-01 0.000E+00

     total cpu time spent up to now is      527.2 secs

     total energy              =   -4441.65611252 Ry
     estimated scf accuracy    <       0.00067052 Ry

     iteration # 28     ecut=    60.00 Ry     beta= 0.15
     Davidson diagonalization with overlap

---- Real-time Memory Report at c_bands before calling an iterative solver
             0 MiB given to the printing process from OS
             0 MiB allocation reported by mallinfo(arena+hblkhd)
         22665 MiB available memory on the node where the printing process lives
------------------
     c_bands:  1 eigenvalues not converged
     ethr =  1.56E-07,  avg # of iterations = 11.6

     negative rho (up, down):  7.970E-01 0.000E+00

     total cpu time spent up to now is      551.2 secs

     total energy              =   -4441.65618567 Ry
     estimated scf accuracy    <       0.00028089 Ry

     iteration # 29     ecut=    60.00 Ry     beta= 0.15
     Davidson diagonalization with overlap

---- Real-time Memory Report at c_bands before calling an iterative solver
             0 MiB given to the printing process from OS
             0 MiB allocation reported by mallinfo(arena+hblkhd)
         22642 MiB available memory on the node where the printing process lives
------------------
     ethr =  6.52E-08,  avg # of iterations =  5.6

     negative rho (up, down):  7.968E-01 0.000E+00

     total cpu time spent up to now is      570.9 secs

     total energy              =   -4441.65620776 Ry
     estimated scf accuracy    <       0.00011551 Ry

     iteration # 30     ecut=    60.00 Ry     beta= 0.15
     Davidson diagonalization with overlap

---- Real-time Memory Report at c_bands before calling an iterative solver
             0 MiB given to the printing process from OS
             0 MiB allocation reported by mallinfo(arena+hblkhd)
         22620 MiB available memory on the node where the printing process lives
------------------
     ethr =  2.68E-08,  avg # of iterations =  2.1

     negative rho (up, down):  7.946E-01 0.000E+00

     total cpu time spent up to now is      588.3 secs

     total energy              =   -4441.65617757 Ry
     estimated scf accuracy    <       0.00005776 Ry

     iteration # 31     ecut=    60.00 Ry     beta= 0.15
     Davidson diagonalization with overlap

---- Real-time Memory Report at c_bands before calling an iterative solver
             0 MiB given to the printing process from OS
             0 MiB allocation reported by mallinfo(arena+hblkhd)
         22653 MiB available memory on the node where the printing process lives
------------------
     ethr =  1.34E-08,  avg # of iterations =  2.3

     negative rho (up, down):  7.936E-01 0.000E+00

     total cpu time spent up to now is      606.1 secs

     total energy              =   -4441.65616559 Ry
     estimated scf accuracy    <       0.00002411 Ry

     iteration # 32     ecut=    60.00 Ry     beta= 0.15
     Davidson diagonalization with overlap

---- Real-time Memory Report at c_bands before calling an iterative solver
             0 MiB given to the printing process from OS
             0 MiB allocation reported by mallinfo(arena+hblkhd)
         22653 MiB available memory on the node where the printing process lives
------------------
     c_bands:  1 eigenvalues not converged
     ethr =  5.59E-09,  avg # of iterations =  4.4

     negative rho (up, down):  7.929E-01 0.000E+00

     total cpu time spent up to now is      625.3 secs

     total energy              =   -4441.65616041 Ry
     estimated scf accuracy    <       0.00000998 Ry

     iteration # 33     ecut=    60.00 Ry     beta= 0.15
     Davidson diagonalization with overlap

---- Real-time Memory Report at c_bands before calling an iterative solver
             0 MiB given to the printing process from OS
             0 MiB allocation reported by mallinfo(arena+hblkhd)
         22660 MiB available memory on the node where the printing process lives
------------------
     ethr =  2.31E-09,  avg # of iterations =  2.9

     negative rho (up, down):  7.928E-01 0.000E+00

     total cpu time spent up to now is      643.1 secs

     total energy              =   -4441.65615734 Ry
     estimated scf accuracy    <       0.00000663 Ry

     iteration # 34     ecut=    60.00 Ry     beta= 0.15
     Davidson diagonalization with overlap

---- Real-time Memory Report at c_bands before calling an iterative solver
             0 MiB given to the printing process from OS
             0 MiB allocation reported by mallinfo(arena+hblkhd)
         22678 MiB available memory on the node where the printing process lives
------------------
     ethr =  1.54E-09,  avg # of iterations =  2.2

     negative rho (up, down):  7.927E-01 0.000E+00

     total cpu time spent up to now is      660.9 secs

     total energy              =   -4441.65615731 Ry
     estimated scf accuracy    <       0.00000340 Ry

     iteration # 35     ecut=    60.00 Ry     beta= 0.15
     Davidson diagonalization with overlap

---- Real-time Memory Report at c_bands before calling an iterative solver
             0 MiB given to the printing process from OS
             0 MiB allocation reported by mallinfo(arena+hblkhd)
         22677 MiB available memory on the node where the printing process lives
------------------
     ethr =  7.89E-10,  avg # of iterations =  2.4

     negative rho (up, down):  7.926E-01 0.000E+00

     total cpu time spent up to now is      678.8 secs

     total energy              =   -4441.65615818 Ry
     estimated scf accuracy    <       0.00000148 Ry

     iteration # 36     ecut=    60.00 Ry     beta= 0.15
     Davidson diagonalization with overlap

---- Real-time Memory Report at c_bands before calling an iterative solver
             0 MiB given to the printing process from OS
             0 MiB allocation reported by mallinfo(arena+hblkhd)
         22677 MiB available memory on the node where the printing process lives
------------------
     ethr =  3.44E-10,  avg # of iterations =  2.7

     negative rho (up, down):  7.925E-01 0.000E+00

     total cpu time spent up to now is      696.6 secs

     total energy              =   -4441.65615940 Ry
     estimated scf accuracy    <       0.00000096 Ry

     iteration # 37     ecut=    60.00 Ry     beta= 0.15
     Davidson diagonalization with overlap

---- Real-time Memory Report at c_bands before calling an iterative solver
             0 MiB given to the printing process from OS
             0 MiB allocation reported by mallinfo(arena+hblkhd)
         22683 MiB available memory on the node where the printing process lives
------------------
     ethr =  2.22E-10,  avg # of iterations =  4.1

     negative rho (up, down):  7.924E-01 0.000E+00

     total cpu time spent up to now is      715.8 secs

     total energy              =   -4441.65615960 Ry
     estimated scf accuracy    <       0.00000034 Ry

     iteration # 38     ecut=    60.00 Ry     beta= 0.15
     Davidson diagonalization with overlap

---- Real-time Memory Report at c_bands before calling an iterative solver
             0 MiB given to the printing process from OS
             0 MiB allocation reported by mallinfo(arena+hblkhd)
         22670 MiB available memory on the node where the printing process lives
------------------
     ethr =  8.00E-11,  avg # of iterations =  2.8

     negative rho (up, down):  7.924E-01 0.000E+00

     total cpu time spent up to now is      733.6 secs

     total energy              =   -4441.65615959 Ry
     estimated scf accuracy    <       0.00000025 Ry

     iteration # 39     ecut=    60.00 Ry     beta= 0.15
     Davidson diagonalization with overlap

---- Real-time Memory Report at c_bands before calling an iterative solver
             0 MiB given to the printing process from OS
             0 MiB allocation reported by mallinfo(arena+hblkhd)
         22690 MiB available memory on the node where the printing process lives
------------------
     ethr =  5.79E-11,  avg # of iterations =  3.6

     negative rho (up, down):  7.924E-01 0.000E+00

     total cpu time spent up to now is      752.0 secs

     total energy              =   -4441.65615963 Ry
     estimated scf accuracy    <       0.00000016 Ry

     iteration # 40     ecut=    60.00 Ry     beta= 0.15
     Davidson diagonalization with overlap

---- Real-time Memory Report at c_bands before calling an iterative solver
             0 MiB given to the printing process from OS
             0 MiB allocation reported by mallinfo(arena+hblkhd)
         22687 MiB available memory on the node where the printing process lives
------------------
     ethr =  3.72E-11,  avg # of iterations =  2.2

     negative rho (up, down):  7.924E-01 0.000E+00

     total cpu time spent up to now is      769.6 secs

     total energy              =   -4441.65615967 Ry
     estimated scf accuracy    <       0.00000012 Ry

     iteration # 41     ecut=    60.00 Ry     beta= 0.15
     Davidson diagonalization with overlap

---- Real-time Memory Report at c_bands before calling an iterative solver
             0 MiB given to the printing process from OS
             0 MiB allocation reported by mallinfo(arena+hblkhd)
         22710 MiB available memory on the node where the printing process lives
------------------
     ethr =  2.83E-11,  avg # of iterations =  2.9

     negative rho (up, down):  7.924E-01 0.000E+00

     total cpu time spent up to now is      787.5 secs

     total energy              =   -4441.65615966 Ry
     estimated scf accuracy    <       0.00000007 Ry

     iteration # 42     ecut=    60.00 Ry     beta= 0.15
     Davidson diagonalization with overlap

---- Real-time Memory Report at c_bands before calling an iterative solver
             0 MiB given to the printing process from OS
             0 MiB allocation reported by mallinfo(arena+hblkhd)
         22705 MiB available memory on the node where the printing process lives
------------------
     ethr =  1.61E-11,  avg # of iterations =  3.7

     negative rho (up, down):  7.925E-01 0.000E+00

     total cpu time spent up to now is      805.9 secs

     total energy              =   -4441.65615960 Ry
     estimated scf accuracy    <       0.00000004 Ry

     iteration # 43     ecut=    60.00 Ry     beta= 0.15
     Davidson diagonalization with overlap

---- Real-time Memory Report at c_bands before calling an iterative solver
             0 MiB given to the printing process from OS
             0 MiB allocation reported by mallinfo(arena+hblkhd)
         22705 MiB available memory on the node where the printing process lives
------------------
     ethr =  1.04E-11,  avg # of iterations =  3.9

     negative rho (up, down):  7.925E-01 0.000E+00

     total cpu time spent up to now is      824.6 secs

     total energy              =   -4441.65615958 Ry
     estimated scf accuracy    <       0.00000002 Ry

     iteration # 44     ecut=    60.00 Ry     beta= 0.15
     Davidson diagonalization with overlap

---- Real-time Memory Report at c_bands before calling an iterative solver
             0 MiB given to the printing process from OS
             0 MiB allocation reported by mallinfo(arena+hblkhd)
         22694 MiB available memory on the node where the printing process lives
------------------
     ethr =  4.19E-12,  avg # of iterations =  2.9

     negative rho (up, down):  7.925E-01 0.000E+00

     total cpu time spent up to now is      842.4 secs

     total energy              =   -4441.65615958 Ry
     estimated scf accuracy    <       0.00000001 Ry

     iteration # 45     ecut=    60.00 Ry     beta= 0.15
     Davidson diagonalization with overlap

---- Real-time Memory Report at c_bands before calling an iterative solver
             0 MiB given to the printing process from OS
             0 MiB allocation reported by mallinfo(arena+hblkhd)
         22695 MiB available memory on the node where the printing process lives
------------------
     ethr =  2.51E-12,  avg # of iterations =  3.1

     negative rho (up, down):  7.925E-01 0.000E+00

     total cpu time spent up to now is      860.3 secs

     End of self-consistent calculation

          k = 0.0000 0.0000 0.0000 ( 65197 PWs)   bands (ev):

   -92.6903 -92.6391 -92.5445 -92.4978 -92.4384 -92.3966 -92.3799 -92.2612
   -56.0437 -56.0260 -55.9017 -55.8910 -55.8853 -55.8778 -55.8433 -55.8136
   -55.7986 -55.7961 -55.7890 -55.7461 -55.7282 -55.6896 -55.6710 -55.6383
   -55.6334 -55.5860 -55.5853 -55.5819 -55.5735 -55.5361 -55.5100 -55.4270
   -31.2679 -31.2485 -31.1066 -31.1003 -31.0197 -30.9027 -30.8689 -30.6476
   -29.8379 -29.7947 -29.7682 -29.6597 -15.0708 -15.0252 -14.9457 -14.8155
   -14.6213 -14.4992 -14.2085 -14.1883 -14.1601 -14.1126 -14.0667 -14.0528
   -14.0461 -14.0278 -14.0120 -13.9689 -13.9454 -13.9198 -13.7679 -13.5870
   -13.5561 -13.5256 -13.4913 -13.4768 -13.4219 -13.3892 -13.3124 -13.2403
   -13.1217 -13.1002 -13.0973 -13.0734 -13.0648 -13.0460 -12.9918 -12.9843
   -12.9591 -12.9428 -12.9133 -12.8973 -12.8889 -12.8657 -12.8120 -12.7911
   -12.7547 -12.7327 -12.6001 -12.5950 -12.5701 -12.3322 -12.1866 -12.0030
   -11.9225 -11.8510 -11.7772 -11.7658 -11.7431 -11.7253 -11.6617 -11.6443
   -11.6101 -11.5808 -11.4683 -11.3891 -11.3855  -2.9305  -2.6985  -2.4688
    -2.3218  -2.2590  -2.1171  -1.8097  -1.7953  -1.7760  -1.6907  -1.6719
    -1.6037  -1.5876  -1.5471  -1.5009  -1.3207  -1.1008  -1.0868  -1.0664
    -0.9204  -0.9057  -0.8595  -0.8395  -0.7951  -0.7785  -0.7230  -0.6964
    -0.6232  -0.6105  -0.5363  -0.4051  -0.3921  -0.3624  -0.2817  -0.2634
    -0.2379  -0.1865  -0.1175  -0.0765  -0.0189   0.0051   0.0753   0.1548
     0.1916   0.2177   0.2460   0.4842   0.4985   0.6719   0.7356   0.8002
     0.8687   0.9442   0.9533   0.9726   1.0331   1.0605   1.0952   1.1523
     1.2842   1.3416   1.3644   1.3910   1.3977   1.4605   1.5319   1.6377
     1.6549   1.7123   1.7245   1.7675   1.7913   1.7976   1.8552   1.9129
     1.9292   1.9582   1.9963   2.0406   2.1717   2.2507   2.2950   2.3361
     2.4530   2.4635   2.4816   2.4972   2.5230   2.5241   2.6445   2.6696
     2.6985   2.7166   2.7307   2.8119   2.9180   2.9507   2.9619   2.9683
     3.0358   3.0397   3.0645   3.0720   3.0812   3.0940   3.1003   3.1139
     3.1197   3.1333   3.1408   3.1479   3.1673   3.1883   3.1940   3.2052
     3.2284   3.3460   3.4299   4.1203   4.4387   4.7770   4.8729   5.0579
     5.7694   5.9487   5.9936   6.0284   6.3246   6.3718   6.4874   6.4981
     6.7411   7.0145   7.1062   7.3261   7.4898   7.5428   7.6584   7.6733
     7.6935   7.8671   7.9397   8.0936   8.1206   8.1745   8.4088   8.4512
     8.7387   8.8778   8.9047

     occupation numbers 
     1.0000   1.0000   1.0000   1.0000   1.0000   1.0000   1.0000   1.0000
     1.0000   1.0000   1.0000   1.0000   1.0000   1.0000   1.0000   1.0000
     1.0000   1.0000   1.0000   1.0000   1.0000   1.0000   1.0000   1.0000
     1.0000   1.0000   1.0000   1.0000   1.0000   1.0000   1.0000   1.0000
     1.0000   1.0000   1.0000   1.0000   1.0000   1.0000   1.0000   1.0000
     1.0000   1.0000   1.0000   1.0000   1.0000   1.0000   1.0000   1.0000
     1.0000   1.0000   1.0000   1.0000   1.0000   1.0000   1.0000   1.0000
     1.0000   1.0000   1.0000   1.0000   1.0000   1.0000   1.0000   1.0000
     1.0000   1.0000   1.0000   1.0000   1.0000   1.0000   1.0000   1.0000
     1.0000   1.0000   1.0000   1.0000   1.0000   1.0000   1.0000   1.0000
     1.0000   1.0000   1.0000   1.0000   1.0000   1.0000   1.0000   1.0000
     1.0000   1.0000   1.0000   1.0000   1.0000   1.0000   1.0000   1.0000
     1.0000   1.0000   1.0000   1.0000   1.0000   1.0000   1.0000   1.0000
     1.0000   1.0000   1.0000   1.0000   1.0000   1.0000   1.0000   1.0000
     1.0000   1.0000   1.0000   1.0000   1.0000   1.0000   1.0000   1.0000
     1.0000   1.0000   1.0000   1.0000   1.0000   1.0000   1.0000   1.0000
     1.0000   1.0000   1.0000   1.0000   1.0000   1.0000   1.0000   1.0000
     1.0000   1.0000   1.0000   1.0000   1.0000   1.0000   1.0000   1.0000
     1.0000   1.0000   1.0000   1.0000   1.0000   1.0000   1.0000   1.0000
     1.0000   1.0000   1.0000   1.0000   1.0000   1.0000   0.9999   0.9999
     0.9999   0.9998   0.9998   0.9998   0.9997   0.9996   0.9996   0.9994
     0.9989   0.9985   0.9983   0.9981   0.9980   0.9973   0.9963   0.9942
     0.9938   0.9921   0.9917   0.9901   0.9892   0.9889   0.9861   0.9828
     0.9817   0.9797   0.9768   0.9729   0.9583   0.9467   0.9392   0.9315
     0.9054   0.9028   0.8981   0.8939   0.8867   0.8864   0.8482   0.8393
     0.8286   0.8217   0.8162   0.7823   0.7332   0.7170   0.7114   0.7081
     0.6728   0.6707   0.6573   0.6532   0.6481   0.6410   0.6376   0.6300
     0.6267   0.6190   0.6148   0.6107   0.5997   0.5876   0.5842   0.5778
     0.5642   0.4949   0.4453   0.1225   0.0510   0.0163   0.0113   0.0053
     0.0002   0.0001   0.0000   0.0000   0.0000   0.0000   0.0000   0.0000
     0.0000   0.0000   0.0000   0.0000   0.0000   0.0000   0.0000   0.0000
     0.0000   0.0000   0.0000   0.0000   0.0000   0.0000   0.0000   0.0000
     0.0000   0.0000   0.0000

          k = 0.0000 0.2500 0.0000 ( 65257 PWs)   bands (ev):

   -92.6903 -92.6391 -92.5445 -92.4978 -92.4384 -92.3966 -92.3799 -92.2612
   -56.0437 -56.0260 -55.9017 -55.8910 -55.8853 -55.8778 -55.8433 -55.8136
   -55.7986 -55.7961 -55.7890 -55.7460 -55.7282 -55.6896 -55.6710 -55.6383
   -55.6334 -55.5860 -55.5853 -55.5819 -55.5735 -55.5361 -55.5100 -55.4270
   -31.2677 -31.2484 -31.1068 -31.1002 -31.0199 -30.9026 -30.8691 -30.6477
   -29.8373 -29.7944 -29.7688 -29.6600 -15.0343 -14.9988 -14.9205 -14.7862
   -14.6632 -14.4892 -14.3531 -14.1744 -14.1390 -14.1192 -14.0885 -14.0322
   -14.0236 -14.0091 -13.9921 -13.9518 -13.9346 -13.8380 -13.7992 -13.6371
   -13.6128 -13.5677 -13.5301 -13.4809 -13.4424 -13.3956 -13.3326 -13.2978
   -13.2267 -13.1489 -13.1366 -13.0998 -13.0892 -13.0565 -12.9758 -12.9508
   -12.9241 -12.8991 -12.8839 -12.8622 -12.8561 -12.8265 -12.7884 -12.7661
   -12.6828 -12.6366 -12.5917 -12.5364 -12.4735 -12.3936 -12.2378 -12.0572
   -11.9864 -11.8165 -11.7741 -11.7457 -11.7173 -11.7009 -11.6537 -11.6423
   -11.6196 -11.5861 -11.4825 -11.4306 -11.4201  -2.7951  -2.5741  -2.4363
    -2.2545  -2.2108  -2.0473  -1.8276  -1.7435  -1.7305  -1.6714  -1.5703
    -1.5542  -1.5194  -1.4933  -1.4493  -1.2518  -1.1249  -1.1144  -1.0881
    -1.0335  -1.0249  -0.9204  -0.8909  -0.8322  -0.8070  -0.7670  -0.7029
    -0.6763  -0.6440  -0.6127  -0.5951  -0.5633  -0.4897  -0.4381  -0.3650
    -0.2609  -0.2353  -0.1964  -0.0822  -0.0475   0.0208   0.0668   0.1364
     0.1644   0.1821   0.2304   0.5334   0.6187   0.6484   0.7417   0.7872
     0.8306   0.9235   0.9445   1.0385   1.0617   1.0877   1.2035   1.2969
     1.3174   1.3418   1.3652   1.3862   1.4459   1.4737   1.5004   1.5480
     1.5849   1.6146   1.6977   1.7319   1.7709   1.8223   1.8734   1.9167
     1.9473   1.9766   1.9868   2.0868   2.2028   2.2781   2.3168   2.3709
     2.4160   2.4522   2.4585   2.4677   2.4949   2.5319   2.5653   2.6613
     2.6934   2.7089   2.8761   2.8978   2.9306   2.9535   2.9694   2.9779
     2.9848   2.9942   3.0239   3.0269   3.0449   3.0499   3.0595   3.0773
     3.0891   3.0966   3.1188   3.1294   3.1347   3.1692   3.1854   3.2470
     3.6099   3.6543   3.8943   4.3144   4.4317   4.7192   5.0258   5.0828
     5.6512   5.8213   5.9328   5.9939   6.0941   6.1200   6.1931   6.6056
     6.8314   7.1020   7.1680   7.3388   7.4925   7.5081   7.5520   7.6542
     7.8419   7.8851   8.0349   8.1746   8.3024   8.3773   8.4050   8.4312
     8.5979   8.8547   8.9670

     occupation numbers 
     1.0000   1.0000   1.0000   1.0000   1.0000   1.0000   1.0000   1.0000
     1.0000   1.0000   1.0000   1.0000   1.0000   1.0000   1.0000   1.0000
     1.0000   1.0000   1.0000   1.0000   1.0000   1.0000   1.0000   1.0000
     1.0000   1.0000   1.0000   1.0000   1.0000   1.0000   1.0000   1.0000
     1.0000   1.0000   1.0000   1.0000   1.0000   1.0000   1.0000   1.0000
     1.0000   1.0000   1.0000   1.0000   1.0000   1.0000   1.0000   1.0000
     1.0000   1.0000   1.0000   1.0000   1.0000   1.0000   1.0000   1.0000
     1.0000   1.0000   1.0000   1.0000   1.0000   1.0000   1.0000   1.0000
     1.0000   1.0000   1.0000   1.0000   1.0000   1.0000   1.0000   1.0000
     1.0000   1.0000   1.0000   1.0000   1.0000   1.0000   1.0000   1.0000
     1.0000   1.0000   1.0000   1.0000   1.0000   1.0000   1.0000   1.0000
     1.0000   1.0000   1.0000   1.0000   1.0000   1.0000   1.0000   1.0000
     1.0000   1.0000   1.0000   1.0000   1.0000   1.0000   1.0000   1.0000
     1.0000   1.0000   1.0000   1.0000   1.0000   1.0000   1.0000   1.0000
     1.0000   1.0000   1.0000   1.0000   1.0000   1.0000   1.0000   1.0000
     1.0000   1.0000   1.0000   1.0000   1.0000   1.0000   1.0000   1.0000
     1.0000   1.0000   1.0000   1.0000   1.0000   1.0000   1.0000   1.0000
     1.0000   1.0000   1.0000   1.0000   1.0000   1.0000   1.0000   1.0000
     1.0000   1.0000   1.0000   1.0000   1.0000   1.0000   1.0000   1.0000
     1.0000   1.0000   1.0000   1.0000   1.0000   1.0000   0.9999   0.9999
     0.9999   0.9998   0.9998   0.9997   0.9996   0.9996   0.9992   0.9988
     0.9986   0.9985   0.9983   0.9981   0.9975   0.9972   0.9968   0.9961
     0.9954   0.9947   0.9925   0.9914   0.9900   0.9878   0.9851   0.9825
     0.9805   0.9783   0.9775   0.9683   0.9540   0.9421   0.9352   0.9244
     0.9144   0.9056   0.9040   0.9017   0.8945   0.8841   0.8742   0.8423
     0.8305   0.8246   0.7533   0.7430   0.7270   0.7156   0.7075   0.7032
     0.6997   0.6948   0.6791   0.6776   0.6679   0.6652   0.6600   0.6503
     0.6438   0.6396   0.6272   0.6213   0.6183   0.5986   0.5892   0.5533
     0.3428   0.3189   0.2041   0.0734   0.0521   0.0201   0.0061   0.0048
     0.0003   0.0001   0.0001   0.0000   0.0000   0.0000   0.0000   0.0000
     0.0000   0.0000   0.0000   0.0000   0.0000   0.0000   0.0000   0.0000
     0.0000   0.0000   0.0000   0.0000   0.0000   0.0000   0.0000   0.0000
     0.0000   0.0000   0.0000

          k = 0.0000-0.5000 0.0000 ( 65180 PWs)   bands (ev):

   -92.6903 -92.6391 -92.5445 -92.4978 -92.4384 -92.3966 -92.3799 -92.2612
   -56.0437 -56.0260 -55.9017 -55.8910 -55.8853 -55.8778 -55.8433 -55.8136
   -55.7986 -55.7961 -55.7890 -55.7460 -55.7282 -55.6896 -55.6710 -55.6383
   -55.6334 -55.5860 -55.5853 -55.5819 -55.5735 -55.5361 -55.5100 -55.4270
   -31.2675 -31.2482 -31.1070 -31.1000 -31.0200 -30.9025 -30.8692 -30.6478
   -29.8367 -29.7941 -29.7695 -29.6604 -14.9982 -14.9504 -14.8945 -14.7696
   -14.6830 -14.5493 -14.3881 -14.2740 -14.1470 -14.0718 -14.0312 -14.0265
   -13.9770 -13.9609 -13.9484 -13.9074 -13.8873 -13.8639 -13.8332 -13.7963
   -13.7450 -13.5729 -13.5139 -13.4850 -13.4458 -13.3940 -13.3480 -13.2923
   -13.2733 -13.2374 -13.2077 -13.1015 -13.0916 -13.0521 -12.9583 -12.9481
   -12.9227 -12.9180 -12.8726 -12.8597 -12.8252 -12.7612 -12.6954 -12.6551
   -12.6420 -12.6225 -12.5901 -12.5045 -12.4188 -12.3128 -12.2862 -12.1497
   -12.0983 -11.7710 -11.7682 -11.7405 -11.7030 -11.6688 -11.6577 -11.6160
   -11.6119 -11.5679 -11.5039 -11.4910 -11.4771  -2.5806  -2.5209  -2.3711
    -2.2993  -2.0169  -1.9338  -1.8058  -1.6699  -1.6295  -1.6126  -1.5331
    -1.5035  -1.4196  -1.3854  -1.3073  -1.2681  -1.2302  -1.2031  -1.1418
    -1.1128  -1.0850  -1.0607  -1.0246  -0.9909  -0.9584  -0.8472  -0.8032
    -0.7669  -0.7644  -0.6797  -0.6467  -0.6264  -0.5745  -0.4895  -0.4207
    -0.3318  -0.2988  -0.2045  -0.1588  -0.0185   0.0278   0.0454   0.1197
     0.2440   0.2782   0.4024   0.4730   0.4797   0.6060   0.6573   0.8046
     0.8847   0.9954   1.0259   1.0648   1.0711   1.1161   1.1259   1.1601
     1.1770   1.1890   1.2961   1.3588   1.3951   1.4192   1.6796   1.7086
     1.7339   1.8269   1.8548   1.8769   1.8921   1.9215   1.9353   1.9565
     1.9784   2.0139   2.0499   2.0808   2.0851   2.1109   2.1632   2.2501
     2.2774   2.4465   2.4716   2.4908   2.6137   2.6251   2.6570   2.6805
     2.6867   2.6936   2.7444   2.7564   2.8103   2.8320   2.9079   2.9253
     2.9912   2.9986   3.0212   3.0237   3.0412   3.0468   3.0532   3.0543
     3.0583   3.0711   3.0887   3.0902   3.1547   3.1591   3.1749   3.2294
     4.1463   4.1657   4.1868   4.2694   4.7629   4.9109   5.0347   5.1787
     5.4247   5.4742   5.5915   5.7434   6.0394   6.0593   6.2538   6.5341
     6.8603   6.9614   7.2284   7.3311   7.4031   7.4947   7.6164   7.7649
     7.9181   7.9520   8.1453   8.2833   8.3734   8.4837   8.5315   8.6929
     8.8148   8.8251   8.8785

     occupation numbers 
     1.0000   1.0000   1.0000   1.0000   1.0000   1.0000   1.0000   1.0000
     1.0000   1.0000   1.0000   1.0000   1.0000   1.0000   1.0000   1.0000
     1.0000   1.0000   1.0000   1.0000   1.0000   1.0000   1.0000   1.0000
     1.0000   1.0000   1.0000   1.0000   1.0000   1.0000   1.0000   1.0000
     1.0000   1.0000   1.0000   1.0000   1.0000   1.0000   1.0000   1.0000
     1.0000   1.0000   1.0000   1.0000   1.0000   1.0000   1.0000   1.0000
     1.0000   1.0000   1.0000   1.0000   1.0000   1.0000   1.0000   1.0000
     1.0000   1.0000   1.0000   1.0000   1.0000   1.0000   1.0000   1.0000
     1.0000   1.0000   1.0000   1.0000   1.0000   1.0000   1.0000   1.0000
     1.0000   1.0000   1.0000   1.0000   1.0000   1.0000   1.0000   1.0000
     1.0000   1.0000   1.0000   1.0000   1.0000   1.0000   1.0000   1.0000
     1.0000   1.0000   1.0000   1.0000   1.0000   1.0000   1.0000   1.0000
     1.0000   1.0000   1.0000   1.0000   1.0000   1.0000   1.0000   1.0000
     1.0000   1.0000   1.0000   1.0000   1.0000   1.0000   1.0000   1.0000
     1.0000   1.0000   1.0000   1.0000   1.0000   1.0000   1.0000   1.0000
     1.0000   1.0000   1.0000   1.0000   1.0000   1.0000   1.0000   1.0000
     1.0000   1.0000   1.0000   1.0000   1.0000   1.0000   1.0000   1.0000
     1.0000   1.0000   1.0000   1.0000   1.0000   1.0000   1.0000   1.0000
     1.0000   1.0000   1.0000   1.0000   1.0000   1.0000   1.0000   1.0000
     1.0000   1.0000   1.0000   1.0000   1.0000   1.0000   1.0000   0.9999
     0.9999   0.9997   0.9997   0.9996   0.9996   0.9995   0.9995   0.9994
     0.9993   0.9993   0.9988   0.9983   0.9980   0.9978   0.9931   0.9922
     0.9914   0.9875   0.9861   0.9849   0.9841   0.9822   0.9813   0.9798
     0.9782   0.9753   0.9720   0.9690   0.9685   0.9657   0.9594   0.9468
     0.9422   0.9070   0.9007   0.8956   0.8587   0.8549   0.8438   0.8353
     0.8330   0.8304   0.8107   0.8058   0.7831   0.7735   0.7381   0.7297
     0.6964   0.6925   0.6806   0.6793   0.6699   0.6669   0.6635   0.6629
     0.6607   0.6537   0.6440   0.6432   0.6069   0.6043   0.5953   0.5636
     0.1148   0.1093   0.1036   0.0832   0.0171   0.0097   0.0059   0.0031
     0.0010   0.0008   0.0004   0.0002   0.0000   0.0000   0.0000   0.0000
     0.0000   0.0000   0.0000   0.0000   0.0000   0.0000   0.0000   0.0000
     0.0000   0.0000   0.0000   0.0000   0.0000   0.0000   0.0000   0.0000
     0.0000   0.0000   0.0000

          k = 0.2500 0.2500 0.0000 ( 65198 PWs)   bands (ev):

   -92.6903 -92.6391 -92.5445 -92.4978 -92.4384 -92.3966 -92.3799 -92.2612
   -56.0437 -56.0260 -55.9017 -55.8910 -55.8853 -55.8778 -55.8433 -55.8136
   -55.7986 -55.7961 -55.7890 -55.7460 -55.7282 -55.6896 -55.6710 -55.6383
   -55.6334 -55.5860 -55.5853 -55.5819 -55.5735 -55.5361 -55.5100 -55.4270
   -31.2660 -31.2501 -31.1064 -31.1000 -31.0202 -30.9027 -30.8689 -30.6478
   -29.8364 -29.7954 -29.7684 -29.6605 -15.0055 -14.9641 -14.8923 -14.7761
   -14.6553 -14.5299 -14.4591 -14.2522 -14.0979 -14.0852 -14.0478 -14.0200
   -13.9957 -13.9664 -13.9500 -13.9363 -13.9003 -13.8288 -13.8126 -13.6526
   -13.6382 -13.6073 -13.5900 -13.5304 -13.4996 -13.4329 -13.4159 -13.2827
   -13.2344 -13.2162 -13.1330 -13.0926 -13.0510 -13.0266 -13.0079 -12.9635
   -12.9367 -12.9094 -12.8901 -12.8371 -12.7907 -12.7725 -12.7344 -12.7219
   -12.7036 -12.6520 -12.5909 -12.4836 -12.4420 -12.3503 -12.2669 -12.0867
   -12.0360 -11.7888 -11.7574 -11.7462 -11.7391 -11.6769 -11.6415 -11.6353
   -11.5999 -11.5918 -11.4993 -11.4588 -11.4415  -2.6568  -2.4484  -2.3303
    -2.2359  -2.1153  -2.0507  -1.8522  -1.7081  -1.6891  -1.6585  -1.5652
    -1.5297  -1.4368  -1.4088  -1.3590  -1.2290  -1.1798  -1.1063  -1.0906
    -1.0619  -1.0168  -0.9931  -0.9697  -0.9265  -0.9120  -0.8212  -0.7713
    -0.7047  -0.6561  -0.6267  -0.5768  -0.5624  -0.4996  -0.4503  -0.3885
    -0.3577  -0.2704  -0.2206  -0.1904  -0.1527  -0.0969  -0.0256   0.0134
     0.0433   0.1206   0.1812   0.4205   0.5694   0.6025   0.6610   0.7030
     0.7878   0.8379   0.8852   0.9151   1.1880   1.2522   1.3265   1.3496
     1.4013   1.4303   1.4660   1.5025   1.5203   1.5471   1.5919   1.6019
     1.6157   1.6637   1.7048   1.7405   1.7924   1.8366   1.8448   1.8829
     1.9151   1.9746   2.0032   2.1273   2.1874   2.2208   2.2467   2.3295
     2.3799   2.4064   2.4372   2.4512   2.4698   2.4819   2.4997   2.6058
     2.6326   2.7217   2.8872   2.9042   2.9100   2.9262   2.9407   2.9546
     2.9664   2.9735   2.9850   2.9981   3.0109   3.0291   3.0365   3.0470
     3.0698   3.0808   3.0896   3.1218   3.4220   3.5152   3.5583   3.6283
     3.6537   3.8739   3.9651   4.3184   4.5219   4.7287   4.9952   5.1740
     5.6558   5.7138   5.7851   5.8475   5.9057   6.0885   6.1681   6.2185
     6.9040   6.9582   7.0702   7.2940   7.5600   7.6151   7.7223   7.8454
     7.8819   8.0157   8.1830   8.1961   8.2954   8.3450   8.4546   8.5070
     8.5624   8.7725   8.9156

     occupation numbers 
     1.0000   1.0000   1.0000   1.0000   1.0000   1.0000   1.0000   1.0000
     1.0000   1.0000   1.0000   1.0000   1.0000   1.0000   1.0000   1.0000
     1.0000   1.0000   1.0000   1.0000   1.0000   1.0000   1.0000   1.0000
     1.0000   1.0000   1.0000   1.0000   1.0000   1.0000   1.0000   1.0000
     1.0000   1.0000   1.0000   1.0000   1.0000   1.0000   1.0000   1.0000
     1.0000   1.0000   1.0000   1.0000   1.0000   1.0000   1.0000   1.0000
     1.0000   1.0000   1.0000   1.0000   1.0000   1.0000   1.0000   1.0000
     1.0000   1.0000   1.0000   1.0000   1.0000   1.0000   1.0000   1.0000
     1.0000   1.0000   1.0000   1.0000   1.0000   1.0000   1.0000   1.0000
     1.0000   1.0000   1.0000   1.0000   1.0000   1.0000   1.0000   1.0000
     1.0000   1.0000   1.0000   1.0000   1.0000   1.0000   1.0000   1.0000
     1.0000   1.0000   1.0000   1.0000   1.0000   1.0000   1.0000   1.0000
     1.0000   1.0000   1.0000   1.0000   1.0000   1.0000   1.0000   1.0000
     1.0000   1.0000   1.0000   1.0000   1.0000   1.0000   1.0000   1.0000
     1.0000   1.0000   1.0000   1.0000   1.0000   1.0000   1.0000   1.0000
     1.0000   1.0000   1.0000   1.0000   1.0000   1.0000   1.0000   1.0000
     1.0000   1.0000   1.0000   1.0000   1.0000   1.0000   1.0000   1.0000
     1.0000   1.0000   1.0000   1.0000   1.0000   1.0000   1.0000   1.0000
     1.0000   1.0000   1.0000   1.0000   1.0000   1.0000   1.0000   1.0000
     1.0000   1.0000   1.0000   1.0000   1.0000   1.0000   1.0000   1.0000
     0.9999   0.9999   0.9999   0.9998   0.9993   0.9990   0.9986   0.9984
     0.9980   0.9977   0.9973   0.9968   0.9965   0.9961   0.9952   0.9950
     0.9947   0.9935   0.9923   0.9911   0.9891   0.9871   0.9867   0.9846
     0.9826   0.9785   0.9762   0.9638   0.9561   0.9513   0.9473   0.9327
     0.9224   0.9165   0.9093   0.9059   0.9011   0.8980   0.8932   0.8613
     0.8523   0.8197   0.7480   0.7399   0.7371   0.7292   0.7220   0.7151
     0.7091   0.7054   0.6996   0.6928   0.6860   0.6764   0.6724   0.6668
     0.6544   0.6484   0.6435   0.6255   0.4500   0.3958   0.3714   0.3328
     0.3192   0.2128   0.1756   0.0726   0.0393   0.0194   0.0069   0.0032
     0.0003   0.0002   0.0001   0.0001   0.0001   0.0000   0.0000   0.0000
     0.0000   0.0000   0.0000   0.0000   0.0000   0.0000   0.0000   0.0000
     0.0000   0.0000   0.0000   0.0000   0.0000   0.0000   0.0000   0.0000
     0.0000   0.0000   0.0000

          k = 0.2500-0.5000 0.0000 ( 65138 PWs)   bands (ev):

   -92.6903 -92.6391 -92.5445 -92.4978 -92.4384 -92.3966 -92.3799 -92.2612
   -56.0437 -56.0260 -55.9017 -55.8910 -55.8853 -55.8778 -55.8433 -55.8136
   -55.7986 -55.7960 -55.7890 -55.7460 -55.7282 -55.6896 -55.6710 -55.6383
   -55.6334 -55.5860 -55.5853 -55.5819 -55.5735 -55.5361 -55.5100 -55.4270
   -31.2658 -31.2499 -31.1066 -31.0999 -31.0204 -30.9026 -30.8691 -30.6480
   -29.8357 -29.7951 -29.7691 -29.6608 -14.9674 -14.9236 -14.8516 -14.7406
   -14.7054 -14.5891 -14.4929 -14.3694 -14.0623 -14.0079 -13.9835 -13.9604
   -13.9483 -13.9452 -13.9321 -13.8918 -13.8749 -13.8458 -13.8094 -13.7840
   -13.7379 -13.6552 -13.6073 -13.5460 -13.5273 -13.4602 -13.4451 -13.3369
   -13.2829 -13.1969 -13.1321 -13.1133 -13.0347 -13.0137 -12.9797 -12.9637
   -12.9332 -12.9015 -12.8798 -12.8564 -12.8071 -12.7707 -12.6948 -12.6684
   -12.6460 -12.6160 -12.5915 -12.5112 -12.3792 -12.3103 -12.2422 -12.1432
   -12.1086 -11.7646 -11.7525 -11.7414 -11.7141 -11.6831 -11.6540 -11.6137
   -11.5855 -11.5639 -11.5173 -11.4921 -11.4813  -2.4387  -2.3726  -2.2449
    -2.1680  -2.0374  -1.9534  -1.8303  -1.6808  -1.6252  -1.6046  -1.5420
    -1.5287  -1.4302  -1.3653  -1.2803  -1.2293  -1.2206  -1.1574  -1.1136
    -1.0940  -1.0764  -1.0326  -0.9957  -0.9608  -0.9211  -0.9076  -0.8642
    -0.8353  -0.7928  -0.7617  -0.6946  -0.5913  -0.5514  -0.4750  -0.4099
    -0.3578  -0.3172  -0.2982  -0.2426  -0.0840  -0.0756   0.0390   0.0682
     0.0816   0.1293   0.1547   0.2004   0.2206   0.2858   0.5600   0.6527
     0.7549   0.8193   1.0482   1.0722   1.1585   1.1871   1.3497   1.3850
     1.4260   1.4467   1.4622   1.4827   1.5466   1.5952   1.6284   1.7135
     1.7951   1.8371   1.8585   1.8716   1.9026   1.9180   1.9223   1.9683
     1.9810   1.9968   2.0474   2.0586   2.0727   2.1086   2.1641   2.2033
     2.2844   2.4170   2.4544   2.4943   2.5668   2.5875   2.6099   2.6317
     2.6536   2.6829   2.7035   2.7191   2.7420   2.8380   2.8860   2.9060
     2.9123   2.9232   2.9438   2.9579   2.9768   2.9839   3.0182   3.0302
     3.0433   3.0528   3.0630   3.0718   3.6008   3.6051   3.7532   3.8037
     4.1520   4.1935   4.2079   4.3268   4.7810   4.9333   5.0723   5.1486
     5.3156   5.4427   5.6154   5.6561   5.7781   5.7994   6.3575   6.4049
     6.4949   6.6762   7.1861   7.4352   7.5469   7.7129   7.8102   7.8349
     7.8905   8.0503   8.2475   8.3659   8.4650   8.5422   8.5537   8.5757
     8.7224   8.7674   8.7986

     occupation numbers 
     1.0000   1.0000   1.0000   1.0000   1.0000   1.0000   1.0000   1.0000
     1.0000   1.0000   1.0000   1.0000   1.0000   1.0000   1.0000   1.0000
     1.0000   1.0000   1.0000   1.0000   1.0000   1.0000   1.0000   1.0000
     1.0000   1.0000   1.0000   1.0000   1.0000   1.0000   1.0000   1.0000
     1.0000   1.0000   1.0000   1.0000   1.0000   1.0000   1.0000   1.0000
     1.0000   1.0000   1.0000   1.0000   1.0000   1.0000   1.0000   1.0000
     1.0000   1.0000   1.0000   1.0000   1.0000   1.0000   1.0000   1.0000
     1.0000   1.0000   1.0000   1.0000   1.0000   1.0000   1.0000   1.0000
     1.0000   1.0000   1.0000   1.0000   1.0000   1.0000   1.0000   1.0000
     1.0000   1.0000   1.0000   1.0000   1.0000   1.0000   1.0000   1.0000
     1.0000   1.0000   1.0000   1.0000   1.0000   1.0000   1.0000   1.0000
     1.0000   1.0000   1.0000   1.0000   1.0000   1.0000   1.0000   1.0000
     1.0000   1.0000   1.0000   1.0000   1.0000   1.0000   1.0000   1.0000
     1.0000   1.0000   1.0000   1.0000   1.0000   1.0000   1.0000   1.0000
     1.0000   1.0000   1.0000   1.0000   1.0000   1.0000   1.0000   1.0000
     1.0000   1.0000   1.0000   1.0000   1.0000   1.0000   1.0000   1.0000
     1.0000   1.0000   1.0000   1.0000   1.0000   1.0000   1.0000   1.0000
     1.0000   1.0000   1.0000   1.0000   1.0000   1.0000   1.0000   1.0000
     1.0000   1.0000   1.0000   1.0000   1.0000   1.0000   1.0000   1.0000
     1.0000   1.0000   1.0000   1.0000   1.0000   1.0000   1.0000   1.0000
     0.9999   0.9999   0.9997   0.9996   0.9994   0.9993   0.9984   0.9981
     0.9977   0.9975   0.9973   0.9971   0.9961   0.9952   0.9944   0.9920
     0.9890   0.9870   0.9859   0.9852   0.9834   0.9825   0.9822   0.9790
     0.9780   0.9767   0.9723   0.9712   0.9698   0.9660   0.9592   0.9539
     0.9410   0.9141   0.9051   0.8947   0.8737   0.8672   0.8599   0.8526
     0.8450   0.8344   0.8267   0.8207   0.8116   0.7708   0.7486   0.7391
     0.7360   0.7307   0.7205   0.7134   0.7038   0.7001   0.6822   0.6758
     0.6688   0.6637   0.6581   0.6533   0.3478   0.3454   0.2684   0.2443
     0.1132   0.1018   0.0980   0.0709   0.0160   0.0089   0.0050   0.0036
     0.0017   0.0009   0.0004   0.0003   0.0001   0.0001   0.0000   0.0000
     0.0000   0.0000   0.0000   0.0000   0.0000   0.0000   0.0000   0.0000
     0.0000   0.0000   0.0000   0.0000   0.0000   0.0000   0.0000   0.0000
     0.0000   0.0000   0.0000

          k =-0.5000-0.5000 0.0000 ( 65132 PWs)   bands (ev):

   -92.6903 -92.6391 -92.5445 -92.4978 -92.4384 -92.3966 -92.3799 -92.2612
   -56.0437 -56.0260 -55.9017 -55.8910 -55.8853 -55.8778 -55.8433 -55.8136
   -55.7986 -55.7961 -55.7889 -55.7460 -55.7282 -55.6896 -55.6710 -55.6383
   -55.6334 -55.5860 -55.5853 -55.5819 -55.5735 -55.5361 -55.5100 -55.4270
   -31.2637 -31.2521 -31.1063 -31.0998 -31.0208 -30.9028 -30.8689 -30.6481
   -29.8347 -29.7961 -29.7687 -29.6612 -14.9203 -14.8963 -14.7797 -14.7647
   -14.6678 -14.6355 -14.6000 -14.4677 -13.9727 -13.9632 -13.9480 -13.9273
   -13.9093 -13.8900 -13.8702 -13.8500 -13.8364 -13.8181 -13.8173 -13.8008
   -13.7218 -13.7162 -13.6815 -13.6523 -13.6342 -13.5483 -13.5165 -13.3774
   -13.3211 -13.1481 -13.1105 -13.0391 -13.0154 -12.9980 -12.9786 -12.9738
   -12.9643 -12.9454 -12.8453 -12.8236 -12.7958 -12.7795 -12.7436 -12.7072
   -12.6090 -12.5923 -12.5835 -12.5276 -12.3460 -12.3067 -12.1961 -12.1329
   -12.1299 -11.7608 -11.7488 -11.7310 -11.7140 -11.6793 -11.6619 -11.6260
   -11.5654 -11.5460 -11.5400 -11.4900 -11.4871  -2.2138  -2.1396  -2.1300
    -2.0549  -2.0184  -1.9403  -1.8723  -1.7462  -1.6310  -1.6015  -1.5602
    -1.5042  -1.4328  -1.4169  -1.3479  -1.3041  -1.1873  -1.1577  -1.1095
    -1.0900  -1.0817  -1.0173  -0.9705  -0.9526  -0.9403  -0.8847  -0.8422
    -0.8256  -0.7132  -0.6562  -0.6086  -0.5607  -0.5305  -0.5174  -0.4850
    -0.4426  -0.4056  -0.3967  -0.3100  -0.2464  -0.1996  -0.1737  -0.1007
    -0.0429  -0.0318   0.0270   0.0622   0.0675   0.1014   0.5329   0.5699
     0.6848   0.7631   1.0788   1.0960   1.1250   1.1633   1.4364   1.4562
     1.4618   1.5023   1.6284   1.7222   1.7497   1.7855   1.8073   1.8344
     1.8413   1.8699   1.8793   1.8950   1.9069   1.9599   1.9639   1.9936
     2.0066   2.0313   2.0418   2.0798   2.1055   2.1221   2.1527   2.1931
     2.2426   2.3098   2.4476   2.4924   2.5809   2.6108   2.6319   2.6484
     2.6658   2.6900   2.6939   2.7132   2.7242   2.7407   2.7612   2.7730
     2.8388   2.8409   2.8643   2.8771   2.8894   2.9097   2.9136   2.9232
     3.0274   3.0310   3.0593   3.0697   4.0412   4.0551   4.0698   4.0814
     4.3317   4.4074   4.4291   4.6698   4.7920   4.8747   5.0039   5.0901
     5.1111   5.2180   5.3095   5.4351   5.8624   5.8934   5.9680   6.0359
     6.6093   6.7637   7.0349   7.1063   7.9193   7.9255   7.9320   7.9607
     7.9878   8.0321   8.1022   8.2720   8.4294   8.5913   8.6102   8.6279
     8.6710   8.7535   8.7577

     occupation numbers 
     1.0000   1.0000   1.0000   1.0000   1.0000   1.0000   1.0000   1.0000
     1.0000   1.0000   1.0000   1.0000   1.0000   1.0000   1.0000   1.0000
     1.0000   1.0000   1.0000   1.0000   1.0000   1.0000   1.0000   1.0000
     1.0000   1.0000   1.0000   1.0000   1.0000   1.0000   1.0000   1.0000
     1.0000   1.0000   1.0000   1.0000   1.0000   1.0000   1.0000   1.0000
     1.0000   1.0000   1.0000   1.0000   1.0000   1.0000   1.0000   1.0000
     1.0000   1.0000   1.0000   1.0000   1.0000   1.0000   1.0000   1.0000
     1.0000   1.0000   1.0000   1.0000   1.0000   1.0000   1.0000   1.0000
     1.0000   1.0000   1.0000   1.0000   1.0000   1.0000   1.0000   1.0000
     1.0000   1.0000   1.0000   1.0000   1.0000   1.0000   1.0000   1.0000
     1.0000   1.0000   1.0000   1.0000   1.0000   1.0000   1.0000   1.0000
     1.0000   1.0000   1.0000   1.0000   1.0000   1.0000   1.0000   1.0000
     1.0000   1.0000   1.0000   1.0000   1.0000   1.0000   1.0000   1.0000
     1.0000   1.0000   1.0000   1.0000   1.0000   1.0000   1.0000   1.0000
     1.0000   1.0000   1.0000   1.0000   1.0000   1.0000   1.0000   1.0000
     1.0000   1.0000   1.0000   1.0000   1.0000   1.0000   1.0000   1.0000
     1.0000   1.0000   1.0000   1.0000   1.0000   1.0000   1.0000   1.0000
     1.0000   1.0000   1.0000   1.0000   1.0000   1.0000   1.0000   1.0000
     1.0000   1.0000   1.0000   1.0000   1.0000   1.0000   1.0000   1.0000
     1.0000   1.0000   1.0000   1.0000   1.0000   1.0000   1.0000   1.0000
     1.0000   0.9999   0.9996   0.9996   0.9995   0.9994   0.9976   0.9974
     0.9973   0.9968   0.9944   0.9918   0.9908   0.9894   0.9885   0.9872
     0.9868   0.9853   0.9848   0.9839   0.9832   0.9796   0.9793   0.9770
     0.9759   0.9738   0.9728   0.9691   0.9663   0.9644   0.9607   0.9553
     0.9480   0.9365   0.9068   0.8952   0.8693   0.8597   0.8526   0.8468
     0.8407   0.8318   0.8303   0.8230   0.8187   0.8122   0.8038   0.7990
     0.7704   0.7694   0.7588   0.7528   0.7470   0.7373   0.7354   0.7307
     0.6773   0.6754   0.6601   0.6544   0.1480   0.1432   0.1384   0.1346
     0.0699   0.0560   0.0525   0.0239   0.0154   0.0112   0.0067   0.0046
     0.0042   0.0026   0.0017   0.0009   0.0001   0.0001   0.0000   0.0000
     0.0000   0.0000   0.0000   0.0000   0.0000   0.0000   0.0000   0.0000
     0.0000   0.0000   0.0000   0.0000   0.0000   0.0000   0.0000   0.0000
     0.0000   0.0000   0.0000

          k = 0.2500 0.0000 0.0000 ( 65257 PWs)   bands (ev):

   -92.6903 -92.6391 -92.5445 -92.4978 -92.4384 -92.3966 -92.3799 -92.2612
   -56.0437 -56.0260 -55.9017 -55.8910 -55.8853 -55.8778 -55.8433 -55.8136
   -55.7986 -55.7961 -55.7890 -55.7461 -55.7282 -55.6896 -55.6710 -55.6383
   -55.6334 -55.5860 -55.5853 -55.5819 -55.5735 -55.5361 -55.5100 -55.4270
   -31.2662 -31.2502 -31.1062 -31.1001 -31.0201 -30.9029 -30.8688 -30.6477
   -29.8370 -29.7957 -29.7678 -29.6601 -15.0380 -14.9942 -14.9261 -14.7791
   -14.6713 -14.4775 -14.3445 -14.1650 -14.1482 -14.1177 -14.0862 -14.0618
   -14.0275 -14.0118 -13.9926 -13.9545 -13.9369 -13.8287 -13.7978 -13.6489
   -13.5790 -13.5681 -13.5038 -13.4815 -13.4691 -13.4106 -13.3353 -13.3028
   -13.2139 -13.1493 -13.1359 -13.0723 -13.0503 -13.0327 -13.0148 -12.9966
   -12.9613 -12.9266 -12.9012 -12.8380 -12.8199 -12.8095 -12.7758 -12.7597
   -12.6868 -12.6588 -12.5904 -12.5351 -12.4634 -12.3957 -12.2388 -12.0570
   -11.9875 -11.8159 -11.7639 -11.7470 -11.7334 -11.7066 -11.6559 -11.6330
   -11.6246 -11.5739 -11.4843 -11.4290 -11.4230  -2.7947  -2.5733  -2.4431
    -2.2706  -2.2067  -2.0373  -1.8287  -1.7527  -1.7086  -1.6726  -1.5727
    -1.5586  -1.5230  -1.5033  -1.4352  -1.2551  -1.1458  -1.1113  -1.0867
    -1.0093  -0.9965  -0.9187  -0.8919  -0.8409  -0.8004  -0.7472  -0.7182
    -0.6694  -0.6433  -0.6247  -0.5691  -0.5536  -0.4643  -0.4546  -0.3878
    -0.2886  -0.2346  -0.1229  -0.1061  -0.0388  -0.0024   0.0556   0.0786
     0.1173   0.1960   0.2434   0.5087   0.6403   0.6798   0.7583   0.7877
     0.8324   0.8617   0.9185   1.0343   1.0771   1.1026   1.1399   1.2943
     1.3209   1.3568   1.3634   1.4014   1.4494   1.4923   1.5259   1.5788
     1.6277   1.6428   1.7008   1.7411   1.7826   1.8051   1.8940   1.8964
     1.9260   1.9708   1.9955   2.1073   2.1724   2.2338   2.3153   2.3458
     2.4029   2.4501   2.4635   2.4890   2.5018   2.5502   2.5582   2.5886
     2.6348   2.7604   2.8691   2.8918   2.9236   2.9486   2.9548   2.9776
     2.9864   3.0007   3.0214   3.0276   3.0542   3.0654   3.0718   3.0840
     3.1035   3.1294   3.1326   3.1403   3.1478   3.1575   3.1675   3.2912
     3.5984   3.6418   3.8923   4.2911   4.4696   4.6971   5.0296   5.0783
     5.6448   5.8280   5.9357   6.0193   6.0801   6.1051   6.1951   6.5912
     6.8844   7.0174   7.1245   7.3418   7.4795   7.5669   7.6017   7.6635
[...]
     0.3491   0.3256   0.2050   0.0783   0.0463   0.0217   0.0060   0.0049
     0.0003   0.0001   0.0001   0.0000   0.0000   0.0000   0.0000   0.0000
     0.0000   0.0000   0.0000   0.0000   0.0000   0.0000   0.0000   0.0000
     0.0000   0.0000   0.0000   0.0000   0.0000   0.0000   0.0000   0.0000
     0.0000   0.0000   0.0000

          k =-0.5000 0.0000 0.0000 ( 65180 PWs)   bands (ev):

   -92.6903 -92.6391 -92.5445 -92.4978 -92.4384 -92.3966 -92.3799 -92.2612
   -56.0437 -56.0260 -55.9017 -55.8910 -55.8853 -55.8778 -55.8433 -55.8136
   -55.7986 -55.7960 -55.7890 -55.7461 -55.7282 -55.6896 -55.6710 -55.6383
   -55.6334 -55.5860 -55.5853 -55.5819 -55.5735 -55.5361 -55.5100 -55.4270
   -31.2640 -31.2524 -31.1058 -31.1000 -31.0205 -30.9030 -30.8686 -30.6479
   -29.8359 -29.7967 -29.7674 -29.6605 -15.0042 -14.9508 -14.8897 -14.7793
   -14.6779 -14.5329 -14.3882 -14.2422 -14.1218 -14.1078 -14.0978 -14.0386
   -13.9818 -13.9501 -13.9468 -13.8985 -13.8901 -13.8723 -13.8267 -13.8033
   -13.6992 -13.5445 -13.5110 -13.4841 -13.4763 -13.4166 -13.3540 -13.2885
   -13.2577 -13.2342 -13.2038 -13.0620 -13.0442 -13.0290 -13.0048 -12.9924
   -12.9529 -12.9306 -12.9125 -12.8350 -12.8165 -12.7682 -12.6628 -12.6434
   -12.6301 -12.6213 -12.5906 -12.5308 -12.4123 -12.3168 -12.2777 -12.1484
   -12.1047 -11.7680 -11.7463 -11.7397 -11.7251 -11.7072 -11.6660 -11.6025
   -11.5849 -11.5521 -11.5071 -11.4981 -11.4825  -2.5705  -2.5321  -2.3685
    -2.3294  -2.0157  -1.9400  -1.7930  -1.6751  -1.6362  -1.5887  -1.5424
    -1.5178  -1.3944  -1.3506  -1.3339  -1.2519  -1.2171  -1.2027  -1.1700
    -1.1118  -1.0889  -1.0423  -1.0149  -0.9836  -0.8902  -0.8434  -0.7941
    -0.7622  -0.7407  -0.7091  -0.6625  -0.6371  -0.5991  -0.4983  -0.4249
    -0.3594  -0.2979  -0.1394  -0.0847  -0.0458  -0.0065   0.0464   0.0678
     0.2084   0.2397   0.3096   0.4504   0.5496   0.5976   0.7049   0.7512
     0.8755   0.9047   1.0144   1.0421   1.0971   1.1359   1.1657   1.1733
     1.2206   1.2443   1.3101   1.3610   1.4091   1.4167   1.7149   1.7253
     1.7392   1.7621   1.8659   1.8805   1.8948   1.9045   1.9385   1.9500
     1.9882   2.0121   2.0345   2.0884   2.1045   2.1574   2.1812   2.2339
     2.3685   2.4372   2.4492   2.4966   2.5126   2.5265   2.6178   2.6371
     2.6699   2.7358   2.7442   2.7507   2.7807   2.8487   2.8921   2.9418
     2.9650   3.0118   3.0151   3.0181   3.0278   3.0449   3.0552   3.0682
     3.0740   3.0940   3.1000   3.1196   3.1399   3.1446   3.2731   3.2808
     4.1099   4.1352   4.1960   4.3310   4.8013   4.8720   5.0555   5.0668
     5.4925   5.5206   5.6107   5.6635   6.0435   6.0531   6.3416   6.4287
     6.8052   7.0084   7.2693   7.2985   7.3466   7.4329   7.7858   7.8074
     7.8942   7.9916   8.1588   8.2970   8.3487   8.4865   8.5304   8.6439
     8.7722   8.8322   8.9279

     occupation numbers 
     1.0000   1.0000   1.0000   1.0000   1.0000   1.0000   1.0000   1.0000
     1.0000   1.0000   1.0000   1.0000   1.0000   1.0000   1.0000   1.0000
     1.0000   1.0000   1.0000   1.0000   1.0000   1.0000   1.0000   1.0000
     1.0000   1.0000   1.0000   1.0000   1.0000   1.0000   1.0000   1.0000
     1.0000   1.0000   1.0000   1.0000   1.0000   1.0000   1.0000   1.0000
     1.0000   1.0000   1.0000   1.0000   1.0000   1.0000   1.0000   1.0000
     1.0000   1.0000   1.0000   1.0000   1.0000   1.0000   1.0000   1.0000
     1.0000   1.0000   1.0000   1.0000   1.0000   1.0000   1.0000   1.0000
     1.0000   1.0000   1.0000   1.0000   1.0000   1.0000   1.0000   1.0000
     1.0000   1.0000   1.0000   1.0000   1.0000   1.0000   1.0000   1.0000
     1.0000   1.0000   1.0000   1.0000   1.0000   1.0000   1.0000   1.0000
     1.0000   1.0000   1.0000   1.0000   1.0000   1.0000   1.0000   1.0000
     1.0000   1.0000   1.0000   1.0000   1.0000   1.0000   1.0000   1.0000
     1.0000   1.0000   1.0000   1.0000   1.0000   1.0000   1.0000   1.0000
     1.0000   1.0000   1.0000   1.0000   1.0000   1.0000   1.0000   1.0000
     1.0000   1.0000   1.0000   1.0000   1.0000   1.0000   1.0000   1.0000
     1.0000   1.0000   1.0000   1.0000   1.0000   1.0000   1.0000   1.0000
     1.0000   1.0000   1.0000   1.0000   1.0000   1.0000   1.0000   1.0000
     1.0000   1.0000   1.0000   1.0000   1.0000   1.0000   1.0000   1.0000
     1.0000   1.0000   1.0000   1.0000   1.0000   1.0000   1.0000   0.9999
     0.9999   0.9998   0.9997   0.9997   0.9996   0.9995   0.9994   0.9993
     0.9992   0.9991   0.9987   0.9983   0.9979   0.9978   0.9920   0.9917
     0.9912   0.9903   0.9856   0.9847   0.9839   0.9833   0.9811   0.9803
     0.9774   0.9755   0.9735   0.9682   0.9664   0.9601   0.9570   0.9493
     0.9249   0.9093   0.9064   0.8941   0.8896   0.8857   0.8573   0.8508
     0.8392   0.8141   0.8107   0.8081   0.7957   0.7659   0.7457   0.7215
     0.7098   0.6856   0.6838   0.6823   0.6771   0.6679   0.6623   0.6553
     0.6521   0.6410   0.6377   0.6268   0.6153   0.6126   0.5380   0.5334
     0.1256   0.1180   0.1011   0.0700   0.0149   0.0113   0.0054   0.0051
     0.0007   0.0006   0.0004   0.0003   0.0000   0.0000   0.0000   0.0000
     0.0000   0.0000   0.0000   0.0000   0.0000   0.0000   0.0000   0.0000
     0.0000   0.0000   0.0000   0.0000   0.0000   0.0000   0.0000   0.0000
     0.0000   0.0000   0.0000

          k =-0.2500 0.2500 0.0000 ( 65198 PWs)   bands (ev):

   -92.6903 -92.6391 -92.5445 -92.4978 -92.4384 -92.3966 -92.3799 -92.2612
   -56.0437 -56.0260 -55.9017 -55.8910 -55.8853 -55.8778 -55.8433 -55.8136
   -55.7986 -55.7961 -55.7890 -55.7460 -55.7282 -55.6896 -55.6710 -55.6383
   -55.6334 -55.5860 -55.5853 -55.5819 -55.5735 -55.5361 -55.5100 -55.4270
   -31.2660 -31.2501 -31.1064 -31.1000 -31.0202 -30.9027 -30.8689 -30.6478
   -29.8364 -29.7954 -29.7684 -29.6605 -15.0068 -14.9629 -14.8912 -14.7742
   -14.6610 -14.5354 -14.4508 -14.2430 -14.1044 -14.0759 -14.0615 -14.0142
   -13.9900 -13.9679 -13.9523 -13.9465 -13.9060 -13.8237 -13.8133 -13.6621
   -13.6346 -13.6050 -13.5850 -13.5320 -13.4864 -13.4280 -13.4241 -13.2929
   -13.2289 -13.2107 -13.1369 -13.0948 -13.0359 -13.0258 -12.9934 -12.9738
   -12.9360 -12.9167 -12.8840 -12.8501 -12.8144 -12.7689 -12.7589 -12.7395
   -12.6822 -12.6243 -12.5894 -12.4492 -12.4318 -12.3845 -12.2726 -12.0925
   -12.0287 -11.7881 -11.7666 -11.7393 -11.7272 -11.6864 -11.6512 -11.6287
   -11.6067 -11.5844 -11.4991 -11.4543 -11.4447  -2.6552  -2.4473  -2.3261
    -2.2376  -2.1196  -2.0535  -1.8498  -1.7050  -1.6868  -1.6565  -1.5658
    -1.5285  -1.4364  -1.4023  -1.3762  -1.2351  -1.1779  -1.1117  -1.0927
    -1.0749  -1.0204  -0.9997  -0.9594  -0.9310  -0.8908  -0.8276  -0.7797
    -0.7162  -0.6475  -0.6228  -0.5716  -0.5429  -0.4967  -0.4397  -0.3916
    -0.3530  -0.2522  -0.2202  -0.2082  -0.1645  -0.0996  -0.0301   0.0166
     0.0500   0.1234   0.1806   0.4020   0.5719   0.6102   0.6497   0.7101
     0.7853   0.8457   0.8878   0.9142   1.1965   1.3020   1.3424   1.3756
     1.3828   1.4245   1.4398   1.4851   1.5154   1.5302   1.5552   1.6003
     1.6161   1.6601   1.6811   1.7249   1.8055   1.8264   1.8460   1.8904
     1.9114   1.9531   2.0111   2.1148   2.2164   2.2460   2.2966   2.3239
     2.3794   2.4179   2.4381   2.4528   2.4704   2.4938   2.4988   2.6056
     2.6309   2.7215   2.8940   2.9020   2.9157   2.9255   2.9367   2.9504
     2.9569   2.9755   2.9845   2.9982   3.0081   3.0201   3.0299   3.0394
     3.0713   3.0809   3.0892   3.1236   3.4154   3.4972   3.5608   3.6376
     3.6566   3.8592   3.9738   4.3178   4.5194   4.7297   5.0053   5.1740
     5.6575   5.7110   5.7876   5.8437   5.9066   6.0908   6.1767   6.2087
     6.8958   6.9667   7.0812   7.2743   7.5744   7.6223   7.6829   7.8548
     7.9153   7.9786   8.1796   8.2101   8.3308   8.3502   8.4565   8.4789
     8.5717   8.7665   8.9249

     occupation numbers 
     1.0000   1.0000   1.0000   1.0000   1.0000   1.0000   1.0000   1.0000
     1.0000   1.0000   1.0000   1.0000   1.0000   1.0000   1.0000   1.0000
     1.0000   1.0000   1.0000   1.0000   1.0000   1.0000   1.0000   1.0000
     1.0000   1.0000   1.0000   1.0000   1.0000   1.0000   1.0000   1.0000
     1.0000   1.0000   1.0000   1.0000   1.0000   1.0000   1.0000   1.0000
     1.0000   1.0000   1.0000   1.0000   1.0000   1.0000   1.0000   1.0000
     1.0000   1.0000   1.0000   1.0000   1.0000   1.0000   1.0000   1.0000
     1.0000   1.0000   1.0000   1.0000   1.0000   1.0000   1.0000   1.0000
     1.0000   1.0000   1.0000   1.0000   1.0000   1.0000   1.0000   1.0000
     1.0000   1.0000   1.0000   1.0000   1.0000   1.0000   1.0000   1.0000
     1.0000   1.0000   1.0000   1.0000   1.0000   1.0000   1.0000   1.0000
     1.0000   1.0000   1.0000   1.0000   1.0000   1.0000   1.0000   1.0000
     1.0000   1.0000   1.0000   1.0000   1.0000   1.0000   1.0000   1.0000
     1.0000   1.0000   1.0000   1.0000   1.0000   1.0000   1.0000   1.0000
     1.0000   1.0000   1.0000   1.0000   1.0000   1.0000   1.0000   1.0000
     1.0000   1.0000   1.0000   1.0000   1.0000   1.0000   1.0000   1.0000
     1.0000   1.0000   1.0000   1.0000   1.0000   1.0000   1.0000   1.0000
     1.0000   1.0000   1.0000   1.0000   1.0000   1.0000   1.0000   1.0000
     1.0000   1.0000   1.0000   1.0000   1.0000   1.0000   1.0000   1.0000
     1.0000   1.0000   1.0000   1.0000   1.0000   1.0000   1.0000   1.0000
     0.9999   0.9999   0.9999   0.9998   0.9993   0.9987   0.9985   0.9982
     0.9981   0.9977   0.9976   0.9970   0.9966   0.9964   0.9959   0.9951
     0.9947   0.9936   0.9930   0.9917   0.9885   0.9876   0.9866   0.9842
     0.9829   0.9801   0.9755   0.9653   0.9520   0.9474   0.9389   0.9338
     0.9225   0.9139   0.9091   0.9055   0.9010   0.8948   0.8934   0.8614
     0.8529   0.8198   0.7448   0.7410   0.7343   0.7296   0.7240   0.7172
     0.7139   0.7045   0.6998   0.6927   0.6875   0.6812   0.6760   0.6709
     0.6536   0.6483   0.6437   0.6245   0.4539   0.4062   0.3700   0.3278
     0.3177   0.2192   0.1723   0.0727   0.0396   0.0193   0.0066   0.0032
     0.0003   0.0002   0.0001   0.0001   0.0001   0.0000   0.0000   0.0000
     0.0000   0.0000   0.0000   0.0000   0.0000   0.0000   0.0000   0.0000
     0.0000   0.0000   0.0000   0.0000   0.0000   0.0000   0.0000   0.0000
     0.0000   0.0000   0.0000

          k =-0.5000 0.2500 0.0000 ( 65138 PWs)   bands (ev):

   -92.6903 -92.6391 -92.5445 -92.4978 -92.4384 -92.3966 -92.3799 -92.2612
   -56.0437 -56.0260 -55.9017 -55.8910 -55.8853 -55.8778 -55.8433 -55.8136
   -55.7986 -55.7960 -55.7889 -55.7460 -55.7282 -55.6896 -55.6710 -55.6383
   -55.6334 -55.5860 -55.5853 -55.5819 -55.5735 -55.5361 -55.5100 -55.4270
   -31.2638 -31.2523 -31.1061 -31.0999 -31.0206 -30.9029 -30.8688 -30.6480
   -29.8353 -29.7964 -29.7680 -29.6609 -14.9711 -14.9247 -14.8467 -14.7467
   -14.7053 -14.5801 -14.4920 -14.3608 -14.0546 -14.0246 -14.0129 -13.9682
   -13.9481 -13.9459 -13.9208 -13.8847 -13.8755 -13.8516 -13.8136 -13.8020
   -13.6925 -13.6270 -13.5776 -13.5722 -13.5569 -13.4681 -13.4581 -13.3298
   -13.2683 -13.1903 -13.1546 -13.0601 -13.0270 -13.0124 -13.0049 -12.9711
   -12.9384 -12.9285 -12.8983 -12.8385 -12.8025 -12.7702 -12.7021 -12.6767
   -12.6139 -12.6067 -12.5903 -12.5289 -12.3767 -12.3121 -12.2384 -12.1420
   -12.1130 -11.7607 -11.7480 -11.7340 -11.7219 -11.7007 -11.6708 -11.5895
   -11.5808 -11.5579 -11.5214 -11.4939 -11.4849  -2.4281  -2.3863  -2.2381
    -2.1960  -2.0350  -1.9585  -1.8171  -1.6811  -1.6242  -1.5967  -1.5587
    -1.5202  -1.4396  -1.3241  -1.2671  -1.2440  -1.2179  -1.1423  -1.1138
    -1.0882  -1.0741  -1.0563  -0.9962  -0.9660  -0.9286  -0.8932  -0.8645
    -0.8062  -0.7792  -0.7377  -0.7026  -0.5977  -0.5725  -0.4797  -0.4197
    -0.3885  -0.3300  -0.2465  -0.2155  -0.1124  -0.0795  -0.0138   0.0304
     0.0620   0.1307   0.1665   0.2099   0.2447   0.2818   0.5991   0.6490
     0.7310   0.7945   1.0255   1.0954   1.1600   1.1878   1.3642   1.3989
     1.4365   1.4476   1.4661   1.4839   1.5523   1.5979   1.6362   1.6689
     1.7823   1.8228   1.8572   1.8757   1.9059   1.9284   1.9462   1.9638
     1.9804   2.0024   2.0496   2.0627   2.1014   2.1257   2.1566   2.2166
     2.3480   2.4287   2.4459   2.4619   2.4948   2.5266   2.5642   2.6345
     2.6645   2.6710   2.7103   2.7411   2.7647   2.8488   2.8900   2.9033
     2.9085   2.9297   2.9520   2.9645   2.9789   2.9919   3.0137   3.0283
     3.0363   3.0444   3.0565   3.0695   3.6000   3.6330   3.7873   3.8059
     4.1115   4.1558   4.2083   4.4156   4.7959   4.8901   5.0581   5.0898
     5.4193   5.4429   5.5980   5.6347   5.7563   5.8087   6.4004   6.4397
     6.4973   6.5505   7.2787   7.3768   7.5782   7.7241   7.7934   7.8255
     7.9026   8.0359   8.2377   8.4175   8.5002   8.5233   8.5754   8.6009
     8.6678   8.7618   8.7842

     occupation numbers 
     1.0000   1.0000   1.0000   1.0000   1.0000   1.0000   1.0000   1.0000
     1.0000   1.0000   1.0000   1.0000   1.0000   1.0000   1.0000   1.0000
     1.0000   1.0000   1.0000   1.0000   1.0000   1.0000   1.0000   1.0000
     1.0000   1.0000   1.0000   1.0000   1.0000   1.0000   1.0000   1.0000
     1.0000   1.0000   1.0000   1.0000   1.0000   1.0000   1.0000   1.0000
     1.0000   1.0000   1.0000   1.0000   1.0000   1.0000   1.0000   1.0000
     1.0000   1.0000   1.0000   1.0000   1.0000   1.0000   1.0000   1.0000
     1.0000   1.0000   1.0000   1.0000   1.0000   1.0000   1.0000   1.0000
     1.0000   1.0000   1.0000   1.0000   1.0000   1.0000   1.0000   1.0000
     1.0000   1.0000   1.0000   1.0000   1.0000   1.0000   1.0000   1.0000
     1.0000   1.0000   1.0000   1.0000   1.0000   1.0000   1.0000   1.0000
     1.0000   1.0000   1.0000   1.0000   1.0000   1.0000   1.0000   1.0000
     1.0000   1.0000   1.0000   1.0000   1.0000   1.0000   1.0000   1.0000
     1.0000   1.0000   1.0000   1.0000   1.0000   1.0000   1.0000   1.0000
     1.0000   1.0000   1.0000   1.0000   1.0000   1.0000   1.0000   1.0000
     1.0000   1.0000   1.0000   1.0000   1.0000   1.0000   1.0000   1.0000
     1.0000   1.0000   1.0000   1.0000   1.0000   1.0000   1.0000   1.0000
     1.0000   1.0000   1.0000   1.0000   1.0000   1.0000   1.0000   1.0000
     1.0000   1.0000   1.0000   1.0000   1.0000   1.0000   1.0000   1.0000
     1.0000   1.0000   1.0000   1.0000   1.0000   1.0000   1.0000   1.0000
     0.9999   0.9999   0.9997   0.9996   0.9994   0.9993   0.9983   0.9980
     0.9976   0.9975   0.9973   0.9970   0.9960   0.9951   0.9942   0.9934
     0.9895   0.9877   0.9860   0.9850   0.9832   0.9818   0.9806   0.9793
     0.9780   0.9763   0.9721   0.9708   0.9668   0.9640   0.9602   0.9520
     0.9291   0.9113   0.9072   0.9032   0.8945   0.8857   0.8745   0.8517
     0.8411   0.8388   0.8241   0.8120   0.8024   0.7659   0.7467   0.7404
     0.7378   0.7275   0.7164   0.7101   0.7027   0.6960   0.6846   0.6768
     0.6725   0.6682   0.6617   0.6545   0.3482   0.3303   0.2520   0.2433
     0.1251   0.1121   0.0979   0.0547   0.0152   0.0106   0.0053   0.0046
     0.0010   0.0009   0.0004   0.0003   0.0002   0.0001   0.0000   0.0000
     0.0000   0.0000   0.0000   0.0000   0.0000   0.0000   0.0000   0.0000
     0.0000   0.0000   0.0000   0.0000   0.0000   0.0000   0.0000   0.0000
     0.0000   0.0000   0.0000

     the Fermi energy is     3.3373 ev

!    total energy              =   -4441.65615964 Ry
     estimated scf accuracy    <          6.7E-09 Ry
     smearing contrib. (-TS)   =      -1.15491036 Ry
     internal energy E=F+TS    =   -4440.50124928 Ry

     The total energy is F=E-TS. E is the sum of the following terms:
     one-electron contribution =  -20804.14227124 Ry
     hartree contribution      =   10534.20403783 Ry
     xc contribution           =    -694.18072247 Ry
     ewald contribution        =    6799.78833770 Ry
     one-center paw contrib.   =    -276.17063109 Ry
      -> PAW hartree energy AE =      25.17517499 Ry
      -> PAW hartree energy PS =     -25.05894591 Ry
      -> PAW xc energy AE      =     -16.51923738 Ry
      -> PAW xc energy PS      =       6.87878408 Ry
      -> total E_H with PAW    =   10534.32026690 Ry
      -> total E_XC with PAW   =    -703.82117577 Ry

     convergence has been achieved in  45 iterations

     Writing all to output data dir /bsuhome/zayahcortright/scratch/pwscf.save/
 
     init_run     :      8.32s CPU      9.13s WALL (       1 calls)
     electrons    :    772.30s CPU    850.94s WALL (       1 calls)

     Called by init_run:
     wfcinit      :      6.36s CPU      6.61s WALL (       1 calls)
     wfcinit:atom :      0.04s CPU      0.06s WALL (       5 calls)
     wfcinit:wfcr :      6.04s CPU      6.20s WALL (       5 calls)
     potinit      :      0.18s CPU      0.21s WALL (       1 calls)
     hinit0       :      0.83s CPU      1.09s WALL (       1 calls)

     Called by electrons:
     c_bands      :    625.04s CPU    637.00s WALL (      45 calls)
     sum_band     :    110.75s CPU    147.57s WALL (      45 calls)
     v_of_rho     :      4.92s CPU      5.30s WALL (      46 calls)
     v_h          :      0.42s CPU      0.42s WALL (      46 calls)
     v_xc         :      4.51s CPU      4.88s WALL (      46 calls)
     newd         :     17.46s CPU     46.52s WALL (      46 calls)
     PAW_pot      :      1.47s CPU      1.50s WALL (      46 calls)
     mix_rho      :     12.37s CPU     12.82s WALL (      45 calls)

     Called by c_bands:
     init_us_2    :      6.32s CPU      6.39s WALL (     455 calls)
     init_us_2:cp :      6.31s CPU      6.39s WALL (     455 calls)
     cegterg      :    587.90s CPU    599.43s WALL (     225 calls)

     Called by sum_band:
     sum_band:wei :      0.33s CPU      0.33s WALL (      45 calls)
     sum_band:loo :     90.49s CPU     91.30s WALL (      45 calls)
     sum_band:buf :      1.39s CPU      1.49s WALL (     225 calls)
     sum_band:ini :      2.86s CPU      2.87s WALL (     225 calls)
     sum_band:cal :     17.64s CPU     17.69s WALL (     225 calls)
     sum_band:bec :      0.51s CPU      0.54s WALL (     225 calls)
     addusdens    :     18.17s CPU     54.13s WALL (      45 calls)
                                        0.00s GPU  (      45 calls)
     addusd:skk   :      0.30s CPU      2.27s WALL (     180 calls)
                                        0.00s GPU  (     180 calls)

     Called by *egterg:
     cdiaghg      :     56.52s CPU     56.85s WALL (    1358 calls)
     cegterg:over :     43.31s CPU     43.50s WALL (    1133 calls)
     cegterg:upda :     46.03s CPU     46.99s WALL (    1133 calls)
     cegterg:last :     65.39s CPU     65.65s WALL (     412 calls)
     cdiaghg:chol :      3.37s CPU      3.39s WALL (    1358 calls)
     cdiaghg:inve :      3.33s CPU      3.35s WALL (    1358 calls)
     cdiaghg:para :      7.55s CPU      7.61s WALL (    2716 calls)
     h_psi        :    310.14s CPU    315.07s WALL (    1363 calls)
     s_psi        :     42.16s CPU     42.31s WALL (    1363 calls)
     g_psi        :      2.10s CPU      2.11s WALL (    1133 calls)

     Called by h_psi:
     h_psi:calbec :     43.81s CPU     44.14s WALL (    1363 calls)
     vloc_psi     :    219.29s CPU    221.47s WALL (    1363 calls)
     add_vuspsi   :     41.99s CPU     42.28s WALL (    1363 calls)

     General routines
     calbec       :     61.44s CPU     61.82s WALL (    1588 calls)
     fft          :      3.94s CPU      4.00s WALL (     596 calls)
     ffts         :      4.32s CPU      4.36s WALL (    4797 calls)
     fftw         :    171.86s CPU    173.24s WALL (  307249 calls)
     interpolate  :      0.38s CPU      0.39s WALL (      46 calls)
 
     Parallel routines

     PAW routines
     PAW_pot      :      1.47s CPU      1.50s WALL (      46 calls)
 
     PWSCF        :  13m 2.40s CPU  14m24.56s WALL

 
   This run was terminated on:  14:44:58  21Jun2024            

=------------------------------------------------------------------------------=
   JOB DONE.
=------------------------------------------------------------------------------=
