
     Program PWSCF v.7.2 starts on 21Jun2024 at 21:15: 8 

     This program is part of the open-source Quantum ESPRESSO suite
     for quantum simulation of materials; please cite
         "P. Giannozzi et al., J. Phys.:Condens. Matter 21 395502 (2009);
         "P. Giannozzi et al., J. Phys.:Condens. Matter 29 465901 (2017);
         "P. Giannozzi et al., J. Chem. Phys. 152 154105 (2020);
          URL http://www.quantum-espresso.org", 
     in publications or presentations arising from this work. More details at
     http://www.quantum-espresso.org/quote

     Parallel version (MPI & OpenMP), running on      48 processor cores
     Number of MPI processes:                48
     Threads/MPI process:                     1

     MPI processes distributed on     1 nodes
     180145 MiB available memory on the printing compute node when the environment starts
 
     Reading input from espresso.pwi
Warning: card &CELL ignored
Warning: card / ignored
Warning: card &FCP ignored
Warning: card / ignored
Warning: card &RISM ignored
Warning: card / ignored

     Current dimensions of program PWSCF are:
     Max number of different atomic species (ntypx) = 10
     Max number of k-points (npk) =  40000
     Max angular momentum in pseudopotentials (lmaxx) =  4
     file O.pbe-n-kjpaw_psl.0.1.UPF: wavefunction(s)  2P renormalized
     signal trapping enabled: kill the code with -SIGUSR1 to stop cleanly the simulation 
 
     K-points division:     npool     =       2
     R & G space division:  proc/nbgrp/npool/nimage =      24
     Subspace diagonalization in iterative solution of the eigenvalue problem:
     one sub-group per band group will be used
     scalapack distributed-memory algorithm (size of sub-group:  3*  3 procs)

 
     Parallelization info
     --------------------
     sticks:   dense  smooth     PW     G-vecs:    dense   smooth      PW
     Min         350     175     47                61430    21716    3036
     Max         351     177     48                61449    21727    3041
     Sum        8421    4205   1137              1474595   521381   72913
 
     Using Slab Decomposition
 


     bravais-lattice index     =            0
     lattice parameter (alat)  =      14.8599  a.u.
     unit-cell volume          =    8305.1283 (a.u.)^3
     number of atoms/cell      =           49
     number of atomic types    =            4
     number of electrons       =       425.00
     number of Kohn-Sham states=          256
     kinetic-energy cutoff     =      60.0000  Ry
     charge density cutoff     =     480.0000  Ry
     scf convergence threshold =      1.0E-08
     mixing beta               =       0.1500
     number of iterations used =            8  local-TF  mixing
     Exchange-correlation= PBE
                           (   1   4   3   4   0   0   0)

     celldm(1)=  14.859904  celldm(2)=   0.000000  celldm(3)=   0.000000
     celldm(4)=   0.000000  celldm(5)=   0.000000  celldm(6)=   0.000000

     crystal axes: (cart. coord. in units of alat)
               a(1) = (   1.000000   0.000000   0.000000 )  
               a(2) = (   0.000000   1.000000   0.000000 )  
               a(3) = (   0.000000   0.000000   2.531036 )  

     reciprocal axes: (cart. coord. in units 2 pi/alat)
               b(1) = (  1.000000  0.000000  0.000000 )  
               b(2) = (  0.000000  1.000000  0.000000 )  
               b(3) = (  0.000000  0.000000  0.395095 )  


     PseudoPot. # 1 for Sr read from file:
     /bsuhome/zayahcortright/q-e/pseudo/Sr_pbe_v1.uspp.F.UPF
     MD5 check sum: 6b418c05fbe9db5448babca5e47b7a5b
     Pseudo is Ultrasoft + core correction, Zval = 10.0
     Generated by new atomic code, or converted to UPF format
     Using radial grid of  883 points,  6 beta functions with: 
                l(1) =   0
                l(2) =   0
                l(3) =   1
                l(4) =   1
                l(5) =   2
                l(6) =   2
     Q(r) pseudized with  6 coefficients,  rinner =    1.400   1.400   1.400
                                                       1.400   1.400

     PseudoPot. # 2 for O  read from file:
     /bsuhome/zayahcortright/q-e/pseudo/O.pbe-n-kjpaw_psl.0.1.UPF
     MD5 check sum: 0234752ac141de4415c5fc33072bef88
     Pseudo is Projector augmented-wave + core cor, Zval =  6.0
     Generated using "atomic" code by A. Dal Corso  v.5.0.99 svn rev. 10869
     Shape of augmentation charge: BESSEL
     Using radial grid of 1095 points,  4 beta functions with: 
                l(1) =   0
                l(2) =   0
                l(3) =   1
                l(4) =   1
     Q(r) pseudized with 0 coefficients 


     PseudoPot. # 3 for Co read from file:
     /bsuhome/zayahcortright/q-e/pseudo/Co_pbe_v1.2.uspp.F.UPF
     MD5 check sum: 5f91765df6ddd3222702df6e7b74a16d
     Pseudo is Ultrasoft + core correction, Zval = 17.0
     Generated by new atomic code, or converted to UPF format
     Using radial grid of  863 points,  6 beta functions with: 
                l(1) =   0
                l(2) =   0
                l(3) =   1
                l(4) =   1
                l(5) =   2
                l(6) =   2
     Q(r) pseudized with  8 coefficients,  rinner =    1.200   1.200   1.200
                                                       1.200   1.200

     PseudoPot. # 4 for H  read from file:
     /bsuhome/zayahcortright/q-e/pseudo/H.pbe-rrkjus_psl.1.0.0.UPF
     MD5 check sum: f52b6d4d1c606e5624b1dc7b2218f220
     Pseudo is Ultrasoft, Zval =  1.0
     Generated using "atomic" code by A. Dal Corso  v.5.1
     Using radial grid of  929 points,  2 beta functions with: 
                l(1) =   0
                l(2) =   0
     Q(r) pseudized with 0 coefficients 


     atomic species   valence    mass     pseudopotential
        Sr            10.00    87.62000     Sr( 1.00)
        O              6.00    15.99900     O ( 1.00)
        Co            17.00    58.93319     Co( 1.00)
        H              1.00     1.00800     H ( 1.00)

     No symmetry found


                                    s                        frac. trans.

      isym =  1     identity                                     

 cryst.   s( 1) = (     1          0          0      )
                  (     0          1          0      )
                  (     0          0          1      )

 cart.    s( 1) = (  1.0000000  0.0000000  0.0000000 )
                  (  0.0000000  1.0000000  0.0000000 )
                  (  0.0000000  0.0000000  1.0000000 )


   Cartesian axes

     site n.     atom                  positions (alat units)
         1           Sr  tau(   1) = (   0.2508693   0.7491307   1.7574407  )
         2           O   tau(   2) = (   0.4985141   0.5014859   1.7715967  )
         3           Sr  tau(   3) = (   0.7482398   0.7454518   1.7648669  )
         4           Sr  tau(   4) = (   0.7441748   0.2558252   1.7667843  )
         5           Sr  tau(   5) = (   0.2508693   0.7491307   1.2696799  )
         6           Sr  tau(   6) = (   0.2508693   0.7491307   0.7632319  )
         7           Co  tau(   7) = (   0.4998914   0.5001086   1.0164559  )
         8           Co  tau(   8) = (   0.4936915   0.5063085   1.5135603  )
         9           O   tau(   9) = (   0.4988895   0.7610401   1.0164559  )
        10           O   tau(  10) = (   0.2389599   0.5011105   1.0164559  )
        11           O   tau(  11) = (   0.0070918   0.7374880   1.0164559  )
        12           O   tau(  12) = (   0.0088340   0.7405089   1.5135603  )
        13           O   tau(  13) = (   0.5066944   0.7415376   1.5135603  )
        14           O   tau(  14) = (   0.2584624   0.4933056   1.5135603  )
        15           O   tau(  15) = (   0.4985141   0.5014859   0.7773880  )
        16           O   tau(  16) = (   0.4985141   0.5014859   1.2555238  )
        17           Sr  tau(  17) = (   0.7482398   0.7454518   0.7706582  )
        18           Sr  tau(  18) = (   0.7482398   0.7454518   1.2622536  )
        19           Sr  tau(  19) = (   0.7441748   0.2558252   0.7725755  )
        20           Sr  tau(  20) = (   0.7441748   0.2558252   1.2603363  )
        21           O   tau(  21) = (   0.7322655   0.0078049   1.5135603  )
        22           O   tau(  22) = (   0.7558175   0.4996027   1.5135603  )
        23           O   tau(  23) = (   0.5003973   0.2441825   1.5135603  )
        24           O   tau(  24) = (   0.7527966   0.4978604   1.0164559  )
        25           O   tau(  25) = (   0.5021396   0.2472034   1.0164559  )
        26           O   tau(  26) = (   0.7517679   0.0000000   1.0164559  )
        27           O   tau(  27) = (   0.0114961   0.4948124   1.7455321  )
        28           O   tau(  28) = (   0.0048226   0.0077944   1.7715967  )
        29           Sr  tau(  29) = (   0.2545482   0.2517602   1.7648669  )
        30           O   tau(  30) = (   0.5048017   0.0015068   1.7786929  )
        31           Co  tau(  31) = (   0.0056869   0.5006215   1.0164559  )
        32           Co  tau(  32) = (   0.0065315   0.4997770   1.5135603  )
        33           Co  tau(  33) = (   0.0061999   0.0064171   1.0164559  )
        34           Co  tau(  34) = (   0.0000000   0.0126169   1.5135603  )
        35           O   tau(  35) = (   0.0114961   0.4948124   1.2815885  )
        36           O   tau(  36) = (   0.0114961   0.4948124   0.7513233  )
        37           O   tau(  37) = (   0.0051979   0.2673486   1.0164559  )
        38           O   tau(  38) = (   0.0130029   0.2478461   1.5135603  )
        39           O   tau(  39) = (   0.0048226   0.0077944   0.7773880  )
        40           O   tau(  40) = (   0.0048226   0.0077944   1.2555238  )
        41           Sr  tau(  41) = (   0.2545482   0.2517602   0.7706582  )
        42           Sr  tau(  42) = (   0.2545482   0.2517602   1.2622536  )
        43           Co  tau(  43) = (   0.4989925   0.0073160   1.5135603  )
        44           Co  tau(  44) = (   0.4998370   0.0064714   1.0164559  )
        45           O   tau(  45) = (   0.5048017   0.0015068   0.7844841  )
        46           O   tau(  46) = (   0.5048017   0.0015068   1.2484277  )
        47           O   tau(  47) = (   0.2621260   0.0059111   1.5135603  )
        48           O   tau(  48) = (   0.2591051   0.0041689   1.0164559  )
        49           H   tau(  49) = (   0.7108228   0.8529874   2.1602013  )

   Crystallographic axes

     site n.     atom                  positions (cryst. coord.)
         1           Sr  tau(   1) = (  0.2508693  0.7491307  0.6943562  )
         2           O   tau(   2) = (  0.4985141  0.5014859  0.6999492  )
         3           Sr  tau(   3) = (  0.7482398  0.7454518  0.6972903  )
         4           Sr  tau(   4) = (  0.7441748  0.2558252  0.6980478  )
         5           Sr  tau(   5) = (  0.2508693  0.7491307  0.5016443  )
         6           Sr  tau(   6) = (  0.2508693  0.7491307  0.3015492  )
         7           Co  tau(   7) = (  0.4998914  0.5001086  0.4015968  )
         8           Co  tau(   8) = (  0.4936915  0.5063085  0.5980003  )
         9           O   tau(   9) = (  0.4988895  0.7610401  0.4015968  )
        10           O   tau(  10) = (  0.2389599  0.5011105  0.4015968  )
        11           O   tau(  11) = (  0.0070918  0.7374880  0.4015968  )
        12           O   tau(  12) = (  0.0088340  0.7405089  0.5980003  )
        13           O   tau(  13) = (  0.5066944  0.7415376  0.5980003  )
        14           O   tau(  14) = (  0.2584624  0.4933056  0.5980003  )
        15           O   tau(  15) = (  0.4985141  0.5014859  0.3071422  )
        16           O   tau(  16) = (  0.4985141  0.5014859  0.4960513  )
        17           Sr  tau(  17) = (  0.7482398  0.7454518  0.3044833  )
        18           Sr  tau(  18) = (  0.7482398  0.7454518  0.4987103  )
        19           Sr  tau(  19) = (  0.7441748  0.2558252  0.3052408  )
        20           Sr  tau(  20) = (  0.7441748  0.2558252  0.4979527  )
        21           O   tau(  21) = (  0.7322655  0.0078049  0.5980003  )
        22           O   tau(  22) = (  0.7558175  0.4996027  0.5980003  )
        23           O   tau(  23) = (  0.5003973  0.2441825  0.5980003  )
        24           O   tau(  24) = (  0.7527966  0.4978604  0.4015968  )
        25           O   tau(  25) = (  0.5021396  0.2472034  0.4015968  )
        26           O   tau(  26) = (  0.7517679  0.0000000  0.4015968  )
        27           O   tau(  27) = (  0.0114961  0.4948124  0.6896512  )
        28           O   tau(  28) = (  0.0048226  0.0077944  0.6999492  )
        29           Sr  tau(  29) = (  0.2545482  0.2517602  0.6972903  )
        30           O   tau(  30) = (  0.5048017  0.0015068  0.7027529  )
        31           Co  tau(  31) = (  0.0056869  0.5006215  0.4015968  )
        32           Co  tau(  32) = (  0.0065315  0.4997770  0.5980003  )
        33           Co  tau(  33) = (  0.0061999  0.0064171  0.4015968  )
        34           Co  tau(  34) = (  0.0000000  0.0126169  0.5980003  )
        35           O   tau(  35) = (  0.0114961  0.4948124  0.5063494  )
        36           O   tau(  36) = (  0.0114961  0.4948124  0.2968442  )
        37           O   tau(  37) = (  0.0051979  0.2673486  0.4015968  )
        38           O   tau(  38) = (  0.0130029  0.2478461  0.5980003  )
        39           O   tau(  39) = (  0.0048226  0.0077944  0.3071422  )
        40           O   tau(  40) = (  0.0048226  0.0077944  0.4960513  )
        41           Sr  tau(  41) = (  0.2545482  0.2517602  0.3044833  )
        42           Sr  tau(  42) = (  0.2545482  0.2517602  0.4987103  )
        43           Co  tau(  43) = (  0.4989925  0.0073160  0.5980003  )
        44           Co  tau(  44) = (  0.4998370  0.0064714  0.4015968  )
        45           O   tau(  45) = (  0.5048017  0.0015068  0.3099459  )
        46           O   tau(  46) = (  0.5048017  0.0015068  0.4932477  )
        47           O   tau(  47) = (  0.2621260  0.0059111  0.5980003  )
        48           O   tau(  48) = (  0.2591051  0.0041689  0.4015968  )
        49           H   tau(  49) = (  0.7108228  0.8529874  0.8534850  )

     number of k points=    10  Gaussian smearing, width (Ry)=  0.0700
                       cart. coord. in units 2pi/alat
        k(    1) = (   0.0000000   0.0000000   0.0000000), wk =   0.1250000
        k(    2) = (   0.0000000   0.2500000   0.0000000), wk =   0.2500000
        k(    3) = (   0.0000000  -0.5000000   0.0000000), wk =   0.1250000
        k(    4) = (   0.2500000   0.2500000   0.0000000), wk =   0.2500000
        k(    5) = (   0.2500000  -0.5000000   0.0000000), wk =   0.2500000
        k(    6) = (  -0.5000000  -0.5000000   0.0000000), wk =   0.1250000
        k(    7) = (   0.2500000   0.0000000   0.0000000), wk =   0.2500000
        k(    8) = (  -0.5000000   0.0000000   0.0000000), wk =   0.1250000
        k(    9) = (  -0.2500000   0.2500000   0.0000000), wk =   0.2500000
        k(   10) = (  -0.5000000   0.2500000   0.0000000), wk =   0.2500000

                       cryst. coord.
        k(    1) = (   0.0000000   0.0000000   0.0000000), wk =   0.1250000
        k(    2) = (   0.0000000   0.2500000   0.0000000), wk =   0.2500000
        k(    3) = (   0.0000000  -0.5000000   0.0000000), wk =   0.1250000
        k(    4) = (   0.2500000   0.2500000   0.0000000), wk =   0.2500000
        k(    5) = (   0.2500000  -0.5000000   0.0000000), wk =   0.2500000
        k(    6) = (  -0.5000000  -0.5000000   0.0000000), wk =   0.1250000
        k(    7) = (   0.2500000   0.0000000   0.0000000), wk =   0.2500000
        k(    8) = (  -0.5000000   0.0000000   0.0000000), wk =   0.1250000
        k(    9) = (  -0.2500000   0.2500000   0.0000000), wk =   0.2500000
        k(   10) = (  -0.5000000   0.2500000   0.0000000), wk =   0.2500000

     Dense  grid:  1474595 G-vectors     FFT dimensions: ( 108, 108, 270)

     Smooth grid:   521381 G-vectors     FFT dimensions: (  75,  75, 192)

     Dynamical RAM for                 wfc:      10.61 MB

     Dynamical RAM for     wfc (w. buffer):      63.63 MB

     Dynamical RAM for           str. fact:       3.75 MB

     Dynamical RAM for           local pot:       0.00 MB

     Dynamical RAM for          nlocal pot:      24.28 MB

     Dynamical RAM for                qrad:       7.03 MB

     Dynamical RAM for          rho,v,vnew:       6.02 MB

     Dynamical RAM for               rhoin:       2.01 MB

     Dynamical RAM for            rho*nmix:      15.00 MB

     Dynamical RAM for           G-vectors:       3.68 MB

     Dynamical RAM for          h,s,v(r/c):       1.32 MB

     Dynamical RAM for          <psi|beta>:       2.29 MB

     Dynamical RAM for                 psi:      21.21 MB

     Dynamical RAM for                hpsi:      21.21 MB

     Dynamical RAM for                spsi:      21.21 MB

     Dynamical RAM for      wfcinit/wfcrot:      34.09 MB

     Dynamical RAM for           addusdens:     100.79 MB

     Estimated static dynamical RAM per process >     120.42 MB

     Estimated max dynamical RAM per process >     236.21 MB

     Estimated total dynamical RAM >      10.72 GB

     Check: negative core charge=   -0.000004

     Initial potential from superposition of free atoms

     starting charge     416.5961, renormalised to     425.0000

     negative rho (up, down):  7.826E-01 0.000E+00
     Starting wfcs are  373 randomized atomic wfcs
     Checking if some PAW data can be deallocated... 
       PAW data deallocated on   20 nodes for type:  2

     total cpu time spent up to now is        8.3 secs

     Self-consistent Calculation

     iteration #  1     ecut=    60.00 Ry     beta= 0.15
     Davidson diagonalization with overlap

---- Real-time Memory Report at c_bands before calling an iterative solver
             0 MiB given to the printing process from OS
             0 MiB allocation reported by mallinfo(arena+hblkhd)
        170470 MiB available memory on the node where the printing process lives
------------------
     ethr =  1.00E-02,  avg # of iterations =  2.0

     negative rho (up, down):  7.716E-01 0.000E+00

     total cpu time spent up to now is       22.7 secs

     total energy              =   -4404.72748097 Ry
     estimated scf accuracy    <      42.19624130 Ry

     iteration #  2     ecut=    60.00 Ry     beta= 0.15
     Davidson diagonalization with overlap

---- Real-time Memory Report at c_bands before calling an iterative solver
             0 MiB given to the printing process from OS
             0 MiB allocation reported by mallinfo(arena+hblkhd)
        170699 MiB available memory on the node where the printing process lives
------------------
     ethr =  9.93E-03,  avg # of iterations =  1.0

     negative rho (up, down):  7.532E-01 0.000E+00

     total cpu time spent up to now is       34.8 secs

     total energy              =   -4400.03438261 Ry
     estimated scf accuracy    <      26.56989308 Ry

     iteration #  3     ecut=    60.00 Ry     beta= 0.15
     Davidson diagonalization with overlap

---- Real-time Memory Report at c_bands before calling an iterative solver
             0 MiB given to the printing process from OS
             0 MiB allocation reported by mallinfo(arena+hblkhd)
        169953 MiB available memory on the node where the printing process lives
------------------
     ethr =  6.25E-03,  avg # of iterations =  2.0

     negative rho (up, down):  7.544E-01 0.000E+00

     total cpu time spent up to now is       48.3 secs

     total energy              =   -4402.38192835 Ry
     estimated scf accuracy    <      49.10136246 Ry

     iteration #  4     ecut=    60.00 Ry     beta= 0.15
     Davidson diagonalization with overlap

---- Real-time Memory Report at c_bands before calling an iterative solver
             0 MiB given to the printing process from OS
             0 MiB allocation reported by mallinfo(arena+hblkhd)
        169820 MiB available memory on the node where the printing process lives
------------------
     ethr =  6.25E-03,  avg # of iterations =  1.0

     negative rho (up, down):  7.410E-01 0.000E+00

     total cpu time spent up to now is       60.5 secs

     total energy              =   -4401.64401332 Ry
     estimated scf accuracy    <      29.38058936 Ry

     iteration #  5     ecut=    60.00 Ry     beta= 0.15
     Davidson diagonalization with overlap

---- Real-time Memory Report at c_bands before calling an iterative solver
             0 MiB given to the printing process from OS
             0 MiB allocation reported by mallinfo(arena+hblkhd)
        169801 MiB available memory on the node where the printing process lives
------------------
     ethr =  6.25E-03,  avg # of iterations =  1.0

     negative rho (up, down):  7.472E-01 0.000E+00

     total cpu time spent up to now is       72.4 secs

     total energy              =   -4399.78662903 Ry
     estimated scf accuracy    <      44.20188727 Ry

     iteration #  6     ecut=    60.00 Ry     beta= 0.15
     Davidson diagonalization with overlap

---- Real-time Memory Report at c_bands before calling an iterative solver
             0 MiB given to the printing process from OS
             0 MiB allocation reported by mallinfo(arena+hblkhd)
        169779 MiB available memory on the node where the printing process lives
------------------
     ethr =  6.25E-03,  avg # of iterations =  1.0

     negative rho (up, down):  7.423E-01 0.000E+00

     total cpu time spent up to now is       84.4 secs

     total energy              =   -4400.65414700 Ry
     estimated scf accuracy    <      11.98897513 Ry

     iteration #  7     ecut=    60.00 Ry     beta= 0.15
     Davidson diagonalization with overlap

---- Real-time Memory Report at c_bands before calling an iterative solver
             0 MiB given to the printing process from OS
             0 MiB allocation reported by mallinfo(arena+hblkhd)
        169765 MiB available memory on the node where the printing process lives
------------------
     ethr =  2.82E-03,  avg # of iterations =  1.1

     negative rho (up, down):  7.444E-01 0.000E+00

     total cpu time spent up to now is       96.5 secs

     total energy              =   -4400.82307540 Ry
     estimated scf accuracy    <       4.01865381 Ry

     iteration #  8     ecut=    60.00 Ry     beta= 0.15
     Davidson diagonalization with overlap

---- Real-time Memory Report at c_bands before calling an iterative solver
             0 MiB given to the printing process from OS
             0 MiB allocation reported by mallinfo(arena+hblkhd)
        169742 MiB available memory on the node where the printing process lives
------------------
     ethr =  9.46E-04,  avg # of iterations =  1.5

     negative rho (up, down):  7.540E-01 0.000E+00

     total cpu time spent up to now is      109.0 secs

     total energy              =   -4400.31534984 Ry
     estimated scf accuracy    <       3.32585476 Ry

     iteration #  9     ecut=    60.00 Ry     beta= 0.15
     Davidson diagonalization with overlap

---- Real-time Memory Report at c_bands before calling an iterative solver
             0 MiB given to the printing process from OS
             0 MiB allocation reported by mallinfo(arena+hblkhd)
        169728 MiB available memory on the node where the printing process lives
------------------
     ethr =  7.83E-04,  avg # of iterations =  5.1

     negative rho (up, down):  7.755E-01 0.000E+00

     total cpu time spent up to now is      124.4 secs

     total energy              =   -4399.75299519 Ry
     estimated scf accuracy    <      44.81310633 Ry

     iteration # 10     ecut=    60.00 Ry     beta= 0.15
     Davidson diagonalization with overlap

---- Real-time Memory Report at c_bands before calling an iterative solver
             0 MiB given to the printing process from OS
             0 MiB allocation reported by mallinfo(arena+hblkhd)
        169576 MiB available memory on the node where the printing process lives
------------------
     ethr =  7.83E-04,  avg # of iterations =  9.5

     negative rho (up, down):  7.777E-01 0.000E+00

     total cpu time spent up to now is      142.3 secs

     total energy              =   -4399.86306861 Ry
     estimated scf accuracy    <      11.58295284 Ry

     iteration # 11     ecut=    60.00 Ry     beta= 0.15
     Davidson diagonalization with overlap

---- Real-time Memory Report at c_bands before calling an iterative solver
             0 MiB given to the printing process from OS
             0 MiB allocation reported by mallinfo(arena+hblkhd)
        169258 MiB available memory on the node where the printing process lives
------------------
     ethr =  7.83E-04,  avg # of iterations =  1.2

     negative rho (up, down):  7.810E-01 0.000E+00

     total cpu time spent up to now is      154.5 secs

     total energy              =   -4400.12145968 Ry
     estimated scf accuracy    <       1.51514415 Ry

     iteration # 12     ecut=    60.00 Ry     beta= 0.15
     Davidson diagonalization with overlap

---- Real-time Memory Report at c_bands before calling an iterative solver
             0 MiB given to the printing process from OS
             0 MiB allocation reported by mallinfo(arena+hblkhd)
        169267 MiB available memory on the node where the printing process lives
------------------
     ethr =  3.57E-04,  avg # of iterations =  1.0

     negative rho (up, down):  7.889E-01 0.000E+00

     total cpu time spent up to now is      166.4 secs

     total energy              =   -4400.10760998 Ry
     estimated scf accuracy    <       0.79923952 Ry

     iteration # 13     ecut=    60.00 Ry     beta= 0.15
     Davidson diagonalization with overlap

---- Real-time Memory Report at c_bands before calling an iterative solver
             0 MiB given to the printing process from OS
             0 MiB allocation reported by mallinfo(arena+hblkhd)
        169311 MiB available memory on the node where the printing process lives
------------------
     ethr =  1.88E-04,  avg # of iterations =  5.6

     negative rho (up, down):  7.993E-01 0.000E+00

     total cpu time spent up to now is      181.0 secs

     total energy              =   -4400.11075884 Ry
     estimated scf accuracy    <       1.77415045 Ry

     iteration # 14     ecut=    60.00 Ry     beta= 0.15
     Davidson diagonalization with overlap

---- Real-time Memory Report at c_bands before calling an iterative solver
             0 MiB given to the printing process from OS
             0 MiB allocation reported by mallinfo(arena+hblkhd)
        169261 MiB available memory on the node where the printing process lives
------------------
     ethr =  1.88E-04,  avg # of iterations =  4.5

     negative rho (up, down):  8.037E-01 0.000E+00

     total cpu time spent up to now is      195.6 secs

     total energy              =   -4400.01786224 Ry
     estimated scf accuracy    <       1.93158637 Ry

     iteration # 15     ecut=    60.00 Ry     beta= 0.15
     Davidson diagonalization with overlap

---- Real-time Memory Report at c_bands before calling an iterative solver
             0 MiB given to the printing process from OS
             0 MiB allocation reported by mallinfo(arena+hblkhd)
        169260 MiB available memory on the node where the printing process lives
------------------
     ethr =  1.88E-04,  avg # of iterations =  3.5

     negative rho (up, down):  8.079E-01 0.000E+00

     total cpu time spent up to now is      209.7 secs

     total energy              =   -4400.05221671 Ry
     estimated scf accuracy    <       0.38069128 Ry

     iteration # 16     ecut=    60.00 Ry     beta= 0.15
     Davidson diagonalization with overlap

---- Real-time Memory Report at c_bands before calling an iterative solver
             0 MiB given to the printing process from OS
             0 MiB allocation reported by mallinfo(arena+hblkhd)
        169259 MiB available memory on the node where the printing process lives
------------------
     c_bands:  2 eigenvalues not converged
     ethr =  8.96E-05,  avg # of iterations =  8.8

     negative rho (up, down):  8.125E-01 0.000E+00

     total cpu time spent up to now is      225.6 secs

     total energy              =   -4400.02835418 Ry
     estimated scf accuracy    <       0.31566262 Ry

     iteration # 17     ecut=    60.00 Ry     beta= 0.15
     Davidson diagonalization with overlap

---- Real-time Memory Report at c_bands before calling an iterative solver
             0 MiB given to the printing process from OS
             0 MiB allocation reported by mallinfo(arena+hblkhd)
        169225 MiB available memory on the node where the printing process lives
------------------
     ethr =  7.43E-05,  avg # of iterations =  6.0

     negative rho (up, down):  8.192E-01 0.000E+00

     total cpu time spent up to now is      241.4 secs

     total energy              =   -4399.95503246 Ry
     estimated scf accuracy    <       0.26786956 Ry

     iteration # 18     ecut=    60.00 Ry     beta= 0.15
     Davidson diagonalization with overlap

---- Real-time Memory Report at c_bands before calling an iterative solver
             0 MiB given to the printing process from OS
             0 MiB allocation reported by mallinfo(arena+hblkhd)
        169247 MiB available memory on the node where the printing process lives
------------------
     c_bands:  1 eigenvalues not converged
     c_bands:  1 eigenvalues not converged
     ethr =  6.30E-05,  avg # of iterations = 13.4

     negative rho (up, down):  8.196E-01 0.000E+00

     total cpu time spent up to now is      260.5 secs

     total energy              =   -4399.94984191 Ry
     estimated scf accuracy    <       0.25106315 Ry

     iteration # 19     ecut=    60.00 Ry     beta= 0.15
     Davidson diagonalization with overlap

---- Real-time Memory Report at c_bands before calling an iterative solver
             0 MiB given to the printing process from OS
             0 MiB allocation reported by mallinfo(arena+hblkhd)
        169172 MiB available memory on the node where the printing process lives
------------------
     ethr =  5.91E-05,  avg # of iterations =  1.7

     negative rho (up, down):  8.195E-01 0.000E+00

     total cpu time spent up to now is      273.6 secs

     total energy              =   -4399.95002701 Ry
     estimated scf accuracy    <       0.11884313 Ry

     iteration # 20     ecut=    60.00 Ry     beta= 0.15
     Davidson diagonalization with overlap

---- Real-time Memory Report at c_bands before calling an iterative solver
             0 MiB given to the printing process from OS
             0 MiB allocation reported by mallinfo(arena+hblkhd)
        169185 MiB available memory on the node where the printing process lives
------------------
     ethr =  2.80E-05,  avg # of iterations =  8.1

     negative rho (up, down):  8.183E-01 0.000E+00

     total cpu time spent up to now is      289.5 secs

     total energy              =   -4399.93655580 Ry
     estimated scf accuracy    <       0.09197358 Ry

     iteration # 21     ecut=    60.00 Ry     beta= 0.15
     Davidson diagonalization with overlap

---- Real-time Memory Report at c_bands before calling an iterative solver
             0 MiB given to the printing process from OS
             0 MiB allocation reported by mallinfo(arena+hblkhd)
        169164 MiB available memory on the node where the printing process lives
------------------
     ethr =  2.16E-05,  avg # of iterations =  7.4

     negative rho (up, down):  8.148E-01 0.000E+00

     total cpu time spent up to now is      305.9 secs

     total energy              =   -4399.92639023 Ry
     estimated scf accuracy    <       0.06017311 Ry

     iteration # 22     ecut=    60.00 Ry     beta= 0.15
     Davidson diagonalization with overlap

---- Real-time Memory Report at c_bands before calling an iterative solver
             0 MiB given to the printing process from OS
             0 MiB allocation reported by mallinfo(arena+hblkhd)
        169153 MiB available memory on the node where the printing process lives
------------------
     ethr =  1.42E-05,  avg # of iterations = 11.4

     negative rho (up, down):  8.041E-01 0.000E+00

     total cpu time spent up to now is      324.0 secs

     total energy              =   -4399.92552355 Ry
     estimated scf accuracy    <       0.02994528 Ry

     iteration # 23     ecut=    60.00 Ry     beta= 0.15
     Davidson diagonalization with overlap

---- Real-time Memory Report at c_bands before calling an iterative solver
             0 MiB given to the printing process from OS
             0 MiB allocation reported by mallinfo(arena+hblkhd)
        169133 MiB available memory on the node where the printing process lives
------------------
     ethr =  7.05E-06,  avg # of iterations =  2.8

     negative rho (up, down):  7.972E-01 0.000E+00

     total cpu time spent up to now is      337.9 secs

     total energy              =   -4399.92282840 Ry
     estimated scf accuracy    <       0.02063670 Ry

     iteration # 24     ecut=    60.00 Ry     beta= 0.15
     Davidson diagonalization with overlap

---- Real-time Memory Report at c_bands before calling an iterative solver
             0 MiB given to the printing process from OS
             0 MiB allocation reported by mallinfo(arena+hblkhd)
        169159 MiB available memory on the node where the printing process lives
------------------
     ethr =  4.86E-06,  avg # of iterations = 10.7

     negative rho (up, down):  7.958E-01 0.000E+00

     total cpu time spent up to now is      355.9 secs

     total energy              =   -4399.92303304 Ry
     estimated scf accuracy    <       0.01112540 Ry

     iteration # 25     ecut=    60.00 Ry     beta= 0.15
     Davidson diagonalization with overlap

---- Real-time Memory Report at c_bands before calling an iterative solver
             0 MiB given to the printing process from OS
             0 MiB allocation reported by mallinfo(arena+hblkhd)
        169078 MiB available memory on the node where the printing process lives
------------------
     ethr =  2.62E-06,  avg # of iterations =  2.0

     negative rho (up, down):  7.957E-01 0.000E+00

     total cpu time spent up to now is      369.4 secs

     total energy              =   -4399.92254631 Ry
     estimated scf accuracy    <       0.00865715 Ry

     iteration # 26     ecut=    60.00 Ry     beta= 0.15
     Davidson diagonalization with overlap

---- Real-time Memory Report at c_bands before calling an iterative solver
             0 MiB given to the printing process from OS
             0 MiB allocation reported by mallinfo(arena+hblkhd)
        169097 MiB available memory on the node where the printing process lives
------------------
     ethr =  2.04E-06,  avg # of iterations =  4.6

     negative rho (up, down):  7.934E-01 0.000E+00

     total cpu time spent up to now is      384.0 secs

     total energy              =   -4399.92204920 Ry
     estimated scf accuracy    <       0.00591583 Ry

     iteration # 27     ecut=    60.00 Ry     beta= 0.15
     Davidson diagonalization with overlap

---- Real-time Memory Report at c_bands before calling an iterative solver
             0 MiB given to the printing process from OS
             0 MiB allocation reported by mallinfo(arena+hblkhd)
        169107 MiB available memory on the node where the printing process lives
------------------
     ethr =  1.39E-06,  avg # of iterations =  4.5

     negative rho (up, down):  7.956E-01 0.000E+00

     total cpu time spent up to now is      399.0 secs

     total energy              =   -4399.92204836 Ry
     estimated scf accuracy    <       0.00332702 Ry

     iteration # 28     ecut=    60.00 Ry     beta= 0.15
     Davidson diagonalization with overlap

---- Real-time Memory Report at c_bands before calling an iterative solver
             0 MiB given to the printing process from OS
             0 MiB allocation reported by mallinfo(arena+hblkhd)
        169127 MiB available memory on the node where the printing process lives
------------------
     ethr =  7.83E-07,  avg # of iterations =  7.1

     negative rho (up, down):  7.938E-01 0.000E+00

     total cpu time spent up to now is      415.5 secs

     total energy              =   -4399.92178208 Ry
     estimated scf accuracy    <       0.00177007 Ry

     iteration # 29     ecut=    60.00 Ry     beta= 0.15
     Davidson diagonalization with overlap

---- Real-time Memory Report at c_bands before calling an iterative solver
             0 MiB given to the printing process from OS
             0 MiB allocation reported by mallinfo(arena+hblkhd)
        169101 MiB available memory on the node where the printing process lives
------------------
     c_bands:  1 eigenvalues not converged
     ethr =  4.16E-07,  avg # of iterations = 11.2

     negative rho (up, down):  7.940E-01 0.000E+00

     total cpu time spent up to now is      433.8 secs

     total energy              =   -4399.92175015 Ry
     estimated scf accuracy    <       0.00069738 Ry

     iteration # 30     ecut=    60.00 Ry     beta= 0.15
     Davidson diagonalization with overlap

---- Real-time Memory Report at c_bands before calling an iterative solver
             0 MiB given to the printing process from OS
             0 MiB allocation reported by mallinfo(arena+hblkhd)
        169070 MiB available memory on the node where the printing process lives
------------------
     c_bands:  1 eigenvalues not converged
     ethr =  1.64E-07,  avg # of iterations =  8.6

     negative rho (up, down):  7.940E-01 0.000E+00

     total cpu time spent up to now is      451.1 secs

     total energy              =   -4399.92171883 Ry
     estimated scf accuracy    <       0.00030153 Ry

     iteration # 31     ecut=    60.00 Ry     beta= 0.15
     Davidson diagonalization with overlap

---- Real-time Memory Report at c_bands before calling an iterative solver
             0 MiB given to the printing process from OS
             0 MiB allocation reported by mallinfo(arena+hblkhd)
        169096 MiB available memory on the node where the printing process lives
------------------
     ethr =  7.09E-08,  avg # of iterations =  2.3

     negative rho (up, down):  7.938E-01 0.000E+00

     total cpu time spent up to now is      465.6 secs

     total energy              =   -4399.92172353 Ry
     estimated scf accuracy    <       0.00010384 Ry

     iteration # 32     ecut=    60.00 Ry     beta= 0.15
     Davidson diagonalization with overlap

---- Real-time Memory Report at c_bands before calling an iterative solver
             0 MiB given to the printing process from OS
             0 MiB allocation reported by mallinfo(arena+hblkhd)
        169106 MiB available memory on the node where the printing process lives
------------------
     ethr =  2.44E-08,  avg # of iterations =  2.3

     negative rho (up, down):  7.935E-01 0.000E+00

     total cpu time spent up to now is      479.4 secs

     total energy              =   -4399.92172848 Ry
     estimated scf accuracy    <       0.00004794 Ry

     iteration # 33     ecut=    60.00 Ry     beta= 0.15
     Davidson diagonalization with overlap

---- Real-time Memory Report at c_bands before calling an iterative solver
             0 MiB given to the printing process from OS
             0 MiB allocation reported by mallinfo(arena+hblkhd)
        169125 MiB available memory on the node where the printing process lives
------------------
     ethr =  1.13E-08,  avg # of iterations =  2.0

     negative rho (up, down):  7.929E-01 0.000E+00

     total cpu time spent up to now is      492.8 secs

     total energy              =   -4399.92173515 Ry
     estimated scf accuracy    <       0.00003731 Ry

     iteration # 34     ecut=    60.00 Ry     beta= 0.15
     Davidson diagonalization with overlap

---- Real-time Memory Report at c_bands before calling an iterative solver
             0 MiB given to the printing process from OS
             0 MiB allocation reported by mallinfo(arena+hblkhd)
        169156 MiB available memory on the node where the printing process lives
------------------
     ethr =  8.78E-09,  avg # of iterations =  2.2

     negative rho (up, down):  7.926E-01 0.000E+00

     total cpu time spent up to now is      506.2 secs

     total energy              =   -4399.92174418 Ry
     estimated scf accuracy    <       0.00002141 Ry

     iteration # 35     ecut=    60.00 Ry     beta= 0.15
     Davidson diagonalization with overlap

---- Real-time Memory Report at c_bands before calling an iterative solver
             0 MiB given to the printing process from OS
             0 MiB allocation reported by mallinfo(arena+hblkhd)
        169137 MiB available memory on the node where the printing process lives
------------------
     ethr =  5.04E-09,  avg # of iterations =  3.7

     negative rho (up, down):  7.926E-01 0.000E+00

     total cpu time spent up to now is      520.4 secs

     total energy              =   -4399.92174570 Ry
     estimated scf accuracy    <       0.00001373 Ry

     iteration # 36     ecut=    60.00 Ry     beta= 0.15
     Davidson diagonalization with overlap

---- Real-time Memory Report at c_bands before calling an iterative solver
             0 MiB given to the printing process from OS
             0 MiB allocation reported by mallinfo(arena+hblkhd)
        169138 MiB available memory on the node where the printing process lives
------------------
     ethr =  3.23E-09,  avg # of iterations =  1.4

     negative rho (up, down):  7.925E-01 0.000E+00

     total cpu time spent up to now is      533.2 secs

     total energy              =   -4399.92174746 Ry
     estimated scf accuracy    <       0.00000945 Ry

     iteration # 37     ecut=    60.00 Ry     beta= 0.15
     Davidson diagonalization with overlap

---- Real-time Memory Report at c_bands before calling an iterative solver
             0 MiB given to the printing process from OS
             0 MiB allocation reported by mallinfo(arena+hblkhd)
        169151 MiB available memory on the node where the printing process lives
------------------
     ethr =  2.22E-09,  avg # of iterations =  2.1

     negative rho (up, down):  7.924E-01 0.000E+00

     total cpu time spent up to now is      546.8 secs

     total energy              =   -4399.92174799 Ry
     estimated scf accuracy    <       0.00000606 Ry

     iteration # 38     ecut=    60.00 Ry     beta= 0.15
     Davidson diagonalization with overlap

---- Real-time Memory Report at c_bands before calling an iterative solver
             0 MiB given to the printing process from OS
             0 MiB allocation reported by mallinfo(arena+hblkhd)
        169153 MiB available memory on the node where the printing process lives
------------------
     ethr =  1.43E-09,  avg # of iterations =  2.1

     negative rho (up, down):  7.924E-01 0.000E+00

     total cpu time spent up to now is      560.8 secs

     total energy              =   -4399.92174821 Ry
     estimated scf accuracy    <       0.00000384 Ry

     iteration # 39     ecut=    60.00 Ry     beta= 0.15
     Davidson diagonalization with overlap

---- Real-time Memory Report at c_bands before calling an iterative solver
             0 MiB given to the printing process from OS
             0 MiB allocation reported by mallinfo(arena+hblkhd)
        169156 MiB available memory on the node where the printing process lives
------------------
     ethr =  9.03E-10,  avg # of iterations =  2.1

     negative rho (up, down):  7.924E-01 0.000E+00

     total cpu time spent up to now is      574.8 secs

     total energy              =   -4399.92174825 Ry
     estimated scf accuracy    <       0.00000253 Ry

     iteration # 40     ecut=    60.00 Ry     beta= 0.15
     Davidson diagonalization with overlap

---- Real-time Memory Report at c_bands before calling an iterative solver
             0 MiB given to the printing process from OS
             0 MiB allocation reported by mallinfo(arena+hblkhd)
        169155 MiB available memory on the node where the printing process lives
------------------
     ethr =  5.96E-10,  avg # of iterations =  1.8

     negative rho (up, down):  7.924E-01 0.000E+00

     total cpu time spent up to now is      588.0 secs

     total energy              =   -4399.92174820 Ry
     estimated scf accuracy    <       0.00000210 Ry

     iteration # 41     ecut=    60.00 Ry     beta= 0.15
     Davidson diagonalization with overlap

---- Real-time Memory Report at c_bands before calling an iterative solver
             0 MiB given to the printing process from OS
             0 MiB allocation reported by mallinfo(arena+hblkhd)
        169156 MiB available memory on the node where the printing process lives
------------------
     ethr =  4.95E-10,  avg # of iterations =  2.2

     negative rho (up, down):  7.924E-01 0.000E+00

     total cpu time spent up to now is      601.5 secs

     total energy              =   -4399.92174821 Ry
     estimated scf accuracy    <       0.00000106 Ry

     iteration # 42     ecut=    60.00 Ry     beta= 0.15
     Davidson diagonalization with overlap

---- Real-time Memory Report at c_bands before calling an iterative solver
             0 MiB given to the printing process from OS
             0 MiB allocation reported by mallinfo(arena+hblkhd)
        169156 MiB available memory on the node where the printing process lives
------------------
     ethr =  2.50E-10,  avg # of iterations =  2.0

     negative rho (up, down):  7.924E-01 0.000E+00

     total cpu time spent up to now is      615.0 secs

     total energy              =   -4399.92174814 Ry
     estimated scf accuracy    <       0.00000072 Ry

     iteration # 43     ecut=    60.00 Ry     beta= 0.15
     Davidson diagonalization with overlap

---- Real-time Memory Report at c_bands before calling an iterative solver
             0 MiB given to the printing process from OS
             0 MiB allocation reported by mallinfo(arena+hblkhd)
        169162 MiB available memory on the node where the printing process lives
------------------
     ethr =  1.70E-10,  avg # of iterations =  2.2

     negative rho (up, down):  7.925E-01 0.000E+00

     total cpu time spent up to now is      628.4 secs

     total energy              =   -4399.92174804 Ry
     estimated scf accuracy    <       0.00000048 Ry

     iteration # 44     ecut=    60.00 Ry     beta= 0.15
     Davidson diagonalization with overlap

---- Real-time Memory Report at c_bands before calling an iterative solver
             0 MiB given to the printing process from OS
             0 MiB allocation reported by mallinfo(arena+hblkhd)
        169162 MiB available memory on the node where the printing process lives
------------------
     ethr =  1.14E-10,  avg # of iterations =  2.9

     negative rho (up, down):  7.925E-01 0.000E+00

     total cpu time spent up to now is      642.3 secs

     total energy              =   -4399.92174802 Ry
     estimated scf accuracy    <       0.00000025 Ry

     iteration # 45     ecut=    60.00 Ry     beta= 0.15
     Davidson diagonalization with overlap

---- Real-time Memory Report at c_bands before calling an iterative solver
             0 MiB given to the printing process from OS
             0 MiB allocation reported by mallinfo(arena+hblkhd)
        169161 MiB available memory on the node where the printing process lives
------------------
     ethr =  5.93E-11,  avg # of iterations =  1.9

     negative rho (up, down):  7.925E-01 0.000E+00

     total cpu time spent up to now is      655.7 secs

     total energy              =   -4399.92174809 Ry
     estimated scf accuracy    <       0.00000019 Ry

     iteration # 46     ecut=    60.00 Ry     beta= 0.15
     Davidson diagonalization with overlap

---- Real-time Memory Report at c_bands before calling an iterative solver
             0 MiB given to the printing process from OS
             0 MiB allocation reported by mallinfo(arena+hblkhd)
        169158 MiB available memory on the node where the printing process lives
------------------
     ethr =  4.40E-11,  avg # of iterations =  2.2

     negative rho (up, down):  7.924E-01 0.000E+00

     total cpu time spent up to now is      669.3 secs

     total energy              =   -4399.92174813 Ry
     estimated scf accuracy    <       0.00000009 Ry

     iteration # 47     ecut=    60.00 Ry     beta= 0.15
     Davidson diagonalization with overlap

---- Real-time Memory Report at c_bands before calling an iterative solver
             0 MiB given to the printing process from OS
             0 MiB allocation reported by mallinfo(arena+hblkhd)
        169166 MiB available memory on the node where the printing process lives
------------------
     ethr =  2.02E-11,  avg # of iterations =  3.8

     negative rho (up, down):  7.924E-01 0.000E+00

     total cpu time spent up to now is      684.5 secs

     total energy              =   -4399.92174815 Ry
     estimated scf accuracy    <       0.00000003 Ry

     iteration # 48     ecut=    60.00 Ry     beta= 0.15
     Davidson diagonalization with overlap

---- Real-time Memory Report at c_bands before calling an iterative solver
             0 MiB given to the printing process from OS
             0 MiB allocation reported by mallinfo(arena+hblkhd)
        169165 MiB available memory on the node where the printing process lives
------------------
     ethr =  7.34E-12,  avg # of iterations =  2.2

     negative rho (up, down):  7.924E-01 0.000E+00

     total cpu time spent up to now is      697.9 secs

     total energy              =   -4399.92174816 Ry
     estimated scf accuracy    <       0.00000002 Ry

     iteration # 49     ecut=    60.00 Ry     beta= 0.15
     Davidson diagonalization with overlap

---- Real-time Memory Report at c_bands before calling an iterative solver
             0 MiB given to the printing process from OS
             0 MiB allocation reported by mallinfo(arena+hblkhd)
        169168 MiB available memory on the node where the printing process lives
------------------
     ethr =  5.69E-12,  avg # of iterations =  2.2

     negative rho (up, down):  7.924E-01 0.000E+00

     total cpu time spent up to now is      711.5 secs

     total energy              =   -4399.92174817 Ry
     estimated scf accuracy    <       0.00000002 Ry

     iteration # 50     ecut=    60.00 Ry     beta= 0.15
     Davidson diagonalization with overlap

---- Real-time Memory Report at c_bands before calling an iterative solver
             0 MiB given to the printing process from OS
             0 MiB allocation reported by mallinfo(arena+hblkhd)
        169171 MiB available memory on the node where the printing process lives
------------------
     ethr =  4.00E-12,  avg # of iterations =  2.3

     negative rho (up, down):  7.924E-01 0.000E+00

     total cpu time spent up to now is      725.1 secs

     total energy              =   -4399.92174817 Ry
     estimated scf accuracy    <       0.00000001 Ry

     iteration # 51     ecut=    60.00 Ry     beta= 0.15
     Davidson diagonalization with overlap

---- Real-time Memory Report at c_bands before calling an iterative solver
             0 MiB given to the printing process from OS
             0 MiB allocation reported by mallinfo(arena+hblkhd)
        169171 MiB available memory on the node where the printing process lives
------------------
     ethr =  3.11E-12,  avg # of iterations =  3.6

     negative rho (up, down):  7.924E-01 0.000E+00

     total cpu time spent up to now is      738.9 secs

     End of self-consistent calculation

          k = 0.0000 0.0000 0.0000 ( 65197 PWs)   bands (ev):

   -92.7317 -92.6783 -92.5853 -92.5370 -92.4801 -92.4379 -92.4206 -92.2982
   -56.0852 -56.0649 -55.9427 -55.9323 -55.9243 -55.9191 -55.8829 -55.8545
   -55.8391 -55.8374 -55.8290 -55.7880 -55.7682 -55.7309 -55.7116 -55.6801
   -55.6719 -55.6262 -55.6237 -55.6232 -55.6147 -55.5731 -55.5509 -55.4652
   -31.3067 -31.2878 -31.1461 -31.0599 -31.0460 -30.9557 -30.8765 -30.8353
   -29.8785 -29.8352 -29.8096 -29.7028 -15.1120 -15.0718 -14.9878 -14.8582
   -14.6672 -14.5447 -14.2504 -14.2246 -14.1997 -14.1534 -14.1113 -14.1045
   -14.0903 -14.0690 -14.0454 -14.0019 -13.9598 -13.8093 -13.6354 -13.5972
   -13.5681 -13.5372 -13.5209 -13.4666 -13.4329 -13.3514 -13.2801 -13.1499
   -13.1392 -13.1275 -13.1046 -13.0872 -13.0743 -13.0326 -13.0198 -13.0098
   -12.9820 -12.9533 -12.9323 -12.9055 -12.8739 -12.8449 -12.8098 -12.7750
   -12.7575 -12.7436 -12.7354 -12.6829 -12.3722 -12.2265 -12.0672 -11.9990
   -11.8922 -11.8179 -11.8068 -11.7844 -11.7666 -11.7032 -11.6860 -11.6508
   -11.6211 -11.5116 -11.4310 -11.4275  -2.9728  -2.7402  -2.5107  -2.3642
    -2.3008  -2.1584  -1.8517  -1.8375  -1.8173  -1.7342  -1.7139  -1.6463
    -1.6296  -1.5887  -1.5445  -1.3628  -1.1393  -1.1096  -0.9614  -0.9471
    -0.9018  -0.8828  -0.8379  -0.8214  -0.7644  -0.7380  -0.6656  -0.6536
    -0.5773  -0.4461  -0.4325  -0.4040  -0.3230  -0.3127  -0.3007  -0.2320
    -0.1588  -0.1147  -0.0614  -0.0362   0.0257   0.1012   0.1492   0.1715
     0.1806   0.4405   0.4530   0.6275   0.6922   0.7589   0.8004   0.8938
     0.9069   0.9234   0.9908   1.0180   1.0519   1.1109   1.2430   1.3016
     1.3212   1.3396   1.3538   1.4208   1.4909   1.5972   1.6065   1.6713
     1.6855   1.7271   1.7443   1.7518   1.8100   1.8617   1.8773   1.9121
     1.9478   1.9946   2.1265   2.2102   2.2534   2.2711   2.4233   2.4382
     2.4796   2.4825   2.5883   2.6261   2.6508   2.6709   2.6858   2.7432
     2.7810   2.8793   2.9077   2.9206   2.9287   2.9944   2.9985   3.0230
     3.0303   3.0390   3.0540   3.0587   3.0716   3.0766   3.0897   3.0980
     3.1058   3.1260   3.1477   3.1522   3.1646   3.2013   3.3056   3.4010
     4.0793   4.3998   4.7421   4.8512   5.0069   5.8250   5.9130   5.9658
     5.9856   6.2844   6.3308   6.4669   6.4771   6.7431   6.9901   7.0785
     7.1895   7.2879   7.4198   7.6040   7.6383   7.6603   7.6924   7.9066
     7.9597   8.0939   8.1441   8.1845   8.3870   8.6055   8.8225   8.8553

     occupation numbers 
     1.0000   1.0000   1.0000   1.0000   1.0000   1.0000   1.0000   1.0000
     1.0000   1.0000   1.0000   1.0000   1.0000   1.0000   1.0000   1.0000
     1.0000   1.0000   1.0000   1.0000   1.0000   1.0000   1.0000   1.0000
     1.0000   1.0000   1.0000   1.0000   1.0000   1.0000   1.0000   1.0000
     1.0000   1.0000   1.0000   1.0000   1.0000   1.0000   1.0000   1.0000
     1.0000   1.0000   1.0000   1.0000   1.0000   1.0000   1.0000   1.0000
     1.0000   1.0000   1.0000   1.0000   1.0000   1.0000   1.0000   1.0000
     1.0000   1.0000   1.0000   1.0000   1.0000   1.0000   1.0000   1.0000
     1.0000   1.0000   1.0000   1.0000   1.0000   1.0000   1.0000   1.0000
     1.0000   1.0000   1.0000   1.0000   1.0000   1.0000   1.0000   1.0000
     1.0000   1.0000   1.0000   1.0000   1.0000   1.0000   1.0000   1.0000
     1.0000   1.0000   1.0000   1.0000   1.0000   1.0000   1.0000   1.0000
     1.0000   1.0000   1.0000   1.0000   1.0000   1.0000   1.0000   1.0000
     1.0000   1.0000   1.0000   1.0000   1.0000   1.0000   1.0000   1.0000
     1.0000   1.0000   1.0000   1.0000   1.0000   1.0000   1.0000   1.0000
     1.0000   1.0000   1.0000   1.0000   1.0000   1.0000   1.0000   1.0000
     1.0000   1.0000   1.0000   1.0000   1.0000   1.0000   1.0000   1.0000
     1.0000   1.0000   1.0000   1.0000   1.0000   1.0000   1.0000   1.0000
     1.0000   1.0000   1.0000   1.0000   1.0000   1.0000   1.0000   1.0000
     1.0000   1.0000   1.0000   1.0000   0.9999   0.9999   0.9999   0.9998
     0.9998   0.9998   0.9997   0.9996   0.9996   0.9994   0.9989   0.9985
     0.9983   0.9982   0.9980   0.9973   0.9963   0.9942   0.9939   0.9921
     0.9916   0.9901   0.9894   0.9891   0.9863   0.9834   0.9824   0.9801
     0.9774   0.9734   0.9588   0.9466   0.9392   0.9360   0.9026   0.8987
     0.8874   0.8865   0.8534   0.8401   0.8311   0.8234   0.8176   0.7942
     0.7779   0.7321   0.7180   0.7115   0.7074   0.6730   0.6708   0.6575
     0.6535   0.6488   0.6405   0.6378   0.6307   0.6279   0.6205   0.6157
     0.6113   0.5998   0.5873   0.5847   0.5775   0.5560   0.4945   0.4382
     0.1224   0.0506   0.0159   0.0105   0.0055   0.0001   0.0001   0.0000
     0.0000   0.0000   0.0000   0.0000   0.0000   0.0000   0.0000   0.0000
     0.0000   0.0000   0.0000   0.0000   0.0000   0.0000   0.0000   0.0000
     0.0000   0.0000   0.0000   0.0000   0.0000   0.0000   0.0000   0.0000

          k = 0.0000 0.2500 0.0000 ( 65257 PWs)   bands (ev):

   -92.7317 -92.6783 -92.5853 -92.5370 -92.4801 -92.4379 -92.4206 -92.2982
   -56.0852 -56.0649 -55.9427 -55.9323 -55.9243 -55.9191 -55.8829 -55.8545
   -55.8391 -55.8374 -55.8290 -55.7880 -55.7682 -55.7309 -55.7116 -55.6801
   -55.6719 -55.6262 -55.6237 -55.6232 -55.6147 -55.5731 -55.5509 -55.4652
   -31.3065 -31.2876 -31.1464 -31.0601 -31.0459 -30.9554 -30.8769 -30.8354
   -29.8779 -29.8349 -29.8102 -29.7031 -15.0752 -15.0460 -14.9628 -14.8286
   -14.7079 -14.5340 -14.3956 -14.2155 -14.1797 -14.1561 -14.1299 -14.0733
   -14.0683 -14.0548 -14.0294 -13.9786 -13.8797 -13.8396 -13.6780 -13.6593
   -13.6077 -13.5743 -13.5296 -13.4842 -13.4428 -13.3722 -13.3367 -13.2579
   -13.2022 -13.1768 -13.1377 -13.1189 -13.0502 -13.0150 -12.9901 -12.9646
   -12.9356 -12.9250 -12.8965 -12.8393 -12.8323 -12.8281 -12.8116 -12.7596
   -12.7390 -12.6949 -12.6278 -12.5404 -12.4335 -12.2777 -12.1241 -12.0676
   -11.8577 -11.8147 -11.7869 -11.7587 -11.7421 -11.6950 -11.6836 -11.6607
   -11.6260 -11.5260 -11.4728 -11.4621  -2.8376  -2.6159  -2.4785  -2.2964
    -2.2528  -2.0889  -1.8703  -1.7850  -1.7720  -1.7154  -1.6120  -1.5958
    -1.5627  -1.5356  -1.4920  -1.2940  -1.1653  -1.1537  -1.0777  -1.0670
    -0.9620  -0.9322  -0.8750  -0.8496  -0.8089  -0.7455  -0.7185  -0.6865
    -0.6531  -0.6377  -0.6045  -0.5308  -0.4800  -0.4176  -0.3034  -0.2860
    -0.2416  -0.1219  -0.0870  -0.0242   0.0241   0.0852   0.0990   0.1297
     0.1882   0.4859   0.5746   0.6062   0.6945   0.7397   0.7580   0.8793
     0.8963   0.9938   1.0190   1.0451   1.1594   1.2510   1.2767   1.2991
     1.3163   1.3437   1.4034   1.4315   1.4591   1.5068   1.5413   1.5717
     1.6542   1.6841   1.7248   1.7751   1.8319   1.8789   1.8997   1.9238
     1.9440   2.0319   2.1628   2.2340   2.2540   2.3290   2.3767   2.4166
     2.4248   2.4853   2.5239   2.6044   2.6442   2.6612   2.7550   2.8369
     2.8640   2.8897   2.9125   2.9286   2.9369   2.9443   2.9538   2.9830
     2.9844   3.0040   3.0098   3.0181   3.0373   3.0478   3.0557   3.0778
     3.0882   3.0927   3.1282   3.1452   3.2055   3.5785   3.6173   3.8486
     4.2660   4.4002   4.6774   5.0049   5.0349   5.6133   5.7547   5.9155
     5.9670   6.0623   6.0920   6.1599   6.5838   6.8918   6.9259   7.0946
     7.3109   7.4597   7.4739   7.5026   7.6217   7.7470   7.7842   8.0150
     8.0561   8.1292   8.1663   8.3102   8.3845   8.6000   8.7346   8.9217

     occupation numbers 
     1.0000   1.0000   1.0000   1.0000   1.0000   1.0000   1.0000   1.0000
     1.0000   1.0000   1.0000   1.0000   1.0000   1.0000   1.0000   1.0000
     1.0000   1.0000   1.0000   1.0000   1.0000   1.0000   1.0000   1.0000
     1.0000   1.0000   1.0000   1.0000   1.0000   1.0000   1.0000   1.0000
     1.0000   1.0000   1.0000   1.0000   1.0000   1.0000   1.0000   1.0000
     1.0000   1.0000   1.0000   1.0000   1.0000   1.0000   1.0000   1.0000
     1.0000   1.0000   1.0000   1.0000   1.0000   1.0000   1.0000   1.0000
     1.0000   1.0000   1.0000   1.0000   1.0000   1.0000   1.0000   1.0000
     1.0000   1.0000   1.0000   1.0000   1.0000   1.0000   1.0000   1.0000
     1.0000   1.0000   1.0000   1.0000   1.0000   1.0000   1.0000   1.0000
     1.0000   1.0000   1.0000   1.0000   1.0000   1.0000   1.0000   1.0000
     1.0000   1.0000   1.0000   1.0000   1.0000   1.0000   1.0000   1.0000
     1.0000   1.0000   1.0000   1.0000   1.0000   1.0000   1.0000   1.0000
     1.0000   1.0000   1.0000   1.0000   1.0000   1.0000   1.0000   1.0000
     1.0000   1.0000   1.0000   1.0000   1.0000   1.0000   1.0000   1.0000
     1.0000   1.0000   1.0000   1.0000   1.0000   1.0000   1.0000   1.0000
     1.0000   1.0000   1.0000   1.0000   1.0000   1.0000   1.0000   1.0000
     1.0000   1.0000   1.0000   1.0000   1.0000   1.0000   1.0000   1.0000
     1.0000   1.0000   1.0000   1.0000   1.0000   1.0000   1.0000   1.0000
     1.0000   1.0000   1.0000   1.0000   0.9999   0.9999   0.9999   0.9998
     0.9998   0.9997   0.9996   0.9996   0.9992   0.9988   0.9986   0.9985
     0.9984   0.9981   0.9975   0.9972   0.9968   0.9961   0.9954   0.9948
     0.9926   0.9917   0.9902   0.9880   0.9852   0.9823   0.9809   0.9792
     0.9777   0.9698   0.9538   0.9426   0.9391   0.9245   0.9139   0.9043
     0.9022   0.8857   0.8743   0.8479   0.8335   0.8271   0.7892   0.7524
     0.7395   0.7269   0.7156   0.7074   0.7032   0.6994   0.6944   0.6791
     0.6783   0.6678   0.6647   0.6602   0.6497   0.6439   0.6395   0.6272
     0.6213   0.6187   0.5985   0.5887   0.5536   0.3375   0.3168   0.2061
     0.0749   0.0506   0.0201   0.0056   0.0049   0.0003   0.0001   0.0001
     0.0000   0.0000   0.0000   0.0000   0.0000   0.0000   0.0000   0.0000
     0.0000   0.0000   0.0000   0.0000   0.0000   0.0000   0.0000   0.0000
     0.0000   0.0000   0.0000   0.0000   0.0000   0.0000   0.0000   0.0000

          k = 0.0000-0.5000 0.0000 ( 65180 PWs)   bands (ev):

   -92.7317 -92.6783 -92.5853 -92.5370 -92.4801 -92.4379 -92.4206 -92.2982
   -56.0852 -56.0649 -55.9427 -55.9323 -55.9243 -55.9191 -55.8829 -55.8545
   -55.8391 -55.8374 -55.8290 -55.7880 -55.7682 -55.7309 -55.7116 -55.6800
   -55.6719 -55.6262 -55.6237 -55.6232 -55.6147 -55.5731 -55.5509 -55.4652
   -31.3064 -31.2875 -31.1466 -31.0602 -31.0458 -30.9550 -30.8773 -30.8356
   -29.8773 -29.8346 -29.8108 -29.7034 -15.0419 -14.9926 -14.9416 -14.8093
   -14.7282 -14.5875 -14.4420 -14.3078 -14.1876 -14.1121 -14.0718 -14.0657
   -14.0174 -14.0007 -13.9551 -13.9333 -13.9074 -13.8700 -13.8234 -13.8025
   -13.6136 -13.5558 -13.5367 -13.4868 -13.4361 -13.3888 -13.3387 -13.3122
   -13.2827 -13.2472 -13.1384 -13.1184 -13.0408 -13.0005 -12.9839 -12.9718
   -12.9579 -12.9109 -12.8467 -12.8210 -12.8021 -12.7578 -12.7415 -12.7349
   -12.6907 -12.6811 -12.5445 -12.4747 -12.3529 -12.3054 -12.2408 -12.2015
   -11.8116 -11.8093 -11.7818 -11.7449 -11.7102 -11.6987 -11.6560 -11.6522
   -11.6077 -11.5480 -11.5339 -11.5196  -2.6233  -2.5632  -2.4130  -2.3405
    -2.0599  -1.9753  -1.8492  -1.7106  -1.6754  -1.6545  -1.5760  -1.5424
    -1.4635  -1.4267  -1.3502  -1.3098  -1.2709  -1.2435  -1.1878  -1.1487
    -1.1023  -1.0643  -1.0337  -0.9981  -0.8891  -0.8442  -0.8104  -0.8084
    -0.7223  -0.6897  -0.6660  -0.6180  -0.5347  -0.4608  -0.3787  -0.3526
    -0.2421  -0.1997  -0.0601  -0.0262   0.0045   0.0588   0.1824   0.2332
     0.3613   0.4307   0.4367   0.5653   0.6129   0.7160   0.8434   0.9515
     0.9829   1.0203   1.0259   1.0656   1.0807   1.1194   1.1364   1.1471
     1.2560   1.3164   1.3425   1.3690   1.6318   1.6634   1.6878   1.7833
     1.8046   1.8383   1.8533   1.8814   1.8984   1.9084   1.9354   1.9724
     2.0000   2.0294   2.0360   2.0680   2.1218   2.2037   2.2353   2.4171
     2.5734   2.5783   2.5981   2.6331   2.6394   2.6511   2.6992   2.7134
     2.7632   2.7702   2.7891   2.8782   2.8835   2.9481   2.9594   2.9791
     2.9811   2.9999   3.0068   3.0070   3.0133   3.0166   3.0400   3.0474
     3.0526   3.1131   3.1199   3.1346   3.1885   4.0971   4.1221   4.1598
     4.2287   4.7088   4.8700   5.0054   5.1258   5.3967   5.4382   5.5673
     5.6799   5.9823   6.0171   6.0558   6.7356   6.8404   6.9344   7.2064
     7.3245   7.3331   7.4529   7.4780   7.7267   7.8487   7.8771   7.9027
     8.1091   8.2737   8.4468   8.5028   8.6426   8.7655   8.7949   8.8514

     occupation numbers 
     1.0000   1.0000   1.0000   1.0000   1.0000   1.0000   1.0000   1.0000
     1.0000   1.0000   1.0000   1.0000   1.0000   1.0000   1.0000   1.0000
     1.0000   1.0000   1.0000   1.0000   1.0000   1.0000   1.0000   1.0000
     1.0000   1.0000   1.0000   1.0000   1.0000   1.0000   1.0000   1.0000
     1.0000   1.0000   1.0000   1.0000   1.0000   1.0000   1.0000   1.0000
     1.0000   1.0000   1.0000   1.0000   1.0000   1.0000   1.0000   1.0000
     1.0000   1.0000   1.0000   1.0000   1.0000   1.0000   1.0000   1.0000
     1.0000   1.0000   1.0000   1.0000   1.0000   1.0000   1.0000   1.0000
     1.0000   1.0000   1.0000   1.0000   1.0000   1.0000   1.0000   1.0000
     1.0000   1.0000   1.0000   1.0000   1.0000   1.0000   1.0000   1.0000
     1.0000   1.0000   1.0000   1.0000   1.0000   1.0000   1.0000   1.0000
     1.0000   1.0000   1.0000   1.0000   1.0000   1.0000   1.0000   1.0000
     1.0000   1.0000   1.0000   1.0000   1.0000   1.0000   1.0000   1.0000
     1.0000   1.0000   1.0000   1.0000   1.0000   1.0000   1.0000   1.0000
     1.0000   1.0000   1.0000   1.0000   1.0000   1.0000   1.0000   1.0000
     1.0000   1.0000   1.0000   1.0000   1.0000   1.0000   1.0000   1.0000
     1.0000   1.0000   1.0000   1.0000   1.0000   1.0000   1.0000   1.0000
     1.0000   1.0000   1.0000   1.0000   1.0000   1.0000   1.0000   1.0000
     1.0000   1.0000   1.0000   1.0000   1.0000   1.0000   1.0000   1.0000
     1.0000   1.0000   1.0000   1.0000   1.0000   0.9999   0.9999   0.9998
     0.9997   0.9996   0.9996   0.9995   0.9995   0.9994   0.9993   0.9993
     0.9988   0.9984   0.9981   0.9979   0.9933   0.9923   0.9915   0.9877
     0.9866   0.9848   0.9839   0.9822   0.9810   0.9803   0.9783   0.9753
     0.9729   0.9700   0.9694   0.9659   0.9594   0.9476   0.9424   0.9041
     0.8584   0.8568   0.8501   0.8376   0.8353   0.8309   0.8123   0.8066
     0.7857   0.7826   0.7743   0.7326   0.7300   0.6974   0.6915   0.6811
     0.6801   0.6700   0.6663   0.6662   0.6628   0.6610   0.6482   0.6441
     0.6413   0.6072   0.6033   0.5948   0.5635   0.1172   0.1100   0.0999
     0.0831   0.0180   0.0097   0.0056   0.0033   0.0009   0.0007   0.0004
     0.0002   0.0000   0.0000   0.0000   0.0000   0.0000   0.0000   0.0000
     0.0000   0.0000   0.0000   0.0000   0.0000   0.0000   0.0000   0.0000
     0.0000   0.0000   0.0000   0.0000   0.0000   0.0000   0.0000   0.0000

          k = 0.2500 0.2500 0.0000 ( 65198 PWs)   bands (ev):

   -92.7317 -92.6783 -92.5853 -92.5370 -92.4801 -92.4379 -92.4206 -92.2982
   -56.0852 -56.0649 -55.9427 -55.9323 -55.9243 -55.9191 -55.8829 -55.8545
   -55.8391 -55.8374 -55.8290 -55.7880 -55.7682 -55.7309 -55.7116 -55.6801
   -55.6719 -55.6262 -55.6237 -55.6232 -55.6147 -55.5731 -55.5509 -55.4652
   -31.3048 -31.2894 -31.1460 -31.0604 -31.0457 -30.9551 -30.8771 -30.8357
   -29.8769 -29.8359 -29.8098 -29.7035 -15.0468 -15.0114 -14.9350 -14.8178
   -14.6999 -14.5744 -14.5005 -14.2927 -14.1383 -14.1238 -14.0898 -14.0582
   -14.0405 -14.0170 -13.9761 -13.9385 -13.8703 -13.8539 -13.6932 -13.6796
   -13.6512 -13.6300 -13.5804 -13.5413 -13.4764 -13.4560 -13.3194 -13.2819
   -13.2576 -13.1710 -13.1304 -13.0784 -13.0483 -13.0186 -12.9935 -12.9770
   -12.9458 -12.9300 -12.8605 -12.8374 -12.8008 -12.7746 -12.7710 -12.7436
   -12.7387 -12.6807 -12.5805 -12.4820 -12.4123 -12.3068 -12.1486 -12.1274
   -11.8298 -11.7983 -11.7875 -11.7800 -11.7178 -11.6826 -11.6764 -11.6413
   -11.6323 -11.5428 -11.5010 -11.4837  -2.6993  -2.4901  -2.3724  -2.2786
    -2.1574  -2.0922  -1.8953  -1.7500  -1.7304  -1.7021  -1.6069  -1.5728
    -1.4781  -1.4517  -1.4014  -1.2689  -1.2219  -1.1498  -1.1039  -1.0598
    -1.0353  -1.0110  -0.9684  -0.9534  -0.8631  -0.8124  -0.7492  -0.6985
    -0.6678  -0.6188  -0.6055  -0.5415  -0.4927  -0.4372  -0.4017  -0.3166
    -0.2625  -0.2345  -0.1953  -0.1397  -0.0640  -0.0284  -0.0040   0.0726
     0.1067   0.3773   0.5247   0.5614   0.6184   0.6619   0.7167   0.7709
     0.8325   0.8702   1.1415   1.2093   1.2821   1.3081   1.3557   1.3882
     1.4235   1.4606   1.4778   1.5055   1.5492   1.5572   1.5731   1.6166
     1.6579   1.6970   1.7561   1.7943   1.8006   1.8377   1.8719   1.9277
     1.9524   2.0744   2.1444   2.1801   2.2041   2.2682   2.3381   2.3653
     2.4007   2.4263   2.4400   2.5476   2.5855   2.6750   2.7659   2.8486
     2.8641   2.8715   2.8844   2.9038   2.9147   2.9255   2.9321   2.9438
     2.9566   2.9686   2.9874   2.9930   3.0053   3.0270   3.0392   3.0493
     3.0799   3.3807   3.4748   3.5147   3.5863   3.6273   3.8245   3.9238
     4.2708   4.4899   4.6844   4.9496   5.1544   5.6188   5.6675   5.7235
     5.8057   5.8659   6.0358   6.1388   6.2091   6.7502   6.8812   7.0724
     7.2395   7.5314   7.5817   7.6876   7.8196   7.8448   7.9928   8.1124
     8.1449   8.2063   8.2947   8.3039   8.4235   8.4949   8.7018   8.8254

     occupation numbers 
     1.0000   1.0000   1.0000   1.0000   1.0000   1.0000   1.0000   1.0000
     1.0000   1.0000   1.0000   1.0000   1.0000   1.0000   1.0000   1.0000
     1.0000   1.0000   1.0000   1.0000   1.0000   1.0000   1.0000   1.0000
     1.0000   1.0000   1.0000   1.0000   1.0000   1.0000   1.0000   1.0000
     1.0000   1.0000   1.0000   1.0000   1.0000   1.0000   1.0000   1.0000
     1.0000   1.0000   1.0000   1.0000   1.0000   1.0000   1.0000   1.0000
     1.0000   1.0000   1.0000   1.0000   1.0000   1.0000   1.0000   1.0000
     1.0000   1.0000   1.0000   1.0000   1.0000   1.0000   1.0000   1.0000
     1.0000   1.0000   1.0000   1.0000   1.0000   1.0000   1.0000   1.0000
     1.0000   1.0000   1.0000   1.0000   1.0000   1.0000   1.0000   1.0000
     1.0000   1.0000   1.0000   1.0000   1.0000   1.0000   1.0000   1.0000
     1.0000   1.0000   1.0000   1.0000   1.0000   1.0000   1.0000   1.0000
     1.0000   1.0000   1.0000   1.0000   1.0000   1.0000   1.0000   1.0000
     1.0000   1.0000   1.0000   1.0000   1.0000   1.0000   1.0000   1.0000
     1.0000   1.0000   1.0000   1.0000   1.0000   1.0000   1.0000   1.0000
     1.0000   1.0000   1.0000   1.0000   1.0000   1.0000   1.0000   1.0000
     1.0000   1.0000   1.0000   1.0000   1.0000   1.0000   1.0000   1.0000
     1.0000   1.0000   1.0000   1.0000   1.0000   1.0000   1.0000   1.0000
     1.0000   1.0000   1.0000   1.0000   1.0000   1.0000   1.0000   1.0000
     1.0000   1.0000   1.0000   1.0000   1.0000   1.0000   0.9999   0.9999
     0.9999   0.9998   0.9993   0.9990   0.9986   0.9984   0.9980   0.9977
     0.9973   0.9968   0.9965   0.9961   0.9953   0.9951   0.9947   0.9937
     0.9925   0.9912   0.9889   0.9871   0.9868   0.9848   0.9828   0.9789
     0.9770   0.9652   0.9564   0.9513   0.9476   0.9366   0.9226   0.9166
     0.9082   0.9018   0.8982   0.8669   0.8544   0.8219   0.7845   0.7469
     0.7395   0.7359   0.7295   0.7200   0.7145   0.7090   0.7056   0.6996
     0.6930   0.6867   0.6767   0.6738   0.6671   0.6553   0.6487   0.6431
     0.6260   0.4501   0.3954   0.3728   0.3334   0.3115   0.2164   0.1757
     0.0739   0.0382   0.0196   0.0070   0.0029   0.0003   0.0002   0.0002
     0.0001   0.0001   0.0000   0.0000   0.0000   0.0000   0.0000   0.0000
     0.0000   0.0000   0.0000   0.0000   0.0000   0.0000   0.0000   0.0000
     0.0000   0.0000   0.0000   0.0000   0.0000   0.0000   0.0000   0.0000

          k = 0.2500-0.5000 0.0000 ( 65138 PWs)   bands (ev):

   -92.7317 -92.6783 -92.5853 -92.5370 -92.4801 -92.4379 -92.4206 -92.2982
   -56.0852 -56.0649 -55.9427 -55.9323 -55.9243 -55.9191 -55.8829 -55.8545
   -55.8391 -55.8374 -55.8290 -55.7880 -55.7682 -55.7309 -55.7116 -55.6800
   -55.6719 -55.6262 -55.6237 -55.6232 -55.6147 -55.5731 -55.5509 -55.4652
   -31.3046 -31.2892 -31.1462 -31.0606 -31.0456 -30.9547 -30.8775 -30.8358
   -29.8763 -29.8356 -29.8104 -29.7039 -15.0119 -14.9658 -14.8989 -14.7789
   -14.7505 -14.6288 -14.5415 -14.4066 -14.1026 -14.0494 -14.0226 -14.0034
   -13.9824 -13.9740 -13.9402 -13.9217 -13.8841 -13.8489 -13.8178 -13.7880
   -13.6963 -13.6470 -13.5975 -13.5686 -13.4998 -13.4818 -13.3726 -13.3408
   -13.2363 -13.1716 -13.1470 -13.0623 -13.0276 -13.0135 -12.9944 -12.9734
   -12.9421 -12.9270 -12.8525 -12.8428 -12.8078 -12.7766 -12.7326 -12.6882
   -12.6829 -12.6534 -12.5510 -12.4614 -12.3504 -12.2990 -12.2225 -12.1950
   -11.8055 -11.7935 -11.7827 -11.7554 -11.7235 -11.6955 -11.6532 -11.6271
   -11.6041 -11.5611 -11.5350 -11.5238  -2.4816  -2.4151  -2.2870  -2.2093
    -2.0803  -1.9956  -1.8735  -1.7222  -1.6697  -1.6468  -1.5831  -1.5701
    -1.4742  -1.4052  -1.3211  -1.2721  -1.2621  -1.1990  -1.1577  -1.1218
    -1.0742  -1.0370  -1.0023  -0.9623  -0.9517  -0.9053  -0.8764  -0.8344
    -0.8040  -0.7367  -0.6363  -0.5951  -0.5180  -0.4523  -0.4048  -0.3617
    -0.3397  -0.2872  -0.1244  -0.1150  -0.0139   0.0249   0.0345   0.0764
     0.1089   0.1502   0.1751   0.2445   0.5174   0.6099   0.6825   0.7391
     1.0015   1.0274   1.1154   1.1389   1.3059   1.3395   1.3815   1.4056
     1.4201   1.4406   1.5020   1.5484   1.5850   1.6643   1.7567   1.7966
     1.8171   1.8231   1.8635   1.8776   1.8817   1.9258   1.9395   1.9596
     1.9889   2.0067   2.0291   2.0625   2.1207   2.1592   2.2383   2.3774
     2.5237   2.5399   2.5615   2.5876   2.6112   2.6368   2.6606   2.6713
     2.6948   2.7703   2.7950   2.8553   2.8643   2.8739   2.8851   2.9037
     2.9161   2.9368   2.9465   2.9760   2.9863   3.0010   3.0100   3.0182
     3.0310   3.5575   3.5657   3.7125   3.7636   4.1066   4.1540   4.1689
     4.2868   4.7279   4.8923   5.0393   5.0994   5.2760   5.4084   5.5893
     5.5962   5.7422   5.7604   6.1483   6.3836   6.4714   6.6599   7.0059
     7.4564   7.5404   7.6817   7.7895   7.8528   7.8927   8.0151   8.2132
     8.3211   8.4088   8.4559   8.5163   8.5394   8.6414   8.6936   8.7411

     occupation numbers 
     1.0000   1.0000   1.0000   1.0000   1.0000   1.0000   1.0000   1.0000
     1.0000   1.0000   1.0000   1.0000   1.0000   1.0000   1.0000   1.0000
     1.0000   1.0000   1.0000   1.0000   1.0000   1.0000   1.0000   1.0000
     1.0000   1.0000   1.0000   1.0000   1.0000   1.0000   1.0000   1.0000
     1.0000   1.0000   1.0000   1.0000   1.0000   1.0000   1.0000   1.0000
     1.0000   1.0000   1.0000   1.0000   1.0000   1.0000   1.0000   1.0000
     1.0000   1.0000   1.0000   1.0000   1.0000   1.0000   1.0000   1.0000
     1.0000   1.0000   1.0000   1.0000   1.0000   1.0000   1.0000   1.0000
     1.0000   1.0000   1.0000   1.0000   1.0000   1.0000   1.0000   1.0000
     1.0000   1.0000   1.0000   1.0000   1.0000   1.0000   1.0000   1.0000
     1.0000   1.0000   1.0000   1.0000   1.0000   1.0000   1.0000   1.0000
     1.0000   1.0000   1.0000   1.0000   1.0000   1.0000   1.0000   1.0000
     1.0000   1.0000   1.0000   1.0000   1.0000   1.0000   1.0000   1.0000
     1.0000   1.0000   1.0000   1.0000   1.0000   1.0000   1.0000   1.0000
     1.0000   1.0000   1.0000   1.0000   1.0000   1.0000   1.0000   1.0000
     1.0000   1.0000   1.0000   1.0000   1.0000   1.0000   1.0000   1.0000
     1.0000   1.0000   1.0000   1.0000   1.0000   1.0000   1.0000   1.0000
     1.0000   1.0000   1.0000   1.0000   1.0000   1.0000   1.0000   1.0000
     1.0000   1.0000   1.0000   1.0000   1.0000   1.0000   1.0000   1.0000
     1.0000   1.0000   1.0000   1.0000   1.0000   1.0000   0.9999   0.9999
     0.9997   0.9996   0.9994   0.9993   0.9984   0.9982   0.9978   0.9975
     0.9973   0.9971   0.9961   0.9953   0.9945   0.9923   0.9889   0.9870
     0.9860   0.9856   0.9833   0.9824   0.9822   0.9791   0.9780   0.9764
     0.9739   0.9722   0.9701   0.9665   0.9596   0.9543   0.9419   0.9138
     0.8743   0.8693   0.8624   0.8537   0.8455   0.8363   0.8274   0.8233
     0.8141   0.7826   0.7717   0.7437   0.7394   0.7347   0.7292   0.7200
     0.7138   0.7033   0.6982   0.6828   0.6773   0.6694   0.6646   0.6601
     0.6532   0.3490   0.3445   0.2683   0.2438   0.1144   0.1014   0.0975
     0.0707   0.0168   0.0089   0.0048   0.0037   0.0016   0.0009   0.0003
     0.0003   0.0001   0.0001   0.0000   0.0000   0.0000   0.0000   0.0000
     0.0000   0.0000   0.0000   0.0000   0.0000   0.0000   0.0000   0.0000
     0.0000   0.0000   0.0000   0.0000   0.0000   0.0000   0.0000   0.0000

          k =-0.5000-0.5000 0.0000 ( 65132 PWs)   bands (ev):

   -92.7317 -92.6783 -92.5853 -92.5370 -92.4801 -92.4379 -92.4206 -92.2982
   -56.0852 -56.0649 -55.9427 -55.9323 -55.9243 -55.9191 -55.8829 -55.8545
   -55.8391 -55.8374 -55.8290 -55.7880 -55.7682 -55.7309 -55.7116 -55.6801
   -55.6719 -55.6262 -55.6237 -55.6232 -55.6147 -55.5731 -55.5509 -55.4652
   -31.3023 -31.2915 -31.1458 -31.0610 -31.0454 -30.9545 -30.8777 -30.8361
   -29.8753 -29.8366 -29.8100 -29.7043 -14.9670 -14.9387 -14.8211 -14.8097
   -14.7133 -14.6784 -14.6390 -14.5071 -14.0155 -14.0015 -13.9667 -13.9477
   -13.9332 -13.9211 -13.8909 -13.8820 -13.8667 -13.8527 -13.8324 -13.7627
   -13.7566 -13.7218 -13.6951 -13.6907 -13.5890 -13.5387 -13.4130 -13.3871
   -13.1877 -13.1428 -13.0799 -13.0552 -13.0242 -13.0142 -13.0050 -12.9873
   -12.9740 -12.8982 -12.8692 -12.8460 -12.8123 -12.7813 -12.7330 -12.6942
   -12.6347 -12.6267 -12.5674 -12.4482 -12.3468 -12.2904 -12.2043 -12.1895
   -11.8023 -11.7897 -11.7715 -11.7550 -11.7197 -11.7020 -11.6672 -11.6078
   -11.5865 -11.5831 -11.5327 -11.5298  -2.2577  -2.1819  -2.1704  -2.0996
    -2.0610  -1.9825  -1.9148  -1.7889  -1.6727  -1.6424  -1.6041  -1.5462
    -1.4734  -1.4598  -1.3885  -1.3457  -1.2280  -1.2003  -1.1516  -1.1227
    -1.0585  -1.0136  -0.9936  -0.9816  -0.9296  -0.8833  -0.8675  -0.7548
    -0.6986  -0.6528  -0.6008  -0.5751  -0.5645  -0.5280  -0.4847  -0.4510
    -0.4374  -0.3542  -0.2852  -0.2409  -0.2151  -0.1410  -0.0859  -0.0676
    -0.0135   0.0073   0.0223   0.0327   0.4878   0.5296   0.6340   0.6498
     1.0368   1.0454   1.0782   1.1174   1.3897   1.4100   1.4171   1.4545
     1.5855   1.6817   1.7088   1.7448   1.7648   1.7901   1.7985   1.8286
     1.8405   1.8579   1.8636   1.9174   1.9192   1.9478   1.9745   1.9805
     1.9987   2.0352   2.0615   2.0748   2.1048   2.1336   2.2011   2.2682
     2.5289   2.5684   2.5900   2.6070   2.6180   2.6474   2.6504   2.6679
     2.6816   2.6973   2.7133   2.7286   2.7726   2.7972   2.8013   2.8234
     2.8353   2.8568   2.8701   2.8787   2.8893   2.9838   2.9879   3.0149
     3.0249   3.9735   4.0003   4.0377   4.0677   4.2888   4.3626   4.3879
     4.6291   4.7506   4.8333   4.9631   5.0526   5.0599   5.1751   5.2791
     5.3600   5.8433   5.8740   5.9439   6.0110   6.4524   6.5092   6.5963
     7.7834   7.8918   7.9013   7.9285   7.9413   7.9524   7.9999   8.0653
     8.2450   8.4140   8.5507   8.5617   8.5912   8.6307   8.6609   8.7085

     occupation numbers 
     1.0000   1.0000   1.0000   1.0000   1.0000   1.0000   1.0000   1.0000
     1.0000   1.0000   1.0000   1.0000   1.0000   1.0000   1.0000   1.0000
     1.0000   1.0000   1.0000   1.0000   1.0000   1.0000   1.0000   1.0000
     1.0000   1.0000   1.0000   1.0000   1.0000   1.0000   1.0000   1.0000
     1.0000   1.0000   1.0000   1.0000   1.0000   1.0000   1.0000   1.0000
     1.0000   1.0000   1.0000   1.0000   1.0000   1.0000   1.0000   1.0000
     1.0000   1.0000   1.0000   1.0000   1.0000   1.0000   1.0000   1.0000
     1.0000   1.0000   1.0000   1.0000   1.0000   1.0000   1.0000   1.0000
     1.0000   1.0000   1.0000   1.0000   1.0000   1.0000   1.0000   1.0000
     1.0000   1.0000   1.0000   1.0000   1.0000   1.0000   1.0000   1.0000
     1.0000   1.0000   1.0000   1.0000   1.0000   1.0000   1.0000   1.0000
     1.0000   1.0000   1.0000   1.0000   1.0000   1.0000   1.0000   1.0000
     1.0000   1.0000   1.0000   1.0000   1.0000   1.0000   1.0000   1.0000
     1.0000   1.0000   1.0000   1.0000   1.0000   1.0000   1.0000   1.0000
     1.0000   1.0000   1.0000   1.0000   1.0000   1.0000   1.0000   1.0000
     1.0000   1.0000   1.0000   1.0000   1.0000   1.0000   1.0000   1.0000
     1.0000   1.0000   1.0000   1.0000   1.0000   1.0000   1.0000   1.0000
     1.0000   1.0000   1.0000   1.0000   1.0000   1.0000   1.0000   1.0000
[...]
     0.7450   0.7283   0.7177   0.7147   0.7046   0.6987   0.6913   0.6800
     0.6774   0.6633   0.6574   0.6536   0.6469   0.6354   0.6218   0.6193
     0.6150   0.6107   0.6050   0.5992   0.5245   0.3523   0.3227   0.2046
     0.0793   0.0451   0.0219   0.0056   0.0048   0.0003   0.0001   0.0001
     0.0000   0.0000   0.0000   0.0000   0.0000   0.0000   0.0000   0.0000
     0.0000   0.0000   0.0000   0.0000   0.0000   0.0000   0.0000   0.0000
     0.0000   0.0000   0.0000   0.0000   0.0000   0.0000   0.0000   0.0000

          k =-0.5000 0.0000 0.0000 ( 65180 PWs)   bands (ev):

   -92.7317 -92.6783 -92.5853 -92.5370 -92.4801 -92.4379 -92.4206 -92.2982
   -56.0852 -56.0649 -55.9427 -55.9323 -55.9243 -55.9191 -55.8829 -55.8545
   -55.8391 -55.8374 -55.8290 -55.7880 -55.7682 -55.7309 -55.7116 -55.6800
   -55.6719 -55.6262 -55.6237 -55.6232 -55.6147 -55.5731 -55.5509 -55.4652
   -31.3027 -31.2918 -31.1454 -31.0607 -31.0457 -30.9553 -30.8769 -30.8358
   -29.8765 -29.8372 -29.8088 -29.7036 -15.0460 -14.9972 -14.9339 -14.8208
   -14.7205 -14.5756 -14.4357 -14.2811 -14.1624 -14.1474 -14.1383 -14.0764
   -14.0223 -13.9918 -13.9429 -13.9309 -13.9176 -13.8677 -13.8395 -13.7456
   -13.5852 -13.5635 -13.5254 -13.5170 -13.4456 -13.3948 -13.3483 -13.2972
   -13.2738 -13.2543 -13.0836 -13.0731 -13.0545 -13.0405 -13.0112 -12.9944
   -12.9728 -12.9531 -12.8263 -12.8066 -12.7944 -12.7696 -12.7584 -12.6949
   -12.6698 -12.6606 -12.5707 -12.4719 -12.3568 -12.3126 -12.2379 -12.2009
   -11.8089 -11.7876 -11.7805 -11.7665 -11.7480 -11.7064 -11.6441 -11.6258
   -11.5921 -11.5505 -11.5411 -11.5250  -2.6129  -2.5740  -2.4106  -2.3709
    -2.0586  -1.9837  -1.8353  -1.7166  -1.6782  -1.6329  -1.5849  -1.5591
    -1.4361  -1.3912  -1.3767  -1.2944  -1.2574  -1.2444  -1.2116  -1.1531
    -1.0856  -1.0562  -1.0272  -0.9295  -0.8849  -0.8365  -0.8038  -0.7821
    -0.7521  -0.7038  -0.6780  -0.6399  -0.5457  -0.4700  -0.4071  -0.3439
    -0.1770  -0.1425  -0.0863  -0.0573   0.0112   0.0225   0.1637   0.1939
     0.2337   0.4097   0.5089   0.5578   0.6370   0.7110   0.8279   0.8405
     0.9752   1.0001   1.0527   1.0785   1.1211   1.1319   1.1782   1.2007
     1.2676   1.3166   1.3628   1.3714   1.6696   1.6788   1.6977   1.7164
     1.8266   1.8369   1.8531   1.8654   1.8903   1.9028   1.9408   1.9672
     1.9921   2.0470   2.0614   2.1127   2.1348   2.1891   2.2974   2.4034
     2.4685   2.4862   2.5605   2.5959   2.6248   2.6909   2.6987   2.7080
     2.7366   2.7676   2.8056   2.8594   2.9018   2.9310   2.9699   2.9740
     2.9750   2.9897   3.0006   3.0137   3.0277   3.0303   3.0554   3.0565
     3.0833   3.0987   3.1037   3.2358   3.2400   4.0370   4.0902   4.1569
     4.3141   4.7611   4.8334   5.0084   5.0316   5.4668   5.4944   5.5646
     5.6264   5.9846   6.0050   6.0910   6.6655   6.7831   6.9876   7.2639
     7.3056   7.3206   7.4300   7.5436   7.7281   7.7521   7.8625   7.9162
     8.1517   8.2392   8.4824   8.5505   8.5963   8.7356   8.8151   8.9119

     occupation numbers 
     1.0000   1.0000   1.0000   1.0000   1.0000   1.0000   1.0000   1.0000
     1.0000   1.0000   1.0000   1.0000   1.0000   1.0000   1.0000   1.0000
     1.0000   1.0000   1.0000   1.0000   1.0000   1.0000   1.0000   1.0000
     1.0000   1.0000   1.0000   1.0000   1.0000   1.0000   1.0000   1.0000
     1.0000   1.0000   1.0000   1.0000   1.0000   1.0000   1.0000   1.0000
     1.0000   1.0000   1.0000   1.0000   1.0000   1.0000   1.0000   1.0000
     1.0000   1.0000   1.0000   1.0000   1.0000   1.0000   1.0000   1.0000
     1.0000   1.0000   1.0000   1.0000   1.0000   1.0000   1.0000   1.0000
     1.0000   1.0000   1.0000   1.0000   1.0000   1.0000   1.0000   1.0000
     1.0000   1.0000   1.0000   1.0000   1.0000   1.0000   1.0000   1.0000
     1.0000   1.0000   1.0000   1.0000   1.0000   1.0000   1.0000   1.0000
     1.0000   1.0000   1.0000   1.0000   1.0000   1.0000   1.0000   1.0000
     1.0000   1.0000   1.0000   1.0000   1.0000   1.0000   1.0000   1.0000
     1.0000   1.0000   1.0000   1.0000   1.0000   1.0000   1.0000   1.0000
     1.0000   1.0000   1.0000   1.0000   1.0000   1.0000   1.0000   1.0000
     1.0000   1.0000   1.0000   1.0000   1.0000   1.0000   1.0000   1.0000
     1.0000   1.0000   1.0000   1.0000   1.0000   1.0000   1.0000   1.0000
     1.0000   1.0000   1.0000   1.0000   1.0000   1.0000   1.0000   1.0000
     1.0000   1.0000   1.0000   1.0000   1.0000   1.0000   1.0000   1.0000
     1.0000   1.0000   1.0000   1.0000   1.0000   0.9999   0.9999   0.9999
     0.9997   0.9997   0.9996   0.9995   0.9994   0.9993   0.9992   0.9991
     0.9987   0.9984   0.9980   0.9979   0.9921   0.9918   0.9912   0.9905
     0.9855   0.9849   0.9839   0.9832   0.9816   0.9807   0.9779   0.9758
     0.9736   0.9682   0.9666   0.9606   0.9577   0.9499   0.9310   0.9075
     0.8905   0.8855   0.8627   0.8508   0.8406   0.8156   0.8125   0.8088
     0.7970   0.7838   0.7669   0.7417   0.7210   0.7062   0.6860   0.6838
     0.6833   0.6755   0.6697   0.6626   0.6550   0.6536   0.6397   0.6391
     0.6241   0.6154   0.6125   0.5358   0.5333   0.1357   0.1192   0.1006
     0.0653   0.0148   0.0112   0.0055   0.0050   0.0006   0.0005   0.0004
     0.0003   0.0000   0.0000   0.0000   0.0000   0.0000   0.0000   0.0000
     0.0000   0.0000   0.0000   0.0000   0.0000   0.0000   0.0000   0.0000
     0.0000   0.0000   0.0000   0.0000   0.0000   0.0000   0.0000   0.0000

          k =-0.2500 0.2500 0.0000 ( 65198 PWs)   bands (ev):

   -92.7317 -92.6783 -92.5853 -92.5370 -92.4801 -92.4379 -92.4206 -92.2982
   -56.0852 -56.0649 -55.9427 -55.9323 -55.9243 -55.9191 -55.8829 -55.8545
   -55.8391 -55.8374 -55.8290 -55.7880 -55.7682 -55.7309 -55.7116 -55.6801
   -55.6719 -55.6262 -55.6237 -55.6232 -55.6147 -55.5731 -55.5509 -55.4652
   -31.3048 -31.2894 -31.1460 -31.0604 -31.0457 -30.9551 -30.8771 -30.8357
   -29.8769 -29.8359 -29.8098 -29.7035 -15.0483 -15.0104 -14.9332 -14.8165
   -14.7054 -14.5800 -14.4923 -14.2831 -14.1451 -14.1160 -14.0992 -14.0573
   -14.0282 -14.0164 -13.9967 -13.9414 -13.8660 -13.8531 -13.7020 -13.6755
   -13.6491 -13.6269 -13.5870 -13.5269 -13.4665 -13.4587 -13.3251 -13.2935
   -13.2523 -13.1752 -13.1312 -13.0701 -13.0396 -13.0229 -13.0025 -12.9730
   -12.9576 -12.9303 -12.8627 -12.8427 -12.8002 -12.7835 -12.7703 -12.7306
   -12.7217 -12.6927 -12.5249 -12.4720 -12.4715 -12.3125 -12.1649 -12.1045
   -11.8291 -11.8076 -11.7806 -11.7682 -11.7272 -11.6924 -11.6695 -11.6478
   -11.6254 -11.5425 -11.4964 -11.4871  -2.6977  -2.4891  -2.3683  -2.2802
    -2.1615  -2.0949  -1.8929  -1.7468  -1.7281  -1.7000  -1.6075  -1.5717
    -1.4781  -1.4450  -1.4186  -1.2757  -1.2191  -1.1520  -1.1238  -1.0640
    -1.0406  -1.0011  -0.9722  -0.9324  -0.8687  -0.8215  -0.7592  -0.6907
    -0.6640  -0.6134  -0.5837  -0.5392  -0.4831  -0.4396  -0.3966  -0.2981
    -0.2643  -0.2527  -0.2085  -0.1422  -0.0667  -0.0259   0.0033   0.0757
     0.1047   0.3588   0.5273   0.5701   0.6092   0.6660   0.7164   0.7745
     0.8415   0.8661   1.1488   1.2610   1.2990   1.3319   1.3376   1.3801
     1.3978   1.4430   1.4737   1.4878   1.5144   1.5581   1.5725   1.6173
     1.6324   1.6790   1.7658   1.7860   1.8021   1.8426   1.8677   1.9088
     1.9613   2.0646   2.1732   2.2017   2.2489   2.2688   2.3363   2.3778
     2.4038   2.4272   2.4483   2.5501   2.5845   2.6735   2.7637   2.8520
     2.8642   2.8752   2.8887   2.8953   2.9097   2.9175   2.9346   2.9458
     2.9570   2.9682   2.9791   2.9888   2.9947   3.0281   3.0397   3.0473
     3.0814   3.3738   3.4561   3.5207   3.6026   3.6174   3.8123   3.9321
     4.2717   4.4875   4.6872   4.9554   5.1547   5.6195   5.6646   5.7231
     5.8026   5.8668   6.0377   6.1513   6.1996   6.7803   6.8805   7.0700
     7.1980   7.5455   7.5876   7.6470   7.8259   7.8619   7.9629   8.1274
     8.1430   8.2569   8.2936   8.3781   8.4252   8.4478   8.6220   8.8289

     occupation numbers 
     1.0000   1.0000   1.0000   1.0000   1.0000   1.0000   1.0000   1.0000
     1.0000   1.0000   1.0000   1.0000   1.0000   1.0000   1.0000   1.0000
     1.0000   1.0000   1.0000   1.0000   1.0000   1.0000   1.0000   1.0000
     1.0000   1.0000   1.0000   1.0000   1.0000   1.0000   1.0000   1.0000
     1.0000   1.0000   1.0000   1.0000   1.0000   1.0000   1.0000   1.0000
     1.0000   1.0000   1.0000   1.0000   1.0000   1.0000   1.0000   1.0000
     1.0000   1.0000   1.0000   1.0000   1.0000   1.0000   1.0000   1.0000
     1.0000   1.0000   1.0000   1.0000   1.0000   1.0000   1.0000   1.0000
     1.0000   1.0000   1.0000   1.0000   1.0000   1.0000   1.0000   1.0000
     1.0000   1.0000   1.0000   1.0000   1.0000   1.0000   1.0000   1.0000
     1.0000   1.0000   1.0000   1.0000   1.0000   1.0000   1.0000   1.0000
     1.0000   1.0000   1.0000   1.0000   1.0000   1.0000   1.0000   1.0000
     1.0000   1.0000   1.0000   1.0000   1.0000   1.0000   1.0000   1.0000
     1.0000   1.0000   1.0000   1.0000   1.0000   1.0000   1.0000   1.0000
     1.0000   1.0000   1.0000   1.0000   1.0000   1.0000   1.0000   1.0000
     1.0000   1.0000   1.0000   1.0000   1.0000   1.0000   1.0000   1.0000
     1.0000   1.0000   1.0000   1.0000   1.0000   1.0000   1.0000   1.0000
     1.0000   1.0000   1.0000   1.0000   1.0000   1.0000   1.0000   1.0000
     1.0000   1.0000   1.0000   1.0000   1.0000   1.0000   1.0000   1.0000
     1.0000   1.0000   1.0000   1.0000   1.0000   1.0000   0.9999   0.9999
     0.9999   0.9998   0.9993   0.9987   0.9985   0.9982   0.9982   0.9978
     0.9976   0.9970   0.9966   0.9964   0.9959   0.9951   0.9948   0.9937
     0.9933   0.9918   0.9885   0.9875   0.9867   0.9846   0.9830   0.9803
     0.9763   0.9663   0.9523   0.9479   0.9400   0.9364   0.9230   0.9137
     0.9074   0.9016   0.8960   0.8660   0.8547   0.8224   0.7854   0.7452
     0.7394   0.7340   0.7274   0.7242   0.7170   0.7131   0.7044   0.6986
     0.6928   0.6869   0.6811   0.6760   0.6728   0.6548   0.6484   0.6442
     0.6251   0.4541   0.4062   0.3694   0.3246   0.3167   0.2218   0.1725
     0.0737   0.0385   0.0194   0.0069   0.0029   0.0003   0.0002   0.0002
     0.0001   0.0001   0.0000   0.0000   0.0000   0.0000   0.0000   0.0000
     0.0000   0.0000   0.0000   0.0000   0.0000   0.0000   0.0000   0.0000
     0.0000   0.0000   0.0000   0.0000   0.0000   0.0000   0.0000   0.0000

          k =-0.5000 0.2500 0.0000 ( 65138 PWs)   bands (ev):

   -92.7317 -92.6783 -92.5853 -92.5370 -92.4801 -92.4379 -92.4206 -92.2982
   -56.0852 -56.0649 -55.9427 -55.9323 -55.9243 -55.9191 -55.8829 -55.8545
   -55.8391 -55.8374 -55.8290 -55.7880 -55.7682 -55.7309 -55.7116 -55.6800
   -55.6719 -55.6262 -55.6237 -55.6232 -55.6147 -55.5731 -55.5509 -55.4652
   -31.3025 -31.2917 -31.1456 -31.0608 -31.0455 -30.9549 -30.8773 -30.8359
   -29.8759 -29.8369 -29.8094 -29.7039 -15.0138 -14.9706 -14.8913 -14.7877
   -14.7482 -14.6225 -14.5368 -14.3998 -14.0957 -14.0641 -14.0531 -14.0113
   -13.9860 -13.9640 -13.9284 -13.9142 -13.8979 -13.8543 -13.8381 -13.7369
   -13.6676 -13.6223 -13.6169 -13.6041 -13.4992 -13.4931 -13.3807 -13.3205
   -13.2300 -13.1926 -13.0960 -13.0571 -13.0455 -13.0210 -12.9980 -12.9751
   -12.9668 -12.9510 -12.8454 -12.8268 -12.7993 -12.7875 -12.7362 -12.6907
   -12.6515 -12.6439 -12.5688 -12.4602 -12.3521 -12.3024 -12.2210 -12.1951
   -11.8018 -11.7893 -11.7748 -11.7627 -11.7416 -11.7112 -11.6304 -11.6227
   -11.5980 -11.5649 -11.5366 -11.5275  -2.4706  -2.4285  -2.2803  -2.2376
    -2.0776  -2.0024  -1.8595  -1.7227  -1.6672  -1.6397  -1.6009  -1.5617
    -1.4813  -1.3656  -1.3089  -1.2852  -1.2595  -1.1844  -1.1541  -1.1166
    -1.0984  -1.0384  -1.0091  -0.9700  -0.9345  -0.9057  -0.8480  -0.8207
    -0.7783  -0.7447  -0.6409  -0.6133  -0.5281  -0.4627  -0.4341  -0.3775
    -0.2907  -0.2563  -0.1573  -0.1169  -0.0609  -0.0080   0.0102   0.0895
     0.1161   0.1478   0.2007   0.2410   0.5504   0.6115   0.6808   0.6953
     0.9859   1.0396   1.1167   1.1392   1.3189   1.3553   1.3926   1.4051
     1.4235   1.4412   1.5097   1.5548   1.5948   1.6213   1.7484   1.7831
     1.8120   1.8239   1.8649   1.8864   1.9019   1.9171   1.9360   1.9596
     2.0076   2.0212   2.0563   2.0785   2.1101   2.1679   2.2883   2.3911
     2.4154   2.4862   2.5227   2.5797   2.6214   2.6276   2.6644   2.6974
     2.7192   2.7689   2.8052   2.8554   2.8644   2.8738   2.8887   2.9116
     2.9241   2.9375   2.9549   2.9733   2.9846   2.9949   3.0024   3.0126
     3.0244   3.5533   3.6060   3.7433   3.7676   4.0433   4.1152   4.1652
     4.3885   4.7554   4.8512   5.0056   5.0579   5.3727   5.4031   5.5658
     5.6119   5.7225   5.7519   6.1875   6.3752   6.4759   6.5766   7.0680
     7.4547   7.5455   7.6956   7.7728   7.8348   7.8652   8.0005   8.2357
     8.3327   8.3894   8.4573   8.5302   8.5459   8.6344   8.6913   8.7240

     occupation numbers 
     1.0000   1.0000   1.0000   1.0000   1.0000   1.0000   1.0000   1.0000
     1.0000   1.0000   1.0000   1.0000   1.0000   1.0000   1.0000   1.0000
     1.0000   1.0000   1.0000   1.0000   1.0000   1.0000   1.0000   1.0000
     1.0000   1.0000   1.0000   1.0000   1.0000   1.0000   1.0000   1.0000
     1.0000   1.0000   1.0000   1.0000   1.0000   1.0000   1.0000   1.0000
     1.0000   1.0000   1.0000   1.0000   1.0000   1.0000   1.0000   1.0000
     1.0000   1.0000   1.0000   1.0000   1.0000   1.0000   1.0000   1.0000
     1.0000   1.0000   1.0000   1.0000   1.0000   1.0000   1.0000   1.0000
     1.0000   1.0000   1.0000   1.0000   1.0000   1.0000   1.0000   1.0000
     1.0000   1.0000   1.0000   1.0000   1.0000   1.0000   1.0000   1.0000
     1.0000   1.0000   1.0000   1.0000   1.0000   1.0000   1.0000   1.0000
     1.0000   1.0000   1.0000   1.0000   1.0000   1.0000   1.0000   1.0000
     1.0000   1.0000   1.0000   1.0000   1.0000   1.0000   1.0000   1.0000
     1.0000   1.0000   1.0000   1.0000   1.0000   1.0000   1.0000   1.0000
     1.0000   1.0000   1.0000   1.0000   1.0000   1.0000   1.0000   1.0000
     1.0000   1.0000   1.0000   1.0000   1.0000   1.0000   1.0000   1.0000
     1.0000   1.0000   1.0000   1.0000   1.0000   1.0000   1.0000   1.0000
     1.0000   1.0000   1.0000   1.0000   1.0000   1.0000   1.0000   1.0000
     1.0000   1.0000   1.0000   1.0000   1.0000   1.0000   1.0000   1.0000
     1.0000   1.0000   1.0000   1.0000   1.0000   1.0000   0.9999   0.9999
     0.9997   0.9996   0.9994   0.9993   0.9983   0.9980   0.9976   0.9975
     0.9973   0.9971   0.9960   0.9951   0.9942   0.9936   0.9892   0.9877
     0.9862   0.9856   0.9832   0.9818   0.9808   0.9797   0.9783   0.9764
     0.9722   0.9708   0.9672   0.9647   0.9609   0.9531   0.9328   0.9105
     0.9046   0.8855   0.8746   0.8563   0.8418   0.8396   0.8259   0.8130
     0.8042   0.7832   0.7670   0.7436   0.7393   0.7347   0.7275   0.7160
     0.7097   0.7029   0.6939   0.6842   0.6782   0.6727   0.6687   0.6632
     0.6567   0.3514   0.3228   0.2534   0.2420   0.1336   0.1120   0.0985
     0.0524   0.0151   0.0105   0.0056   0.0044   0.0010   0.0009   0.0004
     0.0003   0.0002   0.0001   0.0000   0.0000   0.0000   0.0000   0.0000
     0.0000   0.0000   0.0000   0.0000   0.0000   0.0000   0.0000   0.0000
     0.0000   0.0000   0.0000   0.0000   0.0000   0.0000   0.0000   0.0000

     the Fermi energy is     3.2962 ev

!    total energy              =   -4399.92174816 Ry
     estimated scf accuracy    <          6.0E-09 Ry
     smearing contrib. (-TS)   =      -1.14676502 Ry
     internal energy E=F+TS    =   -4398.77498314 Ry

     The total energy is F=E-TS. E is the sum of the following terms:
     one-electron contribution =  -21252.51658053 Ry
     hartree contribution      =   10753.95267223 Ry
     xc contribution           =    -686.73324296 Ry
     ewald contribution        =    7053.16725759 Ry
     one-center paw contrib.   =    -266.64508948 Ry
      -> PAW hartree energy AE =      25.16432546 Ry
      -> PAW hartree energy PS =     -25.04821319 Ry
      -> PAW xc energy AE      =     -16.51768785 Ry
      -> PAW xc energy PS      =       6.87716300 Ry
      -> total E_H with PAW    =   10754.06878451 Ry
      -> total E_XC with PAW   =    -696.37376780 Ry

     convergence has been achieved in  51 iterations

     Writing all to output data dir /bsuhome/zayahcortright/scratch/pwscf.save/
 
     init_run     :      7.55s CPU      7.97s WALL (       1 calls)
     electrons    :    718.06s CPU    730.83s WALL (       1 calls)

     Called by init_run:
     wfcinit      :      5.97s CPU      6.10s WALL (       1 calls)
     wfcinit:atom :      0.05s CPU      0.06s WALL (       5 calls)
     wfcinit:wfcr :      5.63s CPU      5.71s WALL (       5 calls)
     potinit      :      0.17s CPU      0.19s WALL (       1 calls)
     hinit0       :      0.54s CPU      0.75s WALL (       1 calls)

     Called by electrons:
     c_bands      :    565.82s CPU    570.88s WALL (      51 calls)
     sum_band     :    114.10s CPU    118.54s WALL (      51 calls)
     v_of_rho     :      5.64s CPU      5.91s WALL (      52 calls)
     v_h          :      0.48s CPU      0.49s WALL (      52 calls)
     v_xc         :      5.16s CPU      5.42s WALL (      52 calls)
     newd         :     17.41s CPU     20.03s WALL (      52 calls)
     PAW_pot      :      1.64s CPU      1.66s WALL (      52 calls)
     mix_rho      :     13.05s CPU     13.31s WALL (      51 calls)

     Called by c_bands:
     init_us_2    :      7.27s CPU      7.33s WALL (     515 calls)
     init_us_2:cp :      7.27s CPU      7.32s WALL (     515 calls)
     cegterg      :    537.25s CPU    542.03s WALL (     255 calls)

     Called by sum_band:
     sum_band:wei :      0.37s CPU      0.37s WALL (      51 calls)
     sum_band:loo :     93.68s CPU     94.35s WALL (      51 calls)
     sum_band:buf :      1.70s CPU      1.72s WALL (     255 calls)
     sum_band:ini :      3.39s CPU      3.40s WALL (     255 calls)
     sum_band:cal :     19.35s CPU     19.40s WALL (     255 calls)
     sum_band:bec :      0.64s CPU      0.65s WALL (     255 calls)
     addusdens    :     19.08s CPU     22.81s WALL (      51 calls)
                                        0.00s GPU  (      51 calls)
     addusd:skk   :      0.35s CPU      0.69s WALL (     204 calls)
                                        0.00s GPU  (     204 calls)

     Called by *egterg:
     cdiaghg      :     55.59s CPU     55.83s WALL (    1283 calls)
     cegterg:over :     39.00s CPU     39.13s WALL (    1028 calls)
     cegterg:upda :     28.80s CPU     29.17s WALL (    1028 calls)
     cegterg:last :     59.37s CPU     59.57s WALL (     462 calls)
     cdiaghg:chol :      3.09s CPU      3.11s WALL (    1283 calls)
     cdiaghg:inve :      3.53s CPU      3.54s WALL (    1283 calls)
     cdiaghg:para :      7.17s CPU      7.21s WALL (    2566 calls)
     h_psi        :    298.83s CPU    301.54s WALL (    1288 calls)
     s_psi        :     39.16s CPU     39.27s WALL (    1288 calls)
     g_psi        :      1.18s CPU      1.19s WALL (    1028 calls)

     Called by h_psi:
     h_psi:calbec :     43.90s CPU     44.03s WALL (    1288 calls)
     vloc_psi     :    212.42s CPU    214.42s WALL (    1288 calls)
     add_vuspsi   :     39.24s CPU     39.41s WALL (    1288 calls)

     General routines
     calbec       :     63.24s CPU     63.42s WALL (    1543 calls)
     fft          :      3.78s CPU      3.81s WALL (     674 calls)
     ffts         :      4.88s CPU      4.91s WALL (    5431 calls)
     fftw         :    180.94s CPU    182.43s WALL (  341108 calls)
     interpolate  :      0.43s CPU      0.43s WALL (      52 calls)
 
     Parallel routines

     PAW routines
     PAW_pot      :      1.64s CPU      1.66s WALL (      52 calls)
 
     PWSCF        :  12m 7.10s CPU  12m23.08s WALL

 
   This run was terminated on:  21:27:31  21Jun2024            

=------------------------------------------------------------------------------=
   JOB DONE.
=------------------------------------------------------------------------------=
