
     Program PWSCF v.7.2 starts on 21Jun2024 at 20:34:32 

     This program is part of the open-source Quantum ESPRESSO suite
     for quantum simulation of materials; please cite
         "P. Giannozzi et al., J. Phys.:Condens. Matter 21 395502 (2009);
         "P. Giannozzi et al., J. Phys.:Condens. Matter 29 465901 (2017);
         "P. Giannozzi et al., J. Chem. Phys. 152 154105 (2020);
          URL http://www.quantum-espresso.org", 
     in publications or presentations arising from this work. More details at
     http://www.quantum-espresso.org/quote

     Parallel version (MPI & OpenMP), running on      48 processor cores
     Number of MPI processes:                48
     Threads/MPI process:                     1

     MPI processes distributed on     1 nodes
     33229 MiB available memory on the printing compute node when the environment starts
 
     Reading input from espresso.pwi
Warning: card &CELL ignored
Warning: card / ignored
Warning: card &FCP ignored
Warning: card / ignored
Warning: card &RISM ignored
Warning: card / ignored

     Current dimensions of program PWSCF are:
     Max number of different atomic species (ntypx) = 10
     Max number of k-points (npk) =  40000
     Max angular momentum in pseudopotentials (lmaxx) =  4
     file O.pbe-n-kjpaw_psl.0.1.UPF: wavefunction(s)  2P renormalized
     signal trapping enabled: kill the code with -SIGUSR1 to stop cleanly the simulation 
 
     K-points division:     npool     =       2
     R & G space division:  proc/nbgrp/npool/nimage =      24
     Subspace diagonalization in iterative solution of the eigenvalue problem:
     one sub-group per band group will be used
     scalapack distributed-memory algorithm (size of sub-group:  3*  3 procs)

 
     Parallelization info
     --------------------
     sticks:   dense  smooth     PW     G-vecs:    dense   smooth      PW
     Min         350     175     47                61430    21716    3036
     Max         351     177     48                61449    21727    3041
     Sum        8421    4205   1137              1474595   521381   72913
 
     Using Slab Decomposition
 


     bravais-lattice index     =            0
     lattice parameter (alat)  =      14.8599  a.u.
     unit-cell volume          =    8305.1283 (a.u.)^3
     number of atoms/cell      =           50
     number of atomic types    =            4
     number of electrons       =       431.00
     number of Kohn-Sham states=          259
     kinetic-energy cutoff     =      60.0000  Ry
     charge density cutoff     =     480.0000  Ry
     scf convergence threshold =      1.0E-08
     mixing beta               =       0.1500
     number of iterations used =            8  local-TF  mixing
     Exchange-correlation= PBE
                           (   1   4   3   4   0   0   0)

     celldm(1)=  14.859904  celldm(2)=   0.000000  celldm(3)=   0.000000
     celldm(4)=   0.000000  celldm(5)=   0.000000  celldm(6)=   0.000000

     crystal axes: (cart. coord. in units of alat)
               a(1) = (   1.000000   0.000000   0.000000 )  
               a(2) = (   0.000000   1.000000   0.000000 )  
               a(3) = (   0.000000   0.000000   2.531036 )  

     reciprocal axes: (cart. coord. in units 2 pi/alat)
               b(1) = (  1.000000  0.000000  0.000000 )  
               b(2) = (  0.000000  1.000000  0.000000 )  
               b(3) = (  0.000000  0.000000  0.395095 )  


     PseudoPot. # 1 for Sr read from file:
     /bsuhome/zayahcortright/q-e/pseudo/Sr_pbe_v1.uspp.F.UPF
     MD5 check sum: 6b418c05fbe9db5448babca5e47b7a5b
     Pseudo is Ultrasoft + core correction, Zval = 10.0
     Generated by new atomic code, or converted to UPF format
     Using radial grid of  883 points,  6 beta functions with: 
                l(1) =   0
                l(2) =   0
                l(3) =   1
                l(4) =   1
                l(5) =   2
                l(6) =   2
     Q(r) pseudized with  6 coefficients,  rinner =    1.400   1.400   1.400
                                                       1.400   1.400

     PseudoPot. # 2 for O  read from file:
     /bsuhome/zayahcortright/q-e/pseudo/O.pbe-n-kjpaw_psl.0.1.UPF
     MD5 check sum: 0234752ac141de4415c5fc33072bef88
     Pseudo is Projector augmented-wave + core cor, Zval =  6.0
     Generated using "atomic" code by A. Dal Corso  v.5.0.99 svn rev. 10869
     Shape of augmentation charge: BESSEL
     Using radial grid of 1095 points,  4 beta functions with: 
                l(1) =   0
                l(2) =   0
                l(3) =   1
                l(4) =   1
     Q(r) pseudized with 0 coefficients 


     PseudoPot. # 3 for Co read from file:
     /bsuhome/zayahcortright/q-e/pseudo/Co_pbe_v1.2.uspp.F.UPF
     MD5 check sum: 5f91765df6ddd3222702df6e7b74a16d
     Pseudo is Ultrasoft + core correction, Zval = 17.0
     Generated by new atomic code, or converted to UPF format
     Using radial grid of  863 points,  6 beta functions with: 
                l(1) =   0
                l(2) =   0
                l(3) =   1
                l(4) =   1
                l(5) =   2
                l(6) =   2
     Q(r) pseudized with  8 coefficients,  rinner =    1.200   1.200   1.200
                                                       1.200   1.200

     PseudoPot. # 4 for H  read from file:
     /bsuhome/zayahcortright/q-e/pseudo/H.pbe-rrkjus_psl.1.0.0.UPF
     MD5 check sum: f52b6d4d1c606e5624b1dc7b2218f220
     Pseudo is Ultrasoft, Zval =  1.0
     Generated using "atomic" code by A. Dal Corso  v.5.1
     Using radial grid of  929 points,  2 beta functions with: 
                l(1) =   0
                l(2) =   0
     Q(r) pseudized with 0 coefficients 


     atomic species   valence    mass     pseudopotential
        Sr            10.00    87.62000     Sr( 1.00)
        O              6.00    15.99900     O ( 1.00)
        Co            17.00    58.93319     Co( 1.00)
        H              1.00     1.00800     H ( 1.00)

     No symmetry found


                                    s                        frac. trans.

      isym =  1     identity                                     

 cryst.   s( 1) = (     1          0          0      )
                  (     0          1          0      )
                  (     0          0          1      )

 cart.    s( 1) = (  1.0000000  0.0000000  0.0000000 )
                  (  0.0000000  1.0000000  0.0000000 )
                  (  0.0000000  0.0000000  1.0000000 )


   Cartesian axes

     site n.     atom                  positions (alat units)
         1           Sr  tau(   1) = (   0.2508693   0.7491307   1.7574407  )
         2           O   tau(   2) = (   0.4985141   0.5014859   1.7715967  )
         3           Sr  tau(   3) = (   0.7482398   0.7454518   1.7648669  )
         4           Sr  tau(   4) = (   0.7441748   0.2558252   1.7667843  )
         5           Sr  tau(   5) = (   0.2508693   0.7491307   1.2696799  )
         6           Sr  tau(   6) = (   0.2508693   0.7491307   0.7632319  )
         7           Co  tau(   7) = (   0.4998914   0.5001086   1.0164559  )
         8           Co  tau(   8) = (   0.4936915   0.5063085   1.5135603  )
         9           O   tau(   9) = (   0.4988895   0.7610401   1.0164559  )
        10           O   tau(  10) = (   0.2389599   0.5011105   1.0164559  )
        11           O   tau(  11) = (   0.0070918   0.7374880   1.0164559  )
        12           O   tau(  12) = (   0.0088340   0.7405089   1.5135603  )
        13           O   tau(  13) = (   0.5066944   0.7415376   1.5135603  )
        14           O   tau(  14) = (   0.2584624   0.4933056   1.5135603  )
        15           O   tau(  15) = (   0.4985141   0.5014859   0.7773880  )
        16           O   tau(  16) = (   0.4985141   0.5014859   1.2555238  )
        17           Sr  tau(  17) = (   0.7482398   0.7454518   0.7706582  )
        18           Sr  tau(  18) = (   0.7482398   0.7454518   1.2622536  )
        19           Sr  tau(  19) = (   0.7441748   0.2558252   0.7725755  )
        20           Sr  tau(  20) = (   0.7441748   0.2558252   1.2603363  )
        21           O   tau(  21) = (   0.7322655   0.0078049   1.5135603  )
        22           O   tau(  22) = (   0.7558175   0.4996027   1.5135603  )
        23           O   tau(  23) = (   0.5003973   0.2441825   1.5135603  )
        24           O   tau(  24) = (   0.7527966   0.4978604   1.0164559  )
        25           O   tau(  25) = (   0.5021396   0.2472034   1.0164559  )
        26           O   tau(  26) = (   0.7517679   0.0000000   1.0164559  )
        27           O   tau(  27) = (   0.0114961   0.4948124   1.7455321  )
        28           O   tau(  28) = (   0.0048226   0.0077944   1.7715967  )
        29           Sr  tau(  29) = (   0.2545482   0.2517602   1.7648669  )
        30           O   tau(  30) = (   0.5048017   0.0015068   1.7786929  )
        31           Co  tau(  31) = (   0.0056869   0.5006215   1.0164559  )
        32           Co  tau(  32) = (   0.0065315   0.4997770   1.5135603  )
        33           Co  tau(  33) = (   0.0061999   0.0064171   1.0164559  )
        34           Co  tau(  34) = (   0.0000000   0.0126169   1.5135603  )
        35           O   tau(  35) = (   0.0114961   0.4948124   1.2815885  )
        36           O   tau(  36) = (   0.0114961   0.4948124   0.7513233  )
        37           O   tau(  37) = (   0.0051979   0.2673486   1.0164559  )
        38           O   tau(  38) = (   0.0130029   0.2478461   1.5135603  )
        39           O   tau(  39) = (   0.0048226   0.0077944   0.7773880  )
        40           O   tau(  40) = (   0.0048226   0.0077944   1.2555238  )
        41           Sr  tau(  41) = (   0.2545482   0.2517602   0.7706582  )
        42           Sr  tau(  42) = (   0.2545482   0.2517602   1.2622536  )
        43           Co  tau(  43) = (   0.4989925   0.0073160   1.5135603  )
        44           Co  tau(  44) = (   0.4998370   0.0064714   1.0164559  )
        45           O   tau(  45) = (   0.5048017   0.0015068   0.7844841  )
        46           O   tau(  46) = (   0.5048017   0.0015068   1.2484277  )
        47           O   tau(  47) = (   0.2621260   0.0059111   1.5135603  )
        48           O   tau(  48) = (   0.2591051   0.0041689   1.0164559  )
        49           O   tau(  49) = (   0.4264937   0.2843291   2.1602013  )
        50           H   tau(  50) = (   0.4264937   0.2843291   2.2847091  )

   Crystallographic axes

     site n.     atom                  positions (cryst. coord.)
         1           Sr  tau(   1) = (  0.2508693  0.7491307  0.6943562  )
         2           O   tau(   2) = (  0.4985141  0.5014859  0.6999492  )
         3           Sr  tau(   3) = (  0.7482398  0.7454518  0.6972903  )
         4           Sr  tau(   4) = (  0.7441748  0.2558252  0.6980478  )
         5           Sr  tau(   5) = (  0.2508693  0.7491307  0.5016443  )
         6           Sr  tau(   6) = (  0.2508693  0.7491307  0.3015492  )
         7           Co  tau(   7) = (  0.4998914  0.5001086  0.4015968  )
         8           Co  tau(   8) = (  0.4936915  0.5063085  0.5980003  )
         9           O   tau(   9) = (  0.4988895  0.7610401  0.4015968  )
        10           O   tau(  10) = (  0.2389599  0.5011105  0.4015968  )
        11           O   tau(  11) = (  0.0070918  0.7374880  0.4015968  )
        12           O   tau(  12) = (  0.0088340  0.7405089  0.5980003  )
        13           O   tau(  13) = (  0.5066944  0.7415376  0.5980003  )
        14           O   tau(  14) = (  0.2584624  0.4933056  0.5980003  )
        15           O   tau(  15) = (  0.4985141  0.5014859  0.3071422  )
        16           O   tau(  16) = (  0.4985141  0.5014859  0.4960513  )
        17           Sr  tau(  17) = (  0.7482398  0.7454518  0.3044833  )
        18           Sr  tau(  18) = (  0.7482398  0.7454518  0.4987103  )
        19           Sr  tau(  19) = (  0.7441748  0.2558252  0.3052408  )
        20           Sr  tau(  20) = (  0.7441748  0.2558252  0.4979527  )
        21           O   tau(  21) = (  0.7322655  0.0078049  0.5980003  )
        22           O   tau(  22) = (  0.7558175  0.4996027  0.5980003  )
        23           O   tau(  23) = (  0.5003973  0.2441825  0.5980003  )
        24           O   tau(  24) = (  0.7527966  0.4978604  0.4015968  )
        25           O   tau(  25) = (  0.5021396  0.2472034  0.4015968  )
        26           O   tau(  26) = (  0.7517679  0.0000000  0.4015968  )
        27           O   tau(  27) = (  0.0114961  0.4948124  0.6896512  )
        28           O   tau(  28) = (  0.0048226  0.0077944  0.6999492  )
        29           Sr  tau(  29) = (  0.2545482  0.2517602  0.6972903  )
        30           O   tau(  30) = (  0.5048017  0.0015068  0.7027529  )
        31           Co  tau(  31) = (  0.0056869  0.5006215  0.4015968  )
        32           Co  tau(  32) = (  0.0065315  0.4997770  0.5980003  )
        33           Co  tau(  33) = (  0.0061999  0.0064171  0.4015968  )
        34           Co  tau(  34) = (  0.0000000  0.0126169  0.5980003  )
        35           O   tau(  35) = (  0.0114961  0.4948124  0.5063494  )
        36           O   tau(  36) = (  0.0114961  0.4948124  0.2968442  )
        37           O   tau(  37) = (  0.0051979  0.2673486  0.4015968  )
        38           O   tau(  38) = (  0.0130029  0.2478461  0.5980003  )
        39           O   tau(  39) = (  0.0048226  0.0077944  0.3071422  )
        40           O   tau(  40) = (  0.0048226  0.0077944  0.4960513  )
        41           Sr  tau(  41) = (  0.2545482  0.2517602  0.3044833  )
        42           Sr  tau(  42) = (  0.2545482  0.2517602  0.4987103  )
        43           Co  tau(  43) = (  0.4989925  0.0073160  0.5980003  )
        44           Co  tau(  44) = (  0.4998370  0.0064714  0.4015968  )
        45           O   tau(  45) = (  0.5048017  0.0015068  0.3099459  )
        46           O   tau(  46) = (  0.5048017  0.0015068  0.4932477  )
        47           O   tau(  47) = (  0.2621260  0.0059111  0.5980003  )
        48           O   tau(  48) = (  0.2591051  0.0041689  0.4015968  )
        49           O   tau(  49) = (  0.4264937  0.2843291  0.8534850  )
        50           H   tau(  50) = (  0.4264937  0.2843291  0.9026774  )

     number of k points=    10  Gaussian smearing, width (Ry)=  0.0700
                       cart. coord. in units 2pi/alat
        k(    1) = (   0.0000000   0.0000000   0.0000000), wk =   0.1250000
        k(    2) = (   0.0000000   0.2500000   0.0000000), wk =   0.2500000
        k(    3) = (   0.0000000  -0.5000000   0.0000000), wk =   0.1250000
        k(    4) = (   0.2500000   0.2500000   0.0000000), wk =   0.2500000
        k(    5) = (   0.2500000  -0.5000000   0.0000000), wk =   0.2500000
        k(    6) = (  -0.5000000  -0.5000000   0.0000000), wk =   0.1250000
        k(    7) = (   0.2500000   0.0000000   0.0000000), wk =   0.2500000
        k(    8) = (  -0.5000000   0.0000000   0.0000000), wk =   0.1250000
        k(    9) = (  -0.2500000   0.2500000   0.0000000), wk =   0.2500000
        k(   10) = (  -0.5000000   0.2500000   0.0000000), wk =   0.2500000

                       cryst. coord.
        k(    1) = (   0.0000000   0.0000000   0.0000000), wk =   0.1250000
        k(    2) = (   0.0000000   0.2500000   0.0000000), wk =   0.2500000
        k(    3) = (   0.0000000  -0.5000000   0.0000000), wk =   0.1250000
        k(    4) = (   0.2500000   0.2500000   0.0000000), wk =   0.2500000
        k(    5) = (   0.2500000  -0.5000000   0.0000000), wk =   0.2500000
        k(    6) = (  -0.5000000  -0.5000000   0.0000000), wk =   0.1250000
        k(    7) = (   0.2500000   0.0000000   0.0000000), wk =   0.2500000
        k(    8) = (  -0.5000000   0.0000000   0.0000000), wk =   0.1250000
        k(    9) = (  -0.2500000   0.2500000   0.0000000), wk =   0.2500000
        k(   10) = (  -0.5000000   0.2500000   0.0000000), wk =   0.2500000

     Dense  grid:  1474595 G-vectors     FFT dimensions: ( 108, 108, 270)

     Smooth grid:   521381 G-vectors     FFT dimensions: (  75,  75, 192)

     Dynamical RAM for                 wfc:      10.73 MB

     Dynamical RAM for     wfc (w. buffer):      64.38 MB

     Dynamical RAM for           str. fact:       3.75 MB

     Dynamical RAM for           local pot:       0.00 MB

     Dynamical RAM for          nlocal pot:      24.61 MB

     Dynamical RAM for                qrad:       7.03 MB

     Dynamical RAM for          rho,v,vnew:       6.02 MB

     Dynamical RAM for               rhoin:       2.01 MB

     Dynamical RAM for            rho*nmix:      15.00 MB

     Dynamical RAM for           G-vectors:       3.68 MB

     Dynamical RAM for          h,s,v(r/c):       1.35 MB

     Dynamical RAM for          <psi|beta>:       2.35 MB

     Dynamical RAM for                 psi:      21.46 MB

     Dynamical RAM for                hpsi:      21.46 MB

     Dynamical RAM for                spsi:      21.46 MB

     Dynamical RAM for      wfcinit/wfcrot:      34.49 MB

     Dynamical RAM for           addusdens:     101.26 MB

     Estimated static dynamical RAM per process >     121.50 MB

     Estimated max dynamical RAM per process >     237.76 MB

     Estimated total dynamical RAM >      10.79 GB

     Check: negative core charge=   -0.000004

     Initial potential from superposition of free atoms

     starting charge     422.5961, renormalised to     431.0000

     negative rho (up, down):  7.820E-01 0.000E+00
     Starting wfcs are  377 randomized atomic wfcs
     Checking if some PAW data can be deallocated... 
       PAW data deallocated on   19 nodes for type:  2

     total cpu time spent up to now is        9.2 secs

     Self-consistent Calculation

     iteration #  1     ecut=    60.00 Ry     beta= 0.15
     Davidson diagonalization with overlap

---- Real-time Memory Report at c_bands before calling an iterative solver
             0 MiB given to the printing process from OS
             0 MiB allocation reported by mallinfo(arena+hblkhd)
         23985 MiB available memory on the node where the printing process lives
------------------
     ethr =  1.00E-02,  avg # of iterations =  2.0

     negative rho (up, down):  7.719E-01 0.000E+00

     total cpu time spent up to now is       25.6 secs

     total energy              =   -4446.69172615 Ry
     estimated scf accuracy    <      44.66521927 Ry

     iteration #  2     ecut=    60.00 Ry     beta= 0.15
     Davidson diagonalization with overlap

---- Real-time Memory Report at c_bands before calling an iterative solver
             0 MiB given to the printing process from OS
             0 MiB allocation reported by mallinfo(arena+hblkhd)
         24272 MiB available memory on the node where the printing process lives
------------------
     ethr =  1.00E-02,  avg # of iterations =  1.0

     negative rho (up, down):  7.586E-01 0.000E+00

     total cpu time spent up to now is       39.5 secs

     total energy              =   -4443.34517677 Ry
     estimated scf accuracy    <      29.99054890 Ry

     iteration #  3     ecut=    60.00 Ry     beta= 0.15
     Davidson diagonalization with overlap

---- Real-time Memory Report at c_bands before calling an iterative solver
             0 MiB given to the printing process from OS
             0 MiB allocation reported by mallinfo(arena+hblkhd)
         23425 MiB available memory on the node where the printing process lives
------------------
     ethr =  6.96E-03,  avg # of iterations =  1.0

     negative rho (up, down):  7.556E-01 0.000E+00

     total cpu time spent up to now is       53.8 secs

     total energy              =   -4444.27057550 Ry
     estimated scf accuracy    <      27.91689261 Ry

     iteration #  4     ecut=    60.00 Ry     beta= 0.15
     Davidson diagonalization with overlap

---- Real-time Memory Report at c_bands before calling an iterative solver
             0 MiB given to the printing process from OS
             0 MiB allocation reported by mallinfo(arena+hblkhd)
         23400 MiB available memory on the node where the printing process lives
------------------
     ethr =  6.48E-03,  avg # of iterations =  1.0

     negative rho (up, down):  7.503E-01 0.000E+00

     total cpu time spent up to now is       68.1 secs

     total energy              =   -4443.10562798 Ry
     estimated scf accuracy    <      20.46158614 Ry

     iteration #  5     ecut=    60.00 Ry     beta= 0.15
     Davidson diagonalization with overlap

---- Real-time Memory Report at c_bands before calling an iterative solver
             0 MiB given to the printing process from OS
             0 MiB allocation reported by mallinfo(arena+hblkhd)
         23382 MiB available memory on the node where the printing process lives
------------------
     ethr =  4.75E-03,  avg # of iterations =  1.0

     negative rho (up, down):  7.395E-01 0.000E+00

     total cpu time spent up to now is       82.4 secs

     total energy              =   -4442.45159634 Ry
     estimated scf accuracy    <      11.81439873 Ry

     iteration #  6     ecut=    60.00 Ry     beta= 0.15
     Davidson diagonalization with overlap

---- Real-time Memory Report at c_bands before calling an iterative solver
             0 MiB given to the printing process from OS
             0 MiB allocation reported by mallinfo(arena+hblkhd)
         23363 MiB available memory on the node where the printing process lives
------------------
     ethr =  2.74E-03,  avg # of iterations =  1.1

     negative rho (up, down):  7.427E-01 0.000E+00

     total cpu time spent up to now is       97.0 secs

     total energy              =   -4442.81806386 Ry
     estimated scf accuracy    <       5.06256792 Ry

     iteration #  7     ecut=    60.00 Ry     beta= 0.15
     Davidson diagonalization with overlap

---- Real-time Memory Report at c_bands before calling an iterative solver
             0 MiB given to the printing process from OS
             0 MiB allocation reported by mallinfo(arena+hblkhd)
         23344 MiB available memory on the node where the printing process lives
------------------
     ethr =  1.17E-03,  avg # of iterations =  1.7

     negative rho (up, down):  7.634E-01 0.000E+00

     total cpu time spent up to now is      111.7 secs

     total energy              =   -4441.63022899 Ry
     estimated scf accuracy    <       3.97451118 Ry

     iteration #  8     ecut=    60.00 Ry     beta= 0.15
     Davidson diagonalization with overlap

---- Real-time Memory Report at c_bands before calling an iterative solver
             0 MiB given to the printing process from OS
             0 MiB allocation reported by mallinfo(arena+hblkhd)
         23323 MiB available memory on the node where the printing process lives
------------------
     ethr =  9.22E-04,  avg # of iterations =  5.4

     negative rho (up, down):  7.723E-01 0.000E+00

     total cpu time spent up to now is      131.1 secs

     total energy              =   -4441.25505341 Ry
     estimated scf accuracy    <      19.82505036 Ry

     iteration #  9     ecut=    60.00 Ry     beta= 0.15
     Davidson diagonalization with overlap

---- Real-time Memory Report at c_bands before calling an iterative solver
             0 MiB given to the printing process from OS
             0 MiB allocation reported by mallinfo(arena+hblkhd)
         23156 MiB available memory on the node where the printing process lives
------------------
     ethr =  9.22E-04,  avg # of iterations = 10.0

     negative rho (up, down):  7.699E-01 0.000E+00

     total cpu time spent up to now is      152.9 secs

     total energy              =   -4441.74511276 Ry
     estimated scf accuracy    <       3.30979426 Ry

     iteration # 10     ecut=    60.00 Ry     beta= 0.15
     Davidson diagonalization with overlap

---- Real-time Memory Report at c_bands before calling an iterative solver
             0 MiB given to the printing process from OS
             0 MiB allocation reported by mallinfo(arena+hblkhd)
         22822 MiB available memory on the node where the printing process lives
------------------
     ethr =  7.68E-04,  avg # of iterations =  1.1

     negative rho (up, down):  7.766E-01 0.000E+00

     total cpu time spent up to now is      168.2 secs

     total energy              =   -4441.89309685 Ry
     estimated scf accuracy    <       1.41546471 Ry

     iteration # 11     ecut=    60.00 Ry     beta= 0.15
     Davidson diagonalization with overlap

---- Real-time Memory Report at c_bands before calling an iterative solver
             0 MiB given to the printing process from OS
             0 MiB allocation reported by mallinfo(arena+hblkhd)
         22815 MiB available memory on the node where the printing process lives
------------------
     ethr =  3.28E-04,  avg # of iterations =  2.4

     negative rho (up, down):  8.027E-01 0.000E+00

     total cpu time spent up to now is      185.4 secs

     total energy              =   -4441.75137969 Ry
     estimated scf accuracy    <       1.37344262 Ry

     iteration # 12     ecut=    60.00 Ry     beta= 0.15
     Davidson diagonalization with overlap

---- Real-time Memory Report at c_bands before calling an iterative solver
             0 MiB given to the printing process from OS
             0 MiB allocation reported by mallinfo(arena+hblkhd)
         22830 MiB available memory on the node where the printing process lives
------------------
     ethr =  3.19E-04,  avg # of iterations =  5.3

     negative rho (up, down):  8.115E-01 0.000E+00

     total cpu time spent up to now is      203.6 secs

     total energy              =   -4441.86726402 Ry
     estimated scf accuracy    <       1.08842267 Ry

     iteration # 13     ecut=    60.00 Ry     beta= 0.15
     Davidson diagonalization with overlap

---- Real-time Memory Report at c_bands before calling an iterative solver
             0 MiB given to the printing process from OS
             0 MiB allocation reported by mallinfo(arena+hblkhd)
         22800 MiB available memory on the node where the printing process lives
------------------
     ethr =  2.53E-04,  avg # of iterations =  6.6

     negative rho (up, down):  8.195E-01 0.000E+00

     total cpu time spent up to now is      223.1 secs

     total energy              =   -4441.80534407 Ry
     estimated scf accuracy    <       0.74032183 Ry

     iteration # 14     ecut=    60.00 Ry     beta= 0.15
     Davidson diagonalization with overlap

---- Real-time Memory Report at c_bands before calling an iterative solver
             0 MiB given to the printing process from OS
             0 MiB allocation reported by mallinfo(arena+hblkhd)
         22783 MiB available memory on the node where the printing process lives
------------------
     ethr =  1.72E-04,  avg # of iterations =  5.8

     negative rho (up, down):  8.250E-01 0.000E+00

     total cpu time spent up to now is      241.2 secs

     total energy              =   -4441.73435139 Ry
     estimated scf accuracy    <       0.38208887 Ry

     iteration # 15     ecut=    60.00 Ry     beta= 0.15
     Davidson diagonalization with overlap

---- Real-time Memory Report at c_bands before calling an iterative solver
             0 MiB given to the printing process from OS
             0 MiB allocation reported by mallinfo(arena+hblkhd)
         22781 MiB available memory on the node where the printing process lives
------------------
     ethr =  8.87E-05,  avg # of iterations = 11.2

     negative rho (up, down):  8.303E-01 0.000E+00

     total cpu time spent up to now is      262.2 secs

     total energy              =   -4441.73507811 Ry
     estimated scf accuracy    <       0.40055602 Ry

     iteration # 16     ecut=    60.00 Ry     beta= 0.15
     Davidson diagonalization with overlap

---- Real-time Memory Report at c_bands before calling an iterative solver
             0 MiB given to the printing process from OS
             0 MiB allocation reported by mallinfo(arena+hblkhd)
         22776 MiB available memory on the node where the printing process lives
------------------
     ethr =  8.87E-05,  avg # of iterations =  3.6

     negative rho (up, down):  8.305E-01 0.000E+00

     total cpu time spent up to now is      279.6 secs

     total energy              =   -4441.71769528 Ry
     estimated scf accuracy    <       0.31102859 Ry

     iteration # 17     ecut=    60.00 Ry     beta= 0.15
     Davidson diagonalization with overlap

---- Real-time Memory Report at c_bands before calling an iterative solver
             0 MiB given to the printing process from OS
             0 MiB allocation reported by mallinfo(arena+hblkhd)
         22771 MiB available memory on the node where the printing process lives
------------------
     ethr =  7.22E-05,  avg # of iterations =  2.3

     negative rho (up, down):  8.105E-01 0.000E+00

     total cpu time spent up to now is      296.1 secs

     total energy              =   -4441.69479365 Ry
     estimated scf accuracy    <       0.18123443 Ry

     iteration # 18     ecut=    60.00 Ry     beta= 0.15
     Davidson diagonalization with overlap

---- Real-time Memory Report at c_bands before calling an iterative solver
             0 MiB given to the printing process from OS
             0 MiB allocation reported by mallinfo(arena+hblkhd)
         22792 MiB available memory on the node where the printing process lives
------------------
     ethr =  4.20E-05,  avg # of iterations = 10.3

     negative rho (up, down):  8.307E-01 0.000E+00

     total cpu time spent up to now is      317.6 secs

     total energy              =   -4441.67429456 Ry
     estimated scf accuracy    <       0.14551030 Ry

     iteration # 19     ecut=    60.00 Ry     beta= 0.15
     Davidson diagonalization with overlap

---- Real-time Memory Report at c_bands before calling an iterative solver
             0 MiB given to the printing process from OS
             0 MiB allocation reported by mallinfo(arena+hblkhd)
         22753 MiB available memory on the node where the printing process lives
------------------
     ethr =  3.38E-05,  avg # of iterations =  8.8

     negative rho (up, down):  8.366E-01 0.000E+00

     total cpu time spent up to now is      338.9 secs

     total energy              =   -4441.66971800 Ry
     estimated scf accuracy    <       0.07366757 Ry

     iteration # 20     ecut=    60.00 Ry     beta= 0.15
     Davidson diagonalization with overlap

---- Real-time Memory Report at c_bands before calling an iterative solver
             0 MiB given to the printing process from OS
             0 MiB allocation reported by mallinfo(arena+hblkhd)
         22703 MiB available memory on the node where the printing process lives
------------------
     ethr =  1.71E-05,  avg # of iterations =  2.5

     negative rho (up, down):  8.169E-01 0.000E+00

     total cpu time spent up to now is      355.8 secs

     total energy              =   -4441.67083677 Ry
     estimated scf accuracy    <       0.03128033 Ry

     iteration # 21     ecut=    60.00 Ry     beta= 0.15
     Davidson diagonalization with overlap

---- Real-time Memory Report at c_bands before calling an iterative solver
             0 MiB given to the printing process from OS
             0 MiB allocation reported by mallinfo(arena+hblkhd)
         22712 MiB available memory on the node where the printing process lives
------------------
     ethr =  7.26E-06,  avg # of iterations =  8.3

     negative rho (up, down):  8.134E-01 0.000E+00

     total cpu time spent up to now is      375.1 secs

     total energy              =   -4441.66882500 Ry
     estimated scf accuracy    <       0.02660308 Ry

     iteration # 22     ecut=    60.00 Ry     beta= 0.15
     Davidson diagonalization with overlap

---- Real-time Memory Report at c_bands before calling an iterative solver
             0 MiB given to the printing process from OS
             0 MiB allocation reported by mallinfo(arena+hblkhd)
         22713 MiB available memory on the node where the printing process lives
------------------
     c_bands:  1 eigenvalues not converged
     ethr =  6.17E-06,  avg # of iterations = 12.1

     negative rho (up, down):  7.973E-01 0.000E+00

     total cpu time spent up to now is      396.5 secs

     total energy              =   -4441.66477287 Ry
     estimated scf accuracy    <       0.01988447 Ry

     iteration # 23     ecut=    60.00 Ry     beta= 0.15
     Davidson diagonalization with overlap

---- Real-time Memory Report at c_bands before calling an iterative solver
             0 MiB given to the printing process from OS
             0 MiB allocation reported by mallinfo(arena+hblkhd)
         22808 MiB available memory on the node where the printing process lives
------------------
     c_bands:  1 eigenvalues not converged
     ethr =  4.61E-06,  avg # of iterations = 12.5

     negative rho (up, down):  8.001E-01 0.000E+00

     total cpu time spent up to now is      419.1 secs

     total energy              =   -4441.66434705 Ry
     estimated scf accuracy    <       0.01179973 Ry

     iteration # 24     ecut=    60.00 Ry     beta= 0.15
     Davidson diagonalization with overlap

---- Real-time Memory Report at c_bands before calling an iterative solver
             0 MiB given to the printing process from OS
             0 MiB allocation reported by mallinfo(arena+hblkhd)
         22714 MiB available memory on the node where the printing process lives
------------------
     c_bands:  1 eigenvalues not converged
     ethr =  2.74E-06,  avg # of iterations = 10.3

     negative rho (up, down):  7.970E-01 0.000E+00

     total cpu time spent up to now is      440.6 secs

     total energy              =   -4441.66414914 Ry
     estimated scf accuracy    <       0.00769216 Ry

     iteration # 25     ecut=    60.00 Ry     beta= 0.15
     Davidson diagonalization with overlap

---- Real-time Memory Report at c_bands before calling an iterative solver
             0 MiB given to the printing process from OS
             0 MiB allocation reported by mallinfo(arena+hblkhd)
         22688 MiB available memory on the node where the printing process lives
------------------
     ethr =  1.78E-06,  avg # of iterations =  2.5

     negative rho (up, down):  7.935E-01 0.000E+00

     total cpu time spent up to now is      457.7 secs

     total energy              =   -4441.66324436 Ry
     estimated scf accuracy    <       0.00540626 Ry

     iteration # 26     ecut=    60.00 Ry     beta= 0.15
     Davidson diagonalization with overlap

---- Real-time Memory Report at c_bands before calling an iterative solver
             0 MiB given to the printing process from OS
             0 MiB allocation reported by mallinfo(arena+hblkhd)
         22641 MiB available memory on the node where the printing process lives
------------------
     c_bands:  1 eigenvalues not converged
     ethr =  1.25E-06,  avg # of iterations =  9.9

     negative rho (up, down):  7.948E-01 0.000E+00

     total cpu time spent up to now is      479.3 secs

     total energy              =   -4441.66295481 Ry
     estimated scf accuracy    <       0.00261582 Ry

     iteration # 27     ecut=    60.00 Ry     beta= 0.15
     Davidson diagonalization with overlap

---- Real-time Memory Report at c_bands before calling an iterative solver
             0 MiB given to the printing process from OS
             0 MiB allocation reported by mallinfo(arena+hblkhd)
         22605 MiB available memory on the node where the printing process lives
------------------
     c_bands:  1 eigenvalues not converged
     ethr =  6.07E-07,  avg # of iterations = 13.7

     negative rho (up, down):  7.953E-01 0.000E+00

     total cpu time spent up to now is      505.7 secs

     total energy              =   -4441.66313701 Ry
     estimated scf accuracy    <       0.00048457 Ry

     iteration # 28     ecut=    60.00 Ry     beta= 0.15
     Davidson diagonalization with overlap

---- Real-time Memory Report at c_bands before calling an iterative solver
             0 MiB given to the printing process from OS
             0 MiB allocation reported by mallinfo(arena+hblkhd)
         22413 MiB available memory on the node where the printing process lives
------------------
     c_bands:  1 eigenvalues not converged
     ethr =  1.12E-07,  avg # of iterations =  4.8

     negative rho (up, down):  7.949E-01 0.000E+00

     total cpu time spent up to now is      524.7 secs

     total energy              =   -4441.66316473 Ry
     estimated scf accuracy    <       0.00026220 Ry

     iteration # 29     ecut=    60.00 Ry     beta= 0.15
     Davidson diagonalization with overlap

---- Real-time Memory Report at c_bands before calling an iterative solver
             0 MiB given to the printing process from OS
             0 MiB allocation reported by mallinfo(arena+hblkhd)
         22386 MiB available memory on the node where the printing process lives
------------------
     ethr =  6.08E-08,  avg # of iterations =  2.0

     negative rho (up, down):  7.925E-01 0.000E+00

     total cpu time spent up to now is      541.3 secs

     total energy              =   -4441.66314524 Ry
     estimated scf accuracy    <       0.00017313 Ry

     iteration # 30     ecut=    60.00 Ry     beta= 0.15
     Davidson diagonalization with overlap

---- Real-time Memory Report at c_bands before calling an iterative solver
             0 MiB given to the printing process from OS
             0 MiB allocation reported by mallinfo(arena+hblkhd)
         22399 MiB available memory on the node where the printing process lives
------------------
     ethr =  4.02E-08,  avg # of iterations =  3.5

     negative rho (up, down):  7.923E-01 0.000E+00

     total cpu time spent up to now is      559.6 secs

     total energy              =   -4441.66316350 Ry
     estimated scf accuracy    <       0.00003016 Ry

     iteration # 31     ecut=    60.00 Ry     beta= 0.15
     Davidson diagonalization with overlap

---- Real-time Memory Report at c_bands before calling an iterative solver
             0 MiB given to the printing process from OS
             0 MiB allocation reported by mallinfo(arena+hblkhd)
         22410 MiB available memory on the node where the printing process lives
------------------
     ethr =  7.00E-09,  avg # of iterations =  2.3

     negative rho (up, down):  7.922E-01 0.000E+00

     total cpu time spent up to now is      576.5 secs

     total energy              =   -4441.66316333 Ry
     estimated scf accuracy    <       0.00001443 Ry

     iteration # 32     ecut=    60.00 Ry     beta= 0.15
     Davidson diagonalization with overlap

---- Real-time Memory Report at c_bands before calling an iterative solver
             0 MiB given to the printing process from OS
             0 MiB allocation reported by mallinfo(arena+hblkhd)
         22416 MiB available memory on the node where the printing process lives
------------------
     ethr =  3.35E-09,  avg # of iterations =  3.6

     negative rho (up, down):  7.923E-01 0.000E+00

     total cpu time spent up to now is      593.8 secs

     total energy              =   -4441.66316459 Ry
     estimated scf accuracy    <       0.00000751 Ry

     iteration # 33     ecut=    60.00 Ry     beta= 0.15
     Davidson diagonalization with overlap

---- Real-time Memory Report at c_bands before calling an iterative solver
             0 MiB given to the printing process from OS
             0 MiB allocation reported by mallinfo(arena+hblkhd)
         22421 MiB available memory on the node where the printing process lives
------------------
     ethr =  1.74E-09,  avg # of iterations =  2.2

     negative rho (up, down):  7.923E-01 0.000E+00

     total cpu time spent up to now is      610.5 secs

     total energy              =   -4441.66316751 Ry
     estimated scf accuracy    <       0.00000393 Ry

     iteration # 34     ecut=    60.00 Ry     beta= 0.15
     Davidson diagonalization with overlap

---- Real-time Memory Report at c_bands before calling an iterative solver
             0 MiB given to the printing process from OS
             0 MiB allocation reported by mallinfo(arena+hblkhd)
         22434 MiB available memory on the node where the printing process lives
------------------
     ethr =  9.11E-10,  avg # of iterations =  2.3

     negative rho (up, down):  7.924E-01 0.000E+00

     total cpu time spent up to now is      627.2 secs

     total energy              =   -4441.66317059 Ry
     estimated scf accuracy    <       0.00000287 Ry

     iteration # 35     ecut=    60.00 Ry     beta= 0.15
     Davidson diagonalization with overlap

---- Real-time Memory Report at c_bands before calling an iterative solver
             0 MiB given to the printing process from OS
             0 MiB allocation reported by mallinfo(arena+hblkhd)
         22444 MiB available memory on the node where the printing process lives
------------------
     ethr =  6.66E-10,  avg # of iterations =  3.2

     negative rho (up, down):  7.925E-01 0.000E+00

     total cpu time spent up to now is      644.4 secs

     total energy              =   -4441.66317224 Ry
     estimated scf accuracy    <       0.00000163 Ry

     iteration # 36     ecut=    60.00 Ry     beta= 0.15
     Davidson diagonalization with overlap

---- Real-time Memory Report at c_bands before calling an iterative solver
             0 MiB given to the printing process from OS
             0 MiB allocation reported by mallinfo(arena+hblkhd)
         22463 MiB available memory on the node where the printing process lives
------------------
     ethr =  3.79E-10,  avg # of iterations =  4.3

     negative rho (up, down):  7.925E-01 0.000E+00

     total cpu time spent up to now is      663.4 secs

     total energy              =   -4441.66317251 Ry
     estimated scf accuracy    <       0.00000077 Ry

     iteration # 37     ecut=    60.00 Ry     beta= 0.15
     Davidson diagonalization with overlap

---- Real-time Memory Report at c_bands before calling an iterative solver
             0 MiB given to the printing process from OS
             0 MiB allocation reported by mallinfo(arena+hblkhd)
         22471 MiB available memory on the node where the printing process lives
------------------
     ethr =  1.78E-10,  avg # of iterations =  1.2

     negative rho (up, down):  7.925E-01 0.000E+00

     total cpu time spent up to now is      678.6 secs

     total energy              =   -4441.66317252 Ry
     estimated scf accuracy    <       0.00000059 Ry

     iteration # 38     ecut=    60.00 Ry     beta= 0.15
     Davidson diagonalization with overlap

---- Real-time Memory Report at c_bands before calling an iterative solver
             0 MiB given to the printing process from OS
             0 MiB allocation reported by mallinfo(arena+hblkhd)
         22471 MiB available memory on the node where the printing process lives
------------------
     ethr =  1.37E-10,  avg # of iterations =  1.1

     negative rho (up, down):  7.925E-01 0.000E+00

     total cpu time spent up to now is      693.8 secs

     total energy              =   -4441.66317252 Ry
     estimated scf accuracy    <       0.00000049 Ry

     iteration # 39     ecut=    60.00 Ry     beta= 0.15
     Davidson diagonalization with overlap

---- Real-time Memory Report at c_bands before calling an iterative solver
             0 MiB given to the printing process from OS
             0 MiB allocation reported by mallinfo(arena+hblkhd)
         22472 MiB available memory on the node where the printing process lives
------------------
     ethr =  1.15E-10,  avg # of iterations =  1.1

     negative rho (up, down):  7.926E-01 0.000E+00

     total cpu time spent up to now is      709.2 secs

     total energy              =   -4441.66317249 Ry
     estimated scf accuracy    <       0.00000035 Ry

     iteration # 40     ecut=    60.00 Ry     beta= 0.15
     Davidson diagonalization with overlap

---- Real-time Memory Report at c_bands before calling an iterative solver
             0 MiB given to the printing process from OS
             0 MiB allocation reported by mallinfo(arena+hblkhd)
         22475 MiB available memory on the node where the printing process lives
------------------
     ethr =  8.11E-11,  avg # of iterations =  2.2

     negative rho (up, down):  7.926E-01 0.000E+00

     total cpu time spent up to now is      726.5 secs

     total energy              =   -4441.66317244 Ry
     estimated scf accuracy    <       0.00000021 Ry

     iteration # 41     ecut=    60.00 Ry     beta= 0.15
     Davidson diagonalization with overlap

---- Real-time Memory Report at c_bands before calling an iterative solver
             0 MiB given to the printing process from OS
             0 MiB allocation reported by mallinfo(arena+hblkhd)
         22472 MiB available memory on the node where the printing process lives
------------------
     ethr =  4.86E-11,  avg # of iterations =  2.2

     negative rho (up, down):  7.925E-01 0.000E+00

     total cpu time spent up to now is      743.7 secs

     total energy              =   -4441.66317245 Ry
     estimated scf accuracy    <       0.00000009 Ry

     iteration # 42     ecut=    60.00 Ry     beta= 0.15
     Davidson diagonalization with overlap

---- Real-time Memory Report at c_bands before calling an iterative solver
             0 MiB given to the printing process from OS
             0 MiB allocation reported by mallinfo(arena+hblkhd)
         22477 MiB available memory on the node where the printing process lives
------------------
     ethr =  2.15E-11,  avg # of iterations =  2.1

     negative rho (up, down):  7.925E-01 0.000E+00

     total cpu time spent up to now is      761.2 secs

     total energy              =   -4441.66317245 Ry
     estimated scf accuracy    <       0.00000005 Ry

     iteration # 43     ecut=    60.00 Ry     beta= 0.15
     Davidson diagonalization with overlap

---- Real-time Memory Report at c_bands before calling an iterative solver
             0 MiB given to the printing process from OS
             0 MiB allocation reported by mallinfo(arena+hblkhd)
         22477 MiB available memory on the node where the printing process lives
------------------
     ethr =  1.18E-11,  avg # of iterations =  2.9

     negative rho (up, down):  7.925E-01 0.000E+00

     total cpu time spent up to now is      778.1 secs

     total energy              =   -4441.66317247 Ry
     estimated scf accuracy    <       0.00000002 Ry

     iteration # 44     ecut=    60.00 Ry     beta= 0.15
     Davidson diagonalization with overlap

---- Real-time Memory Report at c_bands before calling an iterative solver
             0 MiB given to the printing process from OS
             0 MiB allocation reported by mallinfo(arena+hblkhd)
         22476 MiB available memory on the node where the printing process lives
------------------
     ethr =  4.40E-12,  avg # of iterations =  2.3

     negative rho (up, down):  7.925E-01 0.000E+00

     total cpu time spent up to now is      795.2 secs

     total energy              =   -4441.66317247 Ry
     estimated scf accuracy    <       0.00000001 Ry

     iteration # 45     ecut=    60.00 Ry     beta= 0.15
     Davidson diagonalization with overlap

---- Real-time Memory Report at c_bands before calling an iterative solver
             0 MiB given to the printing process from OS
             0 MiB allocation reported by mallinfo(arena+hblkhd)
         22471 MiB available memory on the node where the printing process lives
------------------
     ethr =  2.42E-12,  avg # of iterations =  1.9

     negative rho (up, down):  7.925E-01 0.000E+00

     total cpu time spent up to now is      811.4 secs

     End of self-consistent calculation

          k = 0.0000 0.0000 0.0000 ( 65197 PWs)   bands (ev):

   -92.6924 -92.6398 -92.5462 -92.5011 -92.4431 -92.3993 -92.3811 -92.2599
   -56.0459 -56.0266 -55.9035 -55.8930 -55.8864 -55.8799 -55.8434 -55.8154
   -55.7996 -55.7990 -55.7910 -55.7498 -55.7331 -55.6935 -55.6726 -55.6429
   -55.6365 -55.5869 -55.5866 -55.5843 -55.5758 -55.5345 -55.5115 -55.4262
   -31.2699 -31.2503 -31.1208 -31.1086 -31.0216 -30.9130 -30.8986 -30.5165
   -29.8404 -29.7960 -29.7701 -29.6613 -15.0723 -15.0242 -14.9469 -14.8166
   -14.6221 -14.4972 -14.2105 -14.1894 -14.1612 -14.1148 -14.0657 -14.0533
   -14.0482 -14.0271 -14.0114 -13.9727 -13.9663 -13.9219 -13.7692 -13.5901
   -13.5567 -13.5271 -13.4959 -13.4787 -13.4201 -13.3844 -13.3144 -13.2423
   -13.1196 -13.1059 -13.1008 -13.0813 -13.0666 -13.0479 -12.9954 -12.9907
   -12.9736 -12.9454 -12.9152 -12.9025 -12.8947 -12.8774 -12.8195 -12.8160
   -12.7698 -12.7530 -12.5324 -12.5223 -12.4478 -12.3341 -12.1885 -11.9654
   -11.8945 -11.8525 -11.7793 -11.7678 -11.7442 -11.7263 -11.6632 -11.6459
   -11.6116 -11.5829 -11.4693 -11.3907 -11.3871  -2.9320  -2.7000  -2.4704
    -2.3233  -2.2603  -2.1187  -1.8112  -1.7971  -1.7780  -1.6936  -1.6734
    -1.6054  -1.5888  -1.5474  -1.5054  -1.3224  -1.1745  -1.0956  -1.0673
    -0.9221  -0.9075  -0.8604  -0.8409  -0.7963  -0.7776  -0.7251  -0.6980
    -0.6208  -0.6106  -0.5380  -0.4053  -0.3936  -0.3640  -0.2834  -0.2591
    -0.2561  -0.1929  -0.1188  -0.0517  -0.0209   0.0128   0.0868   0.1386
     0.1911   0.2098   0.2285   0.4851   0.4968   0.6714   0.7381   0.8094
     0.8517   0.9365   0.9488   0.9630   1.0331   1.0607   1.0934   1.1529
     1.2828   1.3434   1.3628   1.3834   1.3980   1.4602   1.5306   1.6415
     1.6503   1.7192   1.7317   1.7734   1.7854   1.7981   1.8578   1.9119
     1.9270   1.9761   2.0062   2.0381   2.1699   2.2614   2.2982   2.3090
     2.4290   2.4649   2.4838   2.5073   2.5214   2.5333   2.6313   2.6676
     2.6922   2.7113   2.7260   2.8091   2.9159   2.9483   2.9607   2.9665
     3.0346   3.0390   3.0620   3.0701   3.0787   3.0898   3.0983   3.1117
     3.1182   3.1301   3.1384   3.1472   3.1662   3.1869   3.1918   3.2043
     3.2351   3.3455   3.4198   4.1159   4.4465   4.7778   4.8703   5.0590
     5.7575   5.9520   5.9941   6.0119   6.3229   6.3697   6.4833   6.4940
     6.7271   7.0101   7.0992   7.3231   7.4396   7.6389   7.6680   7.6712
     7.7160   7.8548   7.9553   8.0165   8.1178   8.1794   8.4342   8.4561
     8.7170   8.8620   8.8879

     occupation numbers 
     1.0000   1.0000   1.0000   1.0000   1.0000   1.0000   1.0000   1.0000
     1.0000   1.0000   1.0000   1.0000   1.0000   1.0000   1.0000   1.0000
     1.0000   1.0000   1.0000   1.0000   1.0000   1.0000   1.0000   1.0000
     1.0000   1.0000   1.0000   1.0000   1.0000   1.0000   1.0000   1.0000
     1.0000   1.0000   1.0000   1.0000   1.0000   1.0000   1.0000   1.0000
     1.0000   1.0000   1.0000   1.0000   1.0000   1.0000   1.0000   1.0000
     1.0000   1.0000   1.0000   1.0000   1.0000   1.0000   1.0000   1.0000
     1.0000   1.0000   1.0000   1.0000   1.0000   1.0000   1.0000   1.0000
     1.0000   1.0000   1.0000   1.0000   1.0000   1.0000   1.0000   1.0000
     1.0000   1.0000   1.0000   1.0000   1.0000   1.0000   1.0000   1.0000
     1.0000   1.0000   1.0000   1.0000   1.0000   1.0000   1.0000   1.0000
     1.0000   1.0000   1.0000   1.0000   1.0000   1.0000   1.0000   1.0000
     1.0000   1.0000   1.0000   1.0000   1.0000   1.0000   1.0000   1.0000
     1.0000   1.0000   1.0000   1.0000   1.0000   1.0000   1.0000   1.0000
     1.0000   1.0000   1.0000   1.0000   1.0000   1.0000   1.0000   1.0000
     1.0000   1.0000   1.0000   1.0000   1.0000   1.0000   1.0000   1.0000
     1.0000   1.0000   1.0000   1.0000   1.0000   1.0000   1.0000   1.0000
     1.0000   1.0000   1.0000   1.0000   1.0000   1.0000   1.0000   1.0000
     1.0000   1.0000   1.0000   1.0000   1.0000   1.0000   1.0000   1.0000
     1.0000   1.0000   1.0000   1.0000   1.0000   1.0000   0.9999   0.9999
     0.9999   0.9998   0.9998   0.9998   0.9997   0.9996   0.9996   0.9994
     0.9988   0.9985   0.9983   0.9981   0.9980   0.9973   0.9963   0.9941
     0.9938   0.9918   0.9914   0.9898   0.9893   0.9888   0.9859   0.9827
     0.9817   0.9782   0.9758   0.9730   0.9582   0.9446   0.9382   0.9362
     0.9108   0.9019   0.8970   0.8906   0.8866   0.8832   0.8521   0.8393
     0.8302   0.8230   0.8172   0.7827   0.7333   0.7173   0.7110   0.7081
     0.6724   0.6700   0.6576   0.6532   0.6484   0.6423   0.6376   0.6301
     0.6265   0.6197   0.6150   0.6100   0.5992   0.5873   0.5844   0.5772
     0.5592   0.4940   0.4501   0.1232   0.0495   0.0161   0.0113   0.0052
     0.0002   0.0001   0.0000   0.0000   0.0000   0.0000   0.0000   0.0000
     0.0000   0.0000   0.0000   0.0000   0.0000   0.0000   0.0000   0.0000
     0.0000   0.0000   0.0000   0.0000   0.0000   0.0000   0.0000   0.0000
     0.0000   0.0000   0.0000

          k = 0.0000 0.2500 0.0000 ( 65257 PWs)   bands (ev):

   -92.6924 -92.6398 -92.5462 -92.5011 -92.4431 -92.3993 -92.3811 -92.2599
   -56.0459 -56.0266 -55.9035 -55.8930 -55.8864 -55.8799 -55.8434 -55.8154
   -55.7996 -55.7990 -55.7910 -55.7498 -55.7331 -55.6935 -55.6726 -55.6429
   -55.6365 -55.5869 -55.5866 -55.5843 -55.5758 -55.5345 -55.5115 -55.4262
   -31.2697 -31.2502 -31.1207 -31.1088 -31.0218 -30.9131 -30.8985 -30.5166
   -29.8398 -29.7957 -29.7707 -29.6616 -15.0360 -14.9977 -14.9214 -14.7873
   -14.6633 -14.4886 -14.3547 -14.1762 -14.1403 -14.1202 -14.0910 -14.0323
   -14.0243 -14.0092 -13.9930 -13.9671 -13.9406 -13.8401 -13.8005 -13.6391
   -13.6142 -13.5690 -13.5323 -13.4870 -13.4416 -13.3838 -13.3343 -13.2996
   -13.2205 -13.1669 -13.1397 -13.1036 -13.0956 -13.0656 -12.9791 -12.9542
   -12.9267 -12.9084 -12.8911 -12.8709 -12.8584 -12.8280 -12.7942 -12.7861
   -12.6939 -12.6479 -12.4878 -12.4508 -12.4313 -12.3953 -12.2397 -12.0156
   -11.9541 -11.8178 -11.7761 -11.7475 -11.7189 -11.7023 -11.6551 -11.6439
   -11.6213 -11.5880 -11.4836 -11.4321 -11.4217  -2.7966  -2.5757  -2.4378
    -2.2560  -2.2123  -2.0487  -1.8296  -1.7451  -1.7320  -1.6747  -1.5707
    -1.5556  -1.5232  -1.4947  -1.4516  -1.2541  -1.1738  -1.1235  -1.1111
    -1.0355  -1.0264  -0.9223  -0.8929  -0.8332  -0.8087  -0.7689  -0.7050
    -0.6777  -0.6459  -0.6107  -0.5946  -0.5631  -0.4892  -0.4395  -0.3745
    -0.2570  -0.2422  -0.1984  -0.0760  -0.0242   0.0200   0.0700   0.1234
     0.1438   0.1711   0.2369   0.5340   0.6204   0.6544   0.7395   0.7854
     0.8126   0.9187   0.9387   1.0375   1.0611   1.0870   1.1996   1.2953
     1.3180   1.3431   1.3578   1.3838   1.4461   1.4715   1.5012   1.5466
     1.5843   1.6143   1.7039   1.7349   1.7772   1.8191   1.8821   1.9328
     1.9498   1.9694   1.9898   2.0905   2.2110   2.2801   2.2947   2.3695
     2.4138   2.4346   2.4630   2.4703   2.5096   2.5272   2.5635   2.6472
     2.6864   2.7030   2.8737   2.8961   2.9306   2.9510   2.9673   2.9758
     2.9837   2.9926   3.0222   3.0240   3.0423   3.0459   3.0568   3.0752
     3.0873   3.0949   3.1167   3.1279   3.1325   3.1683   3.1846   3.2449
     3.6240   3.6457   3.8866   4.3072   4.4414   4.7231   5.0242   5.0772
     5.6527   5.8018   5.9238   5.9962   6.0916   6.1119   6.1923   6.6018
     6.8232   7.0962   7.1221   7.3361   7.4908   7.5067   7.6182   7.6501
     7.8585   7.9167   8.0015   8.1857   8.2648   8.3860   8.4125   8.4780
     8.6014   8.8414   8.9581

     occupation numbers 
     1.0000   1.0000   1.0000   1.0000   1.0000   1.0000   1.0000   1.0000
     1.0000   1.0000   1.0000   1.0000   1.0000   1.0000   1.0000   1.0000
     1.0000   1.0000   1.0000   1.0000   1.0000   1.0000   1.0000   1.0000
     1.0000   1.0000   1.0000   1.0000   1.0000   1.0000   1.0000   1.0000
     1.0000   1.0000   1.0000   1.0000   1.0000   1.0000   1.0000   1.0000
     1.0000   1.0000   1.0000   1.0000   1.0000   1.0000   1.0000   1.0000
     1.0000   1.0000   1.0000   1.0000   1.0000   1.0000   1.0000   1.0000
     1.0000   1.0000   1.0000   1.0000   1.0000   1.0000   1.0000   1.0000
     1.0000   1.0000   1.0000   1.0000   1.0000   1.0000   1.0000   1.0000
     1.0000   1.0000   1.0000   1.0000   1.0000   1.0000   1.0000   1.0000
     1.0000   1.0000   1.0000   1.0000   1.0000   1.0000   1.0000   1.0000
     1.0000   1.0000   1.0000   1.0000   1.0000   1.0000   1.0000   1.0000
     1.0000   1.0000   1.0000   1.0000   1.0000   1.0000   1.0000   1.0000
     1.0000   1.0000   1.0000   1.0000   1.0000   1.0000   1.0000   1.0000
     1.0000   1.0000   1.0000   1.0000   1.0000   1.0000   1.0000   1.0000
     1.0000   1.0000   1.0000   1.0000   1.0000   1.0000   1.0000   1.0000
     1.0000   1.0000   1.0000   1.0000   1.0000   1.0000   1.0000   1.0000
     1.0000   1.0000   1.0000   1.0000   1.0000   1.0000   1.0000   1.0000
     1.0000   1.0000   1.0000   1.0000   1.0000   1.0000   1.0000   1.0000
     1.0000   1.0000   1.0000   1.0000   1.0000   1.0000   0.9999   0.9999
     0.9999   0.9998   0.9998   0.9997   0.9996   0.9996   0.9992   0.9988
     0.9986   0.9985   0.9983   0.9981   0.9975   0.9972   0.9968   0.9960
     0.9953   0.9947   0.9923   0.9913   0.9897   0.9878   0.9845   0.9814
     0.9802   0.9787   0.9771   0.9677   0.9525   0.9414   0.9389   0.9242
     0.9144   0.9095   0.9024   0.9005   0.8899   0.8849   0.8741   0.8466
     0.8324   0.8261   0.7535   0.7429   0.7261   0.7159   0.7077   0.7033
     0.6993   0.6946   0.6790   0.6781   0.6683   0.6664   0.6605   0.6504
     0.6437   0.6395   0.6273   0.6210   0.6184   0.5980   0.5886   0.5535
     0.3341   0.3225   0.2065   0.0745   0.0503   0.0197   0.0061   0.0048
     0.0003   0.0001   0.0001   0.0000   0.0000   0.0000   0.0000   0.0000
     0.0000   0.0000   0.0000   0.0000   0.0000   0.0000   0.0000   0.0000
     0.0000   0.0000   0.0000   0.0000   0.0000   0.0000   0.0000   0.0000
     0.0000   0.0000   0.0000

          k = 0.0000-0.5000 0.0000 ( 65180 PWs)   bands (ev):

   -92.6924 -92.6398 -92.5462 -92.5011 -92.4431 -92.3993 -92.3811 -92.2599
   -56.0459 -56.0266 -55.9035 -55.8930 -55.8864 -55.8799 -55.8434 -55.8154
   -55.7996 -55.7990 -55.7910 -55.7498 -55.7331 -55.6935 -55.6726 -55.6429
   -55.6365 -55.5869 -55.5866 -55.5843 -55.5758 -55.5345 -55.5115 -55.4262
   -31.2695 -31.2501 -31.1206 -31.1090 -31.0219 -30.9133 -30.8984 -30.5167
   -29.8392 -29.7954 -29.7714 -29.6620 -14.9989 -14.9514 -14.8940 -14.7696
   -14.6838 -14.5518 -14.3869 -14.2760 -14.1488 -14.0743 -14.0322 -14.0272
   -13.9775 -13.9677 -13.9616 -13.9096 -13.8910 -13.8630 -13.8358 -13.7967
   -13.7430 -13.5743 -13.5158 -13.4923 -13.4480 -13.3673 -13.3501 -13.2952
   -13.2752 -13.2579 -13.2098 -13.1063 -13.0969 -13.0584 -12.9640 -12.9535
   -12.9342 -12.9202 -12.8751 -12.8681 -12.8247 -12.7879 -12.6974 -12.6519
   -12.6437 -12.6147 -12.5065 -12.4580 -12.3841 -12.3149 -12.2879 -12.0949
   -12.0489 -11.7730 -11.7696 -11.7421 -11.7047 -11.6705 -11.6594 -11.6178
   -11.6137 -11.5696 -11.5054 -11.4921 -11.4785  -2.5816  -2.5233  -2.3721
    -2.3010  -2.0187  -1.9355  -1.8067  -1.6714  -1.6330  -1.6134  -1.5362
    -1.5053  -1.4207  -1.3869  -1.3081  -1.2699  -1.2317  -1.2056  -1.1840
    -1.1292  -1.1084  -1.0622  -1.0267  -0.9920  -0.9599  -0.8488  -0.8052
    -0.7686  -0.7661  -0.6804  -0.6511  -0.6269  -0.5774  -0.4932  -0.4158
    -0.3315  -0.3046  -0.1838  -0.1574  -0.0209   0.0157   0.0518   0.0946
     0.2308   0.3038   0.4009   0.4711   0.4794   0.6068   0.6668   0.7614
     0.8932   0.9915   1.0235   1.0648   1.0746   1.1048   1.1250   1.1600
     1.1778   1.1928   1.3002   1.3617   1.3853   1.4078   1.6782   1.7158
     1.7404   1.8280   1.8489   1.8857   1.9040   1.9233   1.9513   1.9640
     1.9831   2.0112   2.0428   2.0727   2.0779   2.1094   2.1621   2.2486
     2.2907   2.4314   2.4582   2.4968   2.6113   2.6258   2.6386   2.6788
     2.6846   2.6947   2.7445   2.7556   2.8086   2.8304   2.9056   2.9199
     2.9907   2.9954   3.0191   3.0212   3.0391   3.0440   3.0464   3.0530
     3.0556   3.0693   3.0868   3.0886   3.1539   3.1570   3.1741   3.2301
     4.1335   4.1698   4.2151   4.2637   4.7414   4.9225   5.0322   5.1713
     5.4207   5.4710   5.5914   5.7302   6.0316   6.0578   6.2407   6.5228
     6.8572   6.9582   7.2281   7.3208   7.4088   7.4197   7.6954   7.7630
     7.9156   7.9631   8.1979   8.3027   8.3707   8.4970   8.5458   8.6802
     8.8173   8.8371   8.8791

     occupation numbers 
     1.0000   1.0000   1.0000   1.0000   1.0000   1.0000   1.0000   1.0000
     1.0000   1.0000   1.0000   1.0000   1.0000   1.0000   1.0000   1.0000
     1.0000   1.0000   1.0000   1.0000   1.0000   1.0000   1.0000   1.0000
     1.0000   1.0000   1.0000   1.0000   1.0000   1.0000   1.0000   1.0000
     1.0000   1.0000   1.0000   1.0000   1.0000   1.0000   1.0000   1.0000
     1.0000   1.0000   1.0000   1.0000   1.0000   1.0000   1.0000   1.0000
     1.0000   1.0000   1.0000   1.0000   1.0000   1.0000   1.0000   1.0000
     1.0000   1.0000   1.0000   1.0000   1.0000   1.0000   1.0000   1.0000
     1.0000   1.0000   1.0000   1.0000   1.0000   1.0000   1.0000   1.0000
     1.0000   1.0000   1.0000   1.0000   1.0000   1.0000   1.0000   1.0000
     1.0000   1.0000   1.0000   1.0000   1.0000   1.0000   1.0000   1.0000
     1.0000   1.0000   1.0000   1.0000   1.0000   1.0000   1.0000   1.0000
     1.0000   1.0000   1.0000   1.0000   1.0000   1.0000   1.0000   1.0000
     1.0000   1.0000   1.0000   1.0000   1.0000   1.0000   1.0000   1.0000
     1.0000   1.0000   1.0000   1.0000   1.0000   1.0000   1.0000   1.0000
     1.0000   1.0000   1.0000   1.0000   1.0000   1.0000   1.0000   1.0000
     1.0000   1.0000   1.0000   1.0000   1.0000   1.0000   1.0000   1.0000
     1.0000   1.0000   1.0000   1.0000   1.0000   1.0000   1.0000   1.0000
     1.0000   1.0000   1.0000   1.0000   1.0000   1.0000   1.0000   1.0000
     1.0000   1.0000   1.0000   1.0000   1.0000   1.0000   1.0000   0.9999
     0.9999   0.9997   0.9997   0.9996   0.9996   0.9995   0.9995   0.9994
     0.9993   0.9993   0.9987   0.9983   0.9981   0.9979   0.9931   0.9919
     0.9911   0.9874   0.9864   0.9843   0.9832   0.9820   0.9801   0.9791
     0.9777   0.9754   0.9725   0.9696   0.9691   0.9657   0.9593   0.9467
     0.9396   0.9102   0.9036   0.8935   0.8588   0.8540   0.8496   0.8352
     0.8331   0.8293   0.8098   0.8054   0.7830   0.7733   0.7383   0.7313
     0.6956   0.6932   0.6807   0.6796   0.6700   0.6674   0.6661   0.6625
     0.6611   0.6536   0.6440   0.6430   0.6062   0.6044   0.5946   0.5621
     0.1180   0.1077   0.0957   0.0840   0.0184   0.0092   0.0059   0.0032
     0.0010   0.0008   0.0004   0.0002   0.0000   0.0000   0.0000   0.0000
     0.0000   0.0000   0.0000   0.0000   0.0000   0.0000   0.0000   0.0000
     0.0000   0.0000   0.0000   0.0000   0.0000   0.0000   0.0000   0.0000
     0.0000   0.0000   0.0000

          k = 0.2500 0.2500 0.0000 ( 65198 PWs)   bands (ev):

   -92.6924 -92.6398 -92.5462 -92.5011 -92.4431 -92.3993 -92.3811 -92.2599
   -56.0459 -56.0266 -55.9035 -55.8930 -55.8864 -55.8799 -55.8434 -55.8154
   -55.7996 -55.7990 -55.7910 -55.7498 -55.7331 -55.6935 -55.6726 -55.6429
   -55.6365 -55.5869 -55.5866 -55.5843 -55.5758 -55.5345 -55.5115 -55.4262
   -31.2680 -31.2519 -31.1206 -31.1084 -31.0221 -30.9130 -30.8987 -30.5167
   -29.8389 -29.7967 -29.7703 -29.6621 -15.0069 -14.9631 -14.8932 -14.7770
   -14.6561 -14.5285 -14.4612 -14.2542 -14.0997 -14.0865 -14.0500 -14.0210
   -13.9960 -13.9693 -13.9624 -13.9387 -13.9033 -13.8311 -13.8148 -13.6543
   -13.6402 -13.6089 -13.5919 -13.5383 -13.5011 -13.4188 -13.4091 -13.2796
   -13.2507 -13.2196 -13.1354 -13.0955 -13.0628 -13.0335 -13.0101 -12.9670
   -12.9386 -12.9133 -12.9041 -12.8428 -12.7997 -12.7737 -12.7503 -12.7353
   -12.7055 -12.6333 -12.4816 -12.4449 -12.4352 -12.3147 -12.2689 -12.0376
   -12.0044 -11.7904 -11.7590 -11.7478 -11.7412 -11.6783 -11.6430 -11.6366
   -11.6015 -11.5940 -11.5004 -11.4603 -11.4431  -2.6583  -2.4499  -2.3316
    -2.2377  -2.1167  -2.0521  -1.8545  -1.7095  -1.6910  -1.6615  -1.5658
    -1.5335  -1.4384  -1.4104  -1.3604  -1.2304  -1.1942  -1.1567  -1.1086
    -1.0627  -1.0183  -0.9958  -0.9716  -0.9280  -0.9136  -0.8234  -0.7720
    -0.7070  -0.6568  -0.6249  -0.5783  -0.5627  -0.4995  -0.4515  -0.3939
    -0.3598  -0.2747  -0.2178  -0.1924  -0.1535  -0.0991   0.0001   0.0172
     0.0367   0.1243   0.1508   0.4202   0.5705   0.6031   0.6669   0.7094
     0.7685   0.8210   0.8812   0.9157   1.1843   1.2506   1.3244   1.3499
     1.3980   1.4288   1.4646   1.5031   1.5194   1.5470   1.5960   1.6003
     1.6142   1.6574   1.6964   1.7382   1.8131   1.8434   1.8497   1.8952
     1.9218   1.9711   2.0049   2.1288   2.1908   2.2256   2.2440   2.3103
     2.3779   2.4072   2.4302   2.4410   2.4684   2.4820   2.5130   2.5907
     2.6277   2.7164   2.8854   2.9021   2.9083   2.9255   2.9406   2.9526
     2.9656   2.9722   2.9827   2.9957   3.0075   3.0267   3.0330   3.0446
     3.0663   3.0784   3.0883   3.1190   3.4197   3.5138   3.5555   3.6304
     3.6596   3.8639   3.9628   4.3218   4.5245   4.7259   4.9962   5.1707
     5.6570   5.7110   5.7691   5.8466   5.9045   6.0699   6.1621   6.2207
     6.8979   6.9135   7.1316   7.2692   7.5577   7.6096   7.7178   7.8550
     7.8958   8.0288   8.1966   8.2271   8.3053   8.3529   8.4520   8.4817
     8.5723   8.7603   8.9161

     occupation numbers 
     1.0000   1.0000   1.0000   1.0000   1.0000   1.0000   1.0000   1.0000
     1.0000   1.0000   1.0000   1.0000   1.0000   1.0000   1.0000   1.0000
     1.0000   1.0000   1.0000   1.0000   1.0000   1.0000   1.0000   1.0000
     1.0000   1.0000   1.0000   1.0000   1.0000   1.0000   1.0000   1.0000
     1.0000   1.0000   1.0000   1.0000   1.0000   1.0000   1.0000   1.0000
     1.0000   1.0000   1.0000   1.0000   1.0000   1.0000   1.0000   1.0000
     1.0000   1.0000   1.0000   1.0000   1.0000   1.0000   1.0000   1.0000
     1.0000   1.0000   1.0000   1.0000   1.0000   1.0000   1.0000   1.0000
     1.0000   1.0000   1.0000   1.0000   1.0000   1.0000   1.0000   1.0000
     1.0000   1.0000   1.0000   1.0000   1.0000   1.0000   1.0000   1.0000
     1.0000   1.0000   1.0000   1.0000   1.0000   1.0000   1.0000   1.0000
     1.0000   1.0000   1.0000   1.0000   1.0000   1.0000   1.0000   1.0000
     1.0000   1.0000   1.0000   1.0000   1.0000   1.0000   1.0000   1.0000
     1.0000   1.0000   1.0000   1.0000   1.0000   1.0000   1.0000   1.0000
     1.0000   1.0000   1.0000   1.0000   1.0000   1.0000   1.0000   1.0000
     1.0000   1.0000   1.0000   1.0000   1.0000   1.0000   1.0000   1.0000
     1.0000   1.0000   1.0000   1.0000   1.0000   1.0000   1.0000   1.0000
     1.0000   1.0000   1.0000   1.0000   1.0000   1.0000   1.0000   1.0000
     1.0000   1.0000   1.0000   1.0000   1.0000   1.0000   1.0000   1.0000
     1.0000   1.0000   1.0000   1.0000   1.0000   1.0000   1.0000   1.0000
     0.9999   0.9999   0.9999   0.9998   0.9993   0.9990   0.9986   0.9984
     0.9980   0.9977   0.9973   0.9967   0.9965   0.9960   0.9951   0.9950
     0.9947   0.9936   0.9925   0.9911   0.9881   0.9866   0.9863   0.9838
     0.9821   0.9786   0.9759   0.9634   0.9554   0.9503   0.9474   0.9360
     0.9225   0.9159   0.9105   0.9079   0.9010   0.8975   0.8890   0.8656
     0.8533   0.8210   0.7480   0.7400   0.7370   0.7286   0.7211   0.7151
     0.7085   0.7051   0.6997   0.6930   0.6868   0.6766   0.6733   0.6670
     0.6552   0.6486   0.6431   0.6260   0.4502   0.3955   0.3719   0.3307
     0.3151   0.2163   0.1758   0.0715   0.0387   0.0195   0.0068   0.0032
     0.0003   0.0002   0.0002   0.0001   0.0001   0.0000   0.0000   0.0000
     0.0000   0.0000   0.0000   0.0000   0.0000   0.0000   0.0000   0.0000
     0.0000   0.0000   0.0000   0.0000   0.0000   0.0000   0.0000   0.0000
     0.0000   0.0000   0.0000

          k = 0.2500-0.5000 0.0000 ( 65138 PWs)   bands (ev):

   -92.6924 -92.6398 -92.5462 -92.5011 -92.4431 -92.3993 -92.3811 -92.2599
   -56.0459 -56.0266 -55.9035 -55.8930 -55.8864 -55.8799 -55.8434 -55.8154
   -55.7996 -55.7990 -55.7910 -55.7498 -55.7331 -55.6935 -55.6726 -55.6429
   -55.6365 -55.5869 -55.5866 -55.5843 -55.5758 -55.5345 -55.5115 -55.4262
   -31.2678 -31.2518 -31.1204 -31.1086 -31.0223 -30.9132 -30.8986 -30.5168
   -29.8383 -29.7964 -29.7710 -29.6624 -14.9679 -14.9245 -14.8509 -14.7408
   -14.7063 -14.5916 -14.4928 -14.3708 -14.0643 -14.0096 -13.9847 -13.9683
   -13.9593 -13.9460 -13.9331 -13.8937 -13.8783 -13.8474 -13.8115 -13.7878
   -13.7337 -13.6567 -13.6091 -13.5539 -13.5296 -13.4602 -13.4153 -13.3361
   -13.3106 -13.1988 -13.1341 -13.1167 -13.0450 -13.0188 -12.9820 -12.9665
   -12.9355 -12.9041 -12.8973 -12.8612 -12.8041 -12.7903 -12.6919 -12.6693
   -12.6477 -12.6163 -12.5132 -12.4613 -12.3458 -12.3124 -12.2458 -12.0884
   -12.0561 -11.7664 -11.7541 -11.7430 -11.7159 -11.6848 -11.6556 -11.6155
   -11.5867 -11.5656 -11.5186 -11.4935 -11.4828  -2.4396  -2.3749  -2.2458
    -2.1696  -2.0390  -1.9556  -1.8311  -1.6827  -1.6280  -1.6059  -1.5441
    -1.5309  -1.4314  -1.3668  -1.2818  -1.2311  -1.2225  -1.1773  -1.1570
    -1.1104  -1.0823  -1.0343  -0.9976  -0.9621  -0.9224  -0.9078  -0.8659
    -0.8363  -0.7948  -0.7627  -0.6970  -0.5952  -0.5540  -0.4756  -0.4089
    -0.3587  -0.3181  -0.2988  -0.2346  -0.0781  -0.0678   0.0282   0.0653
     0.0718   0.1155   0.1580   0.1944   0.2282   0.2863   0.5687   0.6757
     0.7281   0.7893   1.0529   1.0700   1.1564   1.1883   1.3475   1.3814
     1.4240   1.4477   1.4611   1.4817   1.5442   1.5913   1.6256   1.7019
     1.8123   1.8451   1.8592   1.8711   1.9098   1.9183   1.9414   1.9774
     1.9833   2.0085   2.0317   2.0518   2.0708   2.1073   2.1619   2.2043
     2.2862   2.4155   2.4324   2.4972   2.5645   2.5811   2.5989   2.6292
     2.6543   2.6831   2.7018   2.7171   2.7442   2.8354   2.8846   2.9048
     2.9072   2.9216   2.9422   2.9556   2.9756   2.9825   3.0162   3.0263
     3.0420   3.0495   3.0581   3.0688   3.5904   3.6087   3.7515   3.8078
     4.1481   4.2013   4.2156   4.3257   4.7618   4.9433   5.0685   5.1452
     5.3142   5.4391   5.6103   5.6405   5.7765   5.7987   6.3304   6.4052
     6.4954   6.6556   7.2298   7.3754   7.5442   7.7100   7.8052   7.8817
     7.9495   8.0538   8.2691   8.3972   8.4706   8.5400   8.5554   8.5577
     8.7162   8.7676   8.7931

     occupation numbers 
     1.0000   1.0000   1.0000   1.0000   1.0000   1.0000   1.0000   1.0000
     1.0000   1.0000   1.0000   1.0000   1.0000   1.0000   1.0000   1.0000
     1.0000   1.0000   1.0000   1.0000   1.0000   1.0000   1.0000   1.0000
     1.0000   1.0000   1.0000   1.0000   1.0000   1.0000   1.0000   1.0000
     1.0000   1.0000   1.0000   1.0000   1.0000   1.0000   1.0000   1.0000
     1.0000   1.0000   1.0000   1.0000   1.0000   1.0000   1.0000   1.0000
     1.0000   1.0000   1.0000   1.0000   1.0000   1.0000   1.0000   1.0000
     1.0000   1.0000   1.0000   1.0000   1.0000   1.0000   1.0000   1.0000
     1.0000   1.0000   1.0000   1.0000   1.0000   1.0000   1.0000   1.0000
     1.0000   1.0000   1.0000   1.0000   1.0000   1.0000   1.0000   1.0000
     1.0000   1.0000   1.0000   1.0000   1.0000   1.0000   1.0000   1.0000
     1.0000   1.0000   1.0000   1.0000   1.0000   1.0000   1.0000   1.0000
     1.0000   1.0000   1.0000   1.0000   1.0000   1.0000   1.0000   1.0000
     1.0000   1.0000   1.0000   1.0000   1.0000   1.0000   1.0000   1.0000
     1.0000   1.0000   1.0000   1.0000   1.0000   1.0000   1.0000   1.0000
     1.0000   1.0000   1.0000   1.0000   1.0000   1.0000   1.0000   1.0000
     1.0000   1.0000   1.0000   1.0000   1.0000   1.0000   1.0000   1.0000
     1.0000   1.0000   1.0000   1.0000   1.0000   1.0000   1.0000   1.0000
     1.0000   1.0000   1.0000   1.0000   1.0000   1.0000   1.0000   1.0000
     1.0000   1.0000   1.0000   1.0000   1.0000   1.0000   1.0000   1.0000
     0.9999   0.9999   0.9996   0.9996   0.9994   0.9993   0.9984   0.9981
     0.9977   0.9975   0.9973   0.9970   0.9961   0.9952   0.9944   0.9924
     0.9881   0.9865   0.9858   0.9852   0.9829   0.9823   0.9808   0.9781
     0.9777   0.9756   0.9736   0.9717   0.9698   0.9659   0.9593   0.9535
     0.9404   0.9140   0.9100   0.8934   0.8738   0.8687   0.8629   0.8528
     0.8441   0.8336   0.8266   0.8207   0.8100   0.7711   0.7483   0.7387
     0.7375   0.7305   0.7203   0.7136   0.7034   0.6999   0.6822   0.6768
     0.6684   0.6644   0.6598   0.6539   0.3525   0.3424   0.2683   0.2415
     0.1138   0.0993   0.0956   0.0707   0.0171   0.0085   0.0050   0.0036
     0.0016   0.0009   0.0004   0.0003   0.0001   0.0001   0.0000   0.0000
     0.0000   0.0000   0.0000   0.0000   0.0000   0.0000   0.0000   0.0000
     0.0000   0.0000   0.0000   0.0000   0.0000   0.0000   0.0000   0.0000
     0.0000   0.0000   0.0000

          k =-0.5000-0.5000 0.0000 ( 65132 PWs)   bands (ev):

   -92.6924 -92.6398 -92.5462 -92.5011 -92.4431 -92.3993 -92.3811 -92.2599
   -56.0459 -56.0266 -55.9035 -55.8930 -55.8864 -55.8799 -55.8434 -55.8154
   -55.7996 -55.7990 -55.7910 -55.7498 -55.7331 -55.6935 -55.6726 -55.6429
   -55.6365 -55.5869 -55.5866 -55.5843 -55.5758 -55.5345 -55.5115 -55.4262
   -31.2656 -31.2539 -31.1203 -31.1082 -31.0227 -30.9131 -30.8987 -30.5169
   -29.8373 -29.7974 -29.7706 -29.6628 -14.9201 -14.8972 -14.7801 -14.7642
   -14.6688 -14.6371 -14.6013 -14.4689 -13.9743 -13.9676 -13.9627 -13.9279
   -13.9115 -13.8908 -13.8722 -13.8520 -13.8395 -13.8202 -13.8192 -13.8028
   -13.7237 -13.7176 -13.6859 -13.6547 -13.6397 -13.5500 -13.4802 -13.3661
   -13.3594 -13.1499 -13.1140 -13.0413 -13.0185 -13.0124 -12.9813 -12.9755
   -12.9660 -12.9472 -12.8578 -12.8384 -12.7899 -12.7688 -12.7549 -12.7245
   -12.5977 -12.5900 -12.5294 -12.4656 -12.3144 -12.3074 -12.2077 -12.0825
   -12.0646 -11.7623 -11.7508 -11.7331 -11.7156 -11.6814 -11.6631 -11.6277
   -11.5661 -11.5477 -11.5414 -11.4917 -11.4887  -2.2151  -2.1399  -2.1302
    -2.0590  -2.0201  -1.9416  -1.8733  -1.7488  -1.6330  -1.6027  -1.5631
    -1.5055  -1.4347  -1.4182  -1.3491  -1.3069  -1.1927  -1.1739  -1.1525
    -1.1124  -1.0836  -1.0190  -0.9714  -0.9531  -0.9406  -0.8873  -0.8440
    -0.8277  -0.7149  -0.6571  -0.6079  -0.5605  -0.5345  -0.5232  -0.4867
    -0.4417  -0.4069  -0.3976  -0.3122  -0.2399  -0.2010  -0.1698  -0.1011
    -0.0355  -0.0238   0.0355   0.0537   0.0639   0.0727   0.5330   0.6170
     0.6668   0.7145   1.0816   1.0940   1.1265   1.1618   1.4324   1.4509
     1.4599   1.4958   1.6276   1.7212   1.7490   1.7861   1.8185   1.8301
     1.8413   1.8711   1.8869   1.9062   1.9260   1.9548   1.9615   1.9873
     2.0242   2.0303   2.0432   2.0846   2.1044   2.1173   2.1536   2.1775
     2.2419   2.3085   2.4233   2.4885   2.5807   2.6097   2.6300   2.6468
     2.6613   2.6880   2.6940   2.7134   2.7253   2.7410   2.7607   2.7735
     2.8364   2.8391   2.8608   2.8751   2.8862   2.9053   2.9128   2.9214
     3.0225   3.0292   3.0542   3.0647   4.0079   4.0452   4.0923   4.1176
     4.3274   4.3997   4.4271   4.6682   4.7901   4.8727   5.0016   5.0914
     5.1080   5.2151   5.3115   5.4134   5.8596   5.8906   5.9614   6.0381
     6.5143   6.8813   6.9357   7.1643   7.8935   7.9382   7.9509   7.9832
     8.0159   8.0568   8.1031   8.2799   8.4603   8.5947   8.6168   8.6277
     8.6651   8.7419   8.7590

     occupation numbers 
     1.0000   1.0000   1.0000   1.0000   1.0000   1.0000   1.0000   1.0000
     1.0000   1.0000   1.0000   1.0000   1.0000   1.0000   1.0000   1.0000
     1.0000   1.0000   1.0000   1.0000   1.0000   1.0000   1.0000   1.0000
     1.0000   1.0000   1.0000   1.0000   1.0000   1.0000   1.0000   1.0000
     1.0000   1.0000   1.0000   1.0000   1.0000   1.0000   1.0000   1.0000
     1.0000   1.0000   1.0000   1.0000   1.0000   1.0000   1.0000   1.0000
     1.0000   1.0000   1.0000   1.0000   1.0000   1.0000   1.0000   1.0000
     1.0000   1.0000   1.0000   1.0000   1.0000   1.0000   1.0000   1.0000
     1.0000   1.0000   1.0000   1.0000   1.0000   1.0000   1.0000   1.0000
     1.0000   1.0000   1.0000   1.0000   1.0000   1.0000   1.0000   1.0000
     1.0000   1.0000   1.0000   1.0000   1.0000   1.0000   1.0000   1.0000
     1.0000   1.0000   1.0000   1.0000   1.0000   1.0000   1.0000   1.0000
     1.0000   1.0000   1.0000   1.0000   1.0000   1.0000   1.0000   1.0000
     1.0000   1.0000   1.0000   1.0000   1.0000   1.0000   1.0000   1.0000
     1.0000   1.0000   1.0000   1.0000   1.0000   1.0000   1.0000   1.0000
     1.0000   1.0000   1.0000   1.0000   1.0000   1.0000   1.0000   1.0000
     1.0000   1.0000   1.0000   1.0000   1.0000   1.0000   1.0000   1.0000
     1.0000   1.0000   1.0000   1.0000   1.0000   1.0000   1.0000   1.0000
     1.0000   1.0000   1.0000   1.0000   1.0000   1.0000   1.0000   1.0000
     1.0000   1.0000   1.0000   1.0000   1.0000   1.0000   1.0000   1.0000
     1.0000   1.0000   0.9996   0.9996   0.9995   0.9994   0.9976   0.9974
     0.9973   0.9968   0.9944   0.9917   0.9908   0.9893   0.9879   0.9873
     0.9867   0.9852   0.9843   0.9831   0.9818   0.9798   0.9793   0.9773
     0.9742   0.9737   0.9725   0.9684   0.9662   0.9648   0.9604   0.9572
     0.9478   0.9364   0.9122   0.8957   0.8688   0.8594   0.8526   0.8467
     0.8416   0.8318   0.8296   0.8221   0.8175   0.8113   0.8032   0.7979
     0.7706   0.7694   0.7595   0.7529   0.7476   0.7384   0.7348   0.7307
     0.6789   0.6753   0.6618   0.6561   0.1590   0.1459   0.1305   0.1227
     0.0704   0.0570   0.0525   0.0239   0.0154   0.0112   0.0067   0.0046
     0.0042   0.0026   0.0017   0.0010   0.0001   0.0001   0.0000   0.0000
     0.0000   0.0000   0.0000   0.0000   0.0000   0.0000   0.0000   0.0000
     0.0000   0.0000   0.0000   0.0000   0.0000   0.0000   0.0000   0.0000
     0.0000   0.0000   0.0000

          k = 0.2500 0.0000 0.0000 ( 65257 PWs)   bands (ev):

   -92.6924 -92.6398 -92.5462 -92.5011 -92.4431 -92.3993 -92.3811 -92.2599
   -56.0459 -56.0266 -55.9035 -55.8930 -55.8864 -55.8799 -55.8434 -55.8154
   -55.7996 -55.7990 -55.7910 -55.7498 -55.7331 -55.6935 -55.6726 -55.6429
   -55.6365 -55.5869 -55.5866 -55.5843 -55.5758 -55.5345 -55.5115 -55.4262
   -31.2682 -31.2520 -31.1207 -31.1082 -31.0220 -30.9129 -30.8987 -30.5166
   -29.8395 -29.7970 -29.7697 -29.6617 -15.0397 -14.9928 -14.9275 -14.7800
   -14.6724 -14.4750 -14.3468 -14.1671 -14.1495 -14.1198 -14.0875 -14.0636
   -14.0261 -14.0116 -13.9940 -13.9682 -13.9441 -13.8314 -13.7998 -13.6507
   -13.5816 -13.5713 -13.5093 -13.4836 -13.4691 -13.3950 -13.3369 -13.3047
   -13.2071 -13.1532 -13.1501 -13.0868 -13.0523 -13.0347 -13.0175 -12.9997
   -12.9637 -12.9308 -12.9097 -12.8669 -12.8345 -12.8115 -12.8015 -12.7625
   -12.6799 -12.6389 -12.4934 -12.4569 -12.4314 -12.3976 -12.2407 -12.0151
   -11.9538 -11.8174 -11.7661 -11.7490 -11.7345 -11.7078 -11.6575 -11.6346
   -11.6262 -11.5761 -11.4853 -11.4305 -11.4246  -2.7962  -2.5747  -2.4446
    -2.2720  -2.2082  -2.0387  -1.8310  -1.7539  -1.7106  -1.6754  -1.5734
    -1.5600  -1.5256  -1.5066  -1.4364  -1.2575  -1.1758  -1.1450  -1.1065
    -1.0100  -0.9984  -0.9206  -0.8935  -0.8418  -0.8003  -0.7493  -0.7201
    -0.6709  -0.6437  -0.6209  -0.5706  -0.5546  -0.4651  -0.4557  -0.3884
    -0.2953  -0.2428  -0.1178  -0.1063  -0.0437   0.0107   0.0558   0.0925
     0.1251   0.1791   0.2222   0.5103   0.6412   0.6704   0.7600   0.7963
     0.8208   0.8460   0.9180   1.0310   1.0757   1.1006   1.1413   1.2855
     1.3229   1.3545   1.3609   1.4028   1.4486   1.4904   1.5242   1.5793
     1.6259   1.6433   1.6931   1.7502   1.7911   1.8144   1.8955   1.9111
     1.9392   1.9657   1.9899   2.1112   2.1715   2.2479   2.3083   2.3215
     2.4022   2.4299   2.4668   2.4924   2.5138   2.5481   2.5592   2.5729
     2.6302   2.7534   2.8680   2.8894   2.9223   2.9476   2.9541   2.9748
     2.9846   2.9987   3.0197   3.0261   3.0504   3.0628   3.0688   3.0821
     3.1023   3.1271   3.1317   3.1394   3.1455   3.1561   3.1651   3.2953
     3.5905   3.6355   3.8930   4.2924   4.4756   4.6931   5.0256   5.0835
     5.6439   5.8171   5.9322   6.0079   6.0778   6.1038   6.1911   6.5877
     6.8276   7.0950   7.1325   7.3389   7.4773   7.5592   7.5939   7.6439
[...]
     0.3524   0.3279   0.2038   0.0777   0.0452   0.0219   0.0060   0.0047
     0.0003   0.0001   0.0001   0.0000   0.0000   0.0000   0.0000   0.0000
     0.0000   0.0000   0.0000   0.0000   0.0000   0.0000   0.0000   0.0000
     0.0000   0.0000   0.0000   0.0000   0.0000   0.0000   0.0000   0.0000
     0.0000   0.0000   0.0000

          k =-0.5000 0.0000 0.0000 ( 65180 PWs)   bands (ev):

   -92.6924 -92.6398 -92.5462 -92.5011 -92.4431 -92.3993 -92.3811 -92.2599
   -56.0459 -56.0266 -55.9035 -55.8930 -55.8864 -55.8799 -55.8434 -55.8154
   -55.7996 -55.7990 -55.7910 -55.7498 -55.7331 -55.6935 -55.6726 -55.6429
   -55.6365 -55.5869 -55.5866 -55.5843 -55.5758 -55.5345 -55.5115 -55.4262
   -31.2660 -31.2542 -31.1206 -31.1078 -31.0224 -30.9128 -30.8989 -30.5167
   -29.8385 -29.7980 -29.7693 -29.6621 -15.0052 -14.9508 -14.8894 -14.7814
   -14.6776 -14.5354 -14.3838 -14.2475 -14.1236 -14.1102 -14.0998 -14.0370
   -13.9821 -13.9677 -13.9472 -13.8977 -13.8942 -13.8737 -13.8294 -13.8093
   -13.6991 -13.5461 -13.5167 -13.4862 -13.4788 -13.3898 -13.3557 -13.2919
   -13.2597 -13.2362 -13.2164 -13.0780 -13.0461 -13.0315 -13.0074 -12.9965
   -12.9580 -12.9353 -12.9139 -12.8652 -12.8344 -12.7947 -12.6374 -12.6321
   -12.6231 -12.6055 -12.5325 -12.4572 -12.3947 -12.3189 -12.2952 -12.0939
   -12.0461 -11.7702 -11.7482 -11.7417 -11.7262 -11.7083 -11.6673 -11.6042
   -11.5870 -11.5546 -11.5080 -11.4992 -11.4838  -2.5717  -2.5337  -2.3700
    -2.3309  -2.0169  -1.9428  -1.7937  -1.6767  -1.6379  -1.5929  -1.5438
    -1.5196  -1.3958  -1.3519  -1.3359  -1.2558  -1.2191  -1.2069  -1.1770
    -1.1631  -1.1108  -1.0444  -1.0167  -0.9853  -0.8872  -0.8445  -0.7955
    -0.7629  -0.7410  -0.7119  -0.6638  -0.6386  -0.5946  -0.5022  -0.4283
    -0.3635  -0.3029  -0.1175  -0.1031  -0.0462  -0.0113   0.0615   0.0760
     0.2125   0.2429   0.2766   0.4508   0.5494   0.5994   0.6755   0.7704
     0.8703   0.8913   1.0250   1.0423   1.0943   1.1209   1.1582   1.1785
     1.2175   1.2436   1.3139   1.3568   1.4042   1.4119   1.7208   1.7252
     1.7434   1.7850   1.8732   1.8861   1.9022   1.9106   1.9335   1.9509
     1.9913   2.0063   2.0371   2.0865   2.1040   2.1537   2.1817   2.2314
     2.3341   2.4227   2.4512   2.5067   2.5133   2.5331   2.6128   2.6353
     2.6671   2.7324   2.7413   2.7483   2.7768   2.8459   2.8930   2.9363
     2.9684   3.0083   3.0130   3.0143   3.0261   3.0403   3.0521   3.0668
     3.0703   3.0945   3.0966   3.1184   3.1381   3.1437   3.2735   3.2800
     4.0692   4.1412   4.2128   4.3449   4.8019   4.8806   5.0498   5.0582
     5.4917   5.5158   5.6078   5.6650   6.0415   6.0473   6.2488   6.5156
     6.8027   7.0085   7.2787   7.3052   7.3425   7.4407   7.7680   7.7880
     7.8940   7.9254   8.1820   8.3433   8.4203   8.4555   8.5253   8.6482
     8.7687   8.8106   8.9329

     occupation numbers 
     1.0000   1.0000   1.0000   1.0000   1.0000   1.0000   1.0000   1.0000
     1.0000   1.0000   1.0000   1.0000   1.0000   1.0000   1.0000   1.0000
     1.0000   1.0000   1.0000   1.0000   1.0000   1.0000   1.0000   1.0000
     1.0000   1.0000   1.0000   1.0000   1.0000   1.0000   1.0000   1.0000
     1.0000   1.0000   1.0000   1.0000   1.0000   1.0000   1.0000   1.0000
     1.0000   1.0000   1.0000   1.0000   1.0000   1.0000   1.0000   1.0000
     1.0000   1.0000   1.0000   1.0000   1.0000   1.0000   1.0000   1.0000
     1.0000   1.0000   1.0000   1.0000   1.0000   1.0000   1.0000   1.0000
     1.0000   1.0000   1.0000   1.0000   1.0000   1.0000   1.0000   1.0000
     1.0000   1.0000   1.0000   1.0000   1.0000   1.0000   1.0000   1.0000
     1.0000   1.0000   1.0000   1.0000   1.0000   1.0000   1.0000   1.0000
     1.0000   1.0000   1.0000   1.0000   1.0000   1.0000   1.0000   1.0000
     1.0000   1.0000   1.0000   1.0000   1.0000   1.0000   1.0000   1.0000
     1.0000   1.0000   1.0000   1.0000   1.0000   1.0000   1.0000   1.0000
     1.0000   1.0000   1.0000   1.0000   1.0000   1.0000   1.0000   1.0000
     1.0000   1.0000   1.0000   1.0000   1.0000   1.0000   1.0000   1.0000
     1.0000   1.0000   1.0000   1.0000   1.0000   1.0000   1.0000   1.0000
     1.0000   1.0000   1.0000   1.0000   1.0000   1.0000   1.0000   1.0000
     1.0000   1.0000   1.0000   1.0000   1.0000   1.0000   1.0000   1.0000
     1.0000   1.0000   1.0000   1.0000   1.0000   1.0000   1.0000   0.9999
     0.9999   0.9999   0.9997   0.9997   0.9996   0.9995   0.9994   0.9993
     0.9992   0.9991   0.9987   0.9983   0.9979   0.9979   0.9917   0.9916
     0.9910   0.9893   0.9850   0.9843   0.9833   0.9828   0.9813   0.9801
     0.9770   0.9758   0.9731   0.9682   0.9663   0.9603   0.9567   0.9494
     0.9315   0.9123   0.9054   0.8908   0.8889   0.8832   0.8584   0.8507
     0.8395   0.8147   0.8111   0.8083   0.7966   0.7663   0.7444   0.7233
     0.7071   0.6864   0.6839   0.6833   0.6770   0.6694   0.6630   0.6550
     0.6531   0.6397   0.6385   0.6264   0.6152   0.6120   0.5366   0.5328
     0.1379   0.1158   0.0963   0.0669   0.0147   0.0109   0.0055   0.0053
     0.0007   0.0006   0.0004   0.0003   0.0000   0.0000   0.0000   0.0000
     0.0000   0.0000   0.0000   0.0000   0.0000   0.0000   0.0000   0.0000
     0.0000   0.0000   0.0000   0.0000   0.0000   0.0000   0.0000   0.0000
     0.0000   0.0000   0.0000

          k =-0.2500 0.2500 0.0000 ( 65198 PWs)   bands (ev):

   -92.6924 -92.6398 -92.5462 -92.5011 -92.4431 -92.3993 -92.3811 -92.2599
   -56.0459 -56.0266 -55.9035 -55.8930 -55.8864 -55.8799 -55.8434 -55.8154
   -55.7996 -55.7990 -55.7910 -55.7498 -55.7331 -55.6935 -55.6726 -55.6429
   -55.6365 -55.5869 -55.5866 -55.5843 -55.5758 -55.5345 -55.5115 -55.4262
   -31.2680 -31.2519 -31.1206 -31.1084 -31.0221 -30.9130 -30.8987 -30.5167
   -29.8389 -29.7967 -29.7703 -29.6621 -15.0082 -14.9618 -14.8922 -14.7752
   -14.6619 -14.5342 -14.4527 -14.2442 -14.1063 -14.0774 -14.0631 -14.0150
   -13.9905 -13.9704 -13.9655 -13.9499 -13.9082 -13.8265 -13.8154 -13.6636
   -13.6366 -13.6066 -13.5869 -13.5400 -13.4874 -13.4272 -13.4013 -13.2817
   -13.2591 -13.2145 -13.1390 -13.0977 -13.0472 -13.0297 -12.9973 -12.9765
   -12.9388 -12.9187 -12.8978 -12.8633 -12.8219 -12.7889 -12.7621 -12.7438
   -12.6839 -12.5918 -12.4594 -12.4337 -12.4187 -12.3670 -12.2746 -12.0529
   -11.9852 -11.7896 -11.7686 -11.7407 -11.7290 -11.6879 -11.6526 -11.6301
   -11.6087 -11.5863 -11.5002 -11.4558 -11.4463  -2.6567  -2.4487  -2.3276
    -2.2392  -2.1208  -2.0549  -1.8521  -1.7063  -1.6887  -1.6595  -1.5663
    -1.5324  -1.4378  -1.4045  -1.3774  -1.2379  -1.1854  -1.1657  -1.1096
    -1.0795  -1.0217  -1.0012  -0.9615  -0.9328  -0.8922  -0.8297  -0.7805
    -0.7184  -0.6489  -0.6207  -0.5713  -0.5433  -0.4971  -0.4417  -0.3961
    -0.3561  -0.2543  -0.2217  -0.2083  -0.1668  -0.1003  -0.0069   0.0220
     0.0462   0.1296   0.1458   0.4019   0.5710   0.6117   0.6534   0.7212
     0.7685   0.8238   0.8887   0.9120   1.1921   1.3009   1.3427   1.3748
     1.3781   1.4232   1.4394   1.4842   1.5155   1.5289   1.5543   1.6013
     1.6190   1.6555   1.6738   1.7185   1.8257   1.8349   1.8516   1.8964
     1.9181   1.9563   2.0119   2.1170   2.2224   2.2442   2.2904   2.3092
     2.3810   2.4147   2.4305   2.4455   2.4725   2.4903   2.5093   2.5919
     2.6265   2.7159   2.8923   2.9010   2.9143   2.9239   2.9354   2.9497
     2.9555   2.9736   2.9810   2.9968   3.0058   3.0186   3.0278   3.0349
     3.0680   3.0783   3.0873   3.1211   3.4130   3.4949   3.5589   3.6360
     3.6670   3.8480   3.9717   4.3207   4.5232   4.7268   5.0060   5.1706
     5.6597   5.7064   5.7713   5.8432   5.9055   6.0723   6.1767   6.2031
     6.8950   6.9309   7.1026   7.2885   7.5703   7.6189   7.6786   7.8788
     7.8988   7.9908   8.2040   8.2873   8.3252   8.3390   8.4108   8.4578
     8.5675   8.8042   8.9131

     occupation numbers 
     1.0000   1.0000   1.0000   1.0000   1.0000   1.0000   1.0000   1.0000
     1.0000   1.0000   1.0000   1.0000   1.0000   1.0000   1.0000   1.0000
     1.0000   1.0000   1.0000   1.0000   1.0000   1.0000   1.0000   1.0000
     1.0000   1.0000   1.0000   1.0000   1.0000   1.0000   1.0000   1.0000
     1.0000   1.0000   1.0000   1.0000   1.0000   1.0000   1.0000   1.0000
     1.0000   1.0000   1.0000   1.0000   1.0000   1.0000   1.0000   1.0000
     1.0000   1.0000   1.0000   1.0000   1.0000   1.0000   1.0000   1.0000
     1.0000   1.0000   1.0000   1.0000   1.0000   1.0000   1.0000   1.0000
     1.0000   1.0000   1.0000   1.0000   1.0000   1.0000   1.0000   1.0000
     1.0000   1.0000   1.0000   1.0000   1.0000   1.0000   1.0000   1.0000
     1.0000   1.0000   1.0000   1.0000   1.0000   1.0000   1.0000   1.0000
     1.0000   1.0000   1.0000   1.0000   1.0000   1.0000   1.0000   1.0000
     1.0000   1.0000   1.0000   1.0000   1.0000   1.0000   1.0000   1.0000
     1.0000   1.0000   1.0000   1.0000   1.0000   1.0000   1.0000   1.0000
     1.0000   1.0000   1.0000   1.0000   1.0000   1.0000   1.0000   1.0000
     1.0000   1.0000   1.0000   1.0000   1.0000   1.0000   1.0000   1.0000
     1.0000   1.0000   1.0000   1.0000   1.0000   1.0000   1.0000   1.0000
     1.0000   1.0000   1.0000   1.0000   1.0000   1.0000   1.0000   1.0000
     1.0000   1.0000   1.0000   1.0000   1.0000   1.0000   1.0000   1.0000
     1.0000   1.0000   1.0000   1.0000   1.0000   1.0000   1.0000   0.9999
     0.9999   0.9999   0.9999   0.9998   0.9993   0.9987   0.9985   0.9982
     0.9982   0.9977   0.9976   0.9970   0.9966   0.9963   0.9959   0.9950
     0.9946   0.9937   0.9932   0.9918   0.9875   0.9871   0.9862   0.9837
     0.9823   0.9797   0.9753   0.9648   0.9508   0.9474   0.9396   0.9362
     0.9218   0.9142   0.9105   0.9068   0.9000   0.8952   0.8900   0.8652
     0.8537   0.8212   0.7447   0.7405   0.7341   0.7294   0.7237   0.7166
     0.7137   0.7044   0.7006   0.6924   0.6877   0.6810   0.6761   0.6722
     0.6543   0.6487   0.6437   0.6248   0.4541   0.4064   0.3700   0.3277
     0.3112   0.2233   0.1724   0.0717   0.0389   0.0194   0.0066   0.0032
     0.0003   0.0002   0.0001   0.0001   0.0001   0.0000   0.0000   0.0000
     0.0000   0.0000   0.0000   0.0000   0.0000   0.0000   0.0000   0.0000
     0.0000   0.0000   0.0000   0.0000   0.0000   0.0000   0.0000   0.0000
     0.0000   0.0000   0.0000

          k =-0.5000 0.2500 0.0000 ( 65138 PWs)   bands (ev):

   -92.6924 -92.6398 -92.5462 -92.5011 -92.4431 -92.3993 -92.3811 -92.2599
   -56.0459 -56.0266 -55.9035 -55.8930 -55.8864 -55.8799 -55.8434 -55.8154
   -55.7996 -55.7990 -55.7910 -55.7498 -55.7331 -55.6935 -55.6726 -55.6429
   -55.6365 -55.5869 -55.5866 -55.5843 -55.5758 -55.5345 -55.5115 -55.4262
   -31.2658 -31.2541 -31.1204 -31.1080 -31.0225 -30.9130 -30.8988 -30.5168
   -29.8379 -29.7977 -29.7699 -29.6625 -14.9719 -14.9248 -14.8463 -14.7481
   -14.7062 -14.5825 -14.4894 -14.3639 -14.0566 -14.0261 -14.0145 -13.9684
   -13.9662 -13.9464 -13.9205 -13.8848 -13.8801 -13.8531 -13.8160 -13.8059
   -13.6951 -13.6285 -13.5795 -13.5756 -13.5622 -13.4610 -13.4343 -13.3314
   -13.2898 -13.1921 -13.1569 -13.0649 -13.0384 -13.0164 -13.0071 -12.9746
   -12.9412 -12.9304 -12.9031 -12.8616 -12.8044 -12.7999 -12.6860 -12.6624
   -12.6141 -12.6070 -12.5308 -12.4606 -12.3500 -12.3141 -12.2491 -12.0885
   -12.0540 -11.7626 -11.7496 -11.7359 -11.7239 -11.7019 -11.6721 -11.5914
   -11.5821 -11.5600 -11.5225 -11.4952 -11.4864  -2.4291  -2.3879  -2.2395
    -2.1974  -2.0361  -1.9613  -1.8180  -1.6831  -1.6266  -1.5999  -1.5603
    -1.5218  -1.4410  -1.3259  -1.2686  -1.2468  -1.2206  -1.1774  -1.1356
    -1.1140  -1.0748  -1.0585  -0.9977  -0.9673  -0.9302  -0.8949  -0.8658
    -0.8075  -0.7795  -0.7371  -0.7041  -0.6000  -0.5696  -0.4836  -0.4230
    -0.3904  -0.3352  -0.2496  -0.2119  -0.1158  -0.0602  -0.0187   0.0397
     0.0637   0.1365   0.1563   0.1877   0.2406   0.2827   0.5912   0.6850
     0.7183   0.7574   1.0351   1.0837   1.1596   1.1856   1.3603   1.3969
     1.4343   1.4454   1.4639   1.4817   1.5520   1.5949   1.6404   1.6638
     1.8087   1.8349   1.8544   1.8648   1.9193   1.9362   1.9489   1.9634
     1.9834   2.0076   2.0506   2.0623   2.0977   2.1207   2.1585   2.2075
     2.3277   2.4155   2.4458   2.4603   2.4979   2.5328   2.5623   2.6296
     2.6630   2.6683   2.7064   2.7409   2.7624   2.8453   2.8884   2.9020
     2.9067   2.9277   2.9502   2.9625   2.9783   2.9907   3.0123   3.0238
     3.0348   3.0416   3.0522   3.0638   3.5899   3.6499   3.7823   3.8068
     4.0774   4.1679   4.2151   4.4235   4.7961   4.8979   5.0466   5.0867
     5.4144   5.4411   5.5987   5.6337   5.7567   5.7947   6.3410   6.3979
     6.5020   6.6432   7.2673   7.3368   7.5727   7.7206   7.8026   7.8833
     7.9337   8.0341   8.2579   8.4105   8.4916   8.5393   8.5765   8.5901
     8.6761   8.7216   8.7976

     occupation numbers 
     1.0000   1.0000   1.0000   1.0000   1.0000   1.0000   1.0000   1.0000
     1.0000   1.0000   1.0000   1.0000   1.0000   1.0000   1.0000   1.0000
     1.0000   1.0000   1.0000   1.0000   1.0000   1.0000   1.0000   1.0000
     1.0000   1.0000   1.0000   1.0000   1.0000   1.0000   1.0000   1.0000
     1.0000   1.0000   1.0000   1.0000   1.0000   1.0000   1.0000   1.0000
     1.0000   1.0000   1.0000   1.0000   1.0000   1.0000   1.0000   1.0000
     1.0000   1.0000   1.0000   1.0000   1.0000   1.0000   1.0000   1.0000
     1.0000   1.0000   1.0000   1.0000   1.0000   1.0000   1.0000   1.0000
     1.0000   1.0000   1.0000   1.0000   1.0000   1.0000   1.0000   1.0000
     1.0000   1.0000   1.0000   1.0000   1.0000   1.0000   1.0000   1.0000
     1.0000   1.0000   1.0000   1.0000   1.0000   1.0000   1.0000   1.0000
     1.0000   1.0000   1.0000   1.0000   1.0000   1.0000   1.0000   1.0000
     1.0000   1.0000   1.0000   1.0000   1.0000   1.0000   1.0000   1.0000
     1.0000   1.0000   1.0000   1.0000   1.0000   1.0000   1.0000   1.0000
     1.0000   1.0000   1.0000   1.0000   1.0000   1.0000   1.0000   1.0000
     1.0000   1.0000   1.0000   1.0000   1.0000   1.0000   1.0000   1.0000
     1.0000   1.0000   1.0000   1.0000   1.0000   1.0000   1.0000   1.0000
     1.0000   1.0000   1.0000   1.0000   1.0000   1.0000   1.0000   1.0000
     1.0000   1.0000   1.0000   1.0000   1.0000   1.0000   1.0000   1.0000
     1.0000   1.0000   1.0000   1.0000   1.0000   1.0000   1.0000   1.0000
     0.9999   0.9999   0.9997   0.9996   0.9994   0.9993   0.9983   0.9980
     0.9976   0.9975   0.9973   0.9970   0.9960   0.9951   0.9941   0.9935
     0.9883   0.9871   0.9861   0.9855   0.9823   0.9811   0.9802   0.9792
     0.9777   0.9757   0.9718   0.9707   0.9670   0.9644   0.9597   0.9530
     0.9327   0.9140   0.9067   0.9031   0.8932   0.8833   0.8745   0.8527
     0.8409   0.8391   0.8248   0.8113   0.8026   0.7666   0.7466   0.7400
     0.7378   0.7275   0.7163   0.7101   0.7020   0.6956   0.6843   0.6782
     0.6723   0.6687   0.6629   0.6566   0.3527   0.3202   0.2535   0.2420
     0.1353   0.1082   0.0957   0.0531   0.0150   0.0102   0.0055   0.0047
     0.0010   0.0009   0.0004   0.0003   0.0002   0.0001   0.0000   0.0000
     0.0000   0.0000   0.0000   0.0000   0.0000   0.0000   0.0000   0.0000
     0.0000   0.0000   0.0000   0.0000   0.0000   0.0000   0.0000   0.0000
     0.0000   0.0000   0.0000

     the Fermi energy is     3.3354 ev

!    total energy              =   -4441.66317248 Ry
     estimated scf accuracy    <          7.6E-09 Ry
     smearing contrib. (-TS)   =      -1.15475534 Ry
     internal energy E=F+TS    =   -4440.50841714 Ry

     The total energy is F=E-TS. E is the sum of the following terms:
     one-electron contribution =  -20805.47333607 Ry
     hartree contribution      =   10534.86435079 Ry
     xc contribution           =    -694.18480655 Ry
     ewald contribution        =    6800.45463121 Ry
     one-center paw contrib.   =    -276.16925651 Ry
      -> PAW hartree energy AE =      25.10208439 Ry
      -> PAW hartree energy PS =     -24.98665487 Ry
      -> PAW xc energy AE      =     -16.50876551 Ry
      -> PAW xc energy PS      =       6.86783981 Ry
      -> total E_H with PAW    =   10534.97978031 Ry
      -> total E_XC with PAW   =    -703.82573226 Ry

     convergence has been achieved in  45 iterations

     Writing all to output data dir /bsuhome/zayahcortright/scratch/pwscf.save/
 
     init_run     :      7.92s CPU      8.59s WALL (       1 calls)
     electrons    :    724.39s CPU    802.44s WALL (       1 calls)

     Called by init_run:
     wfcinit      :      6.28s CPU      6.49s WALL (       1 calls)
     wfcinit:atom :      0.05s CPU      0.07s WALL (       5 calls)
     wfcinit:wfcr :      5.96s CPU      6.09s WALL (       5 calls)
     potinit      :      0.19s CPU      0.22s WALL (       1 calls)
     hinit0       :      0.54s CPU      0.74s WALL (       1 calls)

     Called by electrons:
     c_bands      :    586.55s CPU    598.52s WALL (      45 calls)
     sum_band     :    101.46s CPU    138.86s WALL (      45 calls)
     v_of_rho     :      5.02s CPU      5.36s WALL (      46 calls)
     v_h          :      0.46s CPU      0.47s WALL (      46 calls)
     v_xc         :      4.55s CPU      4.89s WALL (      46 calls)
     newd         :     17.91s CPU     45.89s WALL (      46 calls)
     PAW_pot      :      1.49s CPU      1.52s WALL (      46 calls)
     mix_rho      :     11.75s CPU     12.11s WALL (      45 calls)

     Called by c_bands:
     init_us_2    :      6.19s CPU      6.27s WALL (     455 calls)
     init_us_2:cp :      6.19s CPU      6.27s WALL (     455 calls)
     cegterg      :    553.82s CPU    565.44s WALL (     225 calls)

     Called by sum_band:
     sum_band:wei :      0.32s CPU      0.33s WALL (      45 calls)
     sum_band:loo :     82.43s CPU     83.05s WALL (      45 calls)
     sum_band:buf :      1.33s CPU      1.39s WALL (     225 calls)
     sum_band:ini :      2.82s CPU      2.83s WALL (     225 calls)
     sum_band:cal :     17.92s CPU     17.97s WALL (     225 calls)
     sum_band:bec :      0.52s CPU      0.54s WALL (     225 calls)
     addusdens    :     16.16s CPU     52.87s WALL (      45 calls)
                                        0.00s GPU  (      45 calls)
     addusd:skk   :      0.30s CPU      1.97s WALL (     180 calls)
                                        0.00s GPU  (     180 calls)

     Called by *egterg:
     cdiaghg      :     55.89s CPU     56.17s WALL (    1229 calls)
     cegterg:over :     46.13s CPU     46.37s WALL (    1004 calls)
     cegterg:upda :     48.05s CPU     49.18s WALL (    1004 calls)
     cegterg:last :     63.52s CPU     63.75s WALL (     402 calls)
     cdiaghg:chol :      3.11s CPU      3.13s WALL (    1229 calls)
     cdiaghg:inve :      3.48s CPU      3.51s WALL (    1229 calls)
     cdiaghg:para :      7.22s CPU      7.27s WALL (    2458 calls)
     h_psi        :    278.59s CPU    283.16s WALL (    1234 calls)
     s_psi        :     36.03s CPU     36.14s WALL (    1234 calls)
     g_psi        :      2.49s CPU      2.50s WALL (    1004 calls)

     Called by h_psi:
     h_psi:calbec :     42.32s CPU     42.55s WALL (    1234 calls)
     vloc_psi     :    194.81s CPU    196.65s WALL (    1234 calls)
     add_vuspsi   :     35.69s CPU     35.89s WALL (    1234 calls)

     General routines
     calbec       :     60.24s CPU     60.52s WALL (    1459 calls)
     fft          :      4.11s CPU      4.16s WALL (     596 calls)
     ffts         :      4.31s CPU      4.36s WALL (    4791 calls)
     fftw         :    170.93s CPU    172.36s WALL (  306549 calls)
     interpolate  :      0.38s CPU      0.39s WALL (      46 calls)
 
     Parallel routines

     PAW routines
     PAW_pot      :      1.49s CPU      1.52s WALL (      46 calls)
 
     PWSCF        :  12m14.22s CPU  13m36.57s WALL

 
   This run was terminated on:  20:48: 9  21Jun2024            

=------------------------------------------------------------------------------=
   JOB DONE.
=------------------------------------------------------------------------------=
