
     Program PWSCF v.7.2 starts on 21Jun2024 at 19:58:32 

     This program is part of the open-source Quantum ESPRESSO suite
     for quantum simulation of materials; please cite
         "P. Giannozzi et al., J. Phys.:Condens. Matter 21 395502 (2009);
         "P. Giannozzi et al., J. Phys.:Condens. Matter 29 465901 (2017);
         "P. Giannozzi et al., J. Chem. Phys. 152 154105 (2020);
          URL http://www.quantum-espresso.org", 
     in publications or presentations arising from this work. More details at
     http://www.quantum-espresso.org/quote

     Parallel version (MPI & OpenMP), running on      48 processor cores
     Number of MPI processes:                48
     Threads/MPI process:                     1

     MPI processes distributed on     1 nodes
     60583 MiB available memory on the printing compute node when the environment starts
 
     Reading input from espresso.pwi
Warning: card &CELL ignored
Warning: card / ignored
Warning: card &FCP ignored
Warning: card / ignored
Warning: card &RISM ignored
Warning: card / ignored

     Current dimensions of program PWSCF are:
     Max number of different atomic species (ntypx) = 10
     Max number of k-points (npk) =  40000
     Max angular momentum in pseudopotentials (lmaxx) =  4
     file O.pbe-n-kjpaw_psl.0.1.UPF: wavefunction(s)  2P renormalized
     signal trapping enabled: kill the code with -SIGUSR1 to stop cleanly the simulation 
 
     K-points division:     npool     =       2
     R & G space division:  proc/nbgrp/npool/nimage =      24
     Subspace diagonalization in iterative solution of the eigenvalue problem:
     one sub-group per band group will be used
     scalapack distributed-memory algorithm (size of sub-group:  3*  3 procs)

 
     Parallelization info
     --------------------
     sticks:   dense  smooth     PW     G-vecs:    dense   smooth      PW
     Min         350     175     47                61430    21716    3036
     Max         351     177     48                61449    21727    3041
     Sum        8421    4205   1137              1474595   521381   72913
 
     Using Slab Decomposition
 


     bravais-lattice index     =            0
     lattice parameter (alat)  =      14.8599  a.u.
     unit-cell volume          =    8305.1283 (a.u.)^3
     number of atoms/cell      =           49
     number of atomic types    =            3
     number of electrons       =       430.00
     number of Kohn-Sham states=          258
     kinetic-energy cutoff     =      60.0000  Ry
     charge density cutoff     =     480.0000  Ry
     scf convergence threshold =      1.0E-08
     mixing beta               =       0.1500
     number of iterations used =            8  local-TF  mixing
     Exchange-correlation= SLA  PW   PBE  PBE
                           (   1   4   3   4   0   0   0)

     celldm(1)=  14.859904  celldm(2)=   0.000000  celldm(3)=   0.000000
     celldm(4)=   0.000000  celldm(5)=   0.000000  celldm(6)=   0.000000

     crystal axes: (cart. coord. in units of alat)
               a(1) = (   1.000000   0.000000   0.000000 )  
               a(2) = (   0.000000   1.000000   0.000000 )  
               a(3) = (   0.000000   0.000000   2.531036 )  

     reciprocal axes: (cart. coord. in units 2 pi/alat)
               b(1) = (  1.000000  0.000000  0.000000 )  
               b(2) = (  0.000000  1.000000  0.000000 )  
               b(3) = (  0.000000  0.000000  0.395095 )  


     PseudoPot. # 1 for Sr read from file:
     /bsuhome/zayahcortright/q-e/pseudo/Sr_pbe_v1.uspp.F.UPF
     MD5 check sum: 6b418c05fbe9db5448babca5e47b7a5b
     Pseudo is Ultrasoft + core correction, Zval = 10.0
     Generated by new atomic code, or converted to UPF format
     Using radial grid of  883 points,  6 beta functions with: 
                l(1) =   0
                l(2) =   0
                l(3) =   1
                l(4) =   1
                l(5) =   2
                l(6) =   2
     Q(r) pseudized with  6 coefficients,  rinner =    1.400   1.400   1.400
                                                       1.400   1.400

     PseudoPot. # 2 for O  read from file:
     /bsuhome/zayahcortright/q-e/pseudo/O.pbe-n-kjpaw_psl.0.1.UPF
     MD5 check sum: 0234752ac141de4415c5fc33072bef88
     Pseudo is Projector augmented-wave + core cor, Zval =  6.0
     Generated using "atomic" code by A. Dal Corso  v.5.0.99 svn rev. 10869
     Shape of augmentation charge: BESSEL
     Using radial grid of 1095 points,  4 beta functions with: 
                l(1) =   0
                l(2) =   0
                l(3) =   1
                l(4) =   1
     Q(r) pseudized with 0 coefficients 


     PseudoPot. # 3 for Co read from file:
     /bsuhome/zayahcortright/q-e/pseudo/Co_pbe_v1.2.uspp.F.UPF
     MD5 check sum: 5f91765df6ddd3222702df6e7b74a16d
     Pseudo is Ultrasoft + core correction, Zval = 17.0
     Generated by new atomic code, or converted to UPF format
     Using radial grid of  863 points,  6 beta functions with: 
                l(1) =   0
                l(2) =   0
                l(3) =   1
                l(4) =   1
                l(5) =   2
                l(6) =   2
     Q(r) pseudized with  8 coefficients,  rinner =    1.200   1.200   1.200
                                                       1.200   1.200

     atomic species   valence    mass     pseudopotential
        Sr            10.00    87.62000     Sr( 1.00)
        O              6.00    15.99900     O ( 1.00)
        Co            17.00    58.93319     Co( 1.00)

     No symmetry found


                                    s                        frac. trans.

      isym =  1     identity                                     

 cryst.   s( 1) = (     1          0          0      )
                  (     0          1          0      )
                  (     0          0          1      )

 cart.    s( 1) = (  1.0000000  0.0000000  0.0000000 )
                  (  0.0000000  1.0000000  0.0000000 )
                  (  0.0000000  0.0000000  1.0000000 )


   Cartesian axes

     site n.     atom                  positions (alat units)
         1           Sr  tau(   1) = (   0.2508693   0.7491307   1.7574407  )
         2           O   tau(   2) = (   0.4985141   0.5014859   1.7715967  )
         3           Sr  tau(   3) = (   0.7482398   0.7454518   1.7648669  )
         4           Sr  tau(   4) = (   0.7441748   0.2558252   1.7667843  )
         5           Sr  tau(   5) = (   0.2508693   0.7491307   1.2696799  )
         6           Sr  tau(   6) = (   0.2508693   0.7491307   0.7632319  )
         7           Co  tau(   7) = (   0.4998914   0.5001086   1.0164559  )
         8           Co  tau(   8) = (   0.4936915   0.5063085   1.5135603  )
         9           O   tau(   9) = (   0.4988895   0.7610401   1.0164559  )
        10           O   tau(  10) = (   0.2389599   0.5011105   1.0164559  )
        11           O   tau(  11) = (   0.0070918   0.7374880   1.0164559  )
        12           O   tau(  12) = (   0.0088340   0.7405089   1.5135603  )
        13           O   tau(  13) = (   0.5066944   0.7415376   1.5135603  )
        14           O   tau(  14) = (   0.2584624   0.4933056   1.5135603  )
        15           O   tau(  15) = (   0.4985141   0.5014859   0.7773880  )
        16           O   tau(  16) = (   0.4985141   0.5014859   1.2555238  )
        17           Sr  tau(  17) = (   0.7482398   0.7454518   0.7706582  )
        18           Sr  tau(  18) = (   0.7482398   0.7454518   1.2622536  )
        19           Sr  tau(  19) = (   0.7441748   0.2558252   0.7725755  )
        20           Sr  tau(  20) = (   0.7441748   0.2558252   1.2603363  )
        21           O   tau(  21) = (   0.7322655   0.0078049   1.5135603  )
        22           O   tau(  22) = (   0.7558175   0.4996027   1.5135603  )
        23           O   tau(  23) = (   0.5003973   0.2441825   1.5135603  )
        24           O   tau(  24) = (   0.7527966   0.4978604   1.0164559  )
        25           O   tau(  25) = (   0.5021396   0.2472034   1.0164559  )
        26           O   tau(  26) = (   0.7517679   0.0000000   1.0164559  )
        27           O   tau(  27) = (   0.0114961   0.4948124   1.7455321  )
        28           O   tau(  28) = (   0.0048226   0.0077944   1.7715967  )
        29           Sr  tau(  29) = (   0.2545482   0.2517602   1.7648669  )
        30           O   tau(  30) = (   0.5048017   0.0015068   1.7786929  )
        31           Co  tau(  31) = (   0.0056869   0.5006215   1.0164559  )
        32           Co  tau(  32) = (   0.0065315   0.4997770   1.5135603  )
        33           Co  tau(  33) = (   0.0061999   0.0064171   1.0164559  )
        34           Co  tau(  34) = (   0.0000000   0.0126169   1.5135603  )
        35           O   tau(  35) = (   0.0114961   0.4948124   1.2815885  )
        36           O   tau(  36) = (   0.0114961   0.4948124   0.7513233  )
        37           O   tau(  37) = (   0.0051979   0.2673486   1.0164559  )
        38           O   tau(  38) = (   0.0130029   0.2478461   1.5135603  )
        39           O   tau(  39) = (   0.0048226   0.0077944   0.7773880  )
        40           O   tau(  40) = (   0.0048226   0.0077944   1.2555238  )
        41           Sr  tau(  41) = (   0.2545482   0.2517602   0.7706582  )
        42           Sr  tau(  42) = (   0.2545482   0.2517602   1.2622536  )
        43           Co  tau(  43) = (   0.4989925   0.0073160   1.5135603  )
        44           Co  tau(  44) = (   0.4998370   0.0064714   1.0164559  )
        45           O   tau(  45) = (   0.5048017   0.0015068   0.7844841  )
        46           O   tau(  46) = (   0.5048017   0.0015068   1.2484277  )
        47           O   tau(  47) = (   0.2621260   0.0059111   1.5135603  )
        48           O   tau(  48) = (   0.2591051   0.0041689   1.0164559  )
        49           O   tau(  49) = (   0.4264937   0.4264937   2.1602013  )

   Crystallographic axes

     site n.     atom                  positions (cryst. coord.)
         1           Sr  tau(   1) = (  0.2508693  0.7491307  0.6943562  )
         2           O   tau(   2) = (  0.4985141  0.5014859  0.6999492  )
         3           Sr  tau(   3) = (  0.7482398  0.7454518  0.6972903  )
         4           Sr  tau(   4) = (  0.7441748  0.2558252  0.6980478  )
         5           Sr  tau(   5) = (  0.2508693  0.7491307  0.5016443  )
         6           Sr  tau(   6) = (  0.2508693  0.7491307  0.3015492  )
         7           Co  tau(   7) = (  0.4998914  0.5001086  0.4015968  )
         8           Co  tau(   8) = (  0.4936915  0.5063085  0.5980003  )
         9           O   tau(   9) = (  0.4988895  0.7610401  0.4015968  )
        10           O   tau(  10) = (  0.2389599  0.5011105  0.4015968  )
        11           O   tau(  11) = (  0.0070918  0.7374880  0.4015968  )
        12           O   tau(  12) = (  0.0088340  0.7405089  0.5980003  )
        13           O   tau(  13) = (  0.5066944  0.7415376  0.5980003  )
        14           O   tau(  14) = (  0.2584624  0.4933056  0.5980003  )
        15           O   tau(  15) = (  0.4985141  0.5014859  0.3071422  )
        16           O   tau(  16) = (  0.4985141  0.5014859  0.4960513  )
        17           Sr  tau(  17) = (  0.7482398  0.7454518  0.3044833  )
        18           Sr  tau(  18) = (  0.7482398  0.7454518  0.4987103  )
        19           Sr  tau(  19) = (  0.7441748  0.2558252  0.3052408  )
        20           Sr  tau(  20) = (  0.7441748  0.2558252  0.4979527  )
        21           O   tau(  21) = (  0.7322655  0.0078049  0.5980003  )
        22           O   tau(  22) = (  0.7558175  0.4996027  0.5980003  )
        23           O   tau(  23) = (  0.5003973  0.2441825  0.5980003  )
        24           O   tau(  24) = (  0.7527966  0.4978604  0.4015968  )
        25           O   tau(  25) = (  0.5021396  0.2472034  0.4015968  )
        26           O   tau(  26) = (  0.7517679  0.0000000  0.4015968  )
        27           O   tau(  27) = (  0.0114961  0.4948124  0.6896512  )
        28           O   tau(  28) = (  0.0048226  0.0077944  0.6999492  )
        29           Sr  tau(  29) = (  0.2545482  0.2517602  0.6972903  )
        30           O   tau(  30) = (  0.5048017  0.0015068  0.7027529  )
        31           Co  tau(  31) = (  0.0056869  0.5006215  0.4015968  )
        32           Co  tau(  32) = (  0.0065315  0.4997770  0.5980003  )
        33           Co  tau(  33) = (  0.0061999  0.0064171  0.4015968  )
        34           Co  tau(  34) = (  0.0000000  0.0126169  0.5980003  )
        35           O   tau(  35) = (  0.0114961  0.4948124  0.5063494  )
        36           O   tau(  36) = (  0.0114961  0.4948124  0.2968442  )
        37           O   tau(  37) = (  0.0051979  0.2673486  0.4015968  )
        38           O   tau(  38) = (  0.0130029  0.2478461  0.5980003  )
        39           O   tau(  39) = (  0.0048226  0.0077944  0.3071422  )
        40           O   tau(  40) = (  0.0048226  0.0077944  0.4960513  )
        41           Sr  tau(  41) = (  0.2545482  0.2517602  0.3044833  )
        42           Sr  tau(  42) = (  0.2545482  0.2517602  0.4987103  )
        43           Co  tau(  43) = (  0.4989925  0.0073160  0.5980003  )
        44           Co  tau(  44) = (  0.4998370  0.0064714  0.4015968  )
        45           O   tau(  45) = (  0.5048017  0.0015068  0.3099459  )
        46           O   tau(  46) = (  0.5048017  0.0015068  0.4932477  )
        47           O   tau(  47) = (  0.2621260  0.0059111  0.5980003  )
        48           O   tau(  48) = (  0.2591051  0.0041689  0.4015968  )
        49           O   tau(  49) = (  0.4264937  0.4264937  0.8534850  )

     number of k points=    10  Gaussian smearing, width (Ry)=  0.0700
                       cart. coord. in units 2pi/alat
        k(    1) = (   0.0000000   0.0000000   0.0000000), wk =   0.1250000
        k(    2) = (   0.0000000   0.2500000   0.0000000), wk =   0.2500000
        k(    3) = (   0.0000000  -0.5000000   0.0000000), wk =   0.1250000
        k(    4) = (   0.2500000   0.2500000   0.0000000), wk =   0.2500000
        k(    5) = (   0.2500000  -0.5000000   0.0000000), wk =   0.2500000
        k(    6) = (  -0.5000000  -0.5000000   0.0000000), wk =   0.1250000
        k(    7) = (   0.2500000   0.0000000   0.0000000), wk =   0.2500000
        k(    8) = (  -0.5000000   0.0000000   0.0000000), wk =   0.1250000
        k(    9) = (  -0.2500000   0.2500000   0.0000000), wk =   0.2500000
        k(   10) = (  -0.5000000   0.2500000   0.0000000), wk =   0.2500000

                       cryst. coord.
        k(    1) = (   0.0000000   0.0000000   0.0000000), wk =   0.1250000
        k(    2) = (   0.0000000   0.2500000   0.0000000), wk =   0.2500000
        k(    3) = (   0.0000000  -0.5000000   0.0000000), wk =   0.1250000
        k(    4) = (   0.2500000   0.2500000   0.0000000), wk =   0.2500000
        k(    5) = (   0.2500000  -0.5000000   0.0000000), wk =   0.2500000
        k(    6) = (  -0.5000000  -0.5000000   0.0000000), wk =   0.1250000
        k(    7) = (   0.2500000   0.0000000   0.0000000), wk =   0.2500000
        k(    8) = (  -0.5000000   0.0000000   0.0000000), wk =   0.1250000
        k(    9) = (  -0.2500000   0.2500000   0.0000000), wk =   0.2500000
        k(   10) = (  -0.5000000   0.2500000   0.0000000), wk =   0.2500000

     Dense  grid:  1474595 G-vectors     FFT dimensions: ( 108, 108, 270)

     Smooth grid:   521381 G-vectors     FFT dimensions: (  75,  75, 192)

     Dynamical RAM for                 wfc:      10.69 MB

     Dynamical RAM for     wfc (w. buffer):      64.13 MB

     Dynamical RAM for           str. fact:       2.81 MB

     Dynamical RAM for           local pot:       0.00 MB

     Dynamical RAM for          nlocal pot:      24.53 MB

     Dynamical RAM for                qrad:       5.27 MB

     Dynamical RAM for          rho,v,vnew:       6.02 MB

     Dynamical RAM for               rhoin:       2.01 MB

     Dynamical RAM for            rho*nmix:      15.00 MB

     Dynamical RAM for           G-vectors:       3.68 MB

     Dynamical RAM for          h,s,v(r/c):       1.35 MB

     Dynamical RAM for          <psi|beta>:       2.33 MB

     Dynamical RAM for                 psi:      21.38 MB

     Dynamical RAM for                hpsi:      21.38 MB

     Dynamical RAM for                spsi:      21.38 MB

     Dynamical RAM for      wfcinit/wfcrot:      34.39 MB

     Dynamical RAM for           addusdens:     101.26 MB

     Estimated static dynamical RAM per process >     117.53 MB

     Estimated max dynamical RAM per process >     233.79 MB

     Estimated total dynamical RAM >      10.61 GB

     Check: negative core charge=   -0.000004

     Initial potential from superposition of free atoms

     starting charge     421.5961, renormalised to     430.0000

     negative rho (up, down):  7.826E-01 0.000E+00
     Starting wfcs are  376 randomized atomic wfcs
     Checking if some PAW data can be deallocated... 
       PAW data deallocated on   19 nodes for type:  2

     total cpu time spent up to now is        8.8 secs

     Self-consistent Calculation

     iteration #  1     ecut=    60.00 Ry     beta= 0.15
     Davidson diagonalization with overlap

---- Real-time Memory Report at c_bands before calling an iterative solver
             0 MiB given to the printing process from OS
             0 MiB allocation reported by mallinfo(arena+hblkhd)
         51483 MiB available memory on the node where the printing process lives
------------------
     ethr =  1.00E-02,  avg # of iterations =  2.0

     negative rho (up, down):  7.717E-01 0.000E+00

     total cpu time spent up to now is       24.4 secs

     total energy              =   -4445.24842808 Ry
     estimated scf accuracy    <      54.02414218 Ry

     iteration #  2     ecut=    60.00 Ry     beta= 0.15
     Davidson diagonalization with overlap

---- Real-time Memory Report at c_bands before calling an iterative solver
             0 MiB given to the printing process from OS
             0 MiB allocation reported by mallinfo(arena+hblkhd)
         51857 MiB available memory on the node where the printing process lives
------------------
     ethr =  1.00E-02,  avg # of iterations =  1.0

     negative rho (up, down):  7.587E-01 0.000E+00

     total cpu time spent up to now is       37.2 secs

     total energy              =   -4441.82818437 Ry
     estimated scf accuracy    <      28.66198846 Ry

     iteration #  3     ecut=    60.00 Ry     beta= 0.15
     Davidson diagonalization with overlap

---- Real-time Memory Report at c_bands before calling an iterative solver
             0 MiB given to the printing process from OS
             0 MiB allocation reported by mallinfo(arena+hblkhd)
         51093 MiB available memory on the node where the printing process lives
------------------
     ethr =  6.67E-03,  avg # of iterations =  1.0

     negative rho (up, down):  7.533E-01 0.000E+00

     total cpu time spent up to now is       50.0 secs

     total energy              =   -4442.64499736 Ry
     estimated scf accuracy    <      28.86165852 Ry

     iteration #  4     ecut=    60.00 Ry     beta= 0.15
     Davidson diagonalization with overlap

---- Real-time Memory Report at c_bands before calling an iterative solver
             0 MiB given to the printing process from OS
             0 MiB allocation reported by mallinfo(arena+hblkhd)
         51046 MiB available memory on the node where the printing process lives
------------------
     ethr =  6.67E-03,  avg # of iterations =  1.0

     negative rho (up, down):  7.539E-01 0.000E+00

     total cpu time spent up to now is       62.7 secs

     total energy              =   -4442.44506167 Ry
     estimated scf accuracy    <      26.47768153 Ry

     iteration #  5     ecut=    60.00 Ry     beta= 0.15
     Davidson diagonalization with overlap

---- Real-time Memory Report at c_bands before calling an iterative solver
             0 MiB given to the printing process from OS
             0 MiB allocation reported by mallinfo(arena+hblkhd)
         51016 MiB available memory on the node where the printing process lives
------------------
     ethr =  6.16E-03,  avg # of iterations =  1.0

     negative rho (up, down):  7.359E-01 0.000E+00

     total cpu time spent up to now is       75.3 secs

     total energy              =   -4441.13517654 Ry
     estimated scf accuracy    <      18.56648747 Ry

     iteration #  6     ecut=    60.00 Ry     beta= 0.15
     Davidson diagonalization with overlap

---- Real-time Memory Report at c_bands before calling an iterative solver
             0 MiB given to the printing process from OS
             0 MiB allocation reported by mallinfo(arena+hblkhd)
         51001 MiB available memory on the node where the printing process lives
------------------
     ethr =  4.32E-03,  avg # of iterations =  2.0

     negative rho (up, down):  7.373E-01 0.000E+00

     total cpu time spent up to now is       89.7 secs

     total energy              =   -4444.68270584 Ry
     estimated scf accuracy    <      69.83538574 Ry

     iteration #  7     ecut=    60.00 Ry     beta= 0.15
     Davidson diagonalization with overlap

---- Real-time Memory Report at c_bands before calling an iterative solver
             0 MiB given to the printing process from OS
             0 MiB allocation reported by mallinfo(arena+hblkhd)
         50971 MiB available memory on the node where the printing process lives
------------------
     ethr =  4.32E-03,  avg # of iterations =  1.0

     negative rho (up, down):  7.371E-01 0.000E+00

     total cpu time spent up to now is      102.1 secs

     total energy              =   -4444.86641920 Ry
     estimated scf accuracy    <      69.33935263 Ry

     iteration #  8     ecut=    60.00 Ry     beta= 0.15
     Davidson diagonalization with overlap

---- Real-time Memory Report at c_bands before calling an iterative solver
             0 MiB given to the printing process from OS
             0 MiB allocation reported by mallinfo(arena+hblkhd)
         50965 MiB available memory on the node where the printing process lives
------------------
     ethr =  4.32E-03,  avg # of iterations =  1.0

     negative rho (up, down):  7.437E-01 0.000E+00

     total cpu time spent up to now is      114.6 secs

     total energy              =   -4442.58482509 Ry
     estimated scf accuracy    <      72.86210262 Ry

     iteration #  9     ecut=    60.00 Ry     beta= 0.15
     Davidson diagonalization with overlap

---- Real-time Memory Report at c_bands before calling an iterative solver
             0 MiB given to the printing process from OS
             0 MiB allocation reported by mallinfo(arena+hblkhd)
         50954 MiB available memory on the node where the printing process lives
------------------
     ethr =  4.32E-03,  avg # of iterations =  1.0

     negative rho (up, down):  7.676E-01 0.000E+00

     total cpu time spent up to now is      127.0 secs

     total energy              =   -4438.48590081 Ry
     estimated scf accuracy    <      31.62153565 Ry

     iteration # 10     ecut=    60.00 Ry     beta= 0.15
     Davidson diagonalization with overlap

---- Real-time Memory Report at c_bands before calling an iterative solver
             0 MiB given to the printing process from OS
             0 MiB allocation reported by mallinfo(arena+hblkhd)
         50918 MiB available memory on the node where the printing process lives
------------------
     ethr =  4.32E-03,  avg # of iterations =  2.0

     negative rho (up, down):  7.614E-01 0.000E+00

     total cpu time spent up to now is      141.3 secs

     total energy              =   -4440.79920687 Ry
     estimated scf accuracy    <      14.05060843 Ry

     iteration # 11     ecut=    60.00 Ry     beta= 0.15
     Davidson diagonalization with overlap

---- Real-time Memory Report at c_bands before calling an iterative solver
             0 MiB given to the printing process from OS
             0 MiB allocation reported by mallinfo(arena+hblkhd)
         50897 MiB available memory on the node where the printing process lives
------------------
     ethr =  3.27E-03,  avg # of iterations =  1.2

     negative rho (up, down):  7.640E-01 0.000E+00

     total cpu time spent up to now is      154.1 secs

     total energy              =   -4440.80270207 Ry
     estimated scf accuracy    <       4.87622736 Ry

     iteration # 12     ecut=    60.00 Ry     beta= 0.15
     Davidson diagonalization with overlap

---- Real-time Memory Report at c_bands before calling an iterative solver
             0 MiB given to the printing process from OS
             0 MiB allocation reported by mallinfo(arena+hblkhd)
         50897 MiB available memory on the node where the printing process lives
------------------
     ethr =  1.13E-03,  avg # of iterations =  2.5

     negative rho (up, down):  7.744E-01 0.000E+00

     total cpu time spent up to now is      168.2 secs

     total energy              =   -4440.25079874 Ry
     estimated scf accuracy    <       3.30366842 Ry

     iteration # 13     ecut=    60.00 Ry     beta= 0.15
     Davidson diagonalization with overlap

---- Real-time Memory Report at c_bands before calling an iterative solver
             0 MiB given to the printing process from OS
             0 MiB allocation reported by mallinfo(arena+hblkhd)
         50876 MiB available memory on the node where the printing process lives
------------------
     ethr =  7.68E-04,  avg # of iterations = 11.1

     negative rho (up, down):  7.707E-01 0.000E+00

     total cpu time spent up to now is      186.6 secs

     total energy              =   -4440.53474321 Ry
     estimated scf accuracy    <      19.13786828 Ry

     iteration # 14     ecut=    60.00 Ry     beta= 0.15
     Davidson diagonalization with overlap

---- Real-time Memory Report at c_bands before calling an iterative solver
             0 MiB given to the printing process from OS
             0 MiB allocation reported by mallinfo(arena+hblkhd)
         50557 MiB available memory on the node where the printing process lives
------------------
     ethr =  7.68E-04,  avg # of iterations =  2.3

     negative rho (up, down):  7.816E-01 0.000E+00

     total cpu time spent up to now is      200.8 secs

     total energy              =   -4440.42938651 Ry
     estimated scf accuracy    <       4.42662814 Ry

     iteration # 15     ecut=    60.00 Ry     beta= 0.15
     Davidson diagonalization with overlap

---- Real-time Memory Report at c_bands before calling an iterative solver
             0 MiB given to the printing process from OS
             0 MiB allocation reported by mallinfo(arena+hblkhd)
         50532 MiB available memory on the node where the printing process lives
------------------
     ethr =  7.68E-04,  avg # of iterations =  1.0

     negative rho (up, down):  7.848E-01 0.000E+00

     total cpu time spent up to now is      213.5 secs

     total energy              =   -4440.55661125 Ry
     estimated scf accuracy    <       5.46930361 Ry

     iteration # 16     ecut=    60.00 Ry     beta= 0.15
     Davidson diagonalization with overlap

---- Real-time Memory Report at c_bands before calling an iterative solver
             0 MiB given to the printing process from OS
             0 MiB allocation reported by mallinfo(arena+hblkhd)
         50539 MiB available memory on the node where the printing process lives
------------------
     ethr =  7.68E-04,  avg # of iterations =  2.2

     negative rho (up, down):  7.937E-01 0.000E+00

     total cpu time spent up to now is      227.0 secs

     total energy              =   -4440.36440610 Ry
     estimated scf accuracy    <       4.67247266 Ry

     iteration # 17     ecut=    60.00 Ry     beta= 0.15
     Davidson diagonalization with overlap

---- Real-time Memory Report at c_bands before calling an iterative solver
             0 MiB given to the printing process from OS
             0 MiB allocation reported by mallinfo(arena+hblkhd)
         50544 MiB available memory on the node where the printing process lives
------------------
     ethr =  7.68E-04,  avg # of iterations =  2.3

     negative rho (up, down):  8.039E-01 0.000E+00

     total cpu time spent up to now is      240.8 secs

     total energy              =   -4440.43765777 Ry
     estimated scf accuracy    <       0.61810067 Ry

     iteration # 18     ecut=    60.00 Ry     beta= 0.15
     Davidson diagonalization with overlap

---- Real-time Memory Report at c_bands before calling an iterative solver
             0 MiB given to the printing process from OS
             0 MiB allocation reported by mallinfo(arena+hblkhd)
         50541 MiB available memory on the node where the printing process lives
------------------
     ethr =  1.44E-04,  avg # of iterations = 13.3

     negative rho (up, down):  8.166E-01 0.000E+00

     total cpu time spent up to now is      260.5 secs

     total energy              =   -4440.40983467 Ry
     estimated scf accuracy    <       0.75124661 Ry

     iteration # 19     ecut=    60.00 Ry     beta= 0.15
     Davidson diagonalization with overlap

---- Real-time Memory Report at c_bands before calling an iterative solver
             0 MiB given to the printing process from OS
             0 MiB allocation reported by mallinfo(arena+hblkhd)
         50421 MiB available memory on the node where the printing process lives
------------------
     ethr =  1.44E-04,  avg # of iterations =  2.2

     negative rho (up, down):  8.204E-01 0.000E+00

     total cpu time spent up to now is      274.5 secs

     total energy              =   -4440.41272729 Ry
     estimated scf accuracy    <       4.27605716 Ry

     iteration # 20     ecut=    60.00 Ry     beta= 0.15
     Davidson diagonalization with overlap

---- Real-time Memory Report at c_bands before calling an iterative solver
             0 MiB given to the printing process from OS
             0 MiB allocation reported by mallinfo(arena+hblkhd)
         50423 MiB available memory on the node where the printing process lives
------------------
     ethr =  1.44E-04,  avg # of iterations =  2.0

     negative rho (up, down):  8.159E-01 0.000E+00

     total cpu time spent up to now is      289.0 secs

     total energy              =   -4440.40293743 Ry
     estimated scf accuracy    <       2.00231270 Ry

     iteration # 21     ecut=    60.00 Ry     beta= 0.15
     Davidson diagonalization with overlap

---- Real-time Memory Report at c_bands before calling an iterative solver
             0 MiB given to the printing process from OS
             0 MiB allocation reported by mallinfo(arena+hblkhd)
         50428 MiB available memory on the node where the printing process lives
------------------
     ethr =  1.44E-04,  avg # of iterations =  1.0

     negative rho (up, down):  8.075E-01 0.000E+00

     total cpu time spent up to now is      302.0 secs

     total energy              =   -4440.34685140 Ry
     estimated scf accuracy    <       1.20434752 Ry

     iteration # 22     ecut=    60.00 Ry     beta= 0.15
     Davidson diagonalization with overlap

---- Real-time Memory Report at c_bands before calling an iterative solver
             0 MiB given to the printing process from OS
             0 MiB allocation reported by mallinfo(arena+hblkhd)
         50429 MiB available memory on the node where the printing process lives
------------------
     ethr =  1.44E-04,  avg # of iterations =  4.2

     negative rho (up, down):  8.054E-01 0.000E+00

     total cpu time spent up to now is      317.3 secs

     total energy              =   -4440.35525157 Ry
     estimated scf accuracy    <       0.45895547 Ry

     iteration # 23     ecut=    60.00 Ry     beta= 0.15
     Davidson diagonalization with overlap

---- Real-time Memory Report at c_bands before calling an iterative solver
             0 MiB given to the printing process from OS
             0 MiB allocation reported by mallinfo(arena+hblkhd)
         50474 MiB available memory on the node where the printing process lives
------------------
     ethr =  1.07E-04,  avg # of iterations =  1.4

     negative rho (up, down):  8.073E-01 0.000E+00

     total cpu time spent up to now is      331.5 secs

     total energy              =   -4440.32123208 Ry
     estimated scf accuracy    <       0.33681441 Ry

     iteration # 24     ecut=    60.00 Ry     beta= 0.15
     Davidson diagonalization with overlap

---- Real-time Memory Report at c_bands before calling an iterative solver
             0 MiB given to the printing process from OS
             0 MiB allocation reported by mallinfo(arena+hblkhd)
         50454 MiB available memory on the node where the printing process lives
------------------
     ethr =  7.83E-05,  avg # of iterations = 10.8

     negative rho (up, down):  8.174E-01 0.000E+00

     total cpu time spent up to now is      349.4 secs

     total energy              =   -4440.30786556 Ry
     estimated scf accuracy    <       0.15844538 Ry

     iteration # 25     ecut=    60.00 Ry     beta= 0.15
     Davidson diagonalization with overlap

---- Real-time Memory Report at c_bands before calling an iterative solver
             0 MiB given to the printing process from OS
             0 MiB allocation reported by mallinfo(arena+hblkhd)
         50447 MiB available memory on the node where the printing process lives
------------------
     ethr =  3.68E-05,  avg # of iterations =  8.3

     negative rho (up, down):  8.100E-01 0.000E+00

     total cpu time spent up to now is      366.2 secs

     total energy              =   -4440.30629809 Ry
     estimated scf accuracy    <       0.04647285 Ry

     iteration # 26     ecut=    60.00 Ry     beta= 0.15
     Davidson diagonalization with overlap

---- Real-time Memory Report at c_bands before calling an iterative solver
             0 MiB given to the printing process from OS
             0 MiB allocation reported by mallinfo(arena+hblkhd)
         50386 MiB available memory on the node where the printing process lives
------------------
     ethr =  1.08E-05,  avg # of iterations =  6.6

     negative rho (up, down):  8.083E-01 0.000E+00

     total cpu time spent up to now is      382.3 secs

     total energy              =   -4440.30479736 Ry
     estimated scf accuracy    <       0.03278090 Ry

     iteration # 27     ecut=    60.00 Ry     beta= 0.15
     Davidson diagonalization with overlap

---- Real-time Memory Report at c_bands before calling an iterative solver
             0 MiB given to the printing process from OS
             0 MiB allocation reported by mallinfo(arena+hblkhd)
         50363 MiB available memory on the node where the printing process lives
------------------
     ethr =  7.62E-06,  avg # of iterations =  2.8

     negative rho (up, down):  7.932E-01 0.000E+00

     total cpu time spent up to now is      396.8 secs

     total energy              =   -4440.29939863 Ry
     estimated scf accuracy    <       0.02364847 Ry

     iteration # 28     ecut=    60.00 Ry     beta= 0.15
     Davidson diagonalization with overlap

---- Real-time Memory Report at c_bands before calling an iterative solver
             0 MiB given to the printing process from OS
             0 MiB allocation reported by mallinfo(arena+hblkhd)
         50408 MiB available memory on the node where the printing process lives
------------------
     ethr =  5.50E-06,  avg # of iterations =  7.8

     negative rho (up, down):  7.999E-01 0.000E+00

     total cpu time spent up to now is      414.1 secs

     total energy              =   -4440.29943903 Ry
     estimated scf accuracy    <       0.01251213 Ry

     iteration # 29     ecut=    60.00 Ry     beta= 0.15
     Davidson diagonalization with overlap

---- Real-time Memory Report at c_bands before calling an iterative solver
             0 MiB given to the printing process from OS
             0 MiB allocation reported by mallinfo(arena+hblkhd)
         50437 MiB available memory on the node where the printing process lives
------------------
     ethr =  2.91E-06,  avg # of iterations =  8.3

     negative rho (up, down):  7.938E-01 0.000E+00

     total cpu time spent up to now is      431.5 secs

     total energy              =   -4440.29804663 Ry
     estimated scf accuracy    <       0.00897732 Ry

     iteration # 30     ecut=    60.00 Ry     beta= 0.15
     Davidson diagonalization with overlap

---- Real-time Memory Report at c_bands before calling an iterative solver
             0 MiB given to the printing process from OS
             0 MiB allocation reported by mallinfo(arena+hblkhd)
         50397 MiB available memory on the node where the printing process lives
------------------
     ethr =  2.09E-06,  avg # of iterations =  4.8

     negative rho (up, down):  7.955E-01 0.000E+00

     total cpu time spent up to now is      447.0 secs

     total energy              =   -4440.29783633 Ry
     estimated scf accuracy    <       0.00558993 Ry

     iteration # 31     ecut=    60.00 Ry     beta= 0.15
     Davidson diagonalization with overlap

---- Real-time Memory Report at c_bands before calling an iterative solver
             0 MiB given to the printing process from OS
             0 MiB allocation reported by mallinfo(arena+hblkhd)
         50405 MiB available memory on the node where the printing process lives
------------------
     c_bands:  1 eigenvalues not converged
     ethr =  1.30E-06,  avg # of iterations =  3.8

     negative rho (up, down):  7.964E-01 0.000E+00

     total cpu time spent up to now is      462.4 secs

     total energy              =   -4440.29738350 Ry
     estimated scf accuracy    <       0.00395041 Ry

     iteration # 32     ecut=    60.00 Ry     beta= 0.15
     Davidson diagonalization with overlap

---- Real-time Memory Report at c_bands before calling an iterative solver
             0 MiB given to the printing process from OS
             0 MiB allocation reported by mallinfo(arena+hblkhd)
         50409 MiB available memory on the node where the printing process lives
------------------
     ethr =  9.19E-07,  avg # of iterations =  9.7

     negative rho (up, down):  7.944E-01 0.000E+00

     total cpu time spent up to now is      479.6 secs

     total energy              =   -4440.29719360 Ry
     estimated scf accuracy    <       0.00211090 Ry

     iteration # 33     ecut=    60.00 Ry     beta= 0.15
     Davidson diagonalization with overlap

---- Real-time Memory Report at c_bands before calling an iterative solver
             0 MiB given to the printing process from OS
             0 MiB allocation reported by mallinfo(arena+hblkhd)
         50399 MiB available memory on the node where the printing process lives
------------------
     ethr =  4.91E-07,  avg # of iterations =  7.6

     negative rho (up, down):  7.935E-01 0.000E+00

     total cpu time spent up to now is      496.5 secs

     total energy              =   -4440.29723029 Ry
     estimated scf accuracy    <       0.00090349 Ry

     iteration # 34     ecut=    60.00 Ry     beta= 0.15
     Davidson diagonalization with overlap

---- Real-time Memory Report at c_bands before calling an iterative solver
             0 MiB given to the printing process from OS
             0 MiB allocation reported by mallinfo(arena+hblkhd)
         50415 MiB available memory on the node where the printing process lives
------------------
     ethr =  2.10E-07,  avg # of iterations =  8.3

     negative rho (up, down):  7.920E-01 0.000E+00

     total cpu time spent up to now is      514.0 secs

     total energy              =   -4440.29715703 Ry
     estimated scf accuracy    <       0.00043602 Ry

     iteration # 35     ecut=    60.00 Ry     beta= 0.15
     Davidson diagonalization with overlap

---- Real-time Memory Report at c_bands before calling an iterative solver
             0 MiB given to the printing process from OS
             0 MiB allocation reported by mallinfo(arena+hblkhd)
         50404 MiB available memory on the node where the printing process lives
------------------
     ethr =  1.01E-07,  avg # of iterations =  5.9

     negative rho (up, down):  7.920E-01 0.000E+00

     total cpu time spent up to now is      530.0 secs

     total energy              =   -4440.29716466 Ry
     estimated scf accuracy    <       0.00027841 Ry

     iteration # 36     ecut=    60.00 Ry     beta= 0.15
     Davidson diagonalization with overlap

---- Real-time Memory Report at c_bands before calling an iterative solver
             0 MiB given to the printing process from OS
             0 MiB allocation reported by mallinfo(arena+hblkhd)
         50374 MiB available memory on the node where the printing process lives
------------------
     ethr =  6.47E-08,  avg # of iterations =  2.0

     negative rho (up, down):  7.925E-01 0.000E+00

     total cpu time spent up to now is      544.1 secs

     total energy              =   -4440.29715330 Ry
     estimated scf accuracy    <       0.00023010 Ry

     iteration # 37     ecut=    60.00 Ry     beta= 0.15
     Davidson diagonalization with overlap

---- Real-time Memory Report at c_bands before calling an iterative solver
             0 MiB given to the printing process from OS
             0 MiB allocation reported by mallinfo(arena+hblkhd)
         50386 MiB available memory on the node where the printing process lives
------------------
     ethr =  5.35E-08,  avg # of iterations =  6.4

     negative rho (up, down):  7.927E-01 0.000E+00

     total cpu time spent up to now is      560.1 secs

     total energy              =   -4440.29716872 Ry
     estimated scf accuracy    <       0.00006401 Ry

     iteration # 38     ecut=    60.00 Ry     beta= 0.15
     Davidson diagonalization with overlap

---- Real-time Memory Report at c_bands before calling an iterative solver
             0 MiB given to the printing process from OS
             0 MiB allocation reported by mallinfo(arena+hblkhd)
         50380 MiB available memory on the node where the printing process lives
------------------
     ethr =  1.49E-08,  avg # of iterations =  2.0

     negative rho (up, down):  7.928E-01 0.000E+00

     total cpu time spent up to now is      574.2 secs

     total energy              =   -4440.29717256 Ry
     estimated scf accuracy    <       0.00003732 Ry

     iteration # 39     ecut=    60.00 Ry     beta= 0.15
     Davidson diagonalization with overlap

---- Real-time Memory Report at c_bands before calling an iterative solver
             0 MiB given to the printing process from OS
             0 MiB allocation reported by mallinfo(arena+hblkhd)
         50397 MiB available memory on the node where the printing process lives
------------------
     ethr =  8.68E-09,  avg # of iterations =  2.0

     negative rho (up, down):  7.927E-01 0.000E+00

     total cpu time spent up to now is      588.4 secs

     total energy              =   -4440.29717729 Ry
     estimated scf accuracy    <       0.00002776 Ry

     iteration # 40     ecut=    60.00 Ry     beta= 0.15
     Davidson diagonalization with overlap

---- Real-time Memory Report at c_bands before calling an iterative solver
             0 MiB given to the printing process from OS
             0 MiB allocation reported by mallinfo(arena+hblkhd)
         50440 MiB available memory on the node where the printing process lives
------------------
     ethr =  6.46E-09,  avg # of iterations =  2.0

     negative rho (up, down):  7.927E-01 0.000E+00

     total cpu time spent up to now is      602.8 secs

     total energy              =   -4440.29717923 Ry
     estimated scf accuracy    <       0.00001425 Ry

     iteration # 41     ecut=    60.00 Ry     beta= 0.15
     Davidson diagonalization with overlap

---- Real-time Memory Report at c_bands before calling an iterative solver
             0 MiB given to the printing process from OS
             0 MiB allocation reported by mallinfo(arena+hblkhd)
         50421 MiB available memory on the node where the printing process lives
------------------
     ethr =  3.31E-09,  avg # of iterations =  2.3

     negative rho (up, down):  7.928E-01 0.000E+00

     total cpu time spent up to now is      617.6 secs

     total energy              =   -4440.29717929 Ry
     estimated scf accuracy    <       0.00000882 Ry

     iteration # 42     ecut=    60.00 Ry     beta= 0.15
     Davidson diagonalization with overlap

---- Real-time Memory Report at c_bands before calling an iterative solver
             0 MiB given to the printing process from OS
             0 MiB allocation reported by mallinfo(arena+hblkhd)
         50428 MiB available memory on the node where the printing process lives
------------------
     ethr =  2.05E-09,  avg # of iterations =  2.0

     negative rho (up, down):  7.927E-01 0.000E+00

     total cpu time spent up to now is      632.0 secs

     total energy              =   -4440.29717996 Ry
     estimated scf accuracy    <       0.00000375 Ry

     iteration # 43     ecut=    60.00 Ry     beta= 0.15
     Davidson diagonalization with overlap

---- Real-time Memory Report at c_bands before calling an iterative solver
             0 MiB given to the printing process from OS
             0 MiB allocation reported by mallinfo(arena+hblkhd)
         50434 MiB available memory on the node where the printing process lives
------------------
     ethr =  8.72E-10,  avg # of iterations =  1.1

     negative rho (up, down):  7.926E-01 0.000E+00

     total cpu time spent up to now is      644.9 secs

     total energy              =   -4440.29718011 Ry
     estimated scf accuracy    <       0.00000323 Ry

     iteration # 44     ecut=    60.00 Ry     beta= 0.15
     Davidson diagonalization with overlap

---- Real-time Memory Report at c_bands before calling an iterative solver
             0 MiB given to the printing process from OS
             0 MiB allocation reported by mallinfo(arena+hblkhd)
         50439 MiB available memory on the node where the printing process lives
------------------
     ethr =  7.51E-10,  avg # of iterations =  2.0

     negative rho (up, down):  7.926E-01 0.000E+00

     total cpu time spent up to now is      659.1 secs

     total energy              =   -4440.29718007 Ry
     estimated scf accuracy    <       0.00000214 Ry

     iteration # 45     ecut=    60.00 Ry     beta= 0.15
     Davidson diagonalization with overlap

---- Real-time Memory Report at c_bands before calling an iterative solver
             0 MiB given to the printing process from OS
             0 MiB allocation reported by mallinfo(arena+hblkhd)
         50441 MiB available memory on the node where the printing process lives
------------------
     ethr =  4.98E-10,  avg # of iterations =  2.0

     negative rho (up, down):  7.925E-01 0.000E+00

     total cpu time spent up to now is      673.1 secs

     total energy              =   -4440.29717980 Ry
     estimated scf accuracy    <       0.00000129 Ry

     iteration # 46     ecut=    60.00 Ry     beta= 0.15
     Davidson diagonalization with overlap

---- Real-time Memory Report at c_bands before calling an iterative solver
             0 MiB given to the printing process from OS
             0 MiB allocation reported by mallinfo(arena+hblkhd)
         50444 MiB available memory on the node where the printing process lives
------------------
     ethr =  2.99E-10,  avg # of iterations =  2.0

     negative rho (up, down):  7.925E-01 0.000E+00

     total cpu time spent up to now is      687.2 secs

     total energy              =   -4440.29717970 Ry
     estimated scf accuracy    <       0.00000081 Ry

     iteration # 47     ecut=    60.00 Ry     beta= 0.15
     Davidson diagonalization with overlap

---- Real-time Memory Report at c_bands before calling an iterative solver
             0 MiB given to the printing process from OS
             0 MiB allocation reported by mallinfo(arena+hblkhd)
         50438 MiB available memory on the node where the printing process lives
------------------
     ethr =  1.89E-10,  avg # of iterations =  2.9

     negative rho (up, down):  7.925E-01 0.000E+00

     total cpu time spent up to now is      701.9 secs

     total energy              =   -4440.29717994 Ry
     estimated scf accuracy    <       0.00000030 Ry

     iteration # 48     ecut=    60.00 Ry     beta= 0.15
     Davidson diagonalization with overlap

---- Real-time Memory Report at c_bands before calling an iterative solver
             0 MiB given to the printing process from OS
             0 MiB allocation reported by mallinfo(arena+hblkhd)
         50441 MiB available memory on the node where the printing process lives
------------------
     ethr =  6.97E-11,  avg # of iterations =  2.5

     negative rho (up, down):  7.925E-01 0.000E+00

     total cpu time spent up to now is      716.4 secs

     total energy              =   -4440.29717997 Ry
     estimated scf accuracy    <       0.00000018 Ry

     iteration # 49     ecut=    60.00 Ry     beta= 0.15
     Davidson diagonalization with overlap

---- Real-time Memory Report at c_bands before calling an iterative solver
             0 MiB given to the printing process from OS
             0 MiB allocation reported by mallinfo(arena+hblkhd)
         50448 MiB available memory on the node where the printing process lives
------------------
     ethr =  4.24E-11,  avg # of iterations =  2.0

     negative rho (up, down):  7.926E-01 0.000E+00

     total cpu time spent up to now is      730.5 secs

     total energy              =   -4440.29718004 Ry
     estimated scf accuracy    <       0.00000014 Ry

     iteration # 50     ecut=    60.00 Ry     beta= 0.15
     Davidson diagonalization with overlap

---- Real-time Memory Report at c_bands before calling an iterative solver
             0 MiB given to the printing process from OS
             0 MiB allocation reported by mallinfo(arena+hblkhd)
         50454 MiB available memory on the node where the printing process lives
------------------
     ethr =  3.19E-11,  avg # of iterations =  3.0

     negative rho (up, down):  7.926E-01 0.000E+00

     total cpu time spent up to now is      745.0 secs

     total energy              =   -4440.29718003 Ry
     estimated scf accuracy    <       0.00000006 Ry

     iteration # 51     ecut=    60.00 Ry     beta= 0.15
     Davidson diagonalization with overlap

---- Real-time Memory Report at c_bands before calling an iterative solver
             0 MiB given to the printing process from OS
             0 MiB allocation reported by mallinfo(arena+hblkhd)
         50450 MiB available memory on the node where the printing process lives
------------------
     ethr =  1.30E-11,  avg # of iterations =  2.6

     negative rho (up, down):  7.926E-01 0.000E+00

     total cpu time spent up to now is      759.2 secs

     total energy              =   -4440.29718001 Ry
     estimated scf accuracy    <       0.00000004 Ry

     iteration # 52     ecut=    60.00 Ry     beta= 0.15
     Davidson diagonalization with overlap

---- Real-time Memory Report at c_bands before calling an iterative solver
             0 MiB given to the printing process from OS
             0 MiB allocation reported by mallinfo(arena+hblkhd)
         50460 MiB available memory on the node where the printing process lives
------------------
     ethr =  8.67E-12,  avg # of iterations =  2.0

     negative rho (up, down):  7.926E-01 0.000E+00

     total cpu time spent up to now is      773.4 secs

     total energy              =   -4440.29718001 Ry
     estimated scf accuracy    <       0.00000002 Ry

     iteration # 53     ecut=    60.00 Ry     beta= 0.15
     Davidson diagonalization with overlap

---- Real-time Memory Report at c_bands before calling an iterative solver
             0 MiB given to the printing process from OS
             0 MiB allocation reported by mallinfo(arena+hblkhd)
         50461 MiB available memory on the node where the printing process lives
------------------
     ethr =  5.06E-12,  avg # of iterations =  2.9

     negative rho (up, down):  7.926E-01 0.000E+00

     total cpu time spent up to now is      787.8 secs

     total energy              =   -4440.29718001 Ry
     estimated scf accuracy    <       0.00000001 Ry

     iteration # 54     ecut=    60.00 Ry     beta= 0.15
     Davidson diagonalization with overlap

---- Real-time Memory Report at c_bands before calling an iterative solver
             0 MiB given to the printing process from OS
             0 MiB allocation reported by mallinfo(arena+hblkhd)
         50456 MiB available memory on the node where the printing process lives
------------------
     ethr =  2.99E-12,  avg # of iterations =  3.8

     negative rho (up, down):  7.926E-01 0.000E+00

     total cpu time spent up to now is      803.1 secs

     End of self-consistent calculation

          k = 0.0000 0.0000 0.0000 ( 65197 PWs)   bands (ev):

   -92.8660 -92.8144 -92.7201 -92.6739 -92.6120 -92.5733 -92.5549 -92.4326
   -56.2196 -56.2012 -56.0770 -56.0664 -56.0598 -56.0533 -56.0171 -55.9890
   -55.9736 -55.9733 -55.9656 -55.9203 -55.9055 -55.8646 -55.8468 -55.8095
   -55.8084 -55.7603 -55.7593 -55.7579 -55.7495 -55.7073 -55.6850 -55.5986
   -31.4306 -31.4104 -31.2689 -31.2547 -31.1814 -31.1056 -31.0078 -30.7478
   -30.0121 -29.9679 -29.9424 -29.8335 -15.2425 -15.1959 -15.1177 -14.9865
   -14.7909 -14.6653 -14.3797 -14.3592 -14.3302 -14.2852 -14.2334 -14.2228
   -14.2175 -14.1958 -14.1772 -14.1416 -14.0928 -13.9396 -13.7571 -13.7262
   -13.6972 -13.6641 -13.6474 -13.5858 -13.5528 -13.4730 -13.4053 -13.2867
   -13.2632 -13.2585 -13.2301 -13.2284 -13.2099 -13.1568 -13.1539 -13.1381
   -13.1068 -13.0756 -13.0618 -13.0507 -13.0335 -12.9959 -12.9452 -12.9189
   -12.8996 -12.7247 -12.7171 -12.6846 -12.4961 -12.3505 -12.1521 -12.0743
   -12.0245 -11.9797 -11.9510 -11.9398 -11.9163 -11.8986 -11.8353 -11.8180
   -11.7833 -11.7548 -11.6417 -11.5628 -11.5591  -3.1038  -2.8721  -2.6420
    -2.4953  -2.4326  -2.2909  -1.9830  -1.9687  -1.9501  -1.8647  -1.8450
    -1.7760  -1.7592  -1.7175  -1.6767  -1.4937  -1.2692  -1.2376  -1.0935
    -1.0789  -1.0319  -1.0132  -0.9664  -0.9496  -0.8969  -0.8696  -0.7924
    -0.7834  -0.7098  -0.5746  -0.5609  -0.5345  -0.4547  -0.4199  -0.4176
    -0.3591  -0.2901  -0.2274  -0.1917  -0.1623  -0.0831  -0.0308   0.0194
     0.0385   0.0594   0.3142   0.3286   0.5009   0.5668   0.6349   0.6826
     0.7653   0.7775   0.7916   0.8630   0.8895   0.9222   0.9815   1.1105
     1.1717   1.1922   1.2149   1.2310   1.2890   1.3577   1.4720   1.4826
     1.5503   1.5586   1.6042   1.6164   1.6293   1.6836   1.7473   1.7538
     1.7955   1.8271   1.8665   1.9990   2.0917   2.1266   2.1392   2.2956
     2.3079   2.3483   2.3586   2.4585   2.4951   2.5209   2.5399   2.5554
     2.6096   2.6346   2.6377   2.6582   2.7500   2.7774   2.7906   2.7952
     2.8621   2.8687   2.8905   2.8979   2.9083   2.9190   2.9269   2.9406
     2.9495   2.9588   2.9671   2.9825   2.9943   3.0147   3.0198   3.0324
     3.0714   3.1754   3.2721   3.9586   4.2772   4.6237   4.8381   4.8986
     5.7679   5.8306   5.8440   5.8496   6.1509   6.1978   6.4453   6.4540
     6.9485   6.9879   7.0840   7.1740   7.4198   7.5460   7.5655   7.5762
     7.6089   7.7793   7.8881   8.0189   8.0440   8.1295   8.3726   8.4589
     8.7399   8.9456

     occupation numbers 
     1.0000   1.0000   1.0000   1.0000   1.0000   1.0000   1.0000   1.0000
     1.0000   1.0000   1.0000   1.0000   1.0000   1.0000   1.0000   1.0000
     1.0000   1.0000   1.0000   1.0000   1.0000   1.0000   1.0000   1.0000
     1.0000   1.0000   1.0000   1.0000   1.0000   1.0000   1.0000   1.0000
     1.0000   1.0000   1.0000   1.0000   1.0000   1.0000   1.0000   1.0000
     1.0000   1.0000   1.0000   1.0000   1.0000   1.0000   1.0000   1.0000
     1.0000   1.0000   1.0000   1.0000   1.0000   1.0000   1.0000   1.0000
     1.0000   1.0000   1.0000   1.0000   1.0000   1.0000   1.0000   1.0000
     1.0000   1.0000   1.0000   1.0000   1.0000   1.0000   1.0000   1.0000
     1.0000   1.0000   1.0000   1.0000   1.0000   1.0000   1.0000   1.0000
     1.0000   1.0000   1.0000   1.0000   1.0000   1.0000   1.0000   1.0000
     1.0000   1.0000   1.0000   1.0000   1.0000   1.0000   1.0000   1.0000
     1.0000   1.0000   1.0000   1.0000   1.0000   1.0000   1.0000   1.0000
     1.0000   1.0000   1.0000   1.0000   1.0000   1.0000   1.0000   1.0000
     1.0000   1.0000   1.0000   1.0000   1.0000   1.0000   1.0000   1.0000
     1.0000   1.0000   1.0000   1.0000   1.0000   1.0000   1.0000   1.0000
     1.0000   1.0000   1.0000   1.0000   1.0000   1.0000   1.0000   1.0000
     1.0000   1.0000   1.0000   1.0000   1.0000   1.0000   1.0000   1.0000
     1.0000   1.0000   1.0000   1.0000   1.0000   1.0000   1.0000   1.0000
     1.0000   1.0000   1.0000   1.0000   1.0000   0.9999   0.9999   0.9999
     0.9998   0.9998   0.9998   0.9997   0.9996   0.9996   0.9994   0.9988
     0.9984   0.9983   0.9981   0.9979   0.9973   0.9963   0.9940   0.9937
     0.9917   0.9914   0.9897   0.9892   0.9886   0.9860   0.9822   0.9818
     0.9788   0.9763   0.9729   0.9580   0.9441   0.9380   0.9357   0.9010
     0.8978   0.8867   0.8837   0.8521   0.8392   0.8297   0.8224   0.8164
     0.7942   0.7835   0.7821   0.7731   0.7300   0.7163   0.7097   0.7073
     0.6723   0.6688   0.6569   0.6529   0.6472   0.6412   0.6368   0.6292
     0.6242   0.6189   0.6142   0.6055   0.5987   0.5869   0.5840   0.5767
     0.5538   0.4924   0.4354   0.1186   0.0490   0.0150   0.0064   0.0050
     0.0001   0.0000   0.0000   0.0000   0.0000   0.0000   0.0000   0.0000
     0.0000   0.0000   0.0000   0.0000   0.0000   0.0000   0.0000   0.0000
     0.0000   0.0000   0.0000   0.0000   0.0000   0.0000   0.0000   0.0000
     0.0000   0.0000

          k = 0.0000 0.2500 0.0000 ( 65257 PWs)   bands (ev):

   -92.8660 -92.8144 -92.7201 -92.6739 -92.6120 -92.5733 -92.5549 -92.4326
   -56.2196 -56.2012 -56.0770 -56.0664 -56.0598 -56.0533 -56.0171 -55.9890
   -55.9736 -55.9733 -55.9656 -55.9203 -55.9055 -55.8646 -55.8468 -55.8095
   -55.8084 -55.7603 -55.7593 -55.7579 -55.7495 -55.7073 -55.6850 -55.5986
   -31.4304 -31.4103 -31.2691 -31.2545 -31.1816 -31.1058 -31.0077 -30.7479
   -30.0115 -29.9676 -29.9430 -29.8338 -15.2061 -15.1695 -15.0923 -14.9573
   -14.8328 -14.6570 -14.5252 -14.3454 -14.3088 -14.2882 -14.2607 -14.2003
   -14.1936 -14.1782 -14.1605 -14.1085 -14.0110 -13.9705 -13.8054 -13.7820
   -13.7377 -13.7008 -13.6545 -13.6091 -13.5522 -13.4990 -13.4592 -13.3942
   -13.3317 -13.3003 -13.2624 -13.2511 -13.2120 -13.1414 -13.1156 -13.0882
   -13.0657 -13.0542 -13.0208 -13.0031 -12.9716 -12.9532 -12.9336 -12.8657
   -12.8334 -12.6949 -12.6609 -12.6035 -12.5574 -12.4017 -12.2058 -12.1367
   -11.9900 -11.9798 -11.9478 -11.9195 -11.8911 -11.8745 -11.8271 -11.8159
   -11.7934 -11.7595 -11.6560 -11.6042 -11.5938  -2.9683  -2.7478  -2.6095
    -2.4279  -2.3843  -2.2211  -2.0000  -1.9176  -1.9044  -1.8457  -1.7408
    -1.7271  -1.6946  -1.6656  -1.6220  -1.4248  -1.2953  -1.2842  -1.2077
    -1.1980  -1.0942  -1.0643  -1.0050  -0.9797  -0.9406  -0.8758  -0.8481
    -0.8170  -0.7830  -0.7667  -0.7346  -0.6586  -0.6107  -0.5412  -0.4225
    -0.4054  -0.3640  -0.2471  -0.1963  -0.1515  -0.0999  -0.0468  -0.0274
     0.0005   0.0661   0.3625   0.4487   0.4857   0.5695   0.6152   0.6412
     0.7470   0.7662   0.8655   0.8908   0.9150   1.0279   1.1269   1.1473
     1.1730   1.1895   1.2129   1.2738   1.3002   1.3300   1.3754   1.4146
     1.4447   1.5361   1.5688   1.6021   1.6506   1.7109   1.7591   1.7793
     1.7983   1.8163   1.9137   2.0400   2.1109   2.1231   2.1967   2.2463
     2.2903   2.3005   2.3532   2.3917   2.4746   2.5168   2.5327   2.6077
     2.6336   2.6588   2.7039   2.7295   2.7604   2.7815   2.7953   2.8040
     2.8133   2.8217   2.8509   2.8532   2.8703   2.8768   2.8846   2.9049
     2.9181   2.9262   2.9446   2.9577   2.9626   2.9965   3.0122   3.0746
     3.4580   3.4953   3.7159   4.1516   4.2727   4.5688   4.9097   5.0000
     5.5336   5.6488   5.8215   5.9290   5.9686   6.0060   6.0781   6.5582
     7.0112   7.0408   7.2063   7.2549   7.3603   7.4181   7.5566   7.6113
     7.7383   7.9430   8.0792   8.1314   8.2871   8.3089   8.3463   8.3665
     8.5170   8.8346

     occupation numbers 
     1.0000   1.0000   1.0000   1.0000   1.0000   1.0000   1.0000   1.0000
     1.0000   1.0000   1.0000   1.0000   1.0000   1.0000   1.0000   1.0000
     1.0000   1.0000   1.0000   1.0000   1.0000   1.0000   1.0000   1.0000
     1.0000   1.0000   1.0000   1.0000   1.0000   1.0000   1.0000   1.0000
     1.0000   1.0000   1.0000   1.0000   1.0000   1.0000   1.0000   1.0000
     1.0000   1.0000   1.0000   1.0000   1.0000   1.0000   1.0000   1.0000
     1.0000   1.0000   1.0000   1.0000   1.0000   1.0000   1.0000   1.0000
     1.0000   1.0000   1.0000   1.0000   1.0000   1.0000   1.0000   1.0000
     1.0000   1.0000   1.0000   1.0000   1.0000   1.0000   1.0000   1.0000
     1.0000   1.0000   1.0000   1.0000   1.0000   1.0000   1.0000   1.0000
     1.0000   1.0000   1.0000   1.0000   1.0000   1.0000   1.0000   1.0000
     1.0000   1.0000   1.0000   1.0000   1.0000   1.0000   1.0000   1.0000
     1.0000   1.0000   1.0000   1.0000   1.0000   1.0000   1.0000   1.0000
     1.0000   1.0000   1.0000   1.0000   1.0000   1.0000   1.0000   1.0000
     1.0000   1.0000   1.0000   1.0000   1.0000   1.0000   1.0000   1.0000
     1.0000   1.0000   1.0000   1.0000   1.0000   1.0000   1.0000   1.0000
     1.0000   1.0000   1.0000   1.0000   1.0000   1.0000   1.0000   1.0000
     1.0000   1.0000   1.0000   1.0000   1.0000   1.0000   1.0000   1.0000
     1.0000   1.0000   1.0000   1.0000   1.0000   1.0000   1.0000   1.0000
     1.0000   1.0000   1.0000   1.0000   1.0000   0.9999   0.9999   0.9999
     0.9998   0.9998   0.9997   0.9996   0.9996   0.9992   0.9987   0.9986
     0.9984   0.9983   0.9981   0.9975   0.9972   0.9967   0.9960   0.9953
     0.9946   0.9921   0.9910   0.9898   0.9876   0.9844   0.9814   0.9800
     0.9786   0.9772   0.9682   0.9522   0.9408   0.9386   0.9242   0.9132
     0.9024   0.8998   0.8853   0.8739   0.8465   0.8312   0.8252   0.7950
     0.7839   0.7728   0.7521   0.7399   0.7248   0.7143   0.7073   0.7028
     0.6980   0.6937   0.6782   0.6771   0.6679   0.6643   0.6601   0.6490
     0.6417   0.6372   0.6269   0.6195   0.6168   0.5974   0.5884   0.5520
     0.3305   0.3106   0.2057   0.0710   0.0496   0.0184   0.0047   0.0032
     0.0002   0.0001   0.0000   0.0000   0.0000   0.0000   0.0000   0.0000
     0.0000   0.0000   0.0000   0.0000   0.0000   0.0000   0.0000   0.0000
     0.0000   0.0000   0.0000   0.0000   0.0000   0.0000   0.0000   0.0000
     0.0000   0.0000

          k = 0.0000-0.5000 0.0000 ( 65180 PWs)   bands (ev):

   -92.8660 -92.8144 -92.7201 -92.6739 -92.6120 -92.5733 -92.5549 -92.4326
   -56.2196 -56.2012 -56.0770 -56.0664 -56.0598 -56.0533 -56.0171 -55.9890
   -55.9736 -55.9733 -55.9656 -55.9203 -55.9055 -55.8646 -55.8468 -55.8095
   -55.8084 -55.7603 -55.7593 -55.7579 -55.7495 -55.7073 -55.6850 -55.5986
   -31.4302 -31.4102 -31.2693 -31.2543 -31.1817 -31.1060 -31.0076 -30.7480
   -30.0108 -29.9673 -29.9436 -29.8342 -15.1696 -15.1218 -15.0658 -14.9394
   -14.8547 -14.7205 -14.5580 -14.4424 -14.3177 -14.2459 -14.2015 -14.1963
   -14.1428 -14.1296 -14.0814 -14.0575 -14.0346 -14.0010 -13.9586 -13.9152
   -13.7431 -13.6846 -13.6589 -13.6162 -13.5342 -13.5168 -13.4700 -13.4348
   -13.4281 -13.3693 -13.2637 -13.2527 -13.1985 -13.1281 -13.1169 -13.0945
   -13.0808 -13.0360 -12.9984 -12.9609 -12.9371 -12.8598 -12.8356 -12.8101
   -12.8061 -12.6935 -12.6680 -12.5495 -12.4767 -12.4356 -12.2956 -12.2451
   -11.9800 -11.9448 -11.9415 -11.9143 -11.8770 -11.8426 -11.8315 -11.7894
   -11.7854 -11.7409 -11.6779 -11.6643 -11.6508  -2.7530  -2.6953  -2.5443
    -2.4730  -2.1891  -2.1069  -1.9789  -1.8434  -1.8039  -1.7847  -1.7082
    -1.6762  -1.5933  -1.5588  -1.4793  -1.4409  -1.4033  -1.3761  -1.3147
    -1.2802  -1.2327  -1.1979  -1.1642  -1.1313  -1.0206  -0.9767  -0.9393
    -0.9371  -0.8511  -0.8213  -0.7982  -0.7500  -0.6624  -0.5850  -0.4973
    -0.4718  -0.3479  -0.3281  -0.1919  -0.1475  -0.1171  -0.0750   0.0532
     0.1315   0.2298   0.2991   0.3094   0.4360   0.5025   0.5835   0.7216
     0.8193   0.8528   0.8942   0.9065   0.9361   0.9542   0.9887   1.0058
     1.0213   1.1316   1.1903   1.2170   1.2395   1.5152   1.5414   1.5689
     1.6567   1.6760   1.7161   1.7379   1.7523   1.7761   1.7898   1.8087
     1.8413   1.8711   1.9017   1.9059   1.9365   1.9914   2.0813   2.1215
     2.2824   2.4398   2.4438   2.4668   2.5040   2.5114   2.5181   2.5652
     2.5806   2.6118   2.6312   2.6383   2.6614   2.6732   2.7381   2.7504
     2.8220   2.8230   2.8479   2.8515   2.8669   2.8710   2.8745   2.8815
     2.8870   2.9048   2.9148   2.9230   2.9817   2.9851   3.0020   3.0644
     3.9634   3.9926   4.0705   4.1099   4.5723   4.7677   4.9184   5.0202
     5.3000   5.3786   5.5020   5.5981   5.8731   5.8910   6.3184   6.5577
     6.7986   6.9085   7.1504   7.3222   7.5753   7.6437   7.7112   7.7463
     7.7904   7.9668   8.0084   8.1806   8.2711   8.3575   8.4118   8.5367
     8.7031   8.7743

     occupation numbers 
     1.0000   1.0000   1.0000   1.0000   1.0000   1.0000   1.0000   1.0000
     1.0000   1.0000   1.0000   1.0000   1.0000   1.0000   1.0000   1.0000
     1.0000   1.0000   1.0000   1.0000   1.0000   1.0000   1.0000   1.0000
     1.0000   1.0000   1.0000   1.0000   1.0000   1.0000   1.0000   1.0000
     1.0000   1.0000   1.0000   1.0000   1.0000   1.0000   1.0000   1.0000
     1.0000   1.0000   1.0000   1.0000   1.0000   1.0000   1.0000   1.0000
     1.0000   1.0000   1.0000   1.0000   1.0000   1.0000   1.0000   1.0000
     1.0000   1.0000   1.0000   1.0000   1.0000   1.0000   1.0000   1.0000
     1.0000   1.0000   1.0000   1.0000   1.0000   1.0000   1.0000   1.0000
     1.0000   1.0000   1.0000   1.0000   1.0000   1.0000   1.0000   1.0000
     1.0000   1.0000   1.0000   1.0000   1.0000   1.0000   1.0000   1.0000
     1.0000   1.0000   1.0000   1.0000   1.0000   1.0000   1.0000   1.0000
     1.0000   1.0000   1.0000   1.0000   1.0000   1.0000   1.0000   1.0000
     1.0000   1.0000   1.0000   1.0000   1.0000   1.0000   1.0000   1.0000
     1.0000   1.0000   1.0000   1.0000   1.0000   1.0000   1.0000   1.0000
     1.0000   1.0000   1.0000   1.0000   1.0000   1.0000   1.0000   1.0000
     1.0000   1.0000   1.0000   1.0000   1.0000   1.0000   1.0000   1.0000
     1.0000   1.0000   1.0000   1.0000   1.0000   1.0000   1.0000   1.0000
     1.0000   1.0000   1.0000   1.0000   1.0000   1.0000   1.0000   1.0000
     1.0000   1.0000   1.0000   1.0000   1.0000   1.0000   0.9999   0.9999
     0.9997   0.9997   0.9996   0.9996   0.9995   0.9995   0.9994   0.9993
     0.9993   0.9987   0.9983   0.9981   0.9979   0.9928   0.9920   0.9910
     0.9873   0.9864   0.9841   0.9828   0.9819   0.9802   0.9793   0.9778
     0.9751   0.9724   0.9694   0.9690   0.9657   0.9590   0.9458   0.9389
     0.9044   0.8584   0.8571   0.8492   0.8360   0.8332   0.8307   0.8125
     0.8063   0.7933   0.7850   0.7819   0.7717   0.7663   0.7358   0.7297
     0.6935   0.6930   0.6799   0.6780   0.6697   0.6675   0.6656   0.6618
     0.6588   0.6491   0.6436   0.6390   0.6059   0.6039   0.5942   0.5580
     0.1172   0.1089   0.0888   0.0798   0.0182   0.0086   0.0046   0.0029
     0.0008   0.0005   0.0003   0.0001   0.0000   0.0000   0.0000   0.0000
     0.0000   0.0000   0.0000   0.0000   0.0000   0.0000   0.0000   0.0000
     0.0000   0.0000   0.0000   0.0000   0.0000   0.0000   0.0000   0.0000
     0.0000   0.0000

          k = 0.2500 0.2500 0.0000 ( 65198 PWs)   bands (ev):

   -92.8660 -92.8144 -92.7201 -92.6739 -92.6120 -92.5733 -92.5549 -92.4326
   -56.2196 -56.2012 -56.0770 -56.0664 -56.0598 -56.0533 -56.0171 -55.9890
   -55.9736 -55.9733 -55.9656 -55.9203 -55.9055 -55.8646 -55.8468 -55.8095
   -55.8084 -55.7603 -55.7593 -55.7579 -55.7495 -55.7073 -55.6850 -55.5986
   -31.4288 -31.4119 -31.2687 -31.2543 -31.1819 -31.1057 -31.0079 -30.7480
   -30.0105 -29.9686 -29.9426 -29.8343 -15.1771 -15.1346 -15.0643 -14.9470
   -14.8258 -14.6982 -14.6314 -14.4230 -14.2683 -14.2539 -14.2190 -14.1892
   -14.1654 -14.1340 -14.1059 -14.0721 -14.0015 -13.9846 -13.8213 -13.8078
   -13.7786 -13.7587 -13.7020 -13.6684 -13.5829 -13.5743 -13.4495 -13.4181
   -13.3815 -13.2958 -13.2553 -13.2109 -13.1871 -13.1708 -13.1301 -13.0997
   -13.0730 -13.0660 -13.0000 -12.9512 -12.9366 -12.8975 -12.8856 -12.8673
   -12.8030 -12.6972 -12.6339 -12.6057 -12.4955 -12.4307 -12.2308 -12.1863
   -11.9799 -11.9623 -11.9309 -11.9198 -11.9131 -11.8502 -11.8152 -11.8087
   -11.7733 -11.7659 -11.6727 -11.6323 -11.6153  -2.8299  -2.6220  -2.5030
    -2.4093  -2.2888  -2.2243  -2.0247  -1.8821  -1.8633  -1.8326  -1.7357
    -1.7051  -1.6099  -1.5811  -1.5311  -1.4010  -1.3521  -1.2793  -1.2350
    -1.1895  -1.1674  -1.1434  -1.1002  -1.0855  -0.9945  -0.9440  -0.8762
    -0.8272  -0.7961  -0.7502  -0.7341  -0.6704  -0.6218  -0.5618  -0.5289
    -0.4411  -0.3880  -0.3609  -0.3235  -0.2681  -0.1715  -0.1549  -0.1302
    -0.0457  -0.0183   0.2497   0.4015   0.4328   0.4971   0.5405   0.5950
     0.6426   0.7122   0.7459   1.0162   1.0797   1.1536   1.1787   1.2302
     1.2575   1.2940   1.3321   1.3488   1.3762   1.4257   1.4310   1.4454
     1.4890   1.5268   1.5675   1.6430   1.6721   1.6818   1.7196   1.7493
     1.8022   1.8291   1.9513   2.0201   2.0544   2.0722   2.1393   2.2075
     2.2345   2.2696   2.3006   2.3121   2.4182   2.4575   2.5459   2.6020
     2.6305   2.6643   2.7163   2.7317   2.7366   2.7565   2.7718   2.7852
     2.7952   2.8007   2.8118   2.8267   2.8370   2.8544   2.8610   2.8733
     2.8952   2.9069   2.9164   2.9478   3.2473   3.3409   3.3876   3.4617
     3.5094   3.6993   3.7916   4.1643   4.3582   4.5692   4.8363   5.1400
     5.5217   5.5760   5.6131   5.6765   5.7389   6.0970   6.1307   6.1694
     6.8470   7.0643   7.2069   7.3676   7.4676   7.4956   7.6062   7.7724
     7.8590   7.9816   8.1589   8.2198   8.3389   8.4101   8.4492   8.4764
     8.5479   8.5804

     occupation numbers 
     1.0000   1.0000   1.0000   1.0000   1.0000   1.0000   1.0000   1.0000
     1.0000   1.0000   1.0000   1.0000   1.0000   1.0000   1.0000   1.0000
     1.0000   1.0000   1.0000   1.0000   1.0000   1.0000   1.0000   1.0000
     1.0000   1.0000   1.0000   1.0000   1.0000   1.0000   1.0000   1.0000
     1.0000   1.0000   1.0000   1.0000   1.0000   1.0000   1.0000   1.0000
     1.0000   1.0000   1.0000   1.0000   1.0000   1.0000   1.0000   1.0000
     1.0000   1.0000   1.0000   1.0000   1.0000   1.0000   1.0000   1.0000
     1.0000   1.0000   1.0000   1.0000   1.0000   1.0000   1.0000   1.0000
     1.0000   1.0000   1.0000   1.0000   1.0000   1.0000   1.0000   1.0000
     1.0000   1.0000   1.0000   1.0000   1.0000   1.0000   1.0000   1.0000
     1.0000   1.0000   1.0000   1.0000   1.0000   1.0000   1.0000   1.0000
     1.0000   1.0000   1.0000   1.0000   1.0000   1.0000   1.0000   1.0000
     1.0000   1.0000   1.0000   1.0000   1.0000   1.0000   1.0000   1.0000
     1.0000   1.0000   1.0000   1.0000   1.0000   1.0000   1.0000   1.0000
     1.0000   1.0000   1.0000   1.0000   1.0000   1.0000   1.0000   1.0000
     1.0000   1.0000   1.0000   1.0000   1.0000   1.0000   1.0000   1.0000
     1.0000   1.0000   1.0000   1.0000   1.0000   1.0000   1.0000   1.0000
     1.0000   1.0000   1.0000   1.0000   1.0000   1.0000   1.0000   1.0000
     1.0000   1.0000   1.0000   1.0000   1.0000   1.0000   1.0000   1.0000
     1.0000   1.0000   1.0000   1.0000   1.0000   1.0000   1.0000   0.9999
     0.9999   0.9999   0.9998   0.9993   0.9990   0.9986   0.9984   0.9979
     0.9977   0.9972   0.9967   0.9965   0.9960   0.9950   0.9949   0.9946
     0.9935   0.9924   0.9911   0.9880   0.9866   0.9861   0.9839   0.9821
     0.9783   0.9762   0.9640   0.9551   0.9501   0.9473   0.9357   0.9219
     0.9159   0.9076   0.8997   0.8967   0.8655   0.8525   0.8201   0.7974
     0.7853   0.7703   0.7462   0.7389   0.7365   0.7268   0.7192   0.7124
     0.7073   0.7045   0.6988   0.6910   0.6856   0.6764   0.6729   0.6662
     0.6544   0.6479   0.6427   0.6252   0.4500   0.3956   0.3692   0.3285
     0.3033   0.2128   0.1751   0.0684   0.0379   0.0184   0.0065   0.0017
     0.0002   0.0002   0.0001   0.0001   0.0001   0.0000   0.0000   0.0000
     0.0000   0.0000   0.0000   0.0000   0.0000   0.0000   0.0000   0.0000
     0.0000   0.0000   0.0000   0.0000   0.0000   0.0000   0.0000   0.0000
     0.0000   0.0000

          k = 0.2500-0.5000 0.0000 ( 65138 PWs)   bands (ev):

   -92.8660 -92.8144 -92.7201 -92.6739 -92.6120 -92.5733 -92.5549 -92.4326
   -56.2196 -56.2012 -56.0770 -56.0664 -56.0598 -56.0533 -56.0171 -55.9890
   -55.9736 -55.9733 -55.9656 -55.9203 -55.9055 -55.8646 -55.8468 -55.8095
   -55.8084 -55.7603 -55.7593 -55.7579 -55.7495 -55.7073 -55.6850 -55.5986
   -31.4286 -31.4118 -31.2690 -31.2542 -31.1821 -31.1060 -31.0077 -30.7481
   -30.0099 -29.9683 -29.9432 -29.8346 -15.1387 -15.0949 -15.0225 -14.9103
   -14.8773 -14.7609 -14.6639 -14.5389 -14.2336 -14.1789 -14.1537 -14.1274
   -14.1145 -14.1016 -14.0654 -14.0458 -14.0171 -13.9775 -13.9538 -13.9031
   -13.8244 -13.7759 -13.7182 -13.6968 -13.6240 -13.5784 -13.5076 -13.4820
   -13.3601 -13.2949 -13.2760 -13.1941 -13.1682 -13.1431 -13.1290 -13.0980
   -13.0718 -13.0635 -12.9933 -12.9564 -12.9310 -12.8651 -12.8467 -12.8100
   -12.7787 -12.6976 -12.6745 -12.5192 -12.4741 -12.4019 -12.2873 -12.2510
   -11.9799 -11.9382 -11.9260 -11.9151 -11.8880 -11.8566 -11.8278 -11.7870
   -11.7589 -11.7373 -11.6910 -11.6658 -11.6549  -2.6106  -2.5469  -2.4178
    -2.3415  -2.2094  -2.1269  -2.0033  -1.8546  -1.7995  -1.7769  -1.7154
    -1.7029  -1.6041  -1.5385  -1.4531  -1.4018  -1.3925  -1.3311  -1.2863
    -1.2537  -1.2060  -1.1687  -1.1336  -1.0946  -1.0813  -1.0377  -1.0077
    -0.9651  -0.9338  -0.8673  -0.7647  -0.7258  -0.6452  -0.5780  -0.5265
    -0.4877  -0.4685  -0.4034  -0.2490  -0.2344  -0.1360  -0.1055  -0.0989
    -0.0550  -0.0110   0.0194   0.0556   0.1157   0.4044   0.5109   0.5513
     0.6081   0.8871   0.9008   0.9887   1.0167   1.1767   1.2131   1.2533
     1.2771   1.2890   1.3109   1.3741   1.4238   1.4571   1.5315   1.6473
     1.6752   1.6911   1.6965   1.7390   1.7464   1.7679   1.8055   1.8104
     1.8355   1.8588   1.8786   1.8986   1.9327   1.9913   2.0356   2.1159
     2.2480   2.3916   2.4087   2.4269   2.4554   2.4756   2.5054   2.5278
     2.5417   2.5603   2.6072   2.6316   2.6658   2.6762   2.7194   2.7338
     2.7393   2.7530   2.7710   2.7844   2.8052   2.8146   2.8462   2.8552
     2.8716   2.8785   2.8866   2.8970   3.4154   3.4509   3.5795   3.6427
     3.9722   4.0295   4.0675   4.1665   4.5921   4.7862   4.9382   4.9864
     5.1503   5.3197   5.5174   5.5425   5.6417   5.6868   6.3469   6.4123
     6.4596   6.6597   7.3289   7.5967   7.6652   7.7051   7.7331   7.7759
     7.8942   7.9544   8.1847   8.2916   8.4118   8.4378   8.5645   8.6012
     8.6247   8.6543

     occupation numbers 
     1.0000   1.0000   1.0000   1.0000   1.0000   1.0000   1.0000   1.0000
     1.0000   1.0000   1.0000   1.0000   1.0000   1.0000   1.0000   1.0000
     1.0000   1.0000   1.0000   1.0000   1.0000   1.0000   1.0000   1.0000
     1.0000   1.0000   1.0000   1.0000   1.0000   1.0000   1.0000   1.0000
     1.0000   1.0000   1.0000   1.0000   1.0000   1.0000   1.0000   1.0000
     1.0000   1.0000   1.0000   1.0000   1.0000   1.0000   1.0000   1.0000
     1.0000   1.0000   1.0000   1.0000   1.0000   1.0000   1.0000   1.0000
     1.0000   1.0000   1.0000   1.0000   1.0000   1.0000   1.0000   1.0000
     1.0000   1.0000   1.0000   1.0000   1.0000   1.0000   1.0000   1.0000
     1.0000   1.0000   1.0000   1.0000   1.0000   1.0000   1.0000   1.0000
     1.0000   1.0000   1.0000   1.0000   1.0000   1.0000   1.0000   1.0000
     1.0000   1.0000   1.0000   1.0000   1.0000   1.0000   1.0000   1.0000
     1.0000   1.0000   1.0000   1.0000   1.0000   1.0000   1.0000   1.0000
     1.0000   1.0000   1.0000   1.0000   1.0000   1.0000   1.0000   1.0000
     1.0000   1.0000   1.0000   1.0000   1.0000   1.0000   1.0000   1.0000
     1.0000   1.0000   1.0000   1.0000   1.0000   1.0000   1.0000   1.0000
     1.0000   1.0000   1.0000   1.0000   1.0000   1.0000   1.0000   1.0000
     1.0000   1.0000   1.0000   1.0000   1.0000   1.0000   1.0000   1.0000
     1.0000   1.0000   1.0000   1.0000   1.0000   1.0000   1.0000   1.0000
     1.0000   1.0000   1.0000   1.0000   1.0000   1.0000   1.0000   0.9999
     0.9999   0.9996   0.9996   0.9994   0.9993   0.9984   0.9981   0.9977
     0.9974   0.9973   0.9970   0.9960   0.9951   0.9943   0.9923   0.9878
     0.9864   0.9856   0.9853   0.9827   0.9823   0.9808   0.9781   0.9777
     0.9756   0.9736   0.9717   0.9697   0.9661   0.9590   0.9529   0.9399
     0.9128   0.8739   0.8685   0.8627   0.8532   0.8462   0.8354   0.8271
     0.8217   0.8144   0.7953   0.7848   0.7697   0.7649   0.7448   0.7379
     0.7352   0.7285   0.7196   0.7128   0.7022   0.6973   0.6807   0.6760
     0.6672   0.6635   0.6591   0.6534   0.3537   0.3343   0.2680   0.2380
     0.1147   0.0990   0.0895   0.0680   0.0169   0.0080   0.0042   0.0034
     0.0016   0.0007   0.0002   0.0002   0.0001   0.0001   0.0000   0.0000
     0.0000   0.0000   0.0000   0.0000   0.0000   0.0000   0.0000   0.0000
     0.0000   0.0000   0.0000   0.0000   0.0000   0.0000   0.0000   0.0000
     0.0000   0.0000

          k =-0.5000-0.5000 0.0000 ( 65132 PWs)   bands (ev):

   -92.8660 -92.8144 -92.7201 -92.6739 -92.6120 -92.5733 -92.5549 -92.4326
   -56.2196 -56.2012 -56.0770 -56.0664 -56.0598 -56.0533 -56.0171 -55.9890
   -55.9736 -55.9733 -55.9656 -55.9203 -55.9055 -55.8646 -55.8468 -55.8095
   -55.8084 -55.7603 -55.7593 -55.7579 -55.7495 -55.7073 -55.6850 -55.5986
   -31.4265 -31.4138 -31.2686 -31.2540 -31.1825 -31.1059 -31.0079 -30.7482
   -30.0089 -29.9693 -29.9428 -29.8350 -15.0912 -15.0677 -14.9499 -14.9350
   -14.8403 -14.8070 -14.7713 -14.6379 -14.1449 -14.1289 -14.0987 -14.0801
   -14.0609 -14.0426 -14.0211 -14.0089 -13.9918 -13.9854 -13.9699 -13.8922
   -13.8833 -13.8537 -13.8198 -13.8009 -13.7115 -13.6367 -13.5373 -13.5322
   -13.3104 -13.2742 -13.2032 -13.1792 -13.1535 -13.1434 -13.1373 -13.1277
   -13.1101 -13.0411 -12.9673 -12.9491 -12.9302 -12.9122 -12.8750 -12.7605
   -12.7525 -12.7027 -12.6905 -12.4924 -12.4702 -12.3689 -12.2786 -12.2592
   -11.9799 -11.9344 -11.9226 -11.9049 -11.8876 -11.8531 -11.8347 -11.8001
   -11.7386 -11.7197 -11.7136 -11.6637 -11.6608  -2.3856  -2.3099  -2.3021
    -2.2309  -2.1917  -2.1133  -2.0448  -1.9201  -1.8050  -1.7746  -1.7342
    -1.6778  -1.6064  -1.5910  -1.5201  -1.4787  -1.3611  -1.3294  -1.2836
    -1.2557  -1.1912  -1.1425  -1.1246  -1.1114  -1.0583  -1.0157  -0.9977
    -0.8867  -0.8289  -0.7813  -0.7313  -0.7046  -0.6919  -0.6565  -0.6126
    -0.5755  -0.5695  -0.4836  -0.4111  -0.3725  -0.3409  -0.2715  -0.2032
    -0.1949  -0.1324  -0.1098  -0.1058  -0.0955   0.3722   0.4508   0.4950
     0.5244   0.9137   0.9274   0.9573   0.9924   1.2641   1.2828   1.2900
     1.3275   1.4564   1.5498   1.5781   1.6150   1.6499   1.6595   1.6706
     1.7027   1.7199   1.7387   1.7523   1.7832   1.7921   1.8165   1.8510
     1.8540   1.8692   1.9123   1.9321   1.9452   1.9780   2.0067   2.0702
     2.1378   2.4040   2.4352   2.4553   2.4725   2.4800   2.5120   2.5138
     2.5351   2.5490   2.5626   2.5795   2.5944   2.6155   2.6319   2.6603
     2.6673   2.6866   2.6901   2.7069   2.7176   2.7349   2.7473   2.7642
     2.8515   2.8595   2.8840   2.8946   3.8371   3.8860   3.9100   3.9906
     4.1547   4.2283   4.2545   4.4953   4.6182   4.7001   4.8330   4.9343
[...]
     0.6322   0.6211   0.6178   0.6133   0.6106   0.6047   0.5991   0.5190
     0.3528   0.3153   0.2014   0.0734   0.0447   0.0210   0.0047   0.0031
     0.0002   0.0001   0.0000   0.0000   0.0000   0.0000   0.0000   0.0000
     0.0000   0.0000   0.0000   0.0000   0.0000   0.0000   0.0000   0.0000
     0.0000   0.0000   0.0000   0.0000   0.0000   0.0000   0.0000   0.0000
     0.0000   0.0000

          k =-0.5000 0.0000 0.0000 ( 65180 PWs)   bands (ev):

   -92.8660 -92.8144 -92.7201 -92.6739 -92.6120 -92.5733 -92.5549 -92.4326
   -56.2196 -56.2012 -56.0770 -56.0664 -56.0598 -56.0533 -56.0171 -55.9890
   -55.9736 -55.9733 -55.9656 -55.9203 -55.9055 -55.8646 -55.8468 -55.8095
   -55.8084 -55.7603 -55.7593 -55.7579 -55.7495 -55.7073 -55.6850 -55.5986
   -31.4269 -31.4141 -31.2682 -31.2544 -31.1822 -31.1055 -31.0081 -30.7480
   -30.0101 -29.9699 -29.9416 -29.8343 -15.1755 -15.1218 -15.0605 -14.9521
   -14.8477 -14.7056 -14.5530 -14.4155 -14.2927 -14.2808 -14.2690 -14.2045
   -14.1475 -14.1164 -14.0670 -14.0614 -14.0432 -13.9962 -13.9778 -13.8693
   -13.7148 -13.6821 -13.6537 -13.6478 -13.5526 -13.5220 -13.4601 -13.4194
   -13.3957 -13.3886 -13.2210 -13.2073 -13.1923 -13.1691 -13.1591 -13.1093
   -13.0968 -13.0770 -13.0290 -13.0090 -12.9232 -12.7947 -12.7855 -12.7827
   -12.7576 -12.6944 -12.6920 -12.5858 -12.4807 -12.4692 -12.2861 -12.2355
   -11.9800 -11.9420 -11.9201 -11.9136 -11.8983 -11.8802 -11.8390 -11.7764
   -11.7590 -11.7266 -11.6802 -11.6713 -11.6560  -2.7434  -2.7054  -2.5422
    -2.5032  -2.1879  -2.1131  -1.9655  -1.8489  -1.8089  -1.7641  -1.7151
    -1.6915  -1.5674  -1.5237  -1.5074  -1.4255  -1.3909  -1.3735  -1.3435
    -1.2835  -1.2161  -1.1881  -1.1565  -1.0619  -1.0163  -0.9668  -0.9332
    -0.9130  -0.8826  -0.8339  -0.8099  -0.7664  -0.6688  -0.6009  -0.5278
    -0.4697  -0.2911  -0.2712  -0.2167  -0.1754  -0.1087  -0.0912   0.0421
     0.0703   0.1061   0.2795   0.3789   0.4273   0.5083   0.5971   0.6973
     0.7175   0.8536   0.8728   0.9247   0.9534   0.9886   1.0063   1.0478
     1.0721   1.1463   1.1878   1.2344   1.2428   1.5477   1.5589   1.5774
     1.6065   1.7064   1.7157   1.7314   1.7366   1.7652   1.7785   1.8179
     1.8348   1.8624   1.9157   1.9347   1.9816   2.0040   2.0604   2.1643
     2.2837   2.3403   2.3567   2.4361   2.4627   2.4913   2.5510   2.5656
     2.5743   2.6053   2.6082   2.6330   2.6684   2.6742   2.7292   2.7688
     2.8055   2.8369   2.8417   2.8437   2.8557   2.8700   2.8802   2.8963
     2.8999   2.9238   2.9297   2.9468   2.9655   2.9728   3.1018   3.1166
     3.8973   3.9852   4.0620   4.1756   4.6374   4.7299   4.8968   4.9393
     5.3857   5.4236   5.5051   5.5267   5.8805   5.8842   6.2531   6.6899
     6.7500   6.9544   7.2144   7.2686   7.5891   7.6415   7.6453   7.7121
     7.7784   7.8463   8.0790   8.1944   8.2885   8.3842   8.4469   8.5058
     8.6508   8.7398

     occupation numbers 
     1.0000   1.0000   1.0000   1.0000   1.0000   1.0000   1.0000   1.0000
     1.0000   1.0000   1.0000   1.0000   1.0000   1.0000   1.0000   1.0000
     1.0000   1.0000   1.0000   1.0000   1.0000   1.0000   1.0000   1.0000
     1.0000   1.0000   1.0000   1.0000   1.0000   1.0000   1.0000   1.0000
     1.0000   1.0000   1.0000   1.0000   1.0000   1.0000   1.0000   1.0000
     1.0000   1.0000   1.0000   1.0000   1.0000   1.0000   1.0000   1.0000
     1.0000   1.0000   1.0000   1.0000   1.0000   1.0000   1.0000   1.0000
     1.0000   1.0000   1.0000   1.0000   1.0000   1.0000   1.0000   1.0000
     1.0000   1.0000   1.0000   1.0000   1.0000   1.0000   1.0000   1.0000
     1.0000   1.0000   1.0000   1.0000   1.0000   1.0000   1.0000   1.0000
     1.0000   1.0000   1.0000   1.0000   1.0000   1.0000   1.0000   1.0000
     1.0000   1.0000   1.0000   1.0000   1.0000   1.0000   1.0000   1.0000
     1.0000   1.0000   1.0000   1.0000   1.0000   1.0000   1.0000   1.0000
     1.0000   1.0000   1.0000   1.0000   1.0000   1.0000   1.0000   1.0000
     1.0000   1.0000   1.0000   1.0000   1.0000   1.0000   1.0000   1.0000
     1.0000   1.0000   1.0000   1.0000   1.0000   1.0000   1.0000   1.0000
     1.0000   1.0000   1.0000   1.0000   1.0000   1.0000   1.0000   1.0000
     1.0000   1.0000   1.0000   1.0000   1.0000   1.0000   1.0000   1.0000
     1.0000   1.0000   1.0000   1.0000   1.0000   1.0000   1.0000   1.0000
     1.0000   1.0000   1.0000   1.0000   1.0000   1.0000   0.9999   0.9999
     0.9999   0.9997   0.9997   0.9996   0.9995   0.9994   0.9993   0.9992
     0.9990   0.9986   0.9983   0.9979   0.9978   0.9918   0.9914   0.9907
     0.9896   0.9847   0.9842   0.9832   0.9829   0.9810   0.9801   0.9771
     0.9757   0.9732   0.9680   0.9659   0.9603   0.9573   0.9491   0.9309
     0.9041   0.8890   0.8843   0.8597   0.8507   0.8406   0.8181   0.8123
     0.8088   0.7960   0.7948   0.7842   0.7685   0.7659   0.7401   0.7207
     0.7020   0.6857   0.6832   0.6821   0.6757   0.6681   0.6625   0.6537
     0.6518   0.6386   0.6353   0.6257   0.6151   0.6110   0.5360   0.5273
     0.1376   0.1110   0.0909   0.0663   0.0143   0.0100   0.0050   0.0042
     0.0005   0.0004   0.0003   0.0002   0.0000   0.0000   0.0000   0.0000
     0.0000   0.0000   0.0000   0.0000   0.0000   0.0000   0.0000   0.0000
     0.0000   0.0000   0.0000   0.0000   0.0000   0.0000   0.0000   0.0000
     0.0000   0.0000

          k =-0.2500 0.2500 0.0000 ( 65198 PWs)   bands (ev):

   -92.8660 -92.8144 -92.7201 -92.6739 -92.6120 -92.5733 -92.5549 -92.4326
   -56.2196 -56.2012 -56.0770 -56.0664 -56.0598 -56.0533 -56.0171 -55.9890
   -55.9736 -55.9733 -55.9656 -55.9203 -55.9055 -55.8646 -55.8468 -55.8095
   -55.8084 -55.7603 -55.7593 -55.7579 -55.7495 -55.7073 -55.6850 -55.5986
   -31.4288 -31.4119 -31.2687 -31.2543 -31.1819 -31.1057 -31.0079 -30.7480
   -30.0105 -29.9686 -29.9426 -29.8343 -15.1784 -15.1334 -15.0631 -14.9453
   -14.8317 -14.7036 -14.6230 -14.4132 -14.2752 -14.2454 -14.2312 -14.1839
   -14.1598 -14.1373 -14.1186 -14.0754 -13.9971 -13.9853 -13.8290 -13.8054
   -13.7753 -13.7546 -13.7044 -13.6557 -13.5905 -13.5663 -13.4547 -13.4232
   -13.3761 -13.2996 -13.2573 -13.1961 -13.1839 -13.1590 -13.1382 -13.1017
   -13.0800 -13.0513 -13.0292 -12.9625 -12.9450 -12.9239 -12.8882 -12.8459
   -12.7730 -12.6938 -12.5956 -12.5924 -12.5450 -12.4365 -12.2421 -12.1719
   -11.9800 -11.9615 -11.9404 -11.9128 -11.9009 -11.8598 -11.8248 -11.8020
   -11.7807 -11.7582 -11.6725 -11.6280 -11.6183  -2.8282  -2.6209  -2.4990
    -2.4109  -2.2930  -2.2271  -2.0223  -1.8790  -1.8610  -1.8307  -1.7362
    -1.7041  -1.6094  -1.5751  -1.5482  -1.4066  -1.3508  -1.2820  -1.2534
    -1.1928  -1.1733  -1.1333  -1.1044  -1.0640  -1.0008  -0.9525  -0.8876
    -0.8192  -0.7921  -0.7429  -0.7150  -0.6684  -0.6115  -0.5641  -0.5250
    -0.4203  -0.3923  -0.3768  -0.3362  -0.2699  -0.1780  -0.1516  -0.1203
    -0.0409  -0.0220   0.2308   0.4029   0.4415   0.4843   0.5496   0.5954
     0.6462   0.7177   0.7440   1.0247   1.1297   1.1710   1.2046   1.2094
     1.2521   1.2682   1.3129   1.3452   1.3579   1.3832   1.4332   1.4498
     1.4851   1.5056   1.5503   1.6599   1.6626   1.6820   1.7189   1.7467
     1.7868   1.8344   1.9427   2.0520   2.0720   2.1184   2.1381   2.2059
     2.2464   2.2731   2.3023   2.3195   2.4184   2.4566   2.5458   2.6033
     2.6292   2.6646   2.7227   2.7318   2.7444   2.7525   2.7641   2.7820
     2.7873   2.8041   2.8110   2.8256   2.8343   2.8476   2.8560   2.8635
     2.8971   2.9066   2.9155   2.9496   3.2406   3.3220   3.3899   3.4623
     3.5219   3.6837   3.8009   4.1636   4.3559   4.5712   4.8451   5.1402
     5.5235   5.5720   5.6163   5.6729   5.7398   6.1129   6.1285   6.1557
     6.8477   7.0855   7.1803   7.3683   7.4775   7.5015   7.5818   7.7823
     7.8418   8.0052   8.2147   8.2332   8.3117   8.3420   8.4366   8.4553
     8.5335   8.6787

     occupation numbers 
     1.0000   1.0000   1.0000   1.0000   1.0000   1.0000   1.0000   1.0000
     1.0000   1.0000   1.0000   1.0000   1.0000   1.0000   1.0000   1.0000
     1.0000   1.0000   1.0000   1.0000   1.0000   1.0000   1.0000   1.0000
     1.0000   1.0000   1.0000   1.0000   1.0000   1.0000   1.0000   1.0000
     1.0000   1.0000   1.0000   1.0000   1.0000   1.0000   1.0000   1.0000
     1.0000   1.0000   1.0000   1.0000   1.0000   1.0000   1.0000   1.0000
     1.0000   1.0000   1.0000   1.0000   1.0000   1.0000   1.0000   1.0000
     1.0000   1.0000   1.0000   1.0000   1.0000   1.0000   1.0000   1.0000
     1.0000   1.0000   1.0000   1.0000   1.0000   1.0000   1.0000   1.0000
     1.0000   1.0000   1.0000   1.0000   1.0000   1.0000   1.0000   1.0000
     1.0000   1.0000   1.0000   1.0000   1.0000   1.0000   1.0000   1.0000
     1.0000   1.0000   1.0000   1.0000   1.0000   1.0000   1.0000   1.0000
     1.0000   1.0000   1.0000   1.0000   1.0000   1.0000   1.0000   1.0000
     1.0000   1.0000   1.0000   1.0000   1.0000   1.0000   1.0000   1.0000
     1.0000   1.0000   1.0000   1.0000   1.0000   1.0000   1.0000   1.0000
     1.0000   1.0000   1.0000   1.0000   1.0000   1.0000   1.0000   1.0000
     1.0000   1.0000   1.0000   1.0000   1.0000   1.0000   1.0000   1.0000
     1.0000   1.0000   1.0000   1.0000   1.0000   1.0000   1.0000   1.0000
     1.0000   1.0000   1.0000   1.0000   1.0000   1.0000   1.0000   1.0000
     1.0000   1.0000   1.0000   1.0000   1.0000   1.0000   0.9999   0.9999
     0.9999   0.9999   0.9998   0.9992   0.9987   0.9984   0.9982   0.9981
     0.9977   0.9975   0.9970   0.9965   0.9963   0.9959   0.9949   0.9945
     0.9936   0.9931   0.9917   0.9872   0.9870   0.9860   0.9840   0.9822
     0.9795   0.9757   0.9650   0.9504   0.9473   0.9395   0.9359   0.9223
     0.9132   0.9067   0.8993   0.8947   0.8655   0.8528   0.8201   0.7969
     0.7859   0.7702   0.7432   0.7388   0.7327   0.7287   0.7230   0.7140
     0.7113   0.7028   0.6992   0.6916   0.6870   0.6800   0.6755   0.6715
     0.6533   0.6481   0.6432   0.6241   0.4539   0.4064   0.3679   0.3282
     0.2968   0.2196   0.1716   0.0686   0.0382   0.0182   0.0062   0.0017
     0.0002   0.0002   0.0001   0.0001   0.0001   0.0000   0.0000   0.0000
     0.0000   0.0000   0.0000   0.0000   0.0000   0.0000   0.0000   0.0000
     0.0000   0.0000   0.0000   0.0000   0.0000   0.0000   0.0000   0.0000
     0.0000   0.0000

          k =-0.5000 0.2500 0.0000 ( 65138 PWs)   bands (ev):

   -92.8660 -92.8144 -92.7201 -92.6739 -92.6120 -92.5733 -92.5549 -92.4326
   -56.2196 -56.2012 -56.0770 -56.0664 -56.0598 -56.0533 -56.0171 -55.9890
   -55.9736 -55.9733 -55.9656 -55.9203 -55.9055 -55.8646 -55.8468 -55.8095
   -55.8084 -55.7603 -55.7593 -55.7579 -55.7495 -55.7073 -55.6850 -55.5986
   -31.4267 -31.4139 -31.2684 -31.2542 -31.1823 -31.1057 -31.0080 -30.7481
   -30.0095 -29.9696 -29.9422 -29.8347 -15.1423 -15.0958 -15.0173 -14.9185
   -14.8766 -14.7526 -14.6592 -14.5327 -14.2263 -14.1951 -14.1831 -14.1343
   -14.1142 -14.0896 -14.0541 -14.0471 -14.0226 -13.9837 -13.9746 -13.8651
   -13.7957 -13.7472 -13.7415 -13.7260 -13.6248 -13.5943 -13.5005 -13.4625
   -13.3526 -13.3186 -13.2223 -13.1861 -13.1750 -13.1683 -13.1373 -13.1044
   -13.0923 -13.0589 -13.0309 -12.9710 -12.9324 -12.8392 -12.8170 -12.7765
   -12.7694 -12.6967 -12.6916 -12.5335 -12.4758 -12.4170 -12.2823 -12.2451
   -11.9800 -11.9345 -11.9216 -11.9077 -11.8958 -11.8739 -11.8438 -11.7634
   -11.7545 -11.7320 -11.6948 -11.6672 -11.6586  -2.6006  -2.5593  -2.4117
    -2.3696  -2.2072  -2.1317  -1.9897  -1.8551  -1.7977  -1.7713  -1.7318
    -1.6936  -1.6129  -1.4975  -1.4399  -1.4173  -1.3917  -1.3129  -1.2867
    -1.2463  -1.2303  -1.1696  -1.1386  -1.1017  -1.0666  -1.0374  -0.9788
    -0.9512  -0.9097  -0.8744  -0.7702  -0.7404  -0.6510  -0.5937  -0.5596
    -0.5025  -0.4199  -0.3828  -0.2864  -0.2319  -0.1870  -0.1267  -0.1028
    -0.0342  -0.0142   0.0175   0.0699   0.1108   0.4275   0.5173   0.5476
     0.5710   0.8657   0.9168   0.9915   1.0174   1.1901   1.2272   1.2642
     1.2740   1.2926   1.3103   1.3817   1.4248   1.4725   1.4958   1.6364
     1.6686   1.6868   1.6962   1.7408   1.7662   1.7784   1.7905   1.8111
     1.8373   1.8752   1.8912   1.9262   1.9488   1.9815   2.0363   2.1580
     2.2601   2.2920   2.3563   2.3897   2.4526   2.4882   2.4946   2.5349
     2.5529   2.5869   2.6078   2.6312   2.6713   2.6766   2.7211   2.7322
     2.7460   2.7577   2.7784   2.7909   2.8104   2.8208   2.8412   2.8525
     2.8641   2.8701   2.8814   2.8925   3.4211   3.4904   3.6101   3.6352
     3.9062   4.0113   4.0589   4.2539   4.6295   4.7412   4.8907   4.9544
     5.2529   5.2851   5.5128   5.5779   5.6316   5.6542   6.3491   6.3546
     6.4632   6.8057   7.1930   7.6170   7.6851   7.7278   7.7501   7.7777
     7.8804   7.9301   8.1610   8.2968   8.4183   8.4369   8.5218   8.5787
     8.6534   8.7151

     occupation numbers 
     1.0000   1.0000   1.0000   1.0000   1.0000   1.0000   1.0000   1.0000
     1.0000   1.0000   1.0000   1.0000   1.0000   1.0000   1.0000   1.0000
     1.0000   1.0000   1.0000   1.0000   1.0000   1.0000   1.0000   1.0000
     1.0000   1.0000   1.0000   1.0000   1.0000   1.0000   1.0000   1.0000
     1.0000   1.0000   1.0000   1.0000   1.0000   1.0000   1.0000   1.0000
     1.0000   1.0000   1.0000   1.0000   1.0000   1.0000   1.0000   1.0000
     1.0000   1.0000   1.0000   1.0000   1.0000   1.0000   1.0000   1.0000
     1.0000   1.0000   1.0000   1.0000   1.0000   1.0000   1.0000   1.0000
     1.0000   1.0000   1.0000   1.0000   1.0000   1.0000   1.0000   1.0000
     1.0000   1.0000   1.0000   1.0000   1.0000   1.0000   1.0000   1.0000
     1.0000   1.0000   1.0000   1.0000   1.0000   1.0000   1.0000   1.0000
     1.0000   1.0000   1.0000   1.0000   1.0000   1.0000   1.0000   1.0000
     1.0000   1.0000   1.0000   1.0000   1.0000   1.0000   1.0000   1.0000
     1.0000   1.0000   1.0000   1.0000   1.0000   1.0000   1.0000   1.0000
     1.0000   1.0000   1.0000   1.0000   1.0000   1.0000   1.0000   1.0000
     1.0000   1.0000   1.0000   1.0000   1.0000   1.0000   1.0000   1.0000
     1.0000   1.0000   1.0000   1.0000   1.0000   1.0000   1.0000   1.0000
     1.0000   1.0000   1.0000   1.0000   1.0000   1.0000   1.0000   1.0000
     1.0000   1.0000   1.0000   1.0000   1.0000   1.0000   1.0000   1.0000
     1.0000   1.0000   1.0000   1.0000   1.0000   1.0000   1.0000   0.9999
     0.9999   0.9997   0.9996   0.9994   0.9993   0.9983   0.9980   0.9976
     0.9975   0.9973   0.9970   0.9959   0.9951   0.9940   0.9933   0.9883
     0.9867   0.9858   0.9853   0.9826   0.9809   0.9801   0.9792   0.9776
     0.9755   0.9720   0.9705   0.9668   0.9643   0.9603   0.9528   0.9321
     0.9099   0.9020   0.8844   0.8745   0.8541   0.8417   0.8394   0.8244
     0.8174   0.8037   0.7950   0.7850   0.7672   0.7647   0.7440   0.7386
     0.7319   0.7262   0.7159   0.7095   0.6995   0.6941   0.6834   0.6774
     0.6712   0.6680   0.6619   0.6558   0.3505   0.3132   0.2532   0.2414
     0.1348   0.1038   0.0916   0.0526   0.0147   0.0095   0.0051   0.0039
     0.0010   0.0008   0.0002   0.0002   0.0001   0.0001   0.0000   0.0000
     0.0000   0.0000   0.0000   0.0000   0.0000   0.0000   0.0000   0.0000
     0.0000   0.0000   0.0000   0.0000   0.0000   0.0000   0.0000   0.0000
     0.0000   0.0000

     the Fermi energy is     3.1626 ev

!    total energy              =   -4440.29718001 Ry
     estimated scf accuracy    <          2.8E-09 Ry
     smearing contrib. (-TS)   =      -1.20646722 Ry
     internal energy E=F+TS    =   -4439.09071279 Ry

     The total energy is F=E-TS. E is the sum of the following terms:
     one-electron contribution =  -20890.97097888 Ry
     hartree contribution      =   10574.71943660 Ry
     xc contribution           =    -693.24437237 Ry
     ewald contribution        =    6846.59712659 Ry
     one-center paw contrib.   =    -276.19192474 Ry
      -> PAW hartree energy AE =      25.02542605 Ry
      -> PAW hartree energy PS =     -24.91095432 Ry
      -> PAW xc energy AE      =     -16.49767365 Ry
      -> PAW xc energy PS      =       6.85627230 Ry
      -> total E_H with PAW    =   10574.83390834 Ry
      -> total E_XC with PAW   =    -702.88577373 Ry

     convergence has been achieved in  54 iterations

     Writing all to output data dir /bsuhome/zayahcortright/scratch/pwscf.save/
 
     init_run     :      7.74s CPU      8.39s WALL (       1 calls)
     electrons    :    757.64s CPU    794.54s WALL (       1 calls)

     Called by init_run:
     wfcinit      :      6.12s CPU      6.36s WALL (       1 calls)
     wfcinit:atom :      0.05s CPU      0.07s WALL (       5 calls)
     wfcinit:wfcr :      5.79s CPU      5.92s WALL (       5 calls)
     potinit      :      0.16s CPU      0.18s WALL (       1 calls)
     hinit0       :      0.54s CPU      0.70s WALL (       1 calls)

     Called by electrons:
     c_bands      :    599.07s CPU    606.41s WALL (      54 calls)
     sum_band     :    118.69s CPU    134.97s WALL (      54 calls)
     v_of_rho     :      5.85s CPU      6.28s WALL (      55 calls)
     v_h          :      0.52s CPU      0.52s WALL (      55 calls)
     v_xc         :      5.33s CPU      5.76s WALL (      55 calls)
     newd         :     18.01s CPU     30.38s WALL (      55 calls)
     PAW_pot      :      1.72s CPU      1.76s WALL (      55 calls)
     mix_rho      :     13.90s CPU     14.31s WALL (      54 calls)

     Called by c_bands:
     init_us_2    :      7.65s CPU      7.74s WALL (     545 calls)
     init_us_2:cp :      7.65s CPU      7.74s WALL (     545 calls)
     cegterg      :    566.97s CPU    574.00s WALL (     270 calls)

     Called by sum_band:
     sum_band:wei :      0.39s CPU      0.39s WALL (      54 calls)
     sum_band:loo :     98.95s CPU     99.78s WALL (      54 calls)
     sum_band:buf :      1.53s CPU      1.59s WALL (     270 calls)
     sum_band:ini :      3.61s CPU      3.62s WALL (     270 calls)
     sum_band:cal :     21.37s CPU     21.46s WALL (     270 calls)
     sum_band:bec :      0.57s CPU      0.58s WALL (     270 calls)
     addusdens    :     17.06s CPU     32.44s WALL (      54 calls)
                                        0.00s GPU  (      54 calls)
     addusd:skk   :      0.31s CPU      1.07s WALL (     162 calls)
                                        0.00s GPU  (     162 calls)

     Called by *egterg:
     cdiaghg      :     55.63s CPU     55.86s WALL (    1258 calls)
     cegterg:over :     40.99s CPU     41.16s WALL (     988 calls)
     cegterg:upda :     29.68s CPU     30.26s WALL (     988 calls)
     cegterg:last :     62.02s CPU     62.26s WALL (     477 calls)
     cdiaghg:chol :      3.12s CPU      3.15s WALL (    1258 calls)
     cdiaghg:inve :      2.80s CPU      2.81s WALL (    1258 calls)
     cdiaghg:para :      7.23s CPU      7.27s WALL (    2516 calls)
     h_psi        :    318.36s CPU    321.68s WALL (    1263 calls)
     s_psi        :     42.99s CPU     43.14s WALL (    1263 calls)
     g_psi        :      1.19s CPU      1.20s WALL (     988 calls)

     Called by h_psi:
     h_psi:calbec :     47.86s CPU     48.06s WALL (    1263 calls)
     vloc_psi     :    224.56s CPU    226.74s WALL (    1263 calls)
     add_vuspsi   :     42.71s CPU     42.90s WALL (    1263 calls)

     General routines
     calbec       :     69.22s CPU     69.51s WALL (    1533 calls)
     fft          :      4.48s CPU      4.53s WALL (     713 calls)
     ffts         :      5.11s CPU      5.16s WALL (    5808 calls)
     fftw         :    192.36s CPU    193.99s WALL (  361834 calls)
     interpolate  :      0.45s CPU      0.46s WALL (      55 calls)
 
     Parallel routines

     PAW routines
     PAW_pot      :      1.72s CPU      1.76s WALL (      55 calls)
 
     PWSCF        :  12m47.14s CPU  13m27.93s WALL

 
   This run was terminated on:  20:12: 0  21Jun2024            

=------------------------------------------------------------------------------=
   JOB DONE.
=------------------------------------------------------------------------------=
