
     Program PWSCF v.7.2 starts on 21Jun2024 at 17:49:18 

     This program is part of the open-source Quantum ESPRESSO suite
     for quantum simulation of materials; please cite
         "P. Giannozzi et al., J. Phys.:Condens. Matter 21 395502 (2009);
         "P. Giannozzi et al., J. Phys.:Condens. Matter 29 465901 (2017);
         "P. Giannozzi et al., J. Chem. Phys. 152 154105 (2020);
          URL http://www.quantum-espresso.org", 
     in publications or presentations arising from this work. More details at
     http://www.quantum-espresso.org/quote

     Parallel version (MPI & OpenMP), running on      48 processor cores
     Number of MPI processes:                48
     Threads/MPI process:                     1

     MPI processes distributed on     1 nodes
     180151 MiB available memory on the printing compute node when the environment starts
 
     Reading input from espresso.pwi
Warning: card &CELL ignored
Warning: card / ignored
Warning: card &FCP ignored
Warning: card / ignored
Warning: card &RISM ignored
Warning: card / ignored

     Current dimensions of program PWSCF are:
     Max number of different atomic species (ntypx) = 10
     Max number of k-points (npk) =  40000
     Max angular momentum in pseudopotentials (lmaxx) =  4
     file O.pbe-n-kjpaw_psl.0.1.UPF: wavefunction(s)  2P renormalized
     signal trapping enabled: kill the code with -SIGUSR1 to stop cleanly the simulation 
 
     K-points division:     npool     =       2
     R & G space division:  proc/nbgrp/npool/nimage =      24
     Subspace diagonalization in iterative solution of the eigenvalue problem:
     one sub-group per band group will be used
     scalapack distributed-memory algorithm (size of sub-group:  3*  3 procs)

 
     Parallelization info
     --------------------
     sticks:   dense  smooth     PW     G-vecs:    dense   smooth      PW
     Min         350     175     47                61430    21716    3036
     Max         351     177     48                61449    21727    3041
     Sum        8421    4205   1137              1474595   521381   72913
 
     Using Slab Decomposition
 


     bravais-lattice index     =            0
     lattice parameter (alat)  =      14.8599  a.u.
     unit-cell volume          =    8305.1283 (a.u.)^3
     number of atoms/cell      =           49
     number of atomic types    =            4
     number of electrons       =       425.00
     number of Kohn-Sham states=          256
     kinetic-energy cutoff     =      60.0000  Ry
     charge density cutoff     =     480.0000  Ry
     scf convergence threshold =      1.0E-08
     mixing beta               =       0.1500
     number of iterations used =            8  local-TF  mixing
     Exchange-correlation= PBE
                           (   1   4   3   4   0   0   0)

     celldm(1)=  14.859904  celldm(2)=   0.000000  celldm(3)=   0.000000
     celldm(4)=   0.000000  celldm(5)=   0.000000  celldm(6)=   0.000000

     crystal axes: (cart. coord. in units of alat)
               a(1) = (   1.000000   0.000000   0.000000 )  
               a(2) = (   0.000000   1.000000   0.000000 )  
               a(3) = (   0.000000   0.000000   2.531036 )  

     reciprocal axes: (cart. coord. in units 2 pi/alat)
               b(1) = (  1.000000  0.000000  0.000000 )  
               b(2) = (  0.000000  1.000000  0.000000 )  
               b(3) = (  0.000000  0.000000  0.395095 )  


     PseudoPot. # 1 for Sr read from file:
     /bsuhome/zayahcortright/q-e/pseudo/Sr_pbe_v1.uspp.F.UPF
     MD5 check sum: 6b418c05fbe9db5448babca5e47b7a5b
     Pseudo is Ultrasoft + core correction, Zval = 10.0
     Generated by new atomic code, or converted to UPF format
     Using radial grid of  883 points,  6 beta functions with: 
                l(1) =   0
                l(2) =   0
                l(3) =   1
                l(4) =   1
                l(5) =   2
                l(6) =   2
     Q(r) pseudized with  6 coefficients,  rinner =    1.400   1.400   1.400
                                                       1.400   1.400

     PseudoPot. # 2 for O  read from file:
     /bsuhome/zayahcortright/q-e/pseudo/O.pbe-n-kjpaw_psl.0.1.UPF
     MD5 check sum: 0234752ac141de4415c5fc33072bef88
     Pseudo is Projector augmented-wave + core cor, Zval =  6.0
     Generated using "atomic" code by A. Dal Corso  v.5.0.99 svn rev. 10869
     Shape of augmentation charge: BESSEL
     Using radial grid of 1095 points,  4 beta functions with: 
                l(1) =   0
                l(2) =   0
                l(3) =   1
                l(4) =   1
     Q(r) pseudized with 0 coefficients 


     PseudoPot. # 3 for Co read from file:
     /bsuhome/zayahcortright/q-e/pseudo/Co_pbe_v1.2.uspp.F.UPF
     MD5 check sum: 5f91765df6ddd3222702df6e7b74a16d
     Pseudo is Ultrasoft + core correction, Zval = 17.0
     Generated by new atomic code, or converted to UPF format
     Using radial grid of  863 points,  6 beta functions with: 
                l(1) =   0
                l(2) =   0
                l(3) =   1
                l(4) =   1
                l(5) =   2
                l(6) =   2
     Q(r) pseudized with  8 coefficients,  rinner =    1.200   1.200   1.200
                                                       1.200   1.200

     PseudoPot. # 4 for H  read from file:
     /bsuhome/zayahcortright/q-e/pseudo/H.pbe-rrkjus_psl.1.0.0.UPF
     MD5 check sum: f52b6d4d1c606e5624b1dc7b2218f220
     Pseudo is Ultrasoft, Zval =  1.0
     Generated using "atomic" code by A. Dal Corso  v.5.1
     Using radial grid of  929 points,  2 beta functions with: 
                l(1) =   0
                l(2) =   0
     Q(r) pseudized with 0 coefficients 


     atomic species   valence    mass     pseudopotential
        Sr            10.00    87.62000     Sr( 1.00)
        O              6.00    15.99900     O ( 1.00)
        Co            17.00    58.93319     Co( 1.00)
        H              1.00     1.00800     H ( 1.00)

     No symmetry found


                                    s                        frac. trans.

      isym =  1     identity                                     

 cryst.   s( 1) = (     1          0          0      )
                  (     0          1          0      )
                  (     0          0          1      )

 cart.    s( 1) = (  1.0000000  0.0000000  0.0000000 )
                  (  0.0000000  1.0000000  0.0000000 )
                  (  0.0000000  0.0000000  1.0000000 )


   Cartesian axes

     site n.     atom                  positions (alat units)
         1           Sr  tau(   1) = (   0.2508693   0.7491307   1.7574407  )
         2           O   tau(   2) = (   0.4985141   0.5014859   1.7715967  )
         3           Sr  tau(   3) = (   0.7482398   0.7454518   1.7648669  )
         4           Sr  tau(   4) = (   0.7441748   0.2558252   1.7667843  )
         5           Sr  tau(   5) = (   0.2508693   0.7491307   1.2696799  )
         6           Sr  tau(   6) = (   0.2508693   0.7491307   0.7632319  )
         7           Co  tau(   7) = (   0.4998914   0.5001086   1.0164559  )
         8           Co  tau(   8) = (   0.4936915   0.5063085   1.5135603  )
         9           O   tau(   9) = (   0.4988895   0.7610401   1.0164559  )
        10           O   tau(  10) = (   0.2389599   0.5011105   1.0164559  )
        11           O   tau(  11) = (   0.0070918   0.7374880   1.0164559  )
        12           O   tau(  12) = (   0.0088340   0.7405089   1.5135603  )
        13           O   tau(  13) = (   0.5066944   0.7415376   1.5135603  )
        14           O   tau(  14) = (   0.2584624   0.4933056   1.5135603  )
        15           O   tau(  15) = (   0.4985141   0.5014859   0.7773880  )
        16           O   tau(  16) = (   0.4985141   0.5014859   1.2555238  )
        17           Sr  tau(  17) = (   0.7482398   0.7454518   0.7706582  )
        18           Sr  tau(  18) = (   0.7482398   0.7454518   1.2622536  )
        19           Sr  tau(  19) = (   0.7441748   0.2558252   0.7725755  )
        20           Sr  tau(  20) = (   0.7441748   0.2558252   1.2603363  )
        21           O   tau(  21) = (   0.7322655   0.0078049   1.5135603  )
        22           O   tau(  22) = (   0.7558175   0.4996027   1.5135603  )
        23           O   tau(  23) = (   0.5003973   0.2441825   1.5135603  )
        24           O   tau(  24) = (   0.7527966   0.4978604   1.0164559  )
        25           O   tau(  25) = (   0.5021396   0.2472034   1.0164559  )
        26           O   tau(  26) = (   0.7517679   0.0000000   1.0164559  )
        27           O   tau(  27) = (   0.0114961   0.4948124   1.7455321  )
        28           O   tau(  28) = (   0.0048226   0.0077944   1.7715967  )
        29           Sr  tau(  29) = (   0.2545482   0.2517602   1.7648669  )
        30           O   tau(  30) = (   0.5048017   0.0015068   1.7786929  )
        31           Co  tau(  31) = (   0.0056869   0.5006215   1.0164559  )
        32           Co  tau(  32) = (   0.0065315   0.4997770   1.5135603  )
        33           Co  tau(  33) = (   0.0061999   0.0064171   1.0164559  )
        34           Co  tau(  34) = (   0.0000000   0.0126169   1.5135603  )
        35           O   tau(  35) = (   0.0114961   0.4948124   1.2815885  )
        36           O   tau(  36) = (   0.0114961   0.4948124   0.7513233  )
        37           O   tau(  37) = (   0.0051979   0.2673486   1.0164559  )
        38           O   tau(  38) = (   0.0130029   0.2478461   1.5135603  )
        39           O   tau(  39) = (   0.0048226   0.0077944   0.7773880  )
        40           O   tau(  40) = (   0.0048226   0.0077944   1.2555238  )
        41           Sr  tau(  41) = (   0.2545482   0.2517602   0.7706582  )
        42           Sr  tau(  42) = (   0.2545482   0.2517602   1.2622536  )
        43           Co  tau(  43) = (   0.4989925   0.0073160   1.5135603  )
        44           Co  tau(  44) = (   0.4998370   0.0064714   1.0164559  )
        45           O   tau(  45) = (   0.5048017   0.0015068   0.7844841  )
        46           O   tau(  46) = (   0.5048017   0.0015068   1.2484277  )
        47           O   tau(  47) = (   0.2621260   0.0059111   1.5135603  )
        48           O   tau(  48) = (   0.2591051   0.0041689   1.0164559  )
        49           H   tau(  49) = (   0.4264937   0.7108228   2.1602013  )

   Crystallographic axes

     site n.     atom                  positions (cryst. coord.)
         1           Sr  tau(   1) = (  0.2508693  0.7491307  0.6943562  )
         2           O   tau(   2) = (  0.4985141  0.5014859  0.6999492  )
         3           Sr  tau(   3) = (  0.7482398  0.7454518  0.6972903  )
         4           Sr  tau(   4) = (  0.7441748  0.2558252  0.6980478  )
         5           Sr  tau(   5) = (  0.2508693  0.7491307  0.5016443  )
         6           Sr  tau(   6) = (  0.2508693  0.7491307  0.3015492  )
         7           Co  tau(   7) = (  0.4998914  0.5001086  0.4015968  )
         8           Co  tau(   8) = (  0.4936915  0.5063085  0.5980003  )
         9           O   tau(   9) = (  0.4988895  0.7610401  0.4015968  )
        10           O   tau(  10) = (  0.2389599  0.5011105  0.4015968  )
        11           O   tau(  11) = (  0.0070918  0.7374880  0.4015968  )
        12           O   tau(  12) = (  0.0088340  0.7405089  0.5980003  )
        13           O   tau(  13) = (  0.5066944  0.7415376  0.5980003  )
        14           O   tau(  14) = (  0.2584624  0.4933056  0.5980003  )
        15           O   tau(  15) = (  0.4985141  0.5014859  0.3071422  )
        16           O   tau(  16) = (  0.4985141  0.5014859  0.4960513  )
        17           Sr  tau(  17) = (  0.7482398  0.7454518  0.3044833  )
        18           Sr  tau(  18) = (  0.7482398  0.7454518  0.4987103  )
        19           Sr  tau(  19) = (  0.7441748  0.2558252  0.3052408  )
        20           Sr  tau(  20) = (  0.7441748  0.2558252  0.4979527  )
        21           O   tau(  21) = (  0.7322655  0.0078049  0.5980003  )
        22           O   tau(  22) = (  0.7558175  0.4996027  0.5980003  )
        23           O   tau(  23) = (  0.5003973  0.2441825  0.5980003  )
        24           O   tau(  24) = (  0.7527966  0.4978604  0.4015968  )
        25           O   tau(  25) = (  0.5021396  0.2472034  0.4015968  )
        26           O   tau(  26) = (  0.7517679  0.0000000  0.4015968  )
        27           O   tau(  27) = (  0.0114961  0.4948124  0.6896512  )
        28           O   tau(  28) = (  0.0048226  0.0077944  0.6999492  )
        29           Sr  tau(  29) = (  0.2545482  0.2517602  0.6972903  )
        30           O   tau(  30) = (  0.5048017  0.0015068  0.7027529  )
        31           Co  tau(  31) = (  0.0056869  0.5006215  0.4015968  )
        32           Co  tau(  32) = (  0.0065315  0.4997770  0.5980003  )
        33           Co  tau(  33) = (  0.0061999  0.0064171  0.4015968  )
        34           Co  tau(  34) = (  0.0000000  0.0126169  0.5980003  )
        35           O   tau(  35) = (  0.0114961  0.4948124  0.5063494  )
        36           O   tau(  36) = (  0.0114961  0.4948124  0.2968442  )
        37           O   tau(  37) = (  0.0051979  0.2673486  0.4015968  )
        38           O   tau(  38) = (  0.0130029  0.2478461  0.5980003  )
        39           O   tau(  39) = (  0.0048226  0.0077944  0.3071422  )
        40           O   tau(  40) = (  0.0048226  0.0077944  0.4960513  )
        41           Sr  tau(  41) = (  0.2545482  0.2517602  0.3044833  )
        42           Sr  tau(  42) = (  0.2545482  0.2517602  0.4987103  )
        43           Co  tau(  43) = (  0.4989925  0.0073160  0.5980003  )
        44           Co  tau(  44) = (  0.4998370  0.0064714  0.4015968  )
        45           O   tau(  45) = (  0.5048017  0.0015068  0.3099459  )
        46           O   tau(  46) = (  0.5048017  0.0015068  0.4932477  )
        47           O   tau(  47) = (  0.2621260  0.0059111  0.5980003  )
        48           O   tau(  48) = (  0.2591051  0.0041689  0.4015968  )
        49           H   tau(  49) = (  0.4264937  0.7108228  0.8534850  )

     number of k points=    10  Gaussian smearing, width (Ry)=  0.0700
                       cart. coord. in units 2pi/alat
        k(    1) = (   0.0000000   0.0000000   0.0000000), wk =   0.1250000
        k(    2) = (   0.0000000   0.2500000   0.0000000), wk =   0.2500000
        k(    3) = (   0.0000000  -0.5000000   0.0000000), wk =   0.1250000
        k(    4) = (   0.2500000   0.2500000   0.0000000), wk =   0.2500000
        k(    5) = (   0.2500000  -0.5000000   0.0000000), wk =   0.2500000
        k(    6) = (  -0.5000000  -0.5000000   0.0000000), wk =   0.1250000
        k(    7) = (   0.2500000   0.0000000   0.0000000), wk =   0.2500000
        k(    8) = (  -0.5000000   0.0000000   0.0000000), wk =   0.1250000
        k(    9) = (  -0.2500000   0.2500000   0.0000000), wk =   0.2500000
        k(   10) = (  -0.5000000   0.2500000   0.0000000), wk =   0.2500000

                       cryst. coord.
        k(    1) = (   0.0000000   0.0000000   0.0000000), wk =   0.1250000
        k(    2) = (   0.0000000   0.2500000   0.0000000), wk =   0.2500000
        k(    3) = (   0.0000000  -0.5000000   0.0000000), wk =   0.1250000
        k(    4) = (   0.2500000   0.2500000   0.0000000), wk =   0.2500000
        k(    5) = (   0.2500000  -0.5000000   0.0000000), wk =   0.2500000
        k(    6) = (  -0.5000000  -0.5000000   0.0000000), wk =   0.1250000
        k(    7) = (   0.2500000   0.0000000   0.0000000), wk =   0.2500000
        k(    8) = (  -0.5000000   0.0000000   0.0000000), wk =   0.1250000
        k(    9) = (  -0.2500000   0.2500000   0.0000000), wk =   0.2500000
        k(   10) = (  -0.5000000   0.2500000   0.0000000), wk =   0.2500000

     Dense  grid:  1474595 G-vectors     FFT dimensions: ( 108, 108, 270)

     Smooth grid:   521381 G-vectors     FFT dimensions: (  75,  75, 192)

     Dynamical RAM for                 wfc:      10.61 MB

     Dynamical RAM for     wfc (w. buffer):      63.63 MB

     Dynamical RAM for           str. fact:       3.75 MB

     Dynamical RAM for           local pot:       0.00 MB

     Dynamical RAM for          nlocal pot:      24.28 MB

     Dynamical RAM for                qrad:       7.03 MB

     Dynamical RAM for          rho,v,vnew:       6.02 MB

     Dynamical RAM for               rhoin:       2.01 MB

     Dynamical RAM for            rho*nmix:      15.00 MB

     Dynamical RAM for           G-vectors:       3.68 MB

     Dynamical RAM for          h,s,v(r/c):       1.32 MB

     Dynamical RAM for          <psi|beta>:       2.29 MB

     Dynamical RAM for                 psi:      21.21 MB

     Dynamical RAM for                hpsi:      21.21 MB

     Dynamical RAM for                spsi:      21.21 MB

     Dynamical RAM for      wfcinit/wfcrot:      34.09 MB

     Dynamical RAM for           addusdens:     100.79 MB

     Estimated static dynamical RAM per process >     120.42 MB

     Estimated max dynamical RAM per process >     236.21 MB

     Estimated total dynamical RAM >      10.72 GB

     Check: negative core charge=   -0.000004

     Initial potential from superposition of free atoms

     starting charge     416.5961, renormalised to     425.0000

     negative rho (up, down):  7.826E-01 0.000E+00
     Starting wfcs are  373 randomized atomic wfcs
     Checking if some PAW data can be deallocated... 
       PAW data deallocated on   20 nodes for type:  2

     total cpu time spent up to now is        8.8 secs

     Self-consistent Calculation

     iteration #  1     ecut=    60.00 Ry     beta= 0.15
     Davidson diagonalization with overlap

---- Real-time Memory Report at c_bands before calling an iterative solver
             0 MiB given to the printing process from OS
             0 MiB allocation reported by mallinfo(arena+hblkhd)
        170480 MiB available memory on the node where the printing process lives
------------------
     ethr =  1.00E-02,  avg # of iterations =  2.0

     negative rho (up, down):  7.719E-01 0.000E+00

     total cpu time spent up to now is       23.1 secs

     total energy              =   -4404.78705181 Ry
     estimated scf accuracy    <      42.19240301 Ry

     iteration #  2     ecut=    60.00 Ry     beta= 0.15
     Davidson diagonalization with overlap

---- Real-time Memory Report at c_bands before calling an iterative solver
             0 MiB given to the printing process from OS
             0 MiB allocation reported by mallinfo(arena+hblkhd)
        170706 MiB available memory on the node where the printing process lives
------------------
     ethr =  9.93E-03,  avg # of iterations =  1.0

     negative rho (up, down):  7.533E-01 0.000E+00

     total cpu time spent up to now is       35.5 secs

     total energy              =   -4400.01984476 Ry
     estimated scf accuracy    <      26.75389384 Ry

     iteration #  3     ecut=    60.00 Ry     beta= 0.15
     Davidson diagonalization with overlap

---- Real-time Memory Report at c_bands before calling an iterative solver
             0 MiB given to the printing process from OS
             0 MiB allocation reported by mallinfo(arena+hblkhd)
        169968 MiB available memory on the node where the printing process lives
------------------
     ethr =  6.30E-03,  avg # of iterations =  2.0

     negative rho (up, down):  7.545E-01 0.000E+00

     total cpu time spent up to now is       49.6 secs

     total energy              =   -4402.39114787 Ry
     estimated scf accuracy    <      49.39198851 Ry

     iteration #  4     ecut=    60.00 Ry     beta= 0.15
     Davidson diagonalization with overlap

---- Real-time Memory Report at c_bands before calling an iterative solver
             0 MiB given to the printing process from OS
             0 MiB allocation reported by mallinfo(arena+hblkhd)
        169840 MiB available memory on the node where the printing process lives
------------------
     ethr =  6.30E-03,  avg # of iterations =  1.0

     negative rho (up, down):  7.410E-01 0.000E+00

     total cpu time spent up to now is       62.1 secs

     total energy              =   -4401.65935191 Ry
     estimated scf accuracy    <      29.41322451 Ry

     iteration #  5     ecut=    60.00 Ry     beta= 0.15
     Davidson diagonalization with overlap

---- Real-time Memory Report at c_bands before calling an iterative solver
             0 MiB given to the printing process from OS
             0 MiB allocation reported by mallinfo(arena+hblkhd)
        169819 MiB available memory on the node where the printing process lives
------------------
     ethr =  6.30E-03,  avg # of iterations =  1.0

     negative rho (up, down):  7.470E-01 0.000E+00

     total cpu time spent up to now is       74.2 secs

     total energy              =   -4399.83513991 Ry
     estimated scf accuracy    <      44.51972823 Ry

     iteration #  6     ecut=    60.00 Ry     beta= 0.15
     Davidson diagonalization with overlap

---- Real-time Memory Report at c_bands before calling an iterative solver
             0 MiB given to the printing process from OS
             0 MiB allocation reported by mallinfo(arena+hblkhd)
        169799 MiB available memory on the node where the printing process lives
------------------
     ethr =  6.30E-03,  avg # of iterations =  1.0

     negative rho (up, down):  7.419E-01 0.000E+00

     total cpu time spent up to now is       86.3 secs

     total energy              =   -4400.64515436 Ry
     estimated scf accuracy    <      12.07247508 Ry

     iteration #  7     ecut=    60.00 Ry     beta= 0.15
     Davidson diagonalization with overlap

---- Real-time Memory Report at c_bands before calling an iterative solver
             0 MiB given to the printing process from OS
             0 MiB allocation reported by mallinfo(arena+hblkhd)
        169774 MiB available memory on the node where the printing process lives
------------------
     ethr =  2.84E-03,  avg # of iterations =  1.1

     negative rho (up, down):  7.443E-01 0.000E+00

     total cpu time spent up to now is       98.5 secs

     total energy              =   -4400.80704870 Ry
     estimated scf accuracy    <       4.17974374 Ry

     iteration #  8     ecut=    60.00 Ry     beta= 0.15
     Davidson diagonalization with overlap

---- Real-time Memory Report at c_bands before calling an iterative solver
             0 MiB given to the printing process from OS
             0 MiB allocation reported by mallinfo(arena+hblkhd)
        169762 MiB available memory on the node where the printing process lives
------------------
     ethr =  9.83E-04,  avg # of iterations =  1.5

     negative rho (up, down):  7.540E-01 0.000E+00

     total cpu time spent up to now is      111.0 secs

     total energy              =   -4400.30256842 Ry
     estimated scf accuracy    <       3.54108720 Ry

     iteration #  9     ecut=    60.00 Ry     beta= 0.15
     Davidson diagonalization with overlap

---- Real-time Memory Report at c_bands before calling an iterative solver
             0 MiB given to the printing process from OS
             0 MiB allocation reported by mallinfo(arena+hblkhd)
        169738 MiB available memory on the node where the printing process lives
------------------
     ethr =  8.33E-04,  avg # of iterations =  5.0

     negative rho (up, down):  7.760E-01 0.000E+00

     total cpu time spent up to now is      126.4 secs

     total energy              =   -4399.90217480 Ry
     estimated scf accuracy    <      41.66024516 Ry

     iteration # 10     ecut=    60.00 Ry     beta= 0.15
     Davidson diagonalization with overlap

---- Real-time Memory Report at c_bands before calling an iterative solver
             0 MiB given to the printing process from OS
             0 MiB allocation reported by mallinfo(arena+hblkhd)
        169606 MiB available memory on the node where the printing process lives
------------------
     ethr =  8.33E-04,  avg # of iterations =  9.2

     negative rho (up, down):  7.785E-01 0.000E+00

     total cpu time spent up to now is      144.0 secs

     total energy              =   -4399.78778050 Ry
     estimated scf accuracy    <      12.51591821 Ry

     iteration # 11     ecut=    60.00 Ry     beta= 0.15
     Davidson diagonalization with overlap

---- Real-time Memory Report at c_bands before calling an iterative solver
             0 MiB given to the printing process from OS
             0 MiB allocation reported by mallinfo(arena+hblkhd)
        169249 MiB available memory on the node where the printing process lives
------------------
     ethr =  8.33E-04,  avg # of iterations =  1.2

     negative rho (up, down):  7.811E-01 0.000E+00

     total cpu time spent up to now is      156.4 secs

     total energy              =   -4400.11961453 Ry
     estimated scf accuracy    <       1.27325812 Ry

     iteration # 12     ecut=    60.00 Ry     beta= 0.15
     Davidson diagonalization with overlap

---- Real-time Memory Report at c_bands before calling an iterative solver
             0 MiB given to the printing process from OS
             0 MiB allocation reported by mallinfo(arena+hblkhd)
        169278 MiB available memory on the node where the printing process lives
------------------
     ethr =  3.00E-04,  avg # of iterations =  2.9

     negative rho (up, down):  7.895E-01 0.000E+00

     total cpu time spent up to now is      170.6 secs

     total energy              =   -4400.08693163 Ry
     estimated scf accuracy    <       0.68659174 Ry

     iteration # 13     ecut=    60.00 Ry     beta= 0.15
     Davidson diagonalization with overlap

---- Real-time Memory Report at c_bands before calling an iterative solver
             0 MiB given to the printing process from OS
             0 MiB allocation reported by mallinfo(arena+hblkhd)
        169245 MiB available memory on the node where the printing process lives
------------------
     ethr =  1.62E-04,  avg # of iterations =  5.0

     negative rho (up, down):  8.010E-01 0.000E+00

     total cpu time spent up to now is      185.3 secs

     total energy              =   -4400.08677466 Ry
     estimated scf accuracy    <       1.01488346 Ry

     iteration # 14     ecut=    60.00 Ry     beta= 0.15
     Davidson diagonalization with overlap

---- Real-time Memory Report at c_bands before calling an iterative solver
             0 MiB given to the printing process from OS
             0 MiB allocation reported by mallinfo(arena+hblkhd)
        169249 MiB available memory on the node where the printing process lives
------------------
     ethr =  1.62E-04,  avg # of iterations =  6.3

     negative rho (up, down):  8.051E-01 0.000E+00

     total cpu time spent up to now is      200.2 secs

     total energy              =   -4400.02629658 Ry
     estimated scf accuracy    <       1.45317697 Ry

     iteration # 15     ecut=    60.00 Ry     beta= 0.15
     Davidson diagonalization with overlap

---- Real-time Memory Report at c_bands before calling an iterative solver
             0 MiB given to the printing process from OS
             0 MiB allocation reported by mallinfo(arena+hblkhd)
        169238 MiB available memory on the node where the printing process lives
------------------
     ethr =  1.62E-04,  avg # of iterations =  3.8

     negative rho (up, down):  8.068E-01 0.000E+00

     total cpu time spent up to now is      214.0 secs

     total energy              =   -4400.05302873 Ry
     estimated scf accuracy    <       0.38932384 Ry

     iteration # 16     ecut=    60.00 Ry     beta= 0.15
     Davidson diagonalization with overlap

---- Real-time Memory Report at c_bands before calling an iterative solver
             0 MiB given to the printing process from OS
             0 MiB allocation reported by mallinfo(arena+hblkhd)
        169246 MiB available memory on the node where the printing process lives
------------------
     ethr =  9.16E-05,  avg # of iterations =  1.8

     negative rho (up, down):  8.093E-01 0.000E+00

     total cpu time spent up to now is      227.2 secs

     total energy              =   -4400.01684037 Ry
     estimated scf accuracy    <       0.31795994 Ry

     iteration # 17     ecut=    60.00 Ry     beta= 0.15
     Davidson diagonalization with overlap

---- Real-time Memory Report at c_bands before calling an iterative solver
             0 MiB given to the printing process from OS
             0 MiB allocation reported by mallinfo(arena+hblkhd)
        169276 MiB available memory on the node where the printing process lives
------------------
     ethr =  7.48E-05,  avg # of iterations =  8.2

     negative rho (up, down):  8.165E-01 0.000E+00

     total cpu time spent up to now is      243.3 secs

     total energy              =   -4399.95205927 Ry
     estimated scf accuracy    <       0.28541936 Ry

     iteration # 18     ecut=    60.00 Ry     beta= 0.15
     Davidson diagonalization with overlap

---- Real-time Memory Report at c_bands before calling an iterative solver
             0 MiB given to the printing process from OS
             0 MiB allocation reported by mallinfo(arena+hblkhd)
        169241 MiB available memory on the node where the printing process lives
------------------
     ethr =  6.72E-05,  avg # of iterations = 13.0

     negative rho (up, down):  8.236E-01 0.000E+00

     total cpu time spent up to now is      262.6 secs

     total energy              =   -4399.94895183 Ry
     estimated scf accuracy    <       0.12415161 Ry

     iteration # 19     ecut=    60.00 Ry     beta= 0.15
     Davidson diagonalization with overlap

---- Real-time Memory Report at c_bands before calling an iterative solver
             0 MiB given to the printing process from OS
             0 MiB allocation reported by mallinfo(arena+hblkhd)
        169196 MiB available memory on the node where the printing process lives
------------------
     ethr =  2.92E-05,  avg # of iterations =  5.3

     negative rho (up, down):  8.271E-01 0.000E+00

     total cpu time spent up to now is      277.6 secs

     total energy              =   -4399.93447980 Ry
     estimated scf accuracy    <       0.10628060 Ry

     iteration # 20     ecut=    60.00 Ry     beta= 0.15
     Davidson diagonalization with overlap

---- Real-time Memory Report at c_bands before calling an iterative solver
             0 MiB given to the printing process from OS
             0 MiB allocation reported by mallinfo(arena+hblkhd)
        169168 MiB available memory on the node where the printing process lives
------------------
     ethr =  2.50E-05,  avg # of iterations =  7.5

     negative rho (up, down):  8.156E-01 0.000E+00

     total cpu time spent up to now is      293.9 secs

     total energy              =   -4399.92876197 Ry
     estimated scf accuracy    <       0.08464183 Ry

     iteration # 21     ecut=    60.00 Ry     beta= 0.15
     Davidson diagonalization with overlap

---- Real-time Memory Report at c_bands before calling an iterative solver
             0 MiB given to the printing process from OS
             0 MiB allocation reported by mallinfo(arena+hblkhd)
        169135 MiB available memory on the node where the printing process lives
------------------
     ethr =  1.99E-05,  avg # of iterations =  5.3

     negative rho (up, down):  8.088E-01 0.000E+00

     total cpu time spent up to now is      309.0 secs

     total energy              =   -4399.92487312 Ry
     estimated scf accuracy    <       0.04998564 Ry

     iteration # 22     ecut=    60.00 Ry     beta= 0.15
     Davidson diagonalization with overlap

---- Real-time Memory Report at c_bands before calling an iterative solver
             0 MiB given to the printing process from OS
             0 MiB allocation reported by mallinfo(arena+hblkhd)
        169185 MiB available memory on the node where the printing process lives
------------------
     c_bands:  1 eigenvalues not converged
     ethr =  1.18E-05,  avg # of iterations = 11.2

     negative rho (up, down):  7.971E-01 0.000E+00

     total cpu time spent up to now is      326.7 secs

     total energy              =   -4399.91966093 Ry
     estimated scf accuracy    <       0.03341851 Ry

     iteration # 23     ecut=    60.00 Ry     beta= 0.15
     Davidson diagonalization with overlap

---- Real-time Memory Report at c_bands before calling an iterative solver
             0 MiB given to the printing process from OS
             0 MiB allocation reported by mallinfo(arena+hblkhd)
        169133 MiB available memory on the node where the printing process lives
------------------
     ethr =  7.86E-06,  avg # of iterations =  9.4

     negative rho (up, down):  8.070E-01 0.000E+00

     total cpu time spent up to now is      343.8 secs

     total energy              =   -4399.91833452 Ry
     estimated scf accuracy    <       0.01855008 Ry

     iteration # 24     ecut=    60.00 Ry     beta= 0.15
     Davidson diagonalization with overlap

---- Real-time Memory Report at c_bands before calling an iterative solver
             0 MiB given to the printing process from OS
             0 MiB allocation reported by mallinfo(arena+hblkhd)
        169051 MiB available memory on the node where the printing process lives
------------------
     ethr =  4.36E-06,  avg # of iterations = 10.8

     negative rho (up, down):  8.030E-01 0.000E+00

     total cpu time spent up to now is      362.2 secs

     total energy              =   -4399.91855173 Ry
     estimated scf accuracy    <       0.01153206 Ry

     iteration # 25     ecut=    60.00 Ry     beta= 0.15
     Davidson diagonalization with overlap

---- Real-time Memory Report at c_bands before calling an iterative solver
             0 MiB given to the printing process from OS
             0 MiB allocation reported by mallinfo(arena+hblkhd)
        169094 MiB available memory on the node where the printing process lives
------------------
     ethr =  2.71E-06,  avg # of iterations =  1.3

     negative rho (up, down):  7.963E-01 0.000E+00

     total cpu time spent up to now is      375.1 secs

     total energy              =   -4399.91783611 Ry
     estimated scf accuracy    <       0.00969504 Ry

     iteration # 26     ecut=    60.00 Ry     beta= 0.15
     Davidson diagonalization with overlap

---- Real-time Memory Report at c_bands before calling an iterative solver
             0 MiB given to the printing process from OS
             0 MiB allocation reported by mallinfo(arena+hblkhd)
        169116 MiB available memory on the node where the printing process lives
------------------
     ethr =  2.28E-06,  avg # of iterations =  2.0

     negative rho (up, down):  7.936E-01 0.000E+00

     total cpu time spent up to now is      388.6 secs

     total energy              =   -4399.91669494 Ry
     estimated scf accuracy    <       0.00692647 Ry

     iteration # 27     ecut=    60.00 Ry     beta= 0.15
     Davidson diagonalization with overlap

---- Real-time Memory Report at c_bands before calling an iterative solver
             0 MiB given to the printing process from OS
             0 MiB allocation reported by mallinfo(arena+hblkhd)
        169121 MiB available memory on the node where the printing process lives
------------------
     c_bands:  1 eigenvalues not converged
     ethr =  1.63E-06,  avg # of iterations = 10.5

     negative rho (up, down):  7.969E-01 0.000E+00

     total cpu time spent up to now is      407.3 secs

     total energy              =   -4399.91698819 Ry
     estimated scf accuracy    <       0.00224224 Ry

     iteration # 28     ecut=    60.00 Ry     beta= 0.15
     Davidson diagonalization with overlap

---- Real-time Memory Report at c_bands before calling an iterative solver
             0 MiB given to the printing process from OS
             0 MiB allocation reported by mallinfo(arena+hblkhd)
        169052 MiB available memory on the node where the printing process lives
------------------
     ethr =  5.28E-07,  avg # of iterations =  8.7

     negative rho (up, down):  7.956E-01 0.000E+00

     total cpu time spent up to now is      424.3 secs

     total energy              =   -4399.91682203 Ry
     estimated scf accuracy    <       0.00103746 Ry

     iteration # 29     ecut=    60.00 Ry     beta= 0.15
     Davidson diagonalization with overlap

---- Real-time Memory Report at c_bands before calling an iterative solver
             0 MiB given to the printing process from OS
             0 MiB allocation reported by mallinfo(arena+hblkhd)
        168972 MiB available memory on the node where the printing process lives
------------------
     ethr =  2.44E-07,  avg # of iterations =  7.8

     negative rho (up, down):  7.960E-01 0.000E+00

     total cpu time spent up to now is      440.2 secs

     total energy              =   -4399.91676486 Ry
     estimated scf accuracy    <       0.00054574 Ry

     iteration # 30     ecut=    60.00 Ry     beta= 0.15
     Davidson diagonalization with overlap

---- Real-time Memory Report at c_bands before calling an iterative solver
             0 MiB given to the printing process from OS
             0 MiB allocation reported by mallinfo(arena+hblkhd)
        168971 MiB available memory on the node where the printing process lives
------------------
     ethr =  1.28E-07,  avg # of iterations =  6.4

     negative rho (up, down):  7.964E-01 0.000E+00

     total cpu time spent up to now is      455.4 secs

     total energy              =   -4399.91674331 Ry
     estimated scf accuracy    <       0.00030351 Ry

     iteration # 31     ecut=    60.00 Ry     beta= 0.15
     Davidson diagonalization with overlap

---- Real-time Memory Report at c_bands before calling an iterative solver
             0 MiB given to the printing process from OS
             0 MiB allocation reported by mallinfo(arena+hblkhd)
        168987 MiB available memory on the node where the printing process lives
------------------
     ethr =  7.14E-08,  avg # of iterations =  2.4

     negative rho (up, down):  7.944E-01 0.000E+00

     total cpu time spent up to now is      469.5 secs

     total energy              =   -4399.91674299 Ry
     estimated scf accuracy    <       0.00012565 Ry

     iteration # 32     ecut=    60.00 Ry     beta= 0.15
     Davidson diagonalization with overlap

---- Real-time Memory Report at c_bands before calling an iterative solver
             0 MiB given to the printing process from OS
             0 MiB allocation reported by mallinfo(arena+hblkhd)
        169039 MiB available memory on the node where the printing process lives
------------------
     ethr =  2.96E-08,  avg # of iterations =  2.2

     negative rho (up, down):  7.933E-01 0.000E+00

     total cpu time spent up to now is      482.9 secs

     total energy              =   -4399.91675040 Ry
     estimated scf accuracy    <       0.00006995 Ry

     iteration # 33     ecut=    60.00 Ry     beta= 0.15
     Davidson diagonalization with overlap

---- Real-time Memory Report at c_bands before calling an iterative solver
             0 MiB given to the printing process from OS
             0 MiB allocation reported by mallinfo(arena+hblkhd)
        169039 MiB available memory on the node where the printing process lives
------------------
     ethr =  1.65E-08,  avg # of iterations =  2.3

     negative rho (up, down):  7.925E-01 0.000E+00

     total cpu time spent up to now is      496.4 secs

     total energy              =   -4399.91676583 Ry
     estimated scf accuracy    <       0.00003623 Ry

     iteration # 34     ecut=    60.00 Ry     beta= 0.15
     Davidson diagonalization with overlap

---- Real-time Memory Report at c_bands before calling an iterative solver
             0 MiB given to the printing process from OS
             0 MiB allocation reported by mallinfo(arena+hblkhd)
        169054 MiB available memory on the node where the printing process lives
------------------
     ethr =  8.52E-09,  avg # of iterations =  2.4

     negative rho (up, down):  7.924E-01 0.000E+00

     total cpu time spent up to now is      509.9 secs

     total energy              =   -4399.91677325 Ry
     estimated scf accuracy    <       0.00001771 Ry

     iteration # 35     ecut=    60.00 Ry     beta= 0.15
     Davidson diagonalization with overlap

---- Real-time Memory Report at c_bands before calling an iterative solver
             0 MiB given to the printing process from OS
             0 MiB allocation reported by mallinfo(arena+hblkhd)
        169056 MiB available memory on the node where the printing process lives
------------------
     ethr =  4.17E-09,  avg # of iterations =  2.9

     negative rho (up, down):  7.923E-01 0.000E+00

     total cpu time spent up to now is      523.9 secs

     total energy              =   -4399.91677439 Ry
     estimated scf accuracy    <       0.00001253 Ry

     iteration # 36     ecut=    60.00 Ry     beta= 0.15
     Davidson diagonalization with overlap

---- Real-time Memory Report at c_bands before calling an iterative solver
             0 MiB given to the printing process from OS
             0 MiB allocation reported by mallinfo(arena+hblkhd)
        169073 MiB available memory on the node where the printing process lives
------------------
     ethr =  2.95E-09,  avg # of iterations =  2.2

     negative rho (up, down):  7.924E-01 0.000E+00

     total cpu time spent up to now is      537.4 secs

     total energy              =   -4399.91677402 Ry
     estimated scf accuracy    <       0.00000863 Ry

     iteration # 37     ecut=    60.00 Ry     beta= 0.15
     Davidson diagonalization with overlap

---- Real-time Memory Report at c_bands before calling an iterative solver
             0 MiB given to the printing process from OS
             0 MiB allocation reported by mallinfo(arena+hblkhd)
        169078 MiB available memory on the node where the printing process lives
------------------
     ethr =  2.03E-09,  avg # of iterations =  2.0

     negative rho (up, down):  7.924E-01 0.000E+00

     total cpu time spent up to now is      550.9 secs

     total energy              =   -4399.91677284 Ry
     estimated scf accuracy    <       0.00000706 Ry

     iteration # 38     ecut=    60.00 Ry     beta= 0.15
     Davidson diagonalization with overlap

---- Real-time Memory Report at c_bands before calling an iterative solver
             0 MiB given to the printing process from OS
             0 MiB allocation reported by mallinfo(arena+hblkhd)
        169079 MiB available memory on the node where the printing process lives
------------------
     ethr =  1.66E-09,  avg # of iterations =  2.8

     negative rho (up, down):  7.923E-01 0.000E+00

     total cpu time spent up to now is      564.5 secs

     total energy              =   -4399.91677280 Ry
     estimated scf accuracy    <       0.00000350 Ry

     iteration # 39     ecut=    60.00 Ry     beta= 0.15
     Davidson diagonalization with overlap

---- Real-time Memory Report at c_bands before calling an iterative solver
             0 MiB given to the printing process from OS
             0 MiB allocation reported by mallinfo(arena+hblkhd)
        169083 MiB available memory on the node where the printing process lives
------------------
     ethr =  8.24E-10,  avg # of iterations =  2.2

     negative rho (up, down):  7.923E-01 0.000E+00

     total cpu time spent up to now is      577.9 secs

     total energy              =   -4399.91677211 Ry
     estimated scf accuracy    <       0.00000226 Ry

     iteration # 40     ecut=    60.00 Ry     beta= 0.15
     Davidson diagonalization with overlap

---- Real-time Memory Report at c_bands before calling an iterative solver
             0 MiB given to the printing process from OS
             0 MiB allocation reported by mallinfo(arena+hblkhd)
        169108 MiB available memory on the node where the printing process lives
------------------
     ethr =  5.31E-10,  avg # of iterations =  2.2

     negative rho (up, down):  7.923E-01 0.000E+00

     total cpu time spent up to now is      591.3 secs

     total energy              =   -4399.91677330 Ry
     estimated scf accuracy    <       0.00000159 Ry

     iteration # 41     ecut=    60.00 Ry     beta= 0.15
     Davidson diagonalization with overlap

---- Real-time Memory Report at c_bands before calling an iterative solver
             0 MiB given to the printing process from OS
             0 MiB allocation reported by mallinfo(arena+hblkhd)
        169126 MiB available memory on the node where the printing process lives
------------------
     ethr =  3.74E-10,  avg # of iterations =  2.3

     negative rho (up, down):  7.923E-01 0.000E+00

     total cpu time spent up to now is      604.8 secs

     total energy              =   -4399.91677498 Ry
     estimated scf accuracy    <       0.00000132 Ry

     iteration # 42     ecut=    60.00 Ry     beta= 0.15
     Davidson diagonalization with overlap

---- Real-time Memory Report at c_bands before calling an iterative solver
             0 MiB given to the printing process from OS
             0 MiB allocation reported by mallinfo(arena+hblkhd)
        169126 MiB available memory on the node where the printing process lives
------------------
     ethr =  3.11E-10,  avg # of iterations =  3.7

     negative rho (up, down):  7.924E-01 0.000E+00

     total cpu time spent up to now is      619.0 secs

     total energy              =   -4399.91677535 Ry
     estimated scf accuracy    <       0.00000067 Ry

     iteration # 43     ecut=    60.00 Ry     beta= 0.15
     Davidson diagonalization with overlap

---- Real-time Memory Report at c_bands before calling an iterative solver
             0 MiB given to the printing process from OS
             0 MiB allocation reported by mallinfo(arena+hblkhd)
        169123 MiB available memory on the node where the printing process lives
------------------
     ethr =  1.57E-10,  avg # of iterations =  3.0

     negative rho (up, down):  7.924E-01 0.000E+00

     total cpu time spent up to now is      632.7 secs

     total energy              =   -4399.91677545 Ry
     estimated scf accuracy    <       0.00000036 Ry

     iteration # 44     ecut=    60.00 Ry     beta= 0.15
     Davidson diagonalization with overlap

---- Real-time Memory Report at c_bands before calling an iterative solver
             0 MiB given to the printing process from OS
             0 MiB allocation reported by mallinfo(arena+hblkhd)
        169121 MiB available memory on the node where the printing process lives
------------------
     ethr =  8.44E-11,  avg # of iterations =  3.0

     negative rho (up, down):  7.924E-01 0.000E+00

     total cpu time spent up to now is      646.8 secs

     total energy              =   -4399.91677543 Ry
     estimated scf accuracy    <       0.00000018 Ry

     iteration # 45     ecut=    60.00 Ry     beta= 0.15
     Davidson diagonalization with overlap

---- Real-time Memory Report at c_bands before calling an iterative solver
             0 MiB given to the printing process from OS
             0 MiB allocation reported by mallinfo(arena+hblkhd)
        169119 MiB available memory on the node where the printing process lives
------------------
     ethr =  4.31E-11,  avg # of iterations =  3.5

     negative rho (up, down):  7.924E-01 0.000E+00

     total cpu time spent up to now is      660.9 secs

     total energy              =   -4399.91677542 Ry
     estimated scf accuracy    <       0.00000005 Ry

     iteration # 46     ecut=    60.00 Ry     beta= 0.15
     Davidson diagonalization with overlap

---- Real-time Memory Report at c_bands before calling an iterative solver
             0 MiB given to the printing process from OS
             0 MiB allocation reported by mallinfo(arena+hblkhd)
        169130 MiB available memory on the node where the printing process lives
------------------
     ethr =  1.29E-11,  avg # of iterations =  3.1

     negative rho (up, down):  7.924E-01 0.000E+00

     total cpu time spent up to now is      674.9 secs

     total energy              =   -4399.91677543 Ry
     estimated scf accuracy    <       0.00000003 Ry

     iteration # 47     ecut=    60.00 Ry     beta= 0.15
     Davidson diagonalization with overlap

---- Real-time Memory Report at c_bands before calling an iterative solver
             0 MiB given to the printing process from OS
             0 MiB allocation reported by mallinfo(arena+hblkhd)
        169142 MiB available memory on the node where the printing process lives
------------------
     ethr =  7.95E-12,  avg # of iterations =  2.0

     negative rho (up, down):  7.924E-01 0.000E+00

     total cpu time spent up to now is      688.3 secs

     total energy              =   -4399.91677545 Ry
     estimated scf accuracy    <       0.00000002 Ry

     iteration # 48     ecut=    60.00 Ry     beta= 0.15
     Davidson diagonalization with overlap

---- Real-time Memory Report at c_bands before calling an iterative solver
             0 MiB given to the printing process from OS
             0 MiB allocation reported by mallinfo(arena+hblkhd)
        169150 MiB available memory on the node where the printing process lives
------------------
     ethr =  3.65E-12,  avg # of iterations =  2.7

     negative rho (up, down):  7.924E-01 0.000E+00

     total cpu time spent up to now is      701.9 secs

     total energy              =   -4399.91677547 Ry
     estimated scf accuracy    <       0.00000001 Ry

     iteration # 49     ecut=    60.00 Ry     beta= 0.15
     Davidson diagonalization with overlap

---- Real-time Memory Report at c_bands before calling an iterative solver
             0 MiB given to the printing process from OS
             0 MiB allocation reported by mallinfo(arena+hblkhd)
        169160 MiB available memory on the node where the printing process lives
------------------
     ethr =  2.68E-12,  avg # of iterations =  2.8

     negative rho (up, down):  7.924E-01 0.000E+00

     total cpu time spent up to now is      715.4 secs

     End of self-consistent calculation

          k = 0.0000 0.0000 0.0000 ( 65197 PWs)   bands (ev):

   -92.7200 -92.6662 -92.5737 -92.5254 -92.4681 -92.4266 -92.4087 -92.2851
   -56.0735 -56.0527 -55.9311 -55.9207 -55.9123 -55.9074 -55.8703 -55.8429
   -55.8272 -55.8263 -55.8174 -55.7756 -55.7569 -55.7198 -55.7000 -55.6671
   -55.6608 -55.6145 -55.6119 -55.6117 -55.6033 -55.5597 -55.5392 -55.4519
   -31.2957 -31.2760 -31.1354 -31.0923 -31.0744 -31.0482 -30.8410 -30.7442
   -29.8674 -29.8238 -29.7995 -29.6904 -15.1004 -15.0590 -14.9772 -14.8465
   -14.6572 -14.5321 -14.2381 -14.2208 -14.1881 -14.1456 -14.1023 -14.0937
   -14.0780 -14.0614 -14.0308 -14.0066 -13.9491 -13.7995 -13.6255 -13.5867
   -13.5564 -13.5293 -13.5093 -13.4562 -13.4216 -13.3401 -13.2692 -13.1605
   -13.1283 -13.1238 -13.1077 -13.0930 -13.0757 -13.0419 -13.0225 -13.0094
   -12.9792 -12.9421 -12.9395 -12.9197 -12.9178 -12.9062 -12.8196 -12.8044
   -12.7877 -12.6911 -12.6457 -12.6143 -12.3607 -12.2151 -12.0571 -11.9847
   -11.8811 -11.8066 -11.7960 -11.7731 -11.7557 -11.6918 -11.6749 -11.6394
   -11.6111 -11.4997 -11.4195 -11.4158  -2.9615  -2.7288  -2.4991  -2.3529
    -2.2893  -2.1469  -1.8400  -1.8260  -1.8058  -1.7227  -1.7028  -1.6345
    -1.6185  -1.5764  -1.5337  -1.3515  -1.1287  -1.0979  -0.9500  -0.9360
    -0.8898  -0.8731  -0.8270  -0.8104  -0.7533  -0.7268  -0.6537  -0.6437
    -0.5662  -0.4343  -0.4214  -0.3939  -0.3122  -0.3009  -0.2871  -0.2225
    -0.1477  -0.0998  -0.0536  -0.0259   0.0392   0.1069   0.1611   0.1783
     0.1942   0.4494   0.4652   0.6360   0.7041   0.7696   0.8118   0.9017
     0.9161   0.9289   1.0023   1.0288   1.0638   1.1219   1.2541   1.3126
     1.3320   1.3496   1.3644   1.4300   1.5024   1.6064   1.6170   1.6819
     1.6968   1.7390   1.7537   1.7628   1.8192   1.8699   1.8862   1.9215
     1.9561   2.0052   2.1365   2.2255   2.2655   2.2749   2.4336   2.4459
     2.4867   2.4936   2.5994   2.6363   2.6613   2.6812   2.6960   2.7617
     2.7999   2.8918   2.9191   2.9325   2.9398   3.0059   3.0103   3.0340
     3.0419   3.0503   3.0613   3.0702   3.0825   3.0896   3.1005   3.1097
     3.1205   3.1377   3.1586   3.1640   3.1760   3.2162   3.3185   3.4124
     4.0909   4.4089   4.7508   4.8591   5.0235   5.8128   5.9375   5.9653
     5.9831   6.2951   6.3423   6.4749   6.4836   6.7368   6.9973   7.0871
     7.1556   7.2978   7.3677   7.5731   7.6397   7.6507   7.6693   7.9062
     7.9612   8.1007   8.1156   8.2143   8.4620   8.5974   8.8095   8.8549

     occupation numbers 
     1.0000   1.0000   1.0000   1.0000   1.0000   1.0000   1.0000   1.0000
     1.0000   1.0000   1.0000   1.0000   1.0000   1.0000   1.0000   1.0000
     1.0000   1.0000   1.0000   1.0000   1.0000   1.0000   1.0000   1.0000
     1.0000   1.0000   1.0000   1.0000   1.0000   1.0000   1.0000   1.0000
     1.0000   1.0000   1.0000   1.0000   1.0000   1.0000   1.0000   1.0000
     1.0000   1.0000   1.0000   1.0000   1.0000   1.0000   1.0000   1.0000
     1.0000   1.0000   1.0000   1.0000   1.0000   1.0000   1.0000   1.0000
     1.0000   1.0000   1.0000   1.0000   1.0000   1.0000   1.0000   1.0000
     1.0000   1.0000   1.0000   1.0000   1.0000   1.0000   1.0000   1.0000
     1.0000   1.0000   1.0000   1.0000   1.0000   1.0000   1.0000   1.0000
     1.0000   1.0000   1.0000   1.0000   1.0000   1.0000   1.0000   1.0000
     1.0000   1.0000   1.0000   1.0000   1.0000   1.0000   1.0000   1.0000
     1.0000   1.0000   1.0000   1.0000   1.0000   1.0000   1.0000   1.0000
     1.0000   1.0000   1.0000   1.0000   1.0000   1.0000   1.0000   1.0000
     1.0000   1.0000   1.0000   1.0000   1.0000   1.0000   1.0000   1.0000
     1.0000   1.0000   1.0000   1.0000   1.0000   1.0000   1.0000   1.0000
     1.0000   1.0000   1.0000   1.0000   1.0000   1.0000   1.0000   1.0000
     1.0000   1.0000   1.0000   1.0000   1.0000   1.0000   1.0000   1.0000
     1.0000   1.0000   1.0000   1.0000   1.0000   1.0000   1.0000   1.0000
     1.0000   1.0000   1.0000   1.0000   0.9999   0.9999   0.9999   0.9998
     0.9998   0.9998   0.9997   0.9996   0.9996   0.9994   0.9989   0.9985
     0.9983   0.9982   0.9980   0.9974   0.9963   0.9942   0.9940   0.9921
     0.9916   0.9901   0.9895   0.9891   0.9865   0.9836   0.9826   0.9802
     0.9776   0.9735   0.9590   0.9460   0.9392   0.9375   0.9029   0.8997
     0.8886   0.8867   0.8536   0.8406   0.8315   0.8239   0.8182   0.7913
     0.7746   0.7316   0.7181   0.7113   0.7076   0.6730   0.6707   0.6578
     0.6535   0.6489   0.6428   0.6379   0.6310   0.6270   0.6209   0.6157
     0.6095   0.5997   0.5877   0.5846   0.5776   0.5541   0.4937   0.4383
     0.1224   0.0510   0.0161   0.0106   0.0054   0.0001   0.0000   0.0000
     0.0000   0.0000   0.0000   0.0000   0.0000   0.0000   0.0000   0.0000
     0.0000   0.0000   0.0000   0.0000   0.0000   0.0000   0.0000   0.0000
     0.0000   0.0000   0.0000   0.0000   0.0000   0.0000   0.0000   0.0000

          k = 0.0000 0.2500 0.0000 ( 65257 PWs)   bands (ev):

   -92.7200 -92.6662 -92.5737 -92.5254 -92.4681 -92.4266 -92.4087 -92.2851
   -56.0735 -56.0527 -55.9311 -55.9207 -55.9123 -55.9074 -55.8703 -55.8429
   -55.8272 -55.8263 -55.8174 -55.7756 -55.7569 -55.7198 -55.7000 -55.6671
   -55.6608 -55.6145 -55.6119 -55.6118 -55.6033 -55.5597 -55.5392 -55.4519
   -31.2955 -31.2759 -31.1356 -31.0904 -31.0762 -31.0484 -30.8407 -30.7446
   -29.8668 -29.8235 -29.8002 -29.6907 -15.0636 -15.0330 -14.9521 -14.8172
   -14.6966 -14.5233 -14.3847 -14.2048 -14.1706 -14.1492 -14.1221 -14.0629
   -14.0570 -14.0430 -14.0219 -13.9792 -13.8687 -13.8290 -13.6670 -13.6482
   -13.5971 -13.5635 -13.5213 -13.4732 -13.4334 -13.3615 -13.3260 -13.2742
   -13.2100 -13.1659 -13.1269 -13.1128 -13.0925 -13.0148 -12.9942 -12.9652
   -12.9503 -12.9198 -12.8851 -12.8590 -12.8470 -12.8189 -12.8145 -12.7864
   -12.7703 -12.6698 -12.5555 -12.4989 -12.4221 -12.2664 -12.1139 -12.0527
   -11.8466 -11.8033 -11.7759 -11.7480 -11.7313 -11.6836 -11.6725 -11.6500
   -11.6149 -11.5142 -11.4611 -11.4505  -2.8262  -2.6045  -2.4668  -2.2849
    -2.2414  -2.0776  -1.8588  -1.7735  -1.7604  -1.7040  -1.5997  -1.5845
    -1.5518  -1.5244  -1.4807  -1.2828  -1.1539  -1.1421  -1.0668  -1.0553
    -0.9510  -0.9209  -0.8649  -0.8393  -0.7976  -0.7343  -0.7074  -0.6753
    -0.6430  -0.6270  -0.5929  -0.5194  -0.4690  -0.4076  -0.2904  -0.2738
    -0.2304  -0.1088  -0.0713  -0.0166   0.0354   0.0862   0.1104   0.1403
     0.2012   0.4967   0.5846   0.6188   0.7038   0.7466   0.7695   0.8881
     0.9062   1.0024   1.0290   1.0561   1.1696   1.2625   1.2876   1.3106
     1.3262   1.3544   1.4149   1.4414   1.4696   1.5174   1.5517   1.5808
     1.6652   1.6974   1.7328   1.7842   1.8437   1.8850   1.9068   1.9337
     1.9541   2.0437   2.1774   2.2460   2.2597   2.3399   2.3865   2.4242
     2.4338   2.4940   2.5351   2.6162   2.6547   2.6722   2.7783   2.8503
     2.8757   2.9033   2.9239   2.9386   2.9473   2.9558   2.9647   2.9945
     2.9974   3.0144   3.0206   3.0285   3.0474   3.0598   3.0667   3.0883
     3.1006   3.1045   3.1396   3.1564   3.2163   3.5946   3.6307   3.8584
     4.2782   4.4061   4.6908   5.0173   5.0449   5.6267   5.7670   5.9067
     5.9797   6.0731   6.0916   6.1704   6.5907   6.8727   6.9279   7.1036
     7.3180   7.3293   7.4709   7.4861   7.6301   7.7628   7.8382   7.9723
     8.0056   8.1284   8.1848   8.3067   8.3954   8.5972   8.7533   8.9077

     occupation numbers 
     1.0000   1.0000   1.0000   1.0000   1.0000   1.0000   1.0000   1.0000
     1.0000   1.0000   1.0000   1.0000   1.0000   1.0000   1.0000   1.0000
     1.0000   1.0000   1.0000   1.0000   1.0000   1.0000   1.0000   1.0000
     1.0000   1.0000   1.0000   1.0000   1.0000   1.0000   1.0000   1.0000
     1.0000   1.0000   1.0000   1.0000   1.0000   1.0000   1.0000   1.0000
     1.0000   1.0000   1.0000   1.0000   1.0000   1.0000   1.0000   1.0000
     1.0000   1.0000   1.0000   1.0000   1.0000   1.0000   1.0000   1.0000
     1.0000   1.0000   1.0000   1.0000   1.0000   1.0000   1.0000   1.0000
     1.0000   1.0000   1.0000   1.0000   1.0000   1.0000   1.0000   1.0000
     1.0000   1.0000   1.0000   1.0000   1.0000   1.0000   1.0000   1.0000
     1.0000   1.0000   1.0000   1.0000   1.0000   1.0000   1.0000   1.0000
     1.0000   1.0000   1.0000   1.0000   1.0000   1.0000   1.0000   1.0000
     1.0000   1.0000   1.0000   1.0000   1.0000   1.0000   1.0000   1.0000
     1.0000   1.0000   1.0000   1.0000   1.0000   1.0000   1.0000   1.0000
     1.0000   1.0000   1.0000   1.0000   1.0000   1.0000   1.0000   1.0000
     1.0000   1.0000   1.0000   1.0000   1.0000   1.0000   1.0000   1.0000
     1.0000   1.0000   1.0000   1.0000   1.0000   1.0000   1.0000   1.0000
     1.0000   1.0000   1.0000   1.0000   1.0000   1.0000   1.0000   1.0000
     1.0000   1.0000   1.0000   1.0000   1.0000   1.0000   1.0000   1.0000
     1.0000   1.0000   1.0000   1.0000   0.9999   0.9999   0.9999   0.9998
     0.9998   0.9997   0.9996   0.9996   0.9993   0.9988   0.9986   0.9985
     0.9984   0.9981   0.9975   0.9972   0.9968   0.9961   0.9954   0.9948
     0.9926   0.9916   0.9903   0.9882   0.9851   0.9827   0.9813   0.9793
     0.9778   0.9697   0.9534   0.9426   0.9402   0.9247   0.9143   0.9053
     0.9028   0.8866   0.8744   0.8478   0.8339   0.8274   0.7841   0.7515
     0.7394   0.7260   0.7157   0.7083   0.7038   0.6994   0.6948   0.6791
     0.6775   0.6685   0.6651   0.6608   0.6505   0.6437   0.6398   0.6278
     0.6208   0.6187   0.5986   0.5889   0.5540   0.3351   0.3158   0.2068
     0.0748   0.0515   0.0200   0.0056   0.0049   0.0003   0.0001   0.0001
     0.0000   0.0000   0.0000   0.0000   0.0000   0.0000   0.0000   0.0000
     0.0000   0.0000   0.0000   0.0000   0.0000   0.0000   0.0000   0.0000
     0.0000   0.0000   0.0000   0.0000   0.0000   0.0000   0.0000   0.0000

          k = 0.0000-0.5000 0.0000 ( 65180 PWs)   bands (ev):

   -92.7200 -92.6662 -92.5737 -92.5254 -92.4681 -92.4266 -92.4087 -92.2851
   -56.0735 -56.0527 -55.9311 -55.9207 -55.9123 -55.9074 -55.8703 -55.8429
   -55.8272 -55.8263 -55.8174 -55.7756 -55.7569 -55.7198 -55.7000 -55.6671
   -55.6608 -55.6145 -55.6119 -55.6118 -55.6033 -55.5597 -55.5391 -55.4519
   -31.2953 -31.2757 -31.1358 -31.0878 -31.0788 -31.0485 -30.8404 -30.7449
   -29.8662 -29.8232 -29.8008 -29.6910 -15.0297 -14.9807 -14.9297 -14.7985
   -14.7170 -14.5763 -14.4317 -14.2983 -14.1762 -14.1106 -14.0629 -14.0569
   -14.0061 -13.9895 -13.9453 -13.9237 -13.8987 -13.8601 -13.8161 -13.7916
   -13.6023 -13.5453 -13.5294 -13.4756 -13.4307 -13.3773 -13.3513 -13.3009
   -13.2913 -13.2360 -13.1277 -13.1129 -13.0662 -13.0419 -12.9880 -12.9723
   -12.9474 -12.9005 -12.8559 -12.8335 -12.8148 -12.7776 -12.7518 -12.7237
   -12.6706 -12.6634 -12.5331 -12.4229 -12.3415 -12.2818 -12.2230 -12.1959
   -11.8003 -11.7981 -11.7710 -11.7343 -11.6997 -11.6887 -11.6450 -11.6411
   -11.5959 -11.5362 -11.5221 -11.5077  -2.6115  -2.5523  -2.4012  -2.3290
    -2.0480  -1.9644  -1.8374  -1.6992  -1.6636  -1.6425  -1.5649  -1.5317
    -1.4521  -1.4157  -1.3386  -1.2984  -1.2592  -1.2319  -1.1764  -1.1383
    -1.0895  -1.0549  -1.0226  -0.9868  -0.8783  -0.8330  -0.7991  -0.7979
    -0.7111  -0.6790  -0.6553  -0.6090  -0.5238  -0.4489  -0.3663  -0.3405
    -0.2232  -0.1913  -0.0491  -0.0172   0.0180   0.0610   0.1861   0.2519
     0.3728   0.4409   0.4478   0.5774   0.6280   0.7129   0.8582   0.9602
     0.9930   1.0322   1.0378   1.0724   1.0921   1.1294   1.1462   1.1572
     1.2694   1.3262   1.3523   1.3771   1.6435   1.6728   1.6982   1.7892
     1.8100   1.8515   1.8686   1.8932   1.9108   1.9159   1.9454   1.9833
     2.0082   2.0362   2.0462   2.0778   2.1334   2.2168   2.2524   2.4213
     2.5793   2.5876   2.6080   2.6462   2.6508   2.6634   2.7117   2.7231
     2.7758   2.7865   2.8047   2.8889   2.9026   2.9607   2.9658   2.9901
     2.9938   3.0116   3.0142   3.0175   3.0241   3.0302   3.0490   3.0583
     3.0646   3.1243   3.1300   3.1461   3.2040   4.1013   4.1230   4.1889
     4.2426   4.7116   4.8898   5.0135   5.1404   5.4082   5.4485   5.5719
     5.6965   5.9940   6.0269   6.0657   6.6645   6.8457   6.9439   7.2143
     7.3042   7.3483   7.4514   7.5129   7.6768   7.7369   7.8433   7.8939
     8.1325   8.2213   8.4509   8.5611   8.6442   8.7846   8.7958   8.8264

     occupation numbers 
     1.0000   1.0000   1.0000   1.0000   1.0000   1.0000   1.0000   1.0000
     1.0000   1.0000   1.0000   1.0000   1.0000   1.0000   1.0000   1.0000
     1.0000   1.0000   1.0000   1.0000   1.0000   1.0000   1.0000   1.0000
     1.0000   1.0000   1.0000   1.0000   1.0000   1.0000   1.0000   1.0000
     1.0000   1.0000   1.0000   1.0000   1.0000   1.0000   1.0000   1.0000
     1.0000   1.0000   1.0000   1.0000   1.0000   1.0000   1.0000   1.0000
     1.0000   1.0000   1.0000   1.0000   1.0000   1.0000   1.0000   1.0000
     1.0000   1.0000   1.0000   1.0000   1.0000   1.0000   1.0000   1.0000
     1.0000   1.0000   1.0000   1.0000   1.0000   1.0000   1.0000   1.0000
     1.0000   1.0000   1.0000   1.0000   1.0000   1.0000   1.0000   1.0000
     1.0000   1.0000   1.0000   1.0000   1.0000   1.0000   1.0000   1.0000
     1.0000   1.0000   1.0000   1.0000   1.0000   1.0000   1.0000   1.0000
     1.0000   1.0000   1.0000   1.0000   1.0000   1.0000   1.0000   1.0000
     1.0000   1.0000   1.0000   1.0000   1.0000   1.0000   1.0000   1.0000
     1.0000   1.0000   1.0000   1.0000   1.0000   1.0000   1.0000   1.0000
     1.0000   1.0000   1.0000   1.0000   1.0000   1.0000   1.0000   1.0000
     1.0000   1.0000   1.0000   1.0000   1.0000   1.0000   1.0000   1.0000
     1.0000   1.0000   1.0000   1.0000   1.0000   1.0000   1.0000   1.0000
     1.0000   1.0000   1.0000   1.0000   1.0000   1.0000   1.0000   1.0000
     1.0000   1.0000   1.0000   1.0000   1.0000   0.9999   0.9999   0.9998
     0.9997   0.9996   0.9996   0.9995   0.9995   0.9994   0.9993   0.9993
     0.9988   0.9984   0.9982   0.9979   0.9933   0.9924   0.9916   0.9879
     0.9869   0.9847   0.9837   0.9822   0.9810   0.9806   0.9785   0.9754
     0.9732   0.9705   0.9695   0.9661   0.9594   0.9474   0.9415   0.9060
     0.8603   0.8576   0.8506   0.8370   0.8354   0.8307   0.8120   0.8074
     0.7852   0.7806   0.7725   0.7330   0.7263   0.6969   0.6942   0.6814
     0.6795   0.6700   0.6686   0.6668   0.6632   0.6599   0.6496   0.6445
     0.6410   0.6074   0.6041   0.5949   0.5613   0.1193   0.1131   0.0954
     0.0826   0.0186   0.0094   0.0057   0.0033   0.0009   0.0007   0.0004
     0.0002   0.0000   0.0000   0.0000   0.0000   0.0000   0.0000   0.0000
     0.0000   0.0000   0.0000   0.0000   0.0000   0.0000   0.0000   0.0000
     0.0000   0.0000   0.0000   0.0000   0.0000   0.0000   0.0000   0.0000

          k = 0.2500 0.2500 0.0000 ( 65198 PWs)   bands (ev):

   -92.7200 -92.6662 -92.5737 -92.5254 -92.4681 -92.4266 -92.4087 -92.2851
   -56.0735 -56.0527 -55.9311 -55.9207 -55.9123 -55.9074 -55.8703 -55.8429
   -55.8272 -55.8263 -55.8174 -55.7756 -55.7569 -55.7198 -55.7000 -55.6671
   -55.6608 -55.6145 -55.6119 -55.6117 -55.6033 -55.5597 -55.5392 -55.4519
   -31.2939 -31.2775 -31.1352 -31.0903 -31.0761 -31.0487 -30.8408 -30.7447
   -29.8658 -29.8245 -29.7998 -29.6911 -15.0352 -14.9977 -14.9244 -14.8066
   -14.6894 -14.5634 -14.4902 -14.2844 -14.1280 -14.1147 -14.0797 -14.0494
   -14.0274 -14.0038 -13.9655 -13.9442 -13.8608 -13.8432 -13.6827 -13.6684
   -13.6403 -13.6189 -13.5745 -13.5297 -13.4627 -13.4450 -13.3295 -13.3004
   -13.2481 -13.1599 -13.1202 -13.0703 -13.0642 -13.0371 -13.0094 -12.9691
   -12.9651 -12.9357 -12.8994 -12.8605 -12.8109 -12.7651 -12.7597 -12.7323
   -12.7146 -12.6559 -12.4988 -12.4706 -12.4379 -12.2955 -12.1486 -12.0922
   -11.8188 -11.7870 -11.7763 -11.7693 -11.7064 -11.6724 -11.6654 -11.6295
   -11.6223 -11.5307 -11.4894 -11.4719  -2.6879  -2.4787  -2.3609  -2.2672
    -2.1458  -2.0807  -1.8837  -1.7384  -1.7189  -1.6906  -1.5945  -1.5619
    -1.4673  -1.4401  -1.3896  -1.2583  -1.2104  -1.1380  -1.0924  -1.0488
    -1.0248  -1.0001  -0.9581  -0.9421  -0.8518  -0.8016  -0.7369  -0.6878
    -0.6570  -0.6078  -0.5939  -0.5311  -0.4811  -0.4266  -0.3907  -0.3057
    -0.2500  -0.2238  -0.1841  -0.1294  -0.0475  -0.0180   0.0041   0.0821
     0.1137   0.3883   0.5368   0.5722   0.6314   0.6732   0.7193   0.7782
     0.8444   0.8786   1.1515   1.2200   1.2930   1.3194   1.3663   1.3988
     1.4347   1.4717   1.4889   1.5171   1.5606   1.5683   1.5841   1.6259
     1.6654   1.7061   1.7697   1.8033   1.8138   1.8458   1.8810   1.9340
     1.9586   2.0855   2.1566   2.1920   2.2155   2.2753   2.3473   2.3751
     2.4114   2.4350   2.4482   2.5584   2.5968   2.6850   2.7919   2.8612
     2.8754   2.8819   2.9000   2.9127   2.9234   2.9407   2.9443   2.9553
     2.9694   2.9802   2.9981   3.0044   3.0160   3.0372   3.0500   3.0597
     3.0913   3.3919   3.4855   3.5271   3.5971   3.6420   3.8363   3.9352
     4.2869   4.4940   4.6958   4.9630   5.1625   5.6292   5.6759   5.7299
     5.8163   5.8770   6.0156   6.1457   6.2160   6.7301   6.8880   7.0639
     7.2096   7.5402   7.5900   7.6970   7.7589   7.8546   7.9655   8.0979
     8.1535   8.1933   8.2986   8.3197   8.4320   8.4820   8.6590   8.8339

     occupation numbers 
     1.0000   1.0000   1.0000   1.0000   1.0000   1.0000   1.0000   1.0000
     1.0000   1.0000   1.0000   1.0000   1.0000   1.0000   1.0000   1.0000
     1.0000   1.0000   1.0000   1.0000   1.0000   1.0000   1.0000   1.0000
     1.0000   1.0000   1.0000   1.0000   1.0000   1.0000   1.0000   1.0000
     1.0000   1.0000   1.0000   1.0000   1.0000   1.0000   1.0000   1.0000
     1.0000   1.0000   1.0000   1.0000   1.0000   1.0000   1.0000   1.0000
     1.0000   1.0000   1.0000   1.0000   1.0000   1.0000   1.0000   1.0000
     1.0000   1.0000   1.0000   1.0000   1.0000   1.0000   1.0000   1.0000
     1.0000   1.0000   1.0000   1.0000   1.0000   1.0000   1.0000   1.0000
     1.0000   1.0000   1.0000   1.0000   1.0000   1.0000   1.0000   1.0000
     1.0000   1.0000   1.0000   1.0000   1.0000   1.0000   1.0000   1.0000
     1.0000   1.0000   1.0000   1.0000   1.0000   1.0000   1.0000   1.0000
     1.0000   1.0000   1.0000   1.0000   1.0000   1.0000   1.0000   1.0000
     1.0000   1.0000   1.0000   1.0000   1.0000   1.0000   1.0000   1.0000
     1.0000   1.0000   1.0000   1.0000   1.0000   1.0000   1.0000   1.0000
     1.0000   1.0000   1.0000   1.0000   1.0000   1.0000   1.0000   1.0000
     1.0000   1.0000   1.0000   1.0000   1.0000   1.0000   1.0000   1.0000
     1.0000   1.0000   1.0000   1.0000   1.0000   1.0000   1.0000   1.0000
     1.0000   1.0000   1.0000   1.0000   1.0000   1.0000   1.0000   1.0000
     1.0000   1.0000   1.0000   1.0000   1.0000   1.0000   0.9999   0.9999
     0.9999   0.9998   0.9993   0.9990   0.9986   0.9984   0.9980   0.9977
     0.9973   0.9968   0.9965   0.9961   0.9953   0.9951   0.9948   0.9937
     0.9926   0.9913   0.9888   0.9873   0.9867   0.9850   0.9829   0.9793
     0.9774   0.9652   0.9563   0.9512   0.9476   0.9374   0.9231   0.9170
     0.9084   0.9025   0.8991   0.8671   0.8544   0.8225   0.7782   0.7464
     0.7396   0.7364   0.7276   0.7213   0.7159   0.7072   0.7053   0.6997
     0.6923   0.6867   0.6772   0.6738   0.6676   0.6561   0.6491   0.6437
     0.6261   0.4503   0.3960   0.3723   0.3338   0.3098   0.2163   0.1758
     0.0730   0.0391   0.0197   0.0070   0.0029   0.0003   0.0002   0.0002
     0.0001   0.0001   0.0000   0.0000   0.0000   0.0000   0.0000   0.0000
     0.0000   0.0000   0.0000   0.0000   0.0000   0.0000   0.0000   0.0000
     0.0000   0.0000   0.0000   0.0000   0.0000   0.0000   0.0000   0.0000

          k = 0.2500-0.5000 0.0000 ( 65138 PWs)   bands (ev):

   -92.7200 -92.6662 -92.5737 -92.5254 -92.4681 -92.4266 -92.4087 -92.2851
   -56.0735 -56.0527 -55.9311 -55.9207 -55.9123 -55.9074 -55.8703 -55.8429
   -55.8272 -55.8263 -55.8174 -55.7756 -55.7569 -55.7198 -55.7000 -55.6671
   -55.6608 -55.6145 -55.6119 -55.6117 -55.6033 -55.5597 -55.5391 -55.4519
   -31.2937 -31.2774 -31.1354 -31.0877 -31.0787 -31.0489 -30.8405 -30.7450
   -29.8652 -29.8242 -29.8004 -29.6914 -14.9992 -14.9537 -14.8865 -14.7678
   -14.7402 -14.6176 -14.5329 -14.3973 -14.0926 -14.0418 -14.0128 -13.9919
   -13.9756 -13.9622 -13.9297 -13.9121 -13.8771 -13.8379 -13.8116 -13.7759
   -13.6849 -13.6357 -13.5919 -13.5574 -13.4894 -13.4750 -13.3873 -13.3558
   -13.2246 -13.1605 -13.1383 -13.0537 -13.0458 -13.0112 -13.0051 -12.9878
   -12.9617 -12.9306 -12.8576 -12.8381 -12.8087 -12.7804 -12.7678 -12.6748
   -12.6639 -12.6420 -12.5396 -12.4094 -12.3390 -12.2675 -12.2119 -12.1911
   -11.7942 -11.7823 -11.7716 -11.7448 -11.7126 -11.6852 -11.6426 -11.6160
   -11.5930 -11.5491 -11.5232 -11.5116  -2.4696  -2.4043  -2.2751  -2.1978
    -2.0683  -1.9847  -1.8618  -1.7108  -1.6581  -1.6347  -1.5718  -1.5590
    -1.4631  -1.3943  -1.3093  -1.2605  -1.2508  -1.1879  -1.1462  -1.1106
    -1.0635  -1.0257  -0.9909  -0.9514  -0.9410  -0.8943  -0.8652  -0.8238
    -0.7927  -0.7256  -0.6253  -0.5858  -0.5067  -0.4408  -0.3928  -0.3507
    -0.3287  -0.2724  -0.1116  -0.1029  -0.0049   0.0339   0.0407   0.0847
     0.1223   0.1573   0.1890   0.2567   0.5304   0.6298   0.6785   0.7428
     1.0154   1.0361   1.1257   1.1493   1.3169   1.3498   1.3919   1.4162
     1.4309   1.4519   1.5129   1.5591   1.5959   1.6694   1.7734   1.8074
     1.8255   1.8318   1.8748   1.8864   1.8950   1.9378   1.9479   1.9706
     1.9911   2.0158   2.0390   2.0714   2.1323   2.1714   2.2511   2.3877
     2.5346   2.5516   2.5696   2.5959   2.6175   2.6484   2.6714   2.6835
     2.7074   2.7881   2.8115   2.8719   2.8758   2.8860   2.8987   2.9156
     2.9278   2.9478   2.9570   2.9862   2.9968   3.0135   3.0215   3.0289
     3.0408   3.5577   3.5837   3.7243   3.7798   4.1111   4.1653   4.1858
     4.3017   4.7322   4.9109   5.0481   5.1137   5.2864   5.4189   5.5955
     5.6067   5.7524   5.7689   6.1609   6.3868   6.4757   6.5587   7.0532
     7.4443   7.5400   7.6911   7.7488   7.8019   7.8643   8.0241   8.1989
     8.3345   8.3500   8.4383   8.5229   8.5401   8.6775   8.7030   8.7556

     occupation numbers 
     1.0000   1.0000   1.0000   1.0000   1.0000   1.0000   1.0000   1.0000
     1.0000   1.0000   1.0000   1.0000   1.0000   1.0000   1.0000   1.0000
     1.0000   1.0000   1.0000   1.0000   1.0000   1.0000   1.0000   1.0000
     1.0000   1.0000   1.0000   1.0000   1.0000   1.0000   1.0000   1.0000
     1.0000   1.0000   1.0000   1.0000   1.0000   1.0000   1.0000   1.0000
     1.0000   1.0000   1.0000   1.0000   1.0000   1.0000   1.0000   1.0000
     1.0000   1.0000   1.0000   1.0000   1.0000   1.0000   1.0000   1.0000
     1.0000   1.0000   1.0000   1.0000   1.0000   1.0000   1.0000   1.0000
     1.0000   1.0000   1.0000   1.0000   1.0000   1.0000   1.0000   1.0000
     1.0000   1.0000   1.0000   1.0000   1.0000   1.0000   1.0000   1.0000
     1.0000   1.0000   1.0000   1.0000   1.0000   1.0000   1.0000   1.0000
     1.0000   1.0000   1.0000   1.0000   1.0000   1.0000   1.0000   1.0000
     1.0000   1.0000   1.0000   1.0000   1.0000   1.0000   1.0000   1.0000
     1.0000   1.0000   1.0000   1.0000   1.0000   1.0000   1.0000   1.0000
     1.0000   1.0000   1.0000   1.0000   1.0000   1.0000   1.0000   1.0000
     1.0000   1.0000   1.0000   1.0000   1.0000   1.0000   1.0000   1.0000
     1.0000   1.0000   1.0000   1.0000   1.0000   1.0000   1.0000   1.0000
     1.0000   1.0000   1.0000   1.0000   1.0000   1.0000   1.0000   1.0000
     1.0000   1.0000   1.0000   1.0000   1.0000   1.0000   1.0000   1.0000
     1.0000   1.0000   1.0000   1.0000   1.0000   1.0000   1.0000   0.9999
     0.9997   0.9996   0.9994   0.9993   0.9984   0.9982   0.9978   0.9975
     0.9973   0.9971   0.9962   0.9953   0.9945   0.9925   0.9887   0.9871
     0.9861   0.9858   0.9833   0.9826   0.9820   0.9790   0.9783   0.9765
     0.9747   0.9725   0.9702   0.9668   0.9596   0.9542   0.9417   0.9141
     0.8745   0.8693   0.8635   0.8548   0.8473   0.8362   0.8277   0.8230
     0.8137   0.7798   0.7694   0.7413   0.7394   0.7345   0.7282   0.7199
     0.7137   0.7035   0.6988   0.6835   0.6779   0.6690   0.6647   0.6606
     0.6541   0.3553   0.3410   0.2681   0.2417   0.1165   0.1015   0.0962
     0.0700   0.0172   0.0086   0.0049   0.0037   0.0017   0.0009   0.0003
     0.0003   0.0001   0.0001   0.0000   0.0000   0.0000   0.0000   0.0000
     0.0000   0.0000   0.0000   0.0000   0.0000   0.0000   0.0000   0.0000
     0.0000   0.0000   0.0000   0.0000   0.0000   0.0000   0.0000   0.0000

          k =-0.5000-0.5000 0.0000 ( 65132 PWs)   bands (ev):

   -92.7200 -92.6662 -92.5737 -92.5254 -92.4681 -92.4266 -92.4087 -92.2851
   -56.0735 -56.0527 -55.9311 -55.9207 -55.9123 -55.9074 -55.8703 -55.8429
   -55.8272 -55.8263 -55.8174 -55.7756 -55.7569 -55.7198 -55.7000 -55.6671
   -55.6608 -55.6145 -55.6119 -55.6117 -55.6033 -55.5597 -55.5391 -55.4519
   -31.2916 -31.2795 -31.1350 -31.0876 -31.0786 -31.0493 -30.8407 -30.7451
   -29.8642 -29.8252 -29.8000 -29.6919 -14.9529 -14.9267 -14.8082 -14.7979
   -14.7052 -14.6655 -14.6329 -14.4982 -14.0037 -13.9902 -13.9573 -13.9395
   -13.9215 -13.9121 -13.8776 -13.8694 -13.8577 -13.8436 -13.8294 -13.7533
   -13.7444 -13.7168 -13.6817 -13.6808 -13.5771 -13.5348 -13.4199 -13.4157
   -13.1744 -13.1362 -13.0708 -13.0442 -13.0287 -13.0032 -13.0009 -12.9924
   -12.9843 -12.9725 -12.8525 -12.8406 -12.8126 -12.7875 -12.7669 -12.6750
   -12.6233 -12.6158 -12.5557 -12.3964 -12.3353 -12.2526 -12.2007 -12.1864
   -11.7910 -11.7786 -11.7606 -11.7442 -11.7088 -11.6904 -11.6579 -11.5967
   -11.5761 -11.5709 -11.5207 -11.5173  -2.2459  -2.1692  -2.1597  -2.0890
    -2.0493  -1.9708  -1.9030  -1.7778  -1.6613  -1.6307  -1.5921  -1.5344
    -1.4624  -1.4491  -1.3764  -1.3350  -1.2182  -1.1895  -1.1409  -1.1113
    -1.0471  -1.0014  -0.9822  -0.9699  -0.9180  -0.8719  -0.8573  -0.7437
    -0.6855  -0.6407  -0.5895  -0.5651  -0.5535  -0.5172  -0.4746  -0.4401
    -0.4291  -0.3429  -0.2721  -0.2296  -0.2027  -0.1295  -0.0718  -0.0584
    -0.0014   0.0179   0.0309   0.0388   0.4987   0.5558   0.6247   0.6543
     1.0459   1.0595   1.0894   1.1264   1.4008   1.4207   1.4262   1.4639
     1.5967   1.6933   1.7199   1.7564   1.7814   1.7988   1.8084   1.8402
     1.8532   1.8712   1.8739   1.9236   1.9314   1.9566   1.9841   1.9882
     2.0054   2.0460   2.0689   2.0803   2.1155   2.1410   2.2119   2.2795
     2.5402   2.5792   2.5982   2.6184   2.6261   2.6589   2.6607   2.6806
     2.6925   2.7078   2.7297   2.7413   2.7883   2.8112   2.8149   2.8312
     2.8530   2.8720   2.8779   2.8826   2.9124   2.9927   2.9992   3.0266
     3.0355   3.9726   4.0148   4.0457   4.0962   4.2992   4.3719   4.3995
     4.6400   4.7620   4.8450   4.9743   5.0621   5.0783   5.1861   5.2863
     5.3666   5.8539   5.8809   5.9464   6.0175   6.3815   6.5143   6.5888
     7.7635   7.8460   7.9045   7.9308   7.9361   7.9621   7.9994   8.0708
     8.2547   8.3654   8.5410   8.5719   8.5959   8.6141   8.6411   8.6973

     occupation numbers 
     1.0000   1.0000   1.0000   1.0000   1.0000   1.0000   1.0000   1.0000
     1.0000   1.0000   1.0000   1.0000   1.0000   1.0000   1.0000   1.0000
     1.0000   1.0000   1.0000   1.0000   1.0000   1.0000   1.0000   1.0000
     1.0000   1.0000   1.0000   1.0000   1.0000   1.0000   1.0000   1.0000
     1.0000   1.0000   1.0000   1.0000   1.0000   1.0000   1.0000   1.0000
     1.0000   1.0000   1.0000   1.0000   1.0000   1.0000   1.0000   1.0000
     1.0000   1.0000   1.0000   1.0000   1.0000   1.0000   1.0000   1.0000
     1.0000   1.0000   1.0000   1.0000   1.0000   1.0000   1.0000   1.0000
     1.0000   1.0000   1.0000   1.0000   1.0000   1.0000   1.0000   1.0000
     1.0000   1.0000   1.0000   1.0000   1.0000   1.0000   1.0000   1.0000
     1.0000   1.0000   1.0000   1.0000   1.0000   1.0000   1.0000   1.0000
     1.0000   1.0000   1.0000   1.0000   1.0000   1.0000   1.0000   1.0000
     1.0000   1.0000   1.0000   1.0000   1.0000   1.0000   1.0000   1.0000
     1.0000   1.0000   1.0000   1.0000   1.0000   1.0000   1.0000   1.0000
     1.0000   1.0000   1.0000   1.0000   1.0000   1.0000   1.0000   1.0000
     1.0000   1.0000   1.0000   1.0000   1.0000   1.0000   1.0000   1.0000
     1.0000   1.0000   1.0000   1.0000   1.0000   1.0000   1.0000   1.0000
     1.0000   1.0000   1.0000   1.0000   1.0000   1.0000   1.0000   1.0000
     1.0000   1.0000   1.0000   1.0000   1.0000   1.0000   1.0000   1.0000
     1.0000   1.0000   1.0000   1.0000   1.0000   1.0000   1.0000   1.0000
     0.9996   0.9996   0.9995   0.9994   0.9977   0.9975   0.9974   0.9969
     0.9945   0.9917   0.9908   0.9894   0.9883   0.9875   0.9870   0.9853
     0.9846   0.9835   0.9834   0.9801   0.9795   0.9776   0.9753   0.9750
     0.9734   0.9695   0.9671   0.9658   0.9617   0.9584   0.9482   0.9366
     0.8728   0.8603   0.8540   0.8470   0.8443   0.8323   0.8317   0.8242
     0.8195   0.8135   0.8047   0.7999   0.7797   0.7695   0.7679   0.7604
     0.7503   0.7412   0.7384   0.7361   0.7214   0.6801   0.6766   0.6619
     0.6570   0.1618   0.1469   0.1366   0.1209   0.0705   0.0571   0.0525
     0.0240   0.0154   0.0112   0.0067   0.0046   0.0043   0.0026   0.0017
     0.0011   0.0001   0.0001   0.0000   0.0000   0.0000   0.0000   0.0000
     0.0000   0.0000   0.0000   0.0000   0.0000   0.0000   0.0000   0.0000
     0.0000   0.0000   0.0000   0.0000   0.0000   0.0000   0.0000   0.0000

          k = 0.2500 0.0000 0.0000 ( 65257 PWs)   bands (ev):

   -92.7200 -92.6662 -92.5737 -92.5254 -92.4681 -92.4266 -92.4087 -92.2851
   -56.0735 -56.0527 -55.9311 -55.9207 -55.9123 -55.9074 -55.8703 -55.8429
   -55.8272 -55.8263 -55.8174 -55.7756 -55.7569 -55.7198 -55.7000 -55.6671
   -55.6608 -55.6145 -55.6119 -55.6118 -55.6033 -55.5597 -55.5392 -55.4519
[...]
     0.7449   0.7275   0.7180   0.7149   0.7043   0.6986   0.6912   0.6801
     0.6768   0.6649   0.6572   0.6544   0.6467   0.6339   0.6219   0.6194
     0.6146   0.6110   0.6053   0.5989   0.5206   0.3566   0.3221   0.2035
     0.0784   0.0459   0.0221   0.0058   0.0047   0.0003   0.0001   0.0001
     0.0000   0.0000   0.0000   0.0000   0.0000   0.0000   0.0000   0.0000
     0.0000   0.0000   0.0000   0.0000   0.0000   0.0000   0.0000   0.0000
     0.0000   0.0000   0.0000   0.0000   0.0000   0.0000   0.0000   0.0000

          k =-0.5000 0.0000 0.0000 ( 65180 PWs)   bands (ev):

   -92.7200 -92.6662 -92.5737 -92.5254 -92.4681 -92.4266 -92.4087 -92.2851
   -56.0735 -56.0527 -55.9311 -55.9207 -55.9123 -55.9074 -55.8703 -55.8429
   -55.8272 -55.8263 -55.8174 -55.7756 -55.7569 -55.7198 -55.7000 -55.6671
   -55.6608 -55.6145 -55.6119 -55.6117 -55.6033 -55.5597 -55.5392 -55.4519
   -31.2919 -31.2798 -31.1346 -31.0920 -31.0742 -31.0490 -30.8413 -30.7444
   -29.8654 -29.8258 -29.7988 -29.6912 -15.0341 -14.9833 -14.9211 -14.8151
   -14.7076 -14.5653 -14.4177 -14.2820 -14.1512 -14.1444 -14.1270 -14.0608
   -14.0101 -13.9778 -13.9288 -13.9263 -13.9102 -13.8577 -13.8454 -13.7389
   -13.5736 -13.5512 -13.5135 -13.5065 -13.4371 -13.3831 -13.3398 -13.2862
   -13.2633 -13.2623 -13.1050 -13.0727 -13.0613 -13.0395 -13.0288 -12.9944
   -12.9664 -12.9473 -12.9272 -12.9119 -12.7962 -12.6979 -12.6588 -12.6530
   -12.6493 -12.6207 -12.5590 -12.5014 -12.3721 -12.3453 -12.2005 -12.1542
   -11.7978 -11.7765 -11.7696 -11.7548 -11.7367 -11.6949 -11.6333 -11.6160
   -11.5834 -11.5377 -11.5284 -11.5129  -2.6013  -2.5629  -2.3989  -2.3599
    -2.0467  -1.9722  -1.8227  -1.7056  -1.6666  -1.6218  -1.5726  -1.5476
    -1.4247  -1.3801  -1.3652  -1.2828  -1.2474  -1.2328  -1.2003  -1.1425
    -1.0738  -1.0447  -1.0171  -0.9207  -0.8735  -0.8243  -0.7916  -0.7706
    -0.7418  -0.6929  -0.6682  -0.6273  -0.5334  -0.4614  -0.3958  -0.3343
    -0.1632  -0.1366  -0.0752  -0.0459   0.0300   0.0339   0.1736   0.2036
     0.2397   0.4217   0.5207   0.5684   0.6396   0.7247   0.8349   0.8518
     0.9876   1.0118   1.0644   1.0869   1.1296   1.1442   1.1871   1.2126
     1.2822   1.3250   1.3723   1.3792   1.6807   1.6912   1.7078   1.7283
     1.8407   1.8483   1.8633   1.8730   1.8996   1.9118   1.9511   1.9759
     1.9987   2.0583   2.0699   2.1211   2.1402   2.2007   2.3004   2.4150
     2.4759   2.4977   2.5736   2.6075   2.6345   2.7012   2.7089   2.7184
     2.7482   2.8005   2.8229   2.8637   2.9098   2.9440   2.9806   2.9851
     2.9856   3.0009   3.0116   3.0247   3.0400   3.0455   3.0674   3.0691
     3.0943   3.1102   3.1153   3.2452   3.2599   4.0351   4.1116   4.1736
     4.3184   4.7745   4.8537   5.0128   5.0355   5.4742   5.5030   5.5747
     5.6378   5.9555   6.0165   6.0492   6.6994   6.7932   6.9934   7.2700
     7.3025   7.3318   7.4189   7.4749   7.7573   7.7685   7.8728   8.0038
     8.0399   8.2738   8.4179   8.5253   8.6154   8.6967   8.7486   8.8574

     occupation numbers 
     1.0000   1.0000   1.0000   1.0000   1.0000   1.0000   1.0000   1.0000
     1.0000   1.0000   1.0000   1.0000   1.0000   1.0000   1.0000   1.0000
     1.0000   1.0000   1.0000   1.0000   1.0000   1.0000   1.0000   1.0000
     1.0000   1.0000   1.0000   1.0000   1.0000   1.0000   1.0000   1.0000
     1.0000   1.0000   1.0000   1.0000   1.0000   1.0000   1.0000   1.0000
     1.0000   1.0000   1.0000   1.0000   1.0000   1.0000   1.0000   1.0000
     1.0000   1.0000   1.0000   1.0000   1.0000   1.0000   1.0000   1.0000
     1.0000   1.0000   1.0000   1.0000   1.0000   1.0000   1.0000   1.0000
     1.0000   1.0000   1.0000   1.0000   1.0000   1.0000   1.0000   1.0000
     1.0000   1.0000   1.0000   1.0000   1.0000   1.0000   1.0000   1.0000
     1.0000   1.0000   1.0000   1.0000   1.0000   1.0000   1.0000   1.0000
     1.0000   1.0000   1.0000   1.0000   1.0000   1.0000   1.0000   1.0000
     1.0000   1.0000   1.0000   1.0000   1.0000   1.0000   1.0000   1.0000
     1.0000   1.0000   1.0000   1.0000   1.0000   1.0000   1.0000   1.0000
     1.0000   1.0000   1.0000   1.0000   1.0000   1.0000   1.0000   1.0000
     1.0000   1.0000   1.0000   1.0000   1.0000   1.0000   1.0000   1.0000
     1.0000   1.0000   1.0000   1.0000   1.0000   1.0000   1.0000   1.0000
     1.0000   1.0000   1.0000   1.0000   1.0000   1.0000   1.0000   1.0000
     1.0000   1.0000   1.0000   1.0000   1.0000   1.0000   1.0000   1.0000
     1.0000   1.0000   1.0000   1.0000   1.0000   0.9999   0.9999   0.9999
     0.9997   0.9997   0.9996   0.9995   0.9994   0.9993   0.9992   0.9991
     0.9987   0.9984   0.9980   0.9979   0.9922   0.9918   0.9912   0.9905
     0.9853   0.9849   0.9840   0.9834   0.9817   0.9809   0.9780   0.9760
     0.9740   0.9682   0.9670   0.9610   0.9585   0.9499   0.9327   0.9075
     0.8916   0.8855   0.8622   0.8508   0.8413   0.8161   0.8131   0.8093
     0.7970   0.7744   0.7642   0.7452   0.7227   0.7055   0.6865   0.6841
     0.6838   0.6757   0.6700   0.6629   0.6545   0.6516   0.6395   0.6385
     0.6244   0.6154   0.6125   0.5370   0.5284   0.1401   0.1163   0.0993
     0.0667   0.0147   0.0109   0.0057   0.0052   0.0006   0.0006   0.0004
     0.0003   0.0000   0.0000   0.0000   0.0000   0.0000   0.0000   0.0000
     0.0000   0.0000   0.0000   0.0000   0.0000   0.0000   0.0000   0.0000
     0.0000   0.0000   0.0000   0.0000   0.0000   0.0000   0.0000   0.0000

          k =-0.2500 0.2500 0.0000 ( 65198 PWs)   bands (ev):

   -92.7200 -92.6662 -92.5737 -92.5254 -92.4681 -92.4266 -92.4087 -92.2851
   -56.0735 -56.0527 -55.9311 -55.9207 -55.9123 -55.9074 -55.8703 -55.8429
   -55.8272 -55.8263 -55.8174 -55.7756 -55.7569 -55.7198 -55.7000 -55.6671
   -55.6608 -55.6145 -55.6119 -55.6117 -55.6033 -55.5597 -55.5392 -55.4519
   -31.2939 -31.2775 -31.1352 -31.0903 -31.0761 -31.0487 -30.8408 -30.7447
   -29.8658 -29.8245 -29.7998 -29.6911 -15.0365 -14.9967 -14.9227 -14.8050
   -14.6958 -14.5674 -14.4824 -14.2758 -14.1349 -14.1045 -14.0940 -14.0445
   -14.0221 -14.0041 -13.9848 -13.9404 -13.8575 -13.8440 -13.6907 -13.6653
   -13.6368 -13.6165 -13.5780 -13.5161 -13.4569 -13.4532 -13.3352 -13.3004
   -13.2419 -13.1640 -13.1218 -13.0658 -13.0582 -13.0291 -13.0081 -12.9817
   -12.9540 -12.9444 -12.8958 -12.8681 -12.8106 -12.7884 -12.7595 -12.7215
   -12.7095 -12.6590 -12.5212 -12.4603 -12.4119 -12.3012 -12.1412 -12.1018
   -11.8179 -11.7963 -11.7695 -11.7573 -11.7160 -11.6821 -11.6581 -11.6374
   -11.6144 -11.5304 -11.4849 -11.4751  -2.6863  -2.4777  -2.3566  -2.2690
    -2.1500  -2.0833  -1.8814  -1.7352  -1.7166  -1.6886  -1.5950  -1.5608
    -1.4670  -1.4333  -1.4073  -1.2639  -1.2084  -1.1413  -1.1125  -1.0519
    -1.0302  -0.9901  -0.9611  -0.9210  -0.8581  -0.8104  -0.7489  -0.6791
    -0.6529  -0.6020  -0.5739  -0.5282  -0.4718  -0.4292  -0.3850  -0.2863
    -0.2527  -0.2417  -0.1975  -0.1307  -0.0501  -0.0154   0.0125   0.0850
     0.1109   0.3694   0.5382   0.5817   0.6208   0.6791   0.7215   0.7799
     0.8495   0.8778   1.1589   1.2704   1.3100   1.3435   1.3477   1.3924
     1.4089   1.4531   1.4850   1.4994   1.5251   1.5698   1.5833   1.6254
     1.6422   1.6877   1.7843   1.7935   1.8122   1.8491   1.8794   1.9148
     1.9670   2.0747   2.1873   2.2125   2.2573   2.2776   2.3452   2.3872
     2.4136   2.4387   2.4566   2.5590   2.5949   2.6857   2.7933   2.8659
     2.8750   2.8861   2.8968   2.9068   2.9218   2.9338   2.9451   2.9554
     2.9687   2.9778   2.9906   2.9995   3.0058   3.0388   3.0502   3.0596
     3.0926   3.3850   3.4668   3.5302   3.6014   3.6506   3.8200   3.9442
     4.2853   4.4933   4.6959   4.9739   5.1624   5.6298   5.6747   5.7350
     5.8146   5.8779   6.0045   6.1686   6.1918   6.7579   6.8883   7.0610
     7.1710   7.5537   7.5981   7.6583   7.7926   7.8707   7.9575   8.1083
     8.1464   8.1967   8.2843   8.3524   8.4328   8.4679   8.6371   8.8320

     occupation numbers 
     1.0000   1.0000   1.0000   1.0000   1.0000   1.0000   1.0000   1.0000
     1.0000   1.0000   1.0000   1.0000   1.0000   1.0000   1.0000   1.0000
     1.0000   1.0000   1.0000   1.0000   1.0000   1.0000   1.0000   1.0000
     1.0000   1.0000   1.0000   1.0000   1.0000   1.0000   1.0000   1.0000
     1.0000   1.0000   1.0000   1.0000   1.0000   1.0000   1.0000   1.0000
     1.0000   1.0000   1.0000   1.0000   1.0000   1.0000   1.0000   1.0000
     1.0000   1.0000   1.0000   1.0000   1.0000   1.0000   1.0000   1.0000
     1.0000   1.0000   1.0000   1.0000   1.0000   1.0000   1.0000   1.0000
     1.0000   1.0000   1.0000   1.0000   1.0000   1.0000   1.0000   1.0000
     1.0000   1.0000   1.0000   1.0000   1.0000   1.0000   1.0000   1.0000
     1.0000   1.0000   1.0000   1.0000   1.0000   1.0000   1.0000   1.0000
     1.0000   1.0000   1.0000   1.0000   1.0000   1.0000   1.0000   1.0000
     1.0000   1.0000   1.0000   1.0000   1.0000   1.0000   1.0000   1.0000
     1.0000   1.0000   1.0000   1.0000   1.0000   1.0000   1.0000   1.0000
     1.0000   1.0000   1.0000   1.0000   1.0000   1.0000   1.0000   1.0000
     1.0000   1.0000   1.0000   1.0000   1.0000   1.0000   1.0000   1.0000
     1.0000   1.0000   1.0000   1.0000   1.0000   1.0000   1.0000   1.0000
     1.0000   1.0000   1.0000   1.0000   1.0000   1.0000   1.0000   1.0000
     1.0000   1.0000   1.0000   1.0000   1.0000   1.0000   1.0000   1.0000
     1.0000   1.0000   1.0000   1.0000   1.0000   1.0000   0.9999   0.9999
     0.9999   0.9998   0.9993   0.9988   0.9985   0.9982   0.9982   0.9978
     0.9976   0.9971   0.9966   0.9964   0.9959   0.9951   0.9948   0.9938
     0.9933   0.9919   0.9882   0.9877   0.9868   0.9848   0.9830   0.9807
     0.9768   0.9665   0.9519   0.9481   0.9406   0.9370   0.9235   0.9142
     0.9079   0.9016   0.8969   0.8669   0.8551   0.8222   0.7776   0.7441
     0.7398   0.7344   0.7292   0.7242   0.7168   0.7107   0.7049   0.6996
     0.6927   0.6879   0.6812   0.6764   0.6731   0.6552   0.6489   0.6438
     0.6253   0.4544   0.4067   0.3706   0.3314   0.3053   0.2234   0.1723
     0.0733   0.0392   0.0196   0.0067   0.0029   0.0003   0.0002   0.0002
     0.0001   0.0001   0.0000   0.0000   0.0000   0.0000   0.0000   0.0000
     0.0000   0.0000   0.0000   0.0000   0.0000   0.0000   0.0000   0.0000
     0.0000   0.0000   0.0000   0.0000   0.0000   0.0000   0.0000   0.0000

          k =-0.5000 0.2500 0.0000 ( 65138 PWs)   bands (ev):

   -92.7200 -92.6662 -92.5737 -92.5254 -92.4681 -92.4266 -92.4087 -92.2851
   -56.0735 -56.0527 -55.9311 -55.9207 -55.9123 -55.9074 -55.8703 -55.8429
   -55.8272 -55.8263 -55.8174 -55.7756 -55.7569 -55.7198 -55.7000 -55.6671
   -55.6608 -55.6145 -55.6119 -55.6117 -55.6033 -55.5597 -55.5391 -55.4519
   -31.2917 -31.2796 -31.1348 -31.0902 -31.0761 -31.0491 -30.8410 -30.7447
   -29.8648 -29.8255 -29.7994 -29.6915 -15.0014 -14.9571 -14.8781 -14.7803
   -14.7381 -14.6115 -14.5221 -14.3959 -14.0859 -14.0545 -14.0424 -13.9960
   -13.9764 -13.9517 -13.9153 -13.9118 -13.8876 -13.8485 -13.8368 -13.7306
   -13.6564 -13.6097 -13.6061 -13.5927 -13.4902 -13.4837 -13.3809 -13.3425
   -13.2177 -13.1826 -13.0871 -13.0595 -13.0447 -13.0339 -13.0122 -12.9817
   -12.9615 -12.9518 -12.9263 -12.8671 -12.8045 -12.7359 -12.7104 -12.6546
   -12.6406 -12.6316 -12.5571 -12.4407 -12.3407 -12.3137 -12.1976 -12.1668
   -11.7907 -11.7780 -11.7637 -11.7519 -11.7303 -11.6998 -11.6204 -11.6119
   -11.5886 -11.5522 -11.5240 -11.5155  -2.4591  -2.4172  -2.2686  -2.2266
    -2.0659  -1.9908  -1.8470  -1.7120  -1.6555  -1.6285  -1.5888  -1.5500
    -1.4696  -1.3545  -1.2974  -1.2744  -1.2491  -1.1727  -1.1436  -1.1046
    -1.0875  -1.0265  -0.9986  -0.9582  -0.9233  -0.8944  -0.8370  -0.8098
    -0.7683  -0.7340  -0.6302  -0.6010  -0.5164  -0.4544  -0.4220  -0.3666
    -0.2802  -0.2456  -0.1459  -0.1024  -0.0514   0.0034   0.0245   0.1015
     0.1231   0.1550   0.2120   0.2518   0.5592   0.6332   0.6777   0.7011
     0.9983   1.0491   1.1264   1.1509   1.3283   1.3661   1.4029   1.4159
     1.4343   1.4520   1.5222   1.5631   1.6078   1.6314   1.7637   1.7974
     1.8211   1.8326   1.8734   1.8984   1.9110   1.9255   1.9473   1.9702
     2.0126   2.0325   2.0641   2.0863   2.1175   2.1771   2.2954   2.4012
     2.4231   2.4966   2.5342   2.5921   2.6330   2.6388   2.6763   2.7050
     2.7316   2.7988   2.8238   2.8595   2.8760   2.8863   2.8999   2.9224
     2.9353   2.9540   2.9660   2.9825   2.9949   3.0064   3.0136   3.0242
     3.0348   3.5604   3.6279   3.7542   3.7799   4.0444   4.1347   4.1781
     4.3947   4.7685   4.8696   5.0137   5.0612   5.3845   5.4143   5.5867
     5.6068   5.7327   5.7605   6.1049   6.3844   6.4864   6.6410   6.9849
     7.4532   7.5352   7.7033   7.7827   7.8555   7.8834   8.0094   8.1847
     8.3186   8.3823   8.4340   8.5245   8.5549   8.6143   8.6785   8.7284

     occupation numbers 
     1.0000   1.0000   1.0000   1.0000   1.0000   1.0000   1.0000   1.0000
     1.0000   1.0000   1.0000   1.0000   1.0000   1.0000   1.0000   1.0000
     1.0000   1.0000   1.0000   1.0000   1.0000   1.0000   1.0000   1.0000
     1.0000   1.0000   1.0000   1.0000   1.0000   1.0000   1.0000   1.0000
     1.0000   1.0000   1.0000   1.0000   1.0000   1.0000   1.0000   1.0000
     1.0000   1.0000   1.0000   1.0000   1.0000   1.0000   1.0000   1.0000
     1.0000   1.0000   1.0000   1.0000   1.0000   1.0000   1.0000   1.0000
     1.0000   1.0000   1.0000   1.0000   1.0000   1.0000   1.0000   1.0000
     1.0000   1.0000   1.0000   1.0000   1.0000   1.0000   1.0000   1.0000
     1.0000   1.0000   1.0000   1.0000   1.0000   1.0000   1.0000   1.0000
     1.0000   1.0000   1.0000   1.0000   1.0000   1.0000   1.0000   1.0000
     1.0000   1.0000   1.0000   1.0000   1.0000   1.0000   1.0000   1.0000
     1.0000   1.0000   1.0000   1.0000   1.0000   1.0000   1.0000   1.0000
     1.0000   1.0000   1.0000   1.0000   1.0000   1.0000   1.0000   1.0000
     1.0000   1.0000   1.0000   1.0000   1.0000   1.0000   1.0000   1.0000
     1.0000   1.0000   1.0000   1.0000   1.0000   1.0000   1.0000   1.0000
     1.0000   1.0000   1.0000   1.0000   1.0000   1.0000   1.0000   1.0000
     1.0000   1.0000   1.0000   1.0000   1.0000   1.0000   1.0000   1.0000
     1.0000   1.0000   1.0000   1.0000   1.0000   1.0000   1.0000   1.0000
     1.0000   1.0000   1.0000   1.0000   1.0000   1.0000   1.0000   0.9999
     0.9997   0.9996   0.9994   0.9993   0.9984   0.9980   0.9977   0.9975
     0.9973   0.9971   0.9960   0.9952   0.9942   0.9936   0.9891   0.9875
     0.9864   0.9858   0.9834   0.9818   0.9810   0.9799   0.9783   0.9765
     0.9728   0.9709   0.9676   0.9651   0.9614   0.9534   0.9336   0.9109
     0.9055   0.8858   0.8747   0.8560   0.8418   0.8398   0.8258   0.8146
     0.8039   0.7751   0.7638   0.7472   0.7393   0.7343   0.7276   0.7165
     0.7099   0.7003   0.6941   0.6855   0.6789   0.6728   0.6689   0.6632
     0.6574   0.3538   0.3173   0.2537   0.2416   0.1370   0.1098   0.0981
     0.0533   0.0150   0.0102   0.0057   0.0046   0.0010   0.0009   0.0004
     0.0003   0.0002   0.0001   0.0000   0.0000   0.0000   0.0000   0.0000
     0.0000   0.0000   0.0000   0.0000   0.0000   0.0000   0.0000   0.0000
     0.0000   0.0000   0.0000   0.0000   0.0000   0.0000   0.0000   0.0000

     the Fermi energy is     3.3078 ev

!    total energy              =   -4399.91677549 Ry
     estimated scf accuracy    <          6.3E-09 Ry
     smearing contrib. (-TS)   =      -1.14634976 Ry
     internal energy E=F+TS    =   -4398.77042573 Ry

     The total energy is F=E-TS. E is the sum of the following terms:
     one-electron contribution =  -21252.83241420 Ry
     hartree contribution      =   10754.25608341 Ry
     xc contribution           =    -686.72916761 Ry
     ewald contribution        =    7053.18019432 Ry
     one-center paw contrib.   =    -266.64512166 Ry
      -> PAW hartree energy AE =      25.11407296 Ry
      -> PAW hartree energy PS =     -24.99859512 Ry
      -> PAW xc energy AE      =     -16.51047497 Ry
      -> PAW xc energy PS      =       6.86961268 Ry
      -> total E_H with PAW    =   10754.37156125 Ry
      -> total E_XC with PAW   =    -696.37002989 Ry

     convergence has been achieved in  49 iterations

     Writing all to output data dir /bsuhome/zayahcortright/scratch/pwscf.save/
 
     init_run     :      7.57s CPU      7.91s WALL (       1 calls)
     electrons    :    694.36s CPU    706.91s WALL (       1 calls)

     Called by init_run:
     wfcinit      :      5.91s CPU      6.03s WALL (       1 calls)
     wfcinit:atom :      0.05s CPU      0.07s WALL (       5 calls)
     wfcinit:wfcr :      5.57s CPU      5.66s WALL (       5 calls)
     potinit      :      0.16s CPU      0.19s WALL (       1 calls)
     hinit0       :      0.60s CPU      0.73s WALL (       1 calls)

     Called by electrons:
     c_bands      :    548.08s CPU    552.91s WALL (      49 calls)
     sum_band     :    109.73s CPU    114.07s WALL (      49 calls)
     v_of_rho     :      5.41s CPU      5.67s WALL (      50 calls)
     v_h          :      0.49s CPU      0.49s WALL (      50 calls)
     v_xc         :      4.92s CPU      5.18s WALL (      50 calls)
     newd         :     16.66s CPU     19.24s WALL (      50 calls)
     PAW_pot      :      1.59s CPU      1.62s WALL (      50 calls)
     mix_rho      :     12.61s CPU     12.89s WALL (      49 calls)

     Called by c_bands:
     init_us_2    :      7.08s CPU      7.13s WALL (     495 calls)
     init_us_2:cp :      7.08s CPU      7.13s WALL (     495 calls)
     cegterg      :    516.94s CPU    521.48s WALL (     245 calls)

     Called by sum_band:
     sum_band:wei :      0.35s CPU      0.35s WALL (      49 calls)
     sum_band:loo :     89.75s CPU     90.41s WALL (      49 calls)
     sum_band:buf :      1.47s CPU      1.49s WALL (     245 calls)
     sum_band:ini :      3.43s CPU      3.44s WALL (     245 calls)
     sum_band:cal :     18.42s CPU     18.48s WALL (     245 calls)
     sum_band:bec :      0.53s CPU      0.53s WALL (     245 calls)
     addusdens    :     18.27s CPU     21.92s WALL (      49 calls)
                                        0.00s GPU  (      49 calls)
     addusd:skk   :      0.34s CPU      0.70s WALL (     196 calls)
                                        0.00s GPU  (     196 calls)

     Called by *egterg:
     cdiaghg      :     54.83s CPU     55.04s WALL (    1305 calls)
     cegterg:over :     37.17s CPU     37.29s WALL (    1060 calls)
     cegterg:upda :     27.50s CPU     27.86s WALL (    1060 calls)
     cegterg:last :     56.39s CPU     56.54s WALL (     448 calls)
     cdiaghg:chol :      3.15s CPU      3.16s WALL (    1305 calls)
     cdiaghg:inve :      3.40s CPU      3.41s WALL (    1305 calls)
     cdiaghg:para :      6.87s CPU      6.91s WALL (    2610 calls)
     h_psi        :    286.96s CPU    289.64s WALL (    1310 calls)
     s_psi        :     38.71s CPU     38.82s WALL (    1310 calls)
     g_psi        :      1.06s CPU      1.06s WALL (    1060 calls)

     Called by h_psi:
     h_psi:calbec :     42.21s CPU     42.34s WALL (    1310 calls)
     vloc_psi     :    203.10s CPU    205.12s WALL (    1310 calls)
     add_vuspsi   :     38.34s CPU     38.47s WALL (    1310 calls)

     General routines
     calbec       :     60.62s CPU     60.81s WALL (    1555 calls)
     fft          :      3.55s CPU      3.60s WALL (     648 calls)
     ffts         :      4.55s CPU      4.59s WALL (    5211 calls)
     fftw         :    173.71s CPU    175.09s WALL (  328104 calls)
     interpolate  :      0.40s CPU      0.41s WALL (      50 calls)
 
     Parallel routines

     PAW routines
     PAW_pot      :      1.59s CPU      1.62s WALL (      50 calls)
 
     PWSCF        :  11m44.05s CPU  12m 0.07s WALL

 
   This run was terminated on:  18: 1:18  21Jun2024            

=------------------------------------------------------------------------------=
   JOB DONE.
=------------------------------------------------------------------------------=
