
     Program PWSCF v.7.2 starts on 22Jun2024 at  0:26:12 

     This program is part of the open-source Quantum ESPRESSO suite
     for quantum simulation of materials; please cite
         "P. Giannozzi et al., J. Phys.:Condens. Matter 21 395502 (2009);
         "P. Giannozzi et al., J. Phys.:Condens. Matter 29 465901 (2017);
         "P. Giannozzi et al., J. Chem. Phys. 152 154105 (2020);
          URL http://www.quantum-espresso.org", 
     in publications or presentations arising from this work. More details at
     http://www.quantum-espresso.org/quote

     Parallel version (MPI & OpenMP), running on      48 processor cores
     Number of MPI processes:                48
     Threads/MPI process:                     1

     MPI processes distributed on     1 nodes
     60570 MiB available memory on the printing compute node when the environment starts
 
     Reading input from espresso.pwi
Warning: card &CELL ignored
Warning: card / ignored
Warning: card &FCP ignored
Warning: card / ignored
Warning: card &RISM ignored
Warning: card / ignored

     Current dimensions of program PWSCF are:
     Max number of different atomic species (ntypx) = 10
     Max number of k-points (npk) =  40000
     Max angular momentum in pseudopotentials (lmaxx) =  4
     file O.pbe-n-kjpaw_psl.0.1.UPF: wavefunction(s)  2P renormalized
     signal trapping enabled: kill the code with -SIGUSR1 to stop cleanly the simulation 
 
     K-points division:     npool     =       2
     R & G space division:  proc/nbgrp/npool/nimage =      24
     Subspace diagonalization in iterative solution of the eigenvalue problem:
     one sub-group per band group will be used
     scalapack distributed-memory algorithm (size of sub-group:  3*  3 procs)

 
     Parallelization info
     --------------------
     sticks:   dense  smooth     PW     G-vecs:    dense   smooth      PW
     Min         350     175     47                61430    21716    3036
     Max         351     177     48                61449    21727    3041
     Sum        8421    4205   1137              1474595   521381   72913
 
     Using Slab Decomposition
 


     bravais-lattice index     =            0
     lattice parameter (alat)  =      14.8599  a.u.
     unit-cell volume          =    8305.1283 (a.u.)^3
     number of atoms/cell      =           49
     number of atomic types    =            3
     number of electrons       =       430.00
     number of Kohn-Sham states=          258
     kinetic-energy cutoff     =      60.0000  Ry
     charge density cutoff     =     480.0000  Ry
     scf convergence threshold =      1.0E-08
     mixing beta               =       0.1500
     number of iterations used =            8  local-TF  mixing
     Exchange-correlation= SLA  PW   PBE  PBE
                           (   1   4   3   4   0   0   0)

     celldm(1)=  14.859904  celldm(2)=   0.000000  celldm(3)=   0.000000
     celldm(4)=   0.000000  celldm(5)=   0.000000  celldm(6)=   0.000000

     crystal axes: (cart. coord. in units of alat)
               a(1) = (   1.000000   0.000000   0.000000 )  
               a(2) = (   0.000000   1.000000   0.000000 )  
               a(3) = (   0.000000   0.000000   2.531036 )  

     reciprocal axes: (cart. coord. in units 2 pi/alat)
               b(1) = (  1.000000  0.000000  0.000000 )  
               b(2) = (  0.000000  1.000000  0.000000 )  
               b(3) = (  0.000000  0.000000  0.395095 )  


     PseudoPot. # 1 for Sr read from file:
     /bsuhome/zayahcortright/q-e/pseudo/Sr_pbe_v1.uspp.F.UPF
     MD5 check sum: 6b418c05fbe9db5448babca5e47b7a5b
     Pseudo is Ultrasoft + core correction, Zval = 10.0
     Generated by new atomic code, or converted to UPF format
     Using radial grid of  883 points,  6 beta functions with: 
                l(1) =   0
                l(2) =   0
                l(3) =   1
                l(4) =   1
                l(5) =   2
                l(6) =   2
     Q(r) pseudized with  6 coefficients,  rinner =    1.400   1.400   1.400
                                                       1.400   1.400

     PseudoPot. # 2 for O  read from file:
     /bsuhome/zayahcortright/q-e/pseudo/O.pbe-n-kjpaw_psl.0.1.UPF
     MD5 check sum: 0234752ac141de4415c5fc33072bef88
     Pseudo is Projector augmented-wave + core cor, Zval =  6.0
     Generated using "atomic" code by A. Dal Corso  v.5.0.99 svn rev. 10869
     Shape of augmentation charge: BESSEL
     Using radial grid of 1095 points,  4 beta functions with: 
                l(1) =   0
                l(2) =   0
                l(3) =   1
                l(4) =   1
     Q(r) pseudized with 0 coefficients 


     PseudoPot. # 3 for Co read from file:
     /bsuhome/zayahcortright/q-e/pseudo/Co_pbe_v1.2.uspp.F.UPF
     MD5 check sum: 5f91765df6ddd3222702df6e7b74a16d
     Pseudo is Ultrasoft + core correction, Zval = 17.0
     Generated by new atomic code, or converted to UPF format
     Using radial grid of  863 points,  6 beta functions with: 
                l(1) =   0
                l(2) =   0
                l(3) =   1
                l(4) =   1
                l(5) =   2
                l(6) =   2
     Q(r) pseudized with  8 coefficients,  rinner =    1.200   1.200   1.200
                                                       1.200   1.200

     atomic species   valence    mass     pseudopotential
        Sr            10.00    87.62000     Sr( 1.00)
        O              6.00    15.99900     O ( 1.00)
        Co            17.00    58.93319     Co( 1.00)

     No symmetry found


                                    s                        frac. trans.

      isym =  1     identity                                     

 cryst.   s( 1) = (     1          0          0      )
                  (     0          1          0      )
                  (     0          0          1      )

 cart.    s( 1) = (  1.0000000  0.0000000  0.0000000 )
                  (  0.0000000  1.0000000  0.0000000 )
                  (  0.0000000  0.0000000  1.0000000 )


   Cartesian axes

     site n.     atom                  positions (alat units)
         1           Sr  tau(   1) = (   0.2508693   0.7491307   1.7574407  )
         2           O   tau(   2) = (   0.4985141   0.5014859   1.7715967  )
         3           Sr  tau(   3) = (   0.7482398   0.7454518   1.7648669  )
         4           Sr  tau(   4) = (   0.7441748   0.2558252   1.7667843  )
         5           Sr  tau(   5) = (   0.2508693   0.7491307   1.2696799  )
         6           Sr  tau(   6) = (   0.2508693   0.7491307   0.7632319  )
         7           Co  tau(   7) = (   0.4998914   0.5001086   1.0164559  )
         8           Co  tau(   8) = (   0.4936915   0.5063085   1.5135603  )
         9           O   tau(   9) = (   0.4988895   0.7610401   1.0164559  )
        10           O   tau(  10) = (   0.2389599   0.5011105   1.0164559  )
        11           O   tau(  11) = (   0.0070918   0.7374880   1.0164559  )
        12           O   tau(  12) = (   0.0088340   0.7405089   1.5135603  )
        13           O   tau(  13) = (   0.5066944   0.7415376   1.5135603  )
        14           O   tau(  14) = (   0.2584624   0.4933056   1.5135603  )
        15           O   tau(  15) = (   0.4985141   0.5014859   0.7773880  )
        16           O   tau(  16) = (   0.4985141   0.5014859   1.2555238  )
        17           Sr  tau(  17) = (   0.7482398   0.7454518   0.7706582  )
        18           Sr  tau(  18) = (   0.7482398   0.7454518   1.2622536  )
        19           Sr  tau(  19) = (   0.7441748   0.2558252   0.7725755  )
        20           Sr  tau(  20) = (   0.7441748   0.2558252   1.2603363  )
        21           O   tau(  21) = (   0.7322655   0.0078049   1.5135603  )
        22           O   tau(  22) = (   0.7558175   0.4996027   1.5135603  )
        23           O   tau(  23) = (   0.5003973   0.2441825   1.5135603  )
        24           O   tau(  24) = (   0.7527966   0.4978604   1.0164559  )
        25           O   tau(  25) = (   0.5021396   0.2472034   1.0164559  )
        26           O   tau(  26) = (   0.7517679   0.0000000   1.0164559  )
        27           O   tau(  27) = (   0.0114961   0.4948124   1.7455321  )
        28           O   tau(  28) = (   0.0048226   0.0077944   1.7715967  )
        29           Sr  tau(  29) = (   0.2545482   0.2517602   1.7648669  )
        30           O   tau(  30) = (   0.5048017   0.0015068   1.7786929  )
        31           Co  tau(  31) = (   0.0056869   0.5006215   1.0164559  )
        32           Co  tau(  32) = (   0.0065315   0.4997770   1.5135603  )
        33           Co  tau(  33) = (   0.0061999   0.0064171   1.0164559  )
        34           Co  tau(  34) = (   0.0000000   0.0126169   1.5135603  )
        35           O   tau(  35) = (   0.0114961   0.4948124   1.2815885  )
        36           O   tau(  36) = (   0.0114961   0.4948124   0.7513233  )
        37           O   tau(  37) = (   0.0051979   0.2673486   1.0164559  )
        38           O   tau(  38) = (   0.0130029   0.2478461   1.5135603  )
        39           O   tau(  39) = (   0.0048226   0.0077944   0.7773880  )
        40           O   tau(  40) = (   0.0048226   0.0077944   1.2555238  )
        41           Sr  tau(  41) = (   0.2545482   0.2517602   0.7706582  )
        42           Sr  tau(  42) = (   0.2545482   0.2517602   1.2622536  )
        43           Co  tau(  43) = (   0.4989925   0.0073160   1.5135603  )
        44           Co  tau(  44) = (   0.4998370   0.0064714   1.0164559  )
        45           O   tau(  45) = (   0.5048017   0.0015068   0.7844841  )
        46           O   tau(  46) = (   0.5048017   0.0015068   1.2484277  )
        47           O   tau(  47) = (   0.2621260   0.0059111   1.5135603  )
        48           O   tau(  48) = (   0.2591051   0.0041689   1.0164559  )
        49           O   tau(  49) = (   0.8529874   0.0000000   2.1602013  )

   Crystallographic axes

     site n.     atom                  positions (cryst. coord.)
         1           Sr  tau(   1) = (  0.2508693  0.7491307  0.6943562  )
         2           O   tau(   2) = (  0.4985141  0.5014859  0.6999492  )
         3           Sr  tau(   3) = (  0.7482398  0.7454518  0.6972903  )
         4           Sr  tau(   4) = (  0.7441748  0.2558252  0.6980478  )
         5           Sr  tau(   5) = (  0.2508693  0.7491307  0.5016443  )
         6           Sr  tau(   6) = (  0.2508693  0.7491307  0.3015492  )
         7           Co  tau(   7) = (  0.4998914  0.5001086  0.4015968  )
         8           Co  tau(   8) = (  0.4936915  0.5063085  0.5980003  )
         9           O   tau(   9) = (  0.4988895  0.7610401  0.4015968  )
        10           O   tau(  10) = (  0.2389599  0.5011105  0.4015968  )
        11           O   tau(  11) = (  0.0070918  0.7374880  0.4015968  )
        12           O   tau(  12) = (  0.0088340  0.7405089  0.5980003  )
        13           O   tau(  13) = (  0.5066944  0.7415376  0.5980003  )
        14           O   tau(  14) = (  0.2584624  0.4933056  0.5980003  )
        15           O   tau(  15) = (  0.4985141  0.5014859  0.3071422  )
        16           O   tau(  16) = (  0.4985141  0.5014859  0.4960513  )
        17           Sr  tau(  17) = (  0.7482398  0.7454518  0.3044833  )
        18           Sr  tau(  18) = (  0.7482398  0.7454518  0.4987103  )
        19           Sr  tau(  19) = (  0.7441748  0.2558252  0.3052408  )
        20           Sr  tau(  20) = (  0.7441748  0.2558252  0.4979527  )
        21           O   tau(  21) = (  0.7322655  0.0078049  0.5980003  )
        22           O   tau(  22) = (  0.7558175  0.4996027  0.5980003  )
        23           O   tau(  23) = (  0.5003973  0.2441825  0.5980003  )
        24           O   tau(  24) = (  0.7527966  0.4978604  0.4015968  )
        25           O   tau(  25) = (  0.5021396  0.2472034  0.4015968  )
        26           O   tau(  26) = (  0.7517679  0.0000000  0.4015968  )
        27           O   tau(  27) = (  0.0114961  0.4948124  0.6896512  )
        28           O   tau(  28) = (  0.0048226  0.0077944  0.6999492  )
        29           Sr  tau(  29) = (  0.2545482  0.2517602  0.6972903  )
        30           O   tau(  30) = (  0.5048017  0.0015068  0.7027529  )
        31           Co  tau(  31) = (  0.0056869  0.5006215  0.4015968  )
        32           Co  tau(  32) = (  0.0065315  0.4997770  0.5980003  )
        33           Co  tau(  33) = (  0.0061999  0.0064171  0.4015968  )
        34           Co  tau(  34) = (  0.0000000  0.0126169  0.5980003  )
        35           O   tau(  35) = (  0.0114961  0.4948124  0.5063494  )
        36           O   tau(  36) = (  0.0114961  0.4948124  0.2968442  )
        37           O   tau(  37) = (  0.0051979  0.2673486  0.4015968  )
        38           O   tau(  38) = (  0.0130029  0.2478461  0.5980003  )
        39           O   tau(  39) = (  0.0048226  0.0077944  0.3071422  )
        40           O   tau(  40) = (  0.0048226  0.0077944  0.4960513  )
        41           Sr  tau(  41) = (  0.2545482  0.2517602  0.3044833  )
        42           Sr  tau(  42) = (  0.2545482  0.2517602  0.4987103  )
        43           Co  tau(  43) = (  0.4989925  0.0073160  0.5980003  )
        44           Co  tau(  44) = (  0.4998370  0.0064714  0.4015968  )
        45           O   tau(  45) = (  0.5048017  0.0015068  0.3099459  )
        46           O   tau(  46) = (  0.5048017  0.0015068  0.4932477  )
        47           O   tau(  47) = (  0.2621260  0.0059111  0.5980003  )
        48           O   tau(  48) = (  0.2591051  0.0041689  0.4015968  )
        49           O   tau(  49) = (  0.8529874  0.0000000  0.8534850  )

     number of k points=    10  Gaussian smearing, width (Ry)=  0.0700
                       cart. coord. in units 2pi/alat
        k(    1) = (   0.0000000   0.0000000   0.0000000), wk =   0.1250000
        k(    2) = (   0.0000000   0.2500000   0.0000000), wk =   0.2500000
        k(    3) = (   0.0000000  -0.5000000   0.0000000), wk =   0.1250000
        k(    4) = (   0.2500000   0.2500000   0.0000000), wk =   0.2500000
        k(    5) = (   0.2500000  -0.5000000   0.0000000), wk =   0.2500000
        k(    6) = (  -0.5000000  -0.5000000   0.0000000), wk =   0.1250000
        k(    7) = (   0.2500000   0.0000000   0.0000000), wk =   0.2500000
        k(    8) = (  -0.5000000   0.0000000   0.0000000), wk =   0.1250000
        k(    9) = (  -0.2500000   0.2500000   0.0000000), wk =   0.2500000
        k(   10) = (  -0.5000000   0.2500000   0.0000000), wk =   0.2500000

                       cryst. coord.
        k(    1) = (   0.0000000   0.0000000   0.0000000), wk =   0.1250000
        k(    2) = (   0.0000000   0.2500000   0.0000000), wk =   0.2500000
        k(    3) = (   0.0000000  -0.5000000   0.0000000), wk =   0.1250000
        k(    4) = (   0.2500000   0.2500000   0.0000000), wk =   0.2500000
        k(    5) = (   0.2500000  -0.5000000   0.0000000), wk =   0.2500000
        k(    6) = (  -0.5000000  -0.5000000   0.0000000), wk =   0.1250000
        k(    7) = (   0.2500000   0.0000000   0.0000000), wk =   0.2500000
        k(    8) = (  -0.5000000   0.0000000   0.0000000), wk =   0.1250000
        k(    9) = (  -0.2500000   0.2500000   0.0000000), wk =   0.2500000
        k(   10) = (  -0.5000000   0.2500000   0.0000000), wk =   0.2500000

     Dense  grid:  1474595 G-vectors     FFT dimensions: ( 108, 108, 270)

     Smooth grid:   521381 G-vectors     FFT dimensions: (  75,  75, 192)

     Dynamical RAM for                 wfc:      10.69 MB

     Dynamical RAM for     wfc (w. buffer):      64.13 MB

     Dynamical RAM for           str. fact:       2.81 MB

     Dynamical RAM for           local pot:       0.00 MB

     Dynamical RAM for          nlocal pot:      24.53 MB

     Dynamical RAM for                qrad:       5.27 MB

     Dynamical RAM for          rho,v,vnew:       6.02 MB

     Dynamical RAM for               rhoin:       2.01 MB

     Dynamical RAM for            rho*nmix:      15.00 MB

     Dynamical RAM for           G-vectors:       3.68 MB

     Dynamical RAM for          h,s,v(r/c):       1.35 MB

     Dynamical RAM for          <psi|beta>:       2.33 MB

     Dynamical RAM for                 psi:      21.38 MB

     Dynamical RAM for                hpsi:      21.38 MB

     Dynamical RAM for                spsi:      21.38 MB

     Dynamical RAM for      wfcinit/wfcrot:      34.39 MB

     Dynamical RAM for           addusdens:     101.26 MB

     Estimated static dynamical RAM per process >     117.53 MB

     Estimated max dynamical RAM per process >     233.79 MB

     Estimated total dynamical RAM >      10.61 GB

     Check: negative core charge=   -0.000004

     Initial potential from superposition of free atoms

     starting charge     421.5961, renormalised to     430.0000

     negative rho (up, down):  7.826E-01 0.000E+00
     Starting wfcs are  376 randomized atomic wfcs
     Checking if some PAW data can be deallocated... 
       PAW data deallocated on   19 nodes for type:  2

     total cpu time spent up to now is        9.0 secs

     Self-consistent Calculation

     iteration #  1     ecut=    60.00 Ry     beta= 0.15
     Davidson diagonalization with overlap

---- Real-time Memory Report at c_bands before calling an iterative solver
             0 MiB given to the printing process from OS
             0 MiB allocation reported by mallinfo(arena+hblkhd)
         51480 MiB available memory on the node where the printing process lives
------------------
     ethr =  1.00E-02,  avg # of iterations =  2.0

     negative rho (up, down):  7.717E-01 0.000E+00

     total cpu time spent up to now is       24.4 secs

     total energy              =   -4445.23972278 Ry
     estimated scf accuracy    <      53.94975363 Ry

     iteration #  2     ecut=    60.00 Ry     beta= 0.15
     Davidson diagonalization with overlap

---- Real-time Memory Report at c_bands before calling an iterative solver
             0 MiB given to the printing process from OS
             0 MiB allocation reported by mallinfo(arena+hblkhd)
         51862 MiB available memory on the node where the printing process lives
------------------
     ethr =  1.00E-02,  avg # of iterations =  1.0

     negative rho (up, down):  7.587E-01 0.000E+00

     total cpu time spent up to now is       37.1 secs

     total energy              =   -4441.83642086 Ry
     estimated scf accuracy    <      28.50871283 Ry

     iteration #  3     ecut=    60.00 Ry     beta= 0.15
     Davidson diagonalization with overlap

---- Real-time Memory Report at c_bands before calling an iterative solver
             0 MiB given to the printing process from OS
             0 MiB allocation reported by mallinfo(arena+hblkhd)
         51080 MiB available memory on the node where the printing process lives
------------------
     ethr =  6.63E-03,  avg # of iterations =  1.0

     negative rho (up, down):  7.532E-01 0.000E+00

     total cpu time spent up to now is       50.0 secs

     total energy              =   -4442.64264651 Ry
     estimated scf accuracy    <      29.39756730 Ry

     iteration #  4     ecut=    60.00 Ry     beta= 0.15
     Davidson diagonalization with overlap

---- Real-time Memory Report at c_bands before calling an iterative solver
             0 MiB given to the printing process from OS
             0 MiB allocation reported by mallinfo(arena+hblkhd)
         51033 MiB available memory on the node where the printing process lives
------------------
     ethr =  6.63E-03,  avg # of iterations =  1.0

     negative rho (up, down):  7.541E-01 0.000E+00

     total cpu time spent up to now is       62.7 secs

     total energy              =   -4442.43072038 Ry
     estimated scf accuracy    <      26.84257730 Ry

     iteration #  5     ecut=    60.00 Ry     beta= 0.15
     Davidson diagonalization with overlap

---- Real-time Memory Report at c_bands before calling an iterative solver
             0 MiB given to the printing process from OS
             0 MiB allocation reported by mallinfo(arena+hblkhd)
         51016 MiB available memory on the node where the printing process lives
------------------
     ethr =  6.24E-03,  avg # of iterations =  1.0

     negative rho (up, down):  7.371E-01 0.000E+00

     total cpu time spent up to now is       75.5 secs

     total energy              =   -4441.08714307 Ry
     estimated scf accuracy    <      19.14859325 Ry

     iteration #  6     ecut=    60.00 Ry     beta= 0.15
     Davidson diagonalization with overlap

---- Real-time Memory Report at c_bands before calling an iterative solver
             0 MiB given to the printing process from OS
             0 MiB allocation reported by mallinfo(arena+hblkhd)
         50988 MiB available memory on the node where the printing process lives
------------------
     ethr =  4.45E-03,  avg # of iterations =  2.0

     negative rho (up, down):  7.412E-01 0.000E+00

     total cpu time spent up to now is       89.8 secs

     total energy              =   -4443.50633052 Ry
     estimated scf accuracy    <      62.87855457 Ry

     iteration #  7     ecut=    60.00 Ry     beta= 0.15
     Davidson diagonalization with overlap

---- Real-time Memory Report at c_bands before calling an iterative solver
             0 MiB given to the printing process from OS
             0 MiB allocation reported by mallinfo(arena+hblkhd)
         50969 MiB available memory on the node where the printing process lives
------------------
     ethr =  4.45E-03,  avg # of iterations =  1.0

     negative rho (up, down):  7.481E-01 0.000E+00

     total cpu time spent up to now is      102.4 secs

     total energy              =   -4439.37711134 Ry
     estimated scf accuracy    <      55.00414953 Ry

     iteration #  8     ecut=    60.00 Ry     beta= 0.15
     Davidson diagonalization with overlap

---- Real-time Memory Report at c_bands before calling an iterative solver
             0 MiB given to the printing process from OS
             0 MiB allocation reported by mallinfo(arena+hblkhd)
         50957 MiB available memory on the node where the printing process lives
------------------
     ethr =  4.45E-03,  avg # of iterations =  1.0

     negative rho (up, down):  7.470E-01 0.000E+00

     total cpu time spent up to now is      115.1 secs

     total energy              =   -4441.34700725 Ry
     estimated scf accuracy    <       7.83893860 Ry

     iteration #  9     ecut=    60.00 Ry     beta= 0.15
     Davidson diagonalization with overlap

---- Real-time Memory Report at c_bands before calling an iterative solver
             0 MiB given to the printing process from OS
             0 MiB allocation reported by mallinfo(arena+hblkhd)
         50937 MiB available memory on the node where the printing process lives
------------------
     ethr =  1.82E-03,  avg # of iterations =  1.1

     negative rho (up, down):  7.576E-01 0.000E+00

     total cpu time spent up to now is      128.0 secs

     total energy              =   -4440.76148973 Ry
     estimated scf accuracy    <       5.78021020 Ry

     iteration # 10     ecut=    60.00 Ry     beta= 0.15
     Davidson diagonalization with overlap

---- Real-time Memory Report at c_bands before calling an iterative solver
             0 MiB given to the printing process from OS
             0 MiB allocation reported by mallinfo(arena+hblkhd)
         50917 MiB available memory on the node where the printing process lives
------------------
     ethr =  1.34E-03,  avg # of iterations =  2.0

     negative rho (up, down):  7.695E-01 0.000E+00

     total cpu time spent up to now is      142.0 secs

     total energy              =   -4440.61965566 Ry
     estimated scf accuracy    <      11.75541881 Ry

     iteration # 11     ecut=    60.00 Ry     beta= 0.15
     Davidson diagonalization with overlap

---- Real-time Memory Report at c_bands before calling an iterative solver
             0 MiB given to the printing process from OS
             0 MiB allocation reported by mallinfo(arena+hblkhd)
         50912 MiB available memory on the node where the printing process lives
------------------
     ethr =  1.34E-03,  avg # of iterations =  6.8

     negative rho (up, down):  7.794E-01 0.000E+00

     total cpu time spent up to now is      158.5 secs

     total energy              =   -4440.02075082 Ry
     estimated scf accuracy    <      18.57578019 Ry

     iteration # 12     ecut=    60.00 Ry     beta= 0.15
     Davidson diagonalization with overlap

---- Real-time Memory Report at c_bands before calling an iterative solver
             0 MiB given to the printing process from OS
             0 MiB allocation reported by mallinfo(arena+hblkhd)
         50744 MiB available memory on the node where the printing process lives
------------------
     ethr =  1.34E-03,  avg # of iterations =  2.2

     negative rho (up, down):  7.815E-01 0.000E+00

     total cpu time spent up to now is      173.1 secs

     total energy              =   -4440.54100861 Ry
     estimated scf accuracy    <       2.30807606 Ry

     iteration # 13     ecut=    60.00 Ry     beta= 0.15
     Davidson diagonalization with overlap

---- Real-time Memory Report at c_bands before calling an iterative solver
             0 MiB given to the printing process from OS
             0 MiB allocation reported by mallinfo(arena+hblkhd)
         50729 MiB available memory on the node where the printing process lives
------------------
     ethr =  5.37E-04,  avg # of iterations = 10.5

     negative rho (up, down):  7.899E-01 0.000E+00

     total cpu time spent up to now is      192.4 secs

     total energy              =   -4440.43005462 Ry
     estimated scf accuracy    <       2.04436628 Ry

     iteration # 14     ecut=    60.00 Ry     beta= 0.15
     Davidson diagonalization with overlap

---- Real-time Memory Report at c_bands before calling an iterative solver
             0 MiB given to the printing process from OS
             0 MiB allocation reported by mallinfo(arena+hblkhd)
         50570 MiB available memory on the node where the printing process lives
------------------
     ethr =  4.75E-04,  avg # of iterations =  2.2

     negative rho (up, down):  8.040E-01 0.000E+00

     total cpu time spent up to now is      207.1 secs

     total energy              =   -4440.43467433 Ry
     estimated scf accuracy    <       1.11874233 Ry

     iteration # 15     ecut=    60.00 Ry     beta= 0.15
     Davidson diagonalization with overlap

---- Real-time Memory Report at c_bands before calling an iterative solver
             0 MiB given to the printing process from OS
             0 MiB allocation reported by mallinfo(arena+hblkhd)
         50556 MiB available memory on the node where the printing process lives
------------------
     ethr =  2.60E-04,  avg # of iterations =  3.1

     negative rho (up, down):  8.207E-01 0.000E+00

     total cpu time spent up to now is      222.5 secs

     total energy              =   -4440.37187131 Ry
     estimated scf accuracy    <       0.81745850 Ry

     iteration # 16     ecut=    60.00 Ry     beta= 0.15
     Davidson diagonalization with overlap

---- Real-time Memory Report at c_bands before calling an iterative solver
             0 MiB given to the printing process from OS
             0 MiB allocation reported by mallinfo(arena+hblkhd)
         50552 MiB available memory on the node where the printing process lives
------------------
     ethr =  1.90E-04,  avg # of iterations =  8.1

     negative rho (up, down):  8.292E-01 0.000E+00

     total cpu time spent up to now is      240.3 secs

     total energy              =   -4440.36031888 Ry
     estimated scf accuracy    <       0.29724635 Ry

     iteration # 17     ecut=    60.00 Ry     beta= 0.15
     Davidson diagonalization with overlap

---- Real-time Memory Report at c_bands before calling an iterative solver
             0 MiB given to the printing process from OS
             0 MiB allocation reported by mallinfo(arena+hblkhd)
         50530 MiB available memory on the node where the printing process lives
------------------
     ethr =  6.91E-05,  avg # of iterations = 12.6

     negative rho (up, down):  8.254E-01 0.000E+00

     total cpu time spent up to now is      259.9 secs

     total energy              =   -4440.35721318 Ry
     estimated scf accuracy    <       0.16750395 Ry

     iteration # 18     ecut=    60.00 Ry     beta= 0.15
     Davidson diagonalization with overlap

---- Real-time Memory Report at c_bands before calling an iterative solver
             0 MiB given to the printing process from OS
             0 MiB allocation reported by mallinfo(arena+hblkhd)
         50494 MiB available memory on the node where the printing process lives
------------------
     ethr =  3.90E-05,  avg # of iterations =  3.0

     negative rho (up, down):  8.199E-01 0.000E+00

     total cpu time spent up to now is      275.1 secs

     total energy              =   -4440.33667998 Ry
     estimated scf accuracy    <       0.22595557 Ry

     iteration # 19     ecut=    60.00 Ry     beta= 0.15
     Davidson diagonalization with overlap

---- Real-time Memory Report at c_bands before calling an iterative solver
             0 MiB given to the printing process from OS
             0 MiB allocation reported by mallinfo(arena+hblkhd)
         50501 MiB available memory on the node where the printing process lives
------------------
     ethr =  3.90E-05,  avg # of iterations =  7.7

     negative rho (up, down):  8.215E-01 0.000E+00

     total cpu time spent up to now is      292.8 secs

     total energy              =   -4440.31818462 Ry
     estimated scf accuracy    <       0.11583197 Ry

     iteration # 20     ecut=    60.00 Ry     beta= 0.15
     Davidson diagonalization with overlap

---- Real-time Memory Report at c_bands before calling an iterative solver
             0 MiB given to the printing process from OS
             0 MiB allocation reported by mallinfo(arena+hblkhd)
         50532 MiB available memory on the node where the printing process lives
------------------
     c_bands:  1 eigenvalues not converged
     ethr =  2.69E-05,  avg # of iterations = 10.9

     negative rho (up, down):  8.082E-01 0.000E+00

     total cpu time spent up to now is      312.0 secs

     total energy              =   -4440.31755703 Ry
     estimated scf accuracy    <       0.14565808 Ry

     iteration # 21     ecut=    60.00 Ry     beta= 0.15
     Davidson diagonalization with overlap

---- Real-time Memory Report at c_bands before calling an iterative solver
             0 MiB given to the printing process from OS
             0 MiB allocation reported by mallinfo(arena+hblkhd)
         50409 MiB available memory on the node where the printing process lives
------------------
     ethr =  2.69E-05,  avg # of iterations =  1.2

     negative rho (up, down):  8.068E-01 0.000E+00

     total cpu time spent up to now is      325.3 secs

     total energy              =   -4440.30751207 Ry
     estimated scf accuracy    <       0.07142282 Ry

     iteration # 22     ecut=    60.00 Ry     beta= 0.15
     Davidson diagonalization with overlap

---- Real-time Memory Report at c_bands before calling an iterative solver
             0 MiB given to the printing process from OS
             0 MiB allocation reported by mallinfo(arena+hblkhd)
         50415 MiB available memory on the node where the printing process lives
------------------
     ethr =  1.66E-05,  avg # of iterations =  7.5

     negative rho (up, down):  8.060E-01 0.000E+00

     total cpu time spent up to now is      342.1 secs

     total energy              =   -4440.30150235 Ry
     estimated scf accuracy    <       0.04580801 Ry

     iteration # 23     ecut=    60.00 Ry     beta= 0.15
     Davidson diagonalization with overlap

---- Real-time Memory Report at c_bands before calling an iterative solver
             0 MiB given to the printing process from OS
             0 MiB allocation reported by mallinfo(arena+hblkhd)
         50418 MiB available memory on the node where the printing process lives
------------------
     ethr =  1.07E-05,  avg # of iterations =  9.2

     negative rho (up, down):  7.994E-01 0.000E+00

     total cpu time spent up to now is      359.8 secs

     total energy              =   -4440.30204227 Ry
     estimated scf accuracy    <       0.02601295 Ry

     iteration # 24     ecut=    60.00 Ry     beta= 0.15
     Davidson diagonalization with overlap

---- Real-time Memory Report at c_bands before calling an iterative solver
             0 MiB given to the printing process from OS
             0 MiB allocation reported by mallinfo(arena+hblkhd)
         50430 MiB available memory on the node where the printing process lives
------------------
     ethr =  6.05E-06,  avg # of iterations =  1.4

     negative rho (up, down):  7.944E-01 0.000E+00

     total cpu time spent up to now is      373.5 secs

     total energy              =   -4440.29965785 Ry
     estimated scf accuracy    <       0.02089536 Ry

     iteration # 25     ecut=    60.00 Ry     beta= 0.15
     Davidson diagonalization with overlap

---- Real-time Memory Report at c_bands before calling an iterative solver
             0 MiB given to the printing process from OS
             0 MiB allocation reported by mallinfo(arena+hblkhd)
         50412 MiB available memory on the node where the printing process lives
------------------
     ethr =  4.86E-06,  avg # of iterations =  2.0

     negative rho (up, down):  7.935E-01 0.000E+00

     total cpu time spent up to now is      387.8 secs

     total energy              =   -4440.29773842 Ry
     estimated scf accuracy    <       0.01322656 Ry

     iteration # 26     ecut=    60.00 Ry     beta= 0.15
     Davidson diagonalization with overlap

---- Real-time Memory Report at c_bands before calling an iterative solver
             0 MiB given to the printing process from OS
             0 MiB allocation reported by mallinfo(arena+hblkhd)
         50434 MiB available memory on the node where the printing process lives
------------------
     ethr =  3.08E-06,  avg # of iterations =  7.7

     negative rho (up, down):  7.988E-01 0.000E+00

     total cpu time spent up to now is      404.4 secs

     total energy              =   -4440.29698460 Ry
     estimated scf accuracy    <       0.00789341 Ry

     iteration # 27     ecut=    60.00 Ry     beta= 0.15
     Davidson diagonalization with overlap

---- Real-time Memory Report at c_bands before calling an iterative solver
             0 MiB given to the printing process from OS
             0 MiB allocation reported by mallinfo(arena+hblkhd)
         50430 MiB available memory on the node where the printing process lives
------------------
     c_bands:  1 eigenvalues not converged
     ethr =  1.84E-06,  avg # of iterations = 12.6

     negative rho (up, down):  7.981E-01 0.000E+00

     total cpu time spent up to now is      423.9 secs

     total energy              =   -4440.29659872 Ry
     estimated scf accuracy    <       0.00441589 Ry

     iteration # 28     ecut=    60.00 Ry     beta= 0.15
     Davidson diagonalization with overlap

---- Real-time Memory Report at c_bands before calling an iterative solver
             0 MiB given to the printing process from OS
             0 MiB allocation reported by mallinfo(arena+hblkhd)
         50395 MiB available memory on the node where the printing process lives
------------------
     ethr =  1.03E-06,  avg # of iterations =  3.0

     negative rho (up, down):  7.970E-01 0.000E+00

     total cpu time spent up to now is      438.5 secs

     total energy              =   -4440.29658809 Ry
     estimated scf accuracy    <       0.00244206 Ry

     iteration # 29     ecut=    60.00 Ry     beta= 0.15
     Davidson diagonalization with overlap

---- Real-time Memory Report at c_bands before calling an iterative solver
             0 MiB given to the printing process from OS
             0 MiB allocation reported by mallinfo(arena+hblkhd)
         50414 MiB available memory on the node where the printing process lives
------------------
     c_bands:  1 eigenvalues not converged
     ethr =  5.68E-07,  avg # of iterations =  5.6

     negative rho (up, down):  7.971E-01 0.000E+00

     total cpu time spent up to now is      454.6 secs

     total energy              =   -4440.29669691 Ry
     estimated scf accuracy    <       0.00089484 Ry

     iteration # 30     ecut=    60.00 Ry     beta= 0.15
     Davidson diagonalization with overlap

---- Real-time Memory Report at c_bands before calling an iterative solver
             0 MiB given to the printing process from OS
             0 MiB allocation reported by mallinfo(arena+hblkhd)
         50451 MiB available memory on the node where the printing process lives
------------------
     c_bands:  1 eigenvalues not converged
     ethr =  2.08E-07,  avg # of iterations =  9.7

     negative rho (up, down):  7.966E-01 0.000E+00

     total cpu time spent up to now is      472.5 secs

     total energy              =   -4440.29668084 Ry
     estimated scf accuracy    <       0.00038720 Ry

     iteration # 31     ecut=    60.00 Ry     beta= 0.15
     Davidson diagonalization with overlap

---- Real-time Memory Report at c_bands before calling an iterative solver
             0 MiB given to the printing process from OS
             0 MiB allocation reported by mallinfo(arena+hblkhd)
         50431 MiB available memory on the node where the printing process lives
------------------
     c_bands:  1 eigenvalues not converged
     ethr =  9.00E-08,  avg # of iterations =  8.1

     negative rho (up, down):  7.979E-01 0.000E+00

     total cpu time spent up to now is      489.7 secs

     total energy              =   -4440.29668829 Ry
     estimated scf accuracy    <       0.00021181 Ry

     iteration # 32     ecut=    60.00 Ry     beta= 0.15
     Davidson diagonalization with overlap

---- Real-time Memory Report at c_bands before calling an iterative solver
             0 MiB given to the printing process from OS
             0 MiB allocation reported by mallinfo(arena+hblkhd)
         50415 MiB available memory on the node where the printing process lives
------------------
     ethr =  4.93E-08,  avg # of iterations =  7.8

     negative rho (up, down):  7.966E-01 0.000E+00

     total cpu time spent up to now is      508.0 secs

     total energy              =   -4440.29667050 Ry
     estimated scf accuracy    <       0.00009813 Ry

     iteration # 33     ecut=    60.00 Ry     beta= 0.15
     Davidson diagonalization with overlap

---- Real-time Memory Report at c_bands before calling an iterative solver
             0 MiB given to the printing process from OS
             0 MiB allocation reported by mallinfo(arena+hblkhd)
         50373 MiB available memory on the node where the printing process lives
------------------
     ethr =  2.28E-08,  avg # of iterations =  2.0

     negative rho (up, down):  7.939E-01 0.000E+00

     total cpu time spent up to now is      522.2 secs

     total energy              =   -4440.29662734 Ry
     estimated scf accuracy    <       0.00005519 Ry

     iteration # 34     ecut=    60.00 Ry     beta= 0.15
     Davidson diagonalization with overlap

---- Real-time Memory Report at c_bands before calling an iterative solver
             0 MiB given to the printing process from OS
             0 MiB allocation reported by mallinfo(arena+hblkhd)
         50373 MiB available memory on the node where the printing process lives
------------------
     ethr =  1.28E-08,  avg # of iterations =  7.2

     negative rho (up, down):  7.933E-01 0.000E+00

     total cpu time spent up to now is      538.8 secs

     total energy              =   -4440.29662571 Ry
     estimated scf accuracy    <       0.00002401 Ry

     iteration # 35     ecut=    60.00 Ry     beta= 0.15
     Davidson diagonalization with overlap

---- Real-time Memory Report at c_bands before calling an iterative solver
             0 MiB given to the printing process from OS
             0 MiB allocation reported by mallinfo(arena+hblkhd)
         50374 MiB available memory on the node where the printing process lives
------------------
     ethr =  5.58E-09,  avg # of iterations =  2.0

     negative rho (up, down):  7.927E-01 0.000E+00

     total cpu time spent up to now is      553.2 secs

     total energy              =   -4440.29662605 Ry
     estimated scf accuracy    <       0.00001636 Ry

     iteration # 36     ecut=    60.00 Ry     beta= 0.15
     Davidson diagonalization with overlap

---- Real-time Memory Report at c_bands before calling an iterative solver
             0 MiB given to the printing process from OS
             0 MiB allocation reported by mallinfo(arena+hblkhd)
         50386 MiB available memory on the node where the printing process lives
------------------
     ethr =  3.80E-09,  avg # of iterations =  2.4

     negative rho (up, down):  7.925E-01 0.000E+00

     total cpu time spent up to now is      567.5 secs

     total energy              =   -4440.29662940 Ry
     estimated scf accuracy    <       0.00001159 Ry

     iteration # 37     ecut=    60.00 Ry     beta= 0.15
     Davidson diagonalization with overlap

---- Real-time Memory Report at c_bands before calling an iterative solver
             0 MiB given to the printing process from OS
             0 MiB allocation reported by mallinfo(arena+hblkhd)
         50379 MiB available memory on the node where the printing process lives
------------------
     ethr =  2.70E-09,  avg # of iterations =  2.1

     negative rho (up, down):  7.926E-01 0.000E+00

     total cpu time spent up to now is      581.8 secs

     total energy              =   -4440.29663163 Ry
     estimated scf accuracy    <       0.00000668 Ry

     iteration # 38     ecut=    60.00 Ry     beta= 0.15
     Davidson diagonalization with overlap

---- Real-time Memory Report at c_bands before calling an iterative solver
             0 MiB given to the printing process from OS
             0 MiB allocation reported by mallinfo(arena+hblkhd)
         50418 MiB available memory on the node where the printing process lives
------------------
     ethr =  1.55E-09,  avg # of iterations =  2.5

     negative rho (up, down):  7.926E-01 0.000E+00

     total cpu time spent up to now is      596.2 secs

     total energy              =   -4440.29663236 Ry
     estimated scf accuracy    <       0.00000505 Ry

     iteration # 39     ecut=    60.00 Ry     beta= 0.15
     Davidson diagonalization with overlap

---- Real-time Memory Report at c_bands before calling an iterative solver
             0 MiB given to the printing process from OS
             0 MiB allocation reported by mallinfo(arena+hblkhd)
         50422 MiB available memory on the node where the printing process lives
------------------
     ethr =  1.17E-09,  avg # of iterations =  1.2

     negative rho (up, down):  7.926E-01 0.000E+00

     total cpu time spent up to now is      609.4 secs

     total energy              =   -4440.29663276 Ry
     estimated scf accuracy    <       0.00000327 Ry

     iteration # 40     ecut=    60.00 Ry     beta= 0.15
     Davidson diagonalization with overlap

---- Real-time Memory Report at c_bands before calling an iterative solver
             0 MiB given to the printing process from OS
             0 MiB allocation reported by mallinfo(arena+hblkhd)
         50428 MiB available memory on the node where the printing process lives
------------------
     ethr =  7.60E-10,  avg # of iterations =  1.8

     negative rho (up, down):  7.926E-01 0.000E+00

     total cpu time spent up to now is      623.5 secs

     total energy              =   -4440.29663276 Ry
     estimated scf accuracy    <       0.00000305 Ry

     iteration # 41     ecut=    60.00 Ry     beta= 0.15
     Davidson diagonalization with overlap

---- Real-time Memory Report at c_bands before calling an iterative solver
             0 MiB given to the printing process from OS
             0 MiB allocation reported by mallinfo(arena+hblkhd)
         50425 MiB available memory on the node where the printing process lives
------------------
     ethr =  7.09E-10,  avg # of iterations =  3.5

     negative rho (up, down):  7.926E-01 0.000E+00

     total cpu time spent up to now is      638.2 secs

     total energy              =   -4440.29663261 Ry
     estimated scf accuracy    <       0.00000097 Ry

     iteration # 42     ecut=    60.00 Ry     beta= 0.15
     Davidson diagonalization with overlap

---- Real-time Memory Report at c_bands before calling an iterative solver
             0 MiB given to the printing process from OS
             0 MiB allocation reported by mallinfo(arena+hblkhd)
         50442 MiB available memory on the node where the printing process lives
------------------
     ethr =  2.26E-10,  avg # of iterations =  2.0

     negative rho (up, down):  7.926E-01 0.000E+00

     total cpu time spent up to now is      652.3 secs

     total energy              =   -4440.29663271 Ry
     estimated scf accuracy    <       0.00000033 Ry

     iteration # 43     ecut=    60.00 Ry     beta= 0.15
     Davidson diagonalization with overlap

---- Real-time Memory Report at c_bands before calling an iterative solver
             0 MiB given to the printing process from OS
             0 MiB allocation reported by mallinfo(arena+hblkhd)
         50451 MiB available memory on the node where the printing process lives
------------------
     ethr =  7.65E-11,  avg # of iterations =  1.7

     negative rho (up, down):  7.926E-01 0.000E+00

     total cpu time spent up to now is      666.1 secs

     total energy              =   -4440.29663284 Ry
     estimated scf accuracy    <       0.00000019 Ry

     iteration # 44     ecut=    60.00 Ry     beta= 0.15
     Davidson diagonalization with overlap

---- Real-time Memory Report at c_bands before calling an iterative solver
             0 MiB given to the printing process from OS
             0 MiB allocation reported by mallinfo(arena+hblkhd)
         50454 MiB available memory on the node where the printing process lives
------------------
     ethr =  4.33E-11,  avg # of iterations =  2.0

     negative rho (up, down):  7.926E-01 0.000E+00

     total cpu time spent up to now is      680.3 secs

     total energy              =   -4440.29663295 Ry
     estimated scf accuracy    <       0.00000014 Ry

     iteration # 45     ecut=    60.00 Ry     beta= 0.15
     Davidson diagonalization with overlap

---- Real-time Memory Report at c_bands before calling an iterative solver
             0 MiB given to the printing process from OS
             0 MiB allocation reported by mallinfo(arena+hblkhd)
         50454 MiB available memory on the node where the printing process lives
------------------
     ethr =  3.34E-11,  avg # of iterations =  3.2

     negative rho (up, down):  7.926E-01 0.000E+00

     total cpu time spent up to now is      695.1 secs

     total energy              =   -4440.29663304 Ry
     estimated scf accuracy    <       0.00000005 Ry

     iteration # 46     ecut=    60.00 Ry     beta= 0.15
     Davidson diagonalization with overlap

---- Real-time Memory Report at c_bands before calling an iterative solver
             0 MiB given to the printing process from OS
             0 MiB allocation reported by mallinfo(arena+hblkhd)
         50449 MiB available memory on the node where the printing process lives
------------------
     ethr =  1.27E-11,  avg # of iterations =  4.7

     negative rho (up, down):  7.926E-01 0.000E+00

     total cpu time spent up to now is      710.8 secs

     total energy              =   -4440.29663306 Ry
     estimated scf accuracy    <       0.00000004 Ry

     iteration # 47     ecut=    60.00 Ry     beta= 0.15
     Davidson diagonalization with overlap

---- Real-time Memory Report at c_bands before calling an iterative solver
             0 MiB given to the printing process from OS
             0 MiB allocation reported by mallinfo(arena+hblkhd)
         50449 MiB available memory on the node where the printing process lives
------------------
     ethr =  9.24E-12,  avg # of iterations =  2.5

     negative rho (up, down):  7.926E-01 0.000E+00

     total cpu time spent up to now is      725.2 secs

     total energy              =   -4440.29663309 Ry
     estimated scf accuracy    <       0.00000003 Ry

     iteration # 48     ecut=    60.00 Ry     beta= 0.15
     Davidson diagonalization with overlap

---- Real-time Memory Report at c_bands before calling an iterative solver
             0 MiB given to the printing process from OS
             0 MiB allocation reported by mallinfo(arena+hblkhd)
         50469 MiB available memory on the node where the printing process lives
------------------
     ethr =  6.47E-12,  avg # of iterations =  2.0

     negative rho (up, down):  7.926E-01 0.000E+00

     total cpu time spent up to now is      739.3 secs

     total energy              =   -4440.29663310 Ry
     estimated scf accuracy    <       0.00000002 Ry

     iteration # 49     ecut=    60.00 Ry     beta= 0.15
     Davidson diagonalization with overlap

---- Real-time Memory Report at c_bands before calling an iterative solver
             0 MiB given to the printing process from OS
             0 MiB allocation reported by mallinfo(arena+hblkhd)
         50475 MiB available memory on the node where the printing process lives
------------------
     ethr =  5.56E-12,  avg # of iterations =  1.9

     negative rho (up, down):  7.926E-01 0.000E+00

     total cpu time spent up to now is      753.5 secs

     total energy              =   -4440.29663313 Ry
     estimated scf accuracy    <       0.00000001 Ry

     iteration # 50     ecut=    60.00 Ry     beta= 0.15
     Davidson diagonalization with overlap

---- Real-time Memory Report at c_bands before calling an iterative solver
             0 MiB given to the printing process from OS
             0 MiB allocation reported by mallinfo(arena+hblkhd)
         50476 MiB available memory on the node where the printing process lives
------------------
     ethr =  3.40E-12,  avg # of iterations =  2.0

     negative rho (up, down):  7.926E-01 0.000E+00

     total cpu time spent up to now is      767.6 secs

     total energy              =   -4440.29663315 Ry
     estimated scf accuracy    <       0.00000002 Ry

     iteration # 51     ecut=    60.00 Ry     beta= 0.15
     Davidson diagonalization with overlap

---- Real-time Memory Report at c_bands before calling an iterative solver
             0 MiB given to the printing process from OS
             0 MiB allocation reported by mallinfo(arena+hblkhd)
         50483 MiB available memory on the node where the printing process lives
------------------
     ethr =  3.40E-12,  avg # of iterations =  2.0

     negative rho (up, down):  7.926E-01 0.000E+00

     total cpu time spent up to now is      781.5 secs

     End of self-consistent calculation

          k = 0.0000 0.0000 0.0000 ( 65197 PWs)   bands (ev):

   -92.8634 -92.8112 -92.7171 -92.6707 -92.6114 -92.5696 -92.5527 -92.4300
   -56.2170 -56.1980 -56.0741 -56.0637 -56.0574 -56.0506 -56.0156 -55.9861
   -55.9716 -55.9693 -55.9610 -55.9188 -55.9012 -55.8623 -55.8437 -55.8115
   -55.8063 -55.7577 -55.7549 -55.7546 -55.7462 -55.7034 -55.6827 -55.5981
   -31.4272 -31.4079 -31.2658 -31.1797 -31.0962 -31.0572 -31.0123 -30.9429
   -30.0081 -29.9656 -29.9390 -29.8317 -15.2401 -15.1971 -15.1150 -14.9851
   -14.7894 -14.6671 -14.3765 -14.3536 -14.3277 -14.2792 -14.2332 -14.2234
   -14.2134 -14.1945 -14.1754 -14.1229 -14.0888 -13.9359 -13.7568 -13.7238
   -13.6946 -13.6609 -13.6461 -13.5854 -13.5550 -13.4701 -13.4025 -13.2630
   -13.2553 -13.2484 -13.2253 -13.2072 -13.1525 -13.1455 -13.1399 -13.1283
   -13.1020 -13.0729 -13.0507 -12.9708 -12.9532 -12.9492 -12.9090 -12.8925
   -12.8889 -12.8640 -12.8207 -12.8090 -12.4937 -12.3480 -12.1728 -12.1011
   -12.0217 -11.9749 -11.9477 -11.9364 -11.9139 -11.8962 -11.8328 -11.8152
   -11.7807 -11.7507 -11.6401 -11.5604 -11.5567  -3.1015  -2.8696  -2.6398
    -2.4931  -2.4303  -2.2884  -1.9810  -1.9668  -1.9474  -1.8628  -1.8426
    -1.7744  -1.7578  -1.7174  -1.6714  -1.4915  -1.2662  -1.2372  -1.0908
    -1.0762  -1.0303  -1.0102  -0.9644  -0.9478  -0.8940  -0.8670  -0.7931
    -0.7796  -0.7069  -0.5725  -0.5583  -0.5318  -0.4515  -0.4291  -0.4212
    -0.3527  -0.2876  -0.2385  -0.1873  -0.1596  -0.0925  -0.0159   0.0210
     0.0492   0.0618   0.3159   0.3303   0.5051   0.5670   0.6339   0.6882
     0.7720   0.7837   0.8024   0.8652   0.8915   0.9256   0.9831   1.1133
     1.1741   1.1951   1.2194   1.2302   1.2932   1.3603   1.4710   1.4850
     1.5483   1.5593   1.6039   1.6220   1.6284   1.6856   1.7435   1.7632
     1.7965   1.8352   1.8685   2.0019   2.0853   2.1259   2.1577   2.2989
     2.3157   2.3513   2.3538   2.4545   2.4979   2.5220   2.5415   2.5569
     2.6171   2.6309   2.6500   2.6813   2.7487   2.7788   2.7909   2.7976
     2.8649   2.8694   2.8940   2.9005   2.9106   2.9276   2.9294   2.9457
     2.9494   2.9664   2.9708   2.9801   2.9960   3.0170   3.0227   3.0344
     3.0635   3.1753   3.2805   3.9619   4.2749   4.6274   4.8385   4.8922
     5.7691   5.7917   5.8415   5.8989   6.1545   6.2008   6.4454   6.4554
     6.9560   6.9835   7.0899   7.1782   7.3918   7.5288   7.5455   7.5615
     7.5826   7.8631   7.8924   8.0449   8.0673   8.1545   8.2494   8.6006
     8.7726   8.9474

     occupation numbers 
     1.0000   1.0000   1.0000   1.0000   1.0000   1.0000   1.0000   1.0000
     1.0000   1.0000   1.0000   1.0000   1.0000   1.0000   1.0000   1.0000
     1.0000   1.0000   1.0000   1.0000   1.0000   1.0000   1.0000   1.0000
     1.0000   1.0000   1.0000   1.0000   1.0000   1.0000   1.0000   1.0000
     1.0000   1.0000   1.0000   1.0000   1.0000   1.0000   1.0000   1.0000
     1.0000   1.0000   1.0000   1.0000   1.0000   1.0000   1.0000   1.0000
     1.0000   1.0000   1.0000   1.0000   1.0000   1.0000   1.0000   1.0000
     1.0000   1.0000   1.0000   1.0000   1.0000   1.0000   1.0000   1.0000
     1.0000   1.0000   1.0000   1.0000   1.0000   1.0000   1.0000   1.0000
     1.0000   1.0000   1.0000   1.0000   1.0000   1.0000   1.0000   1.0000
     1.0000   1.0000   1.0000   1.0000   1.0000   1.0000   1.0000   1.0000
     1.0000   1.0000   1.0000   1.0000   1.0000   1.0000   1.0000   1.0000
     1.0000   1.0000   1.0000   1.0000   1.0000   1.0000   1.0000   1.0000
     1.0000   1.0000   1.0000   1.0000   1.0000   1.0000   1.0000   1.0000
     1.0000   1.0000   1.0000   1.0000   1.0000   1.0000   1.0000   1.0000
     1.0000   1.0000   1.0000   1.0000   1.0000   1.0000   1.0000   1.0000
     1.0000   1.0000   1.0000   1.0000   1.0000   1.0000   1.0000   1.0000
     1.0000   1.0000   1.0000   1.0000   1.0000   1.0000   1.0000   1.0000
     1.0000   1.0000   1.0000   1.0000   1.0000   1.0000   1.0000   1.0000
     1.0000   1.0000   1.0000   1.0000   1.0000   0.9999   0.9999   0.9999
     0.9998   0.9998   0.9998   0.9997   0.9996   0.9996   0.9994   0.9988
     0.9984   0.9983   0.9981   0.9980   0.9973   0.9963   0.9941   0.9937
     0.9918   0.9915   0.9898   0.9890   0.9888   0.9860   0.9826   0.9813
     0.9790   0.9759   0.9729   0.9580   0.9456   0.9387   0.9327   0.9009
     0.8965   0.8867   0.8859   0.8544   0.8392   0.8303   0.8229   0.8169
     0.7922   0.7863   0.7780   0.7639   0.7320   0.7171   0.7109   0.7075
     0.6723   0.6699   0.6566   0.6530   0.6474   0.6380   0.6370   0.6279
     0.6258   0.6162   0.6137   0.6084   0.5993   0.5872   0.5839   0.5771
     0.5601   0.4942   0.4322   0.1185   0.0497   0.0150   0.0065   0.0052
     0.0001   0.0000   0.0000   0.0000   0.0000   0.0000   0.0000   0.0000
     0.0000   0.0000   0.0000   0.0000   0.0000   0.0000   0.0000   0.0000
     0.0000   0.0000   0.0000   0.0000   0.0000   0.0000   0.0000   0.0000
     0.0000   0.0000

          k = 0.0000 0.2500 0.0000 ( 65257 PWs)   bands (ev):

   -92.8634 -92.8112 -92.7171 -92.6707 -92.6114 -92.5696 -92.5527 -92.4300
   -56.2170 -56.1980 -56.0741 -56.0637 -56.0574 -56.0506 -56.0156 -55.9861
   -55.9716 -55.9693 -55.9610 -55.9188 -55.9012 -55.8623 -55.8437 -55.8115
   -55.8063 -55.7577 -55.7549 -55.7546 -55.7462 -55.7034 -55.6827 -55.5981
   -31.4270 -31.4078 -31.2660 -31.1798 -31.0958 -31.0569 -31.0127 -30.9432
   -30.0075 -29.9653 -29.9396 -29.8320 -15.2035 -15.1710 -15.0899 -14.9556
   -14.8320 -14.6567 -14.5225 -14.3422 -14.3052 -14.2835 -14.2544 -14.1991
   -14.1911 -14.1785 -14.1561 -14.0956 -14.0076 -13.9671 -13.8026 -13.7820
   -13.7346 -13.6987 -13.6526 -13.6077 -13.5587 -13.4957 -13.4560 -13.3644
   -13.3070 -13.2965 -13.2584 -13.2400 -13.1386 -13.1265 -13.1102 -13.0841
   -13.0522 -13.0188 -13.0012 -12.9608 -12.9491 -12.9228 -12.9026 -12.8715
   -12.8428 -12.8125 -12.7428 -12.6521 -12.5550 -12.3992 -12.2293 -12.1679
   -11.9873 -11.9748 -11.9446 -11.9161 -11.8882 -11.8718 -11.8245 -11.8131
   -11.7901 -11.7561 -11.6544 -11.6020 -11.5914  -2.9662  -2.7453  -2.6074
    -2.4257  -2.3820  -2.2186  -1.9984  -1.9152  -1.9022  -1.8439  -1.7413
    -1.7247  -1.6901  -1.6635  -1.6197  -1.4226  -1.2938  -1.2824  -1.2049
    -1.1959  -1.0914  -1.0613  -1.0024  -0.9770  -0.9380  -0.8732  -0.8457
    -0.8149  -0.7809  -0.7644  -0.7329  -0.6573  -0.6082  -0.5387  -0.4269
    -0.4071  -0.3643  -0.2492  -0.2130  -0.1434  -0.1016  -0.0309  -0.0136
     0.0052   0.0629   0.3638   0.4504   0.4802   0.5726   0.6201   0.6495
     0.7538   0.7726   0.8700   0.8939   0.9170   1.0325   1.1279   1.1497
     1.1720   1.1942   1.2170   1.2754   1.3044   1.3314   1.3787   1.4171
     1.4472   1.5314   1.5635   1.6060   1.6541   1.7089   1.7602   1.7848
     1.8070   1.8216   1.9182   2.0340   2.1092   2.1380   2.2006   2.2500
     2.2902   2.3024   2.3578   2.3946   2.4700   2.5167   2.5360   2.6099
     2.6396   2.6755   2.7067   2.7310   2.7606   2.7839   2.7999   2.8086
     2.8140   2.8239   2.8532   2.8566   2.8746   2.8802   2.8904   2.9073
     2.9240   2.9281   2.9487   2.9585   2.9637   2.9978   3.0148   3.0779
     3.4483   3.4971   3.7262   4.1550   4.2734   4.5610   4.9109   5.0024
     5.5272   5.6500   5.8286   5.9235   5.9667   6.0217   6.0820   6.5603
     7.0410   7.0660   7.2123   7.2562   7.3640   7.4203   7.4942   7.5611
     7.7135   7.9364   8.0838   8.2164   8.2695   8.3082   8.3158   8.3878
     8.6236   8.8323

     occupation numbers 
     1.0000   1.0000   1.0000   1.0000   1.0000   1.0000   1.0000   1.0000
     1.0000   1.0000   1.0000   1.0000   1.0000   1.0000   1.0000   1.0000
     1.0000   1.0000   1.0000   1.0000   1.0000   1.0000   1.0000   1.0000
     1.0000   1.0000   1.0000   1.0000   1.0000   1.0000   1.0000   1.0000
     1.0000   1.0000   1.0000   1.0000   1.0000   1.0000   1.0000   1.0000
     1.0000   1.0000   1.0000   1.0000   1.0000   1.0000   1.0000   1.0000
     1.0000   1.0000   1.0000   1.0000   1.0000   1.0000   1.0000   1.0000
     1.0000   1.0000   1.0000   1.0000   1.0000   1.0000   1.0000   1.0000
     1.0000   1.0000   1.0000   1.0000   1.0000   1.0000   1.0000   1.0000
     1.0000   1.0000   1.0000   1.0000   1.0000   1.0000   1.0000   1.0000
     1.0000   1.0000   1.0000   1.0000   1.0000   1.0000   1.0000   1.0000
     1.0000   1.0000   1.0000   1.0000   1.0000   1.0000   1.0000   1.0000
     1.0000   1.0000   1.0000   1.0000   1.0000   1.0000   1.0000   1.0000
     1.0000   1.0000   1.0000   1.0000   1.0000   1.0000   1.0000   1.0000
     1.0000   1.0000   1.0000   1.0000   1.0000   1.0000   1.0000   1.0000
     1.0000   1.0000   1.0000   1.0000   1.0000   1.0000   1.0000   1.0000
     1.0000   1.0000   1.0000   1.0000   1.0000   1.0000   1.0000   1.0000
     1.0000   1.0000   1.0000   1.0000   1.0000   1.0000   1.0000   1.0000
     1.0000   1.0000   1.0000   1.0000   1.0000   1.0000   1.0000   1.0000
     1.0000   1.0000   1.0000   1.0000   1.0000   0.9999   0.9999   0.9999
     0.9998   0.9998   0.9997   0.9996   0.9996   0.9992   0.9988   0.9986
     0.9985   0.9983   0.9981   0.9975   0.9971   0.9968   0.9960   0.9953
     0.9946   0.9924   0.9913   0.9897   0.9876   0.9847   0.9815   0.9798
     0.9782   0.9770   0.9680   0.9535   0.9416   0.9365   0.9240   0.9130
     0.9031   0.9000   0.8848   0.8738   0.8491   0.8323   0.8250   0.7953
     0.7825   0.7665   0.7521   0.7406   0.7261   0.7145   0.7064   0.7019
     0.6991   0.6940   0.6785   0.6768   0.6671   0.6641   0.6585   0.6492
     0.6400   0.6377   0.6262   0.6207   0.6177   0.5983   0.5885   0.5517
     0.3372   0.3112   0.2025   0.0709   0.0500   0.0191   0.0048   0.0032
     0.0002   0.0001   0.0000   0.0000   0.0000   0.0000   0.0000   0.0000
     0.0000   0.0000   0.0000   0.0000   0.0000   0.0000   0.0000   0.0000
     0.0000   0.0000   0.0000   0.0000   0.0000   0.0000   0.0000   0.0000
     0.0000   0.0000

          k = 0.0000-0.5000 0.0000 ( 65180 PWs)   bands (ev):

   -92.8634 -92.8112 -92.7171 -92.6707 -92.6114 -92.5696 -92.5527 -92.4300
   -56.2170 -56.1980 -56.0741 -56.0637 -56.0574 -56.0506 -56.0156 -55.9861
   -55.9716 -55.9693 -55.9610 -55.9188 -55.9012 -55.8623 -55.8437 -55.8115
   -55.8063 -55.7577 -55.7549 -55.7546 -55.7462 -55.7034 -55.6827 -55.5981
   -31.4268 -31.4077 -31.2662 -31.1800 -31.0955 -31.0567 -31.0131 -30.9434
   -30.0069 -29.9650 -29.9403 -29.8323 -15.1689 -15.1200 -15.0665 -14.9366
   -14.8540 -14.7164 -14.5605 -14.4362 -14.3150 -14.2345 -14.1989 -14.1928
   -14.1422 -14.1272 -14.0781 -14.0555 -14.0320 -13.9961 -13.9522 -13.9144
   -13.7409 -13.6822 -13.6579 -13.6130 -13.5485 -13.5141 -13.4405 -13.4319
   -13.3965 -13.3666 -13.2592 -13.2407 -13.1206 -13.1180 -13.1062 -13.0789
   -13.0472 -13.0307 -12.9599 -12.9199 -12.8966 -12.8668 -12.8568 -12.8375
   -12.8121 -12.8031 -12.6659 -12.5920 -12.4743 -12.4295 -12.3383 -12.2920
   -11.9750 -11.9415 -11.9388 -11.9110 -11.8742 -11.8396 -11.8281 -11.7862
   -11.7822 -11.7380 -11.6762 -11.6628 -11.6487  -2.7520  -2.6917  -2.5425
    -2.4703  -2.1883  -2.1035  -1.9780  -1.8407  -1.8032  -1.7838  -1.7041
    -1.6728  -1.5917  -1.5558  -1.4784  -1.4386  -1.4009  -1.3732  -1.3147
    -1.2769  -1.2310  -1.1938  -1.1618  -1.1276  -1.0179  -0.9735  -0.9369
    -0.9359  -0.8500  -0.8170  -0.7954  -0.7435  -0.6600  -0.5866  -0.5015
    -0.4748  -0.3676  -0.3207  -0.1882  -0.1436  -0.1238  -0.0510   0.0736
     0.1101   0.2325   0.3031   0.3094   0.4365   0.4898   0.6184   0.7150
     0.8270   0.8571   0.8961   0.9015   0.9468   0.9559   0.9918   1.0113
     1.0193   1.1288   1.1925   1.2223   1.2475   1.5097   1.5413   1.5652
     1.6657   1.6917   1.7128   1.7276   1.7532   1.7705   1.7939   1.8140
     1.8450   1.8785   1.9095   1.9135   1.9430   1.9953   2.0794   2.1097
     2.2979   2.4424   2.4526   2.4618   2.5085   2.5134   2.5213   2.5718
     2.5832   2.6089   2.6290   2.6439   2.6504   2.6888   2.7445   2.7546
     2.8192   2.8331   2.8496   2.8532   2.8703   2.8783   2.8828   2.8840
     2.8906   2.9096   2.9179   2.9263   2.9829   2.9902   3.0041   3.0578
     3.9900   4.0076   4.0240   4.1079   4.5979   4.7489   4.9263   5.0154
     5.3052   5.3739   5.5099   5.5956   5.8722   5.8980   6.2911   6.6475
     6.8077   6.9018   7.1569   7.3207   7.5662   7.5796   7.6789   7.6999
     7.7933   7.9443   8.1011   8.1716   8.2263   8.3643   8.5155   8.5383
     8.7060   8.7545

     occupation numbers 
     1.0000   1.0000   1.0000   1.0000   1.0000   1.0000   1.0000   1.0000
     1.0000   1.0000   1.0000   1.0000   1.0000   1.0000   1.0000   1.0000
     1.0000   1.0000   1.0000   1.0000   1.0000   1.0000   1.0000   1.0000
     1.0000   1.0000   1.0000   1.0000   1.0000   1.0000   1.0000   1.0000
     1.0000   1.0000   1.0000   1.0000   1.0000   1.0000   1.0000   1.0000
     1.0000   1.0000   1.0000   1.0000   1.0000   1.0000   1.0000   1.0000
     1.0000   1.0000   1.0000   1.0000   1.0000   1.0000   1.0000   1.0000
     1.0000   1.0000   1.0000   1.0000   1.0000   1.0000   1.0000   1.0000
     1.0000   1.0000   1.0000   1.0000   1.0000   1.0000   1.0000   1.0000
     1.0000   1.0000   1.0000   1.0000   1.0000   1.0000   1.0000   1.0000
     1.0000   1.0000   1.0000   1.0000   1.0000   1.0000   1.0000   1.0000
     1.0000   1.0000   1.0000   1.0000   1.0000   1.0000   1.0000   1.0000
     1.0000   1.0000   1.0000   1.0000   1.0000   1.0000   1.0000   1.0000
     1.0000   1.0000   1.0000   1.0000   1.0000   1.0000   1.0000   1.0000
     1.0000   1.0000   1.0000   1.0000   1.0000   1.0000   1.0000   1.0000
     1.0000   1.0000   1.0000   1.0000   1.0000   1.0000   1.0000   1.0000
     1.0000   1.0000   1.0000   1.0000   1.0000   1.0000   1.0000   1.0000
     1.0000   1.0000   1.0000   1.0000   1.0000   1.0000   1.0000   1.0000
     1.0000   1.0000   1.0000   1.0000   1.0000   1.0000   1.0000   1.0000
     1.0000   1.0000   1.0000   1.0000   1.0000   1.0000   0.9999   0.9999
     0.9997   0.9997   0.9996   0.9996   0.9995   0.9995   0.9994   0.9993
     0.9993   0.9988   0.9983   0.9980   0.9978   0.9930   0.9921   0.9913
     0.9870   0.9857   0.9845   0.9836   0.9820   0.9808   0.9792   0.9776
     0.9750   0.9720   0.9689   0.9685   0.9652   0.9589   0.9466   0.9415
     0.9012   0.8585   0.8551   0.8520   0.8353   0.8335   0.8306   0.8110
     0.8064   0.7957   0.7871   0.7806   0.7778   0.7604   0.7340   0.7291
     0.6964   0.6892   0.6804   0.6786   0.6694   0.6651   0.6626   0.6620
     0.6584   0.6480   0.6434   0.6387   0.6068   0.6026   0.5947   0.5635
     0.1104   0.1055   0.1012   0.0808   0.0167   0.0094   0.0045   0.0030
     0.0007   0.0005   0.0002   0.0002   0.0000   0.0000   0.0000   0.0000
     0.0000   0.0000   0.0000   0.0000   0.0000   0.0000   0.0000   0.0000
     0.0000   0.0000   0.0000   0.0000   0.0000   0.0000   0.0000   0.0000
     0.0000   0.0000

          k = 0.2500 0.2500 0.0000 ( 65198 PWs)   bands (ev):

   -92.8634 -92.8112 -92.7171 -92.6707 -92.6114 -92.5696 -92.5527 -92.4300
   -56.2170 -56.1980 -56.0741 -56.0637 -56.0574 -56.0506 -56.0156 -55.9861
   -55.9716 -55.9693 -55.9610 -55.9188 -55.9012 -55.8623 -55.8437 -55.8115
   -55.8063 -55.7577 -55.7549 -55.7546 -55.7462 -55.7034 -55.6827 -55.5981
   -31.4253 -31.4095 -31.2657 -31.1802 -31.0950 -31.0577 -31.0123 -30.9436
   -30.0065 -29.9663 -29.9392 -29.8324 -15.1749 -15.1367 -15.0618 -14.9451
   -14.8239 -14.6985 -14.6278 -14.4177 -14.2652 -14.2502 -14.2140 -14.1857
   -14.1645 -14.1383 -14.1024 -14.0580 -13.9967 -13.9804 -13.8180 -13.8043
   -13.7764 -13.7551 -13.7006 -13.6660 -13.5892 -13.5788 -13.4250 -13.3907
   -13.3733 -13.2919 -13.2511 -13.1996 -13.1687 -13.1260 -13.0989 -13.0774
   -13.0664 -13.0017 -12.9822 -12.9312 -12.8997 -12.8944 -12.8735 -12.8644
   -12.8406 -12.8365 -12.6581 -12.6035 -12.5383 -12.4283 -12.2608 -12.2182
   -11.9749 -11.9593 -11.9282 -11.9168 -11.9094 -11.8476 -11.8123 -11.8061
   -11.7708 -11.7618 -11.6713 -11.6302 -11.6129  -2.8278  -2.6195  -2.5011
    -2.4072  -2.2867  -2.2220  -2.0231  -1.8800  -1.8606  -1.8308  -1.7363
    -1.7003  -1.6069  -1.5798  -1.5292  -1.3982  -1.3504  -1.2770  -1.2326
    -1.1880  -1.1644  -1.1405  -1.0970  -1.0828  -0.9916  -0.9413  -0.8755
    -0.8256  -0.7953  -0.7472  -0.7309  -0.6683  -0.6202  -0.5609  -0.5275
    -0.4406  -0.3892  -0.3592  -0.3221  -0.2655  -0.1886  -0.1538  -0.1238
    -0.0440  -0.0019   0.2514   0.3993   0.4337   0.4941   0.5358   0.6162
     0.6566   0.7146   0.7478   1.0191   1.0825   1.1557   1.1805   1.2320
     1.2614   1.2958   1.3329   1.3504   1.3774   1.4244   1.4325   1.4465
     1.4936   1.5360   1.5715   1.6307   1.6759   1.6777   1.7220   1.7503
     1.8116   1.8374   1.9591   2.0191   2.0515   2.0754   2.1507   2.2151
     2.2381   2.2729   2.2997   2.3119   2.4173   2.4588   2.5481   2.6105
     2.6333   2.6796   2.7195   2.7337   2.7395   2.7555   2.7707   2.7846
     2.7957   2.8026   2.8148   2.8272   2.8407   2.8591   2.8656   2.8782
     2.9004   2.9103   2.9183   2.9524   3.2506   3.3456   3.3898   3.4651
     3.5002   3.7082   3.7950   4.1555   4.3673   4.5721   4.8297   5.1411
     5.5171   5.5757   5.6154   5.6786   5.7413   6.1003   6.1358   6.1784
     6.8482   7.0494   7.1948   7.3604   7.4687   7.4986   7.6086   7.7744
     7.8254   8.0222   8.2118   8.2201   8.3410   8.3551   8.4361   8.4626
     8.5503   8.7536

     occupation numbers 
     1.0000   1.0000   1.0000   1.0000   1.0000   1.0000   1.0000   1.0000
     1.0000   1.0000   1.0000   1.0000   1.0000   1.0000   1.0000   1.0000
     1.0000   1.0000   1.0000   1.0000   1.0000   1.0000   1.0000   1.0000
     1.0000   1.0000   1.0000   1.0000   1.0000   1.0000   1.0000   1.0000
     1.0000   1.0000   1.0000   1.0000   1.0000   1.0000   1.0000   1.0000
     1.0000   1.0000   1.0000   1.0000   1.0000   1.0000   1.0000   1.0000
     1.0000   1.0000   1.0000   1.0000   1.0000   1.0000   1.0000   1.0000
     1.0000   1.0000   1.0000   1.0000   1.0000   1.0000   1.0000   1.0000
     1.0000   1.0000   1.0000   1.0000   1.0000   1.0000   1.0000   1.0000
     1.0000   1.0000   1.0000   1.0000   1.0000   1.0000   1.0000   1.0000
     1.0000   1.0000   1.0000   1.0000   1.0000   1.0000   1.0000   1.0000
     1.0000   1.0000   1.0000   1.0000   1.0000   1.0000   1.0000   1.0000
     1.0000   1.0000   1.0000   1.0000   1.0000   1.0000   1.0000   1.0000
     1.0000   1.0000   1.0000   1.0000   1.0000   1.0000   1.0000   1.0000
     1.0000   1.0000   1.0000   1.0000   1.0000   1.0000   1.0000   1.0000
     1.0000   1.0000   1.0000   1.0000   1.0000   1.0000   1.0000   1.0000
     1.0000   1.0000   1.0000   1.0000   1.0000   1.0000   1.0000   1.0000
     1.0000   1.0000   1.0000   1.0000   1.0000   1.0000   1.0000   1.0000
     1.0000   1.0000   1.0000   1.0000   1.0000   1.0000   1.0000   1.0000
     1.0000   1.0000   1.0000   1.0000   1.0000   1.0000   1.0000   0.9999
     0.9999   0.9999   0.9998   0.9993   0.9990   0.9986   0.9984   0.9980
     0.9977   0.9972   0.9967   0.9965   0.9960   0.9951   0.9950   0.9947
     0.9935   0.9922   0.9910   0.9887   0.9865   0.9864   0.9840   0.9822
     0.9778   0.9757   0.9634   0.9556   0.9509   0.9472   0.9341   0.9209
     0.9157   0.9075   0.9007   0.8975   0.8667   0.8530   0.8204   0.7950
     0.7853   0.7647   0.7461   0.7392   0.7365   0.7287   0.7211   0.7141
     0.7085   0.7050   0.6987   0.6922   0.6852   0.6754   0.6719   0.6651
     0.6531   0.6476   0.6432   0.6241   0.4497   0.3946   0.3695   0.3282
     0.3096   0.2102   0.1749   0.0708   0.0372   0.0184   0.0067   0.0017
     0.0002   0.0002   0.0001   0.0001   0.0001   0.0000   0.0000   0.0000
     0.0000   0.0000   0.0000   0.0000   0.0000   0.0000   0.0000   0.0000
     0.0000   0.0000   0.0000   0.0000   0.0000   0.0000   0.0000   0.0000
     0.0000   0.0000

          k = 0.2500-0.5000 0.0000 ( 65138 PWs)   bands (ev):

   -92.8634 -92.8112 -92.7171 -92.6707 -92.6114 -92.5696 -92.5527 -92.4300
   -56.2170 -56.1980 -56.0741 -56.0637 -56.0574 -56.0506 -56.0156 -55.9861
   -55.9716 -55.9693 -55.9610 -55.9188 -55.9012 -55.8623 -55.8437 -55.8115
   -55.8063 -55.7577 -55.7549 -55.7546 -55.7462 -55.7034 -55.6827 -55.5981
   -31.4251 -31.4094 -31.2659 -31.1804 -31.0947 -31.0575 -31.0126 -30.9439
   -30.0059 -29.9660 -29.9399 -29.8328 -15.1386 -15.0933 -15.0239 -14.9072
   -14.8756 -14.7570 -14.6628 -14.5341 -14.2296 -14.1734 -14.1504 -14.1270
   -14.1105 -14.0998 -14.0627 -14.0443 -14.0110 -13.9739 -13.9453 -13.9033
   -13.8225 -13.7727 -13.7162 -13.6936 -13.6221 -13.5970 -13.4751 -13.4421
   -13.3574 -13.2921 -13.2694 -13.1845 -13.1403 -13.1243 -13.0947 -13.0711
   -13.0629 -13.0088 -12.9867 -12.9121 -12.9014 -12.8880 -12.8505 -12.8319
   -12.8065 -12.7748 -12.6725 -12.5640 -12.4718 -12.3990 -12.3298 -12.2954
   -11.9750 -11.9351 -11.9231 -11.9121 -11.8846 -11.8534 -11.8247 -11.7834
   -11.7567 -11.7343 -11.6894 -11.6638 -11.6529  -2.6101  -2.5431  -2.4163
    -2.3389  -2.2087  -2.1233  -2.0023  -1.8518  -1.7981  -1.7761  -1.7123
    -1.6994  -1.6023  -1.5350  -1.4509  -1.4001  -1.3908  -1.3283  -1.2850
    -1.2508  -1.2031  -1.1659  -1.1313  -1.0918  -1.0791  -1.0344  -1.0049
    -0.9628  -0.9318  -0.8649  -0.7628  -0.7200  -0.6438  -0.5783  -0.5290
    -0.4867  -0.4663  -0.4128  -0.2505  -0.2389  -0.1322  -0.1002  -0.0861
    -0.0430  -0.0156   0.0294   0.0505   0.1158   0.3938   0.4869   0.5860
     0.6315   0.8789   0.9071   0.9915   1.0171   1.1796   1.2150   1.2565
     1.2776   1.2922   1.3128   1.3762   1.4245   1.4586   1.5452   1.6319
     1.6735   1.6921   1.7053   1.7393   1.7533   1.7561   1.8042   1.8146
     1.8359   1.8782   1.8869   1.9020   1.9393   1.9957   2.0331   2.1148
     2.2549   2.3946   2.4100   2.4294   2.4597   2.4821   2.5095   2.5305
     2.5423   2.5653   2.6099   2.6370   2.6496   2.6952   2.7194   2.7352
     2.7470   2.7542   2.7732   2.7873   2.8072   2.8136   2.8470   2.8588
     2.8718   2.8831   2.8929   2.9055   3.4350   3.4453   3.5823   3.6331
     3.9956   4.0284   4.0472   4.1623   4.6152   4.7701   4.9459   4.9808
     5.1549   5.3183   5.5221   5.5395   5.6476   5.6842   6.3559   6.3913
     6.4570   6.7589   7.1896   7.6016   7.6721   7.7219   7.7404   7.8138
     7.8646   7.9455   8.1555   8.3467   8.4149   8.4344   8.5674   8.6026
     8.6509   8.6925

     occupation numbers 
     1.0000   1.0000   1.0000   1.0000   1.0000   1.0000   1.0000   1.0000
     1.0000   1.0000   1.0000   1.0000   1.0000   1.0000   1.0000   1.0000
     1.0000   1.0000   1.0000   1.0000   1.0000   1.0000   1.0000   1.0000
     1.0000   1.0000   1.0000   1.0000   1.0000   1.0000   1.0000   1.0000
     1.0000   1.0000   1.0000   1.0000   1.0000   1.0000   1.0000   1.0000
     1.0000   1.0000   1.0000   1.0000   1.0000   1.0000   1.0000   1.0000
     1.0000   1.0000   1.0000   1.0000   1.0000   1.0000   1.0000   1.0000
     1.0000   1.0000   1.0000   1.0000   1.0000   1.0000   1.0000   1.0000
     1.0000   1.0000   1.0000   1.0000   1.0000   1.0000   1.0000   1.0000
     1.0000   1.0000   1.0000   1.0000   1.0000   1.0000   1.0000   1.0000
     1.0000   1.0000   1.0000   1.0000   1.0000   1.0000   1.0000   1.0000
     1.0000   1.0000   1.0000   1.0000   1.0000   1.0000   1.0000   1.0000
     1.0000   1.0000   1.0000   1.0000   1.0000   1.0000   1.0000   1.0000
     1.0000   1.0000   1.0000   1.0000   1.0000   1.0000   1.0000   1.0000
     1.0000   1.0000   1.0000   1.0000   1.0000   1.0000   1.0000   1.0000
     1.0000   1.0000   1.0000   1.0000   1.0000   1.0000   1.0000   1.0000
     1.0000   1.0000   1.0000   1.0000   1.0000   1.0000   1.0000   1.0000
     1.0000   1.0000   1.0000   1.0000   1.0000   1.0000   1.0000   1.0000
     1.0000   1.0000   1.0000   1.0000   1.0000   1.0000   1.0000   1.0000
     1.0000   1.0000   1.0000   1.0000   1.0000   1.0000   1.0000   0.9999
     0.9999   0.9997   0.9996   0.9994   0.9993   0.9984   0.9981   0.9977
     0.9975   0.9973   0.9970   0.9961   0.9951   0.9944   0.9919   0.9886
     0.9866   0.9857   0.9849   0.9829   0.9820   0.9818   0.9784   0.9776
     0.9758   0.9720   0.9712   0.9697   0.9657   0.9588   0.9537   0.9406
     0.9118   0.8738   0.8690   0.8628   0.8527   0.8449   0.8350   0.8271
     0.8226   0.8136   0.7953   0.7837   0.7782   0.7575   0.7461   0.7385
     0.7328   0.7293   0.7199   0.7128   0.7026   0.6993   0.6818   0.6755
     0.6686   0.6625   0.6571   0.6503   0.3445   0.3389   0.2680   0.2437
     0.1088   0.1000   0.0952   0.0694   0.0157   0.0086   0.0041   0.0035
     0.0016   0.0007   0.0002   0.0002   0.0001   0.0001   0.0000   0.0000
     0.0000   0.0000   0.0000   0.0000   0.0000   0.0000   0.0000   0.0000
     0.0000   0.0000   0.0000   0.0000   0.0000   0.0000   0.0000   0.0000
     0.0000   0.0000

          k =-0.5000-0.5000 0.0000 ( 65132 PWs)   bands (ev):

   -92.8634 -92.8112 -92.7171 -92.6707 -92.6114 -92.5696 -92.5527 -92.4300
   -56.2170 -56.1980 -56.0741 -56.0637 -56.0574 -56.0506 -56.0156 -55.9861
   -55.9716 -55.9693 -55.9610 -55.9188 -55.9012 -55.8623 -55.8437 -55.8115
   -55.8063 -55.7577 -55.7549 -55.7546 -55.7462 -55.7034 -55.6827 -55.5981
   -31.4229 -31.4116 -31.2655 -31.1808 -31.0938 -31.0583 -31.0122 -30.9444
   -30.0049 -29.9670 -29.9395 -29.8332 -15.0930 -15.0663 -14.9487 -14.9360
   -14.8366 -14.8056 -14.7644 -14.6341 -14.1422 -14.1279 -14.0958 -14.0748
   -14.0595 -14.0426 -14.0187 -14.0063 -13.9872 -13.9807 -13.9622 -13.8881
   -13.8807 -13.8419 -13.8155 -13.8068 -13.7096 -13.6584 -13.5129 -13.4784
   -13.3085 -13.2663 -13.1999 -13.1762 -13.1403 -13.1352 -13.1258 -13.1072
   -13.0208 -13.0005 -12.9706 -12.9237 -12.9121 -12.8964 -12.8761 -12.8480
   -12.7560 -12.7482 -12.6888 -12.5397 -12.4681 -12.3633 -12.3274 -12.2989
   -11.9750 -11.9319 -11.9192 -11.9011 -11.8846 -11.8493 -11.8324 -11.7964
   -11.7371 -11.7164 -11.7119 -11.6616 -11.6588  -2.3857  -2.3105  -2.2991
    -2.2260  -2.1896  -2.1114  -2.0436  -1.9170  -1.8024  -1.7724  -1.7330
    -1.6758  -1.6033  -1.5885  -1.5186  -1.4747  -1.3570  -1.3283  -1.2795
    -1.2528  -1.1885  -1.1416  -1.1227  -1.1102  -1.0562  -1.0130  -0.9955
    -0.8838  -0.8274  -0.7812  -0.7298  -0.6998  -0.6898  -0.6547  -0.6098
    -0.5757  -0.5651  -0.4806  -0.4147  -0.3699  -0.3427  -0.2697  -0.2118
    -0.1910  -0.1386  -0.1086  -0.1004  -0.0762   0.3680   0.4052   0.5367
     0.5538   0.9130   0.9252   0.9572   0.9954   1.2665   1.2868   1.2934
     1.3313   1.4578   1.5522   1.5803   1.6159   1.6401   1.6675   1.6727
     1.7027   1.7147   1.7343   1.7429   1.7912   1.7934   1.8238   1.8526
     1.8615   1.8790   1.9157   1.9369   1.9530   1.9821   2.0171   2.0738
     2.1407   2.4061   2.4385   2.4576   2.4767   2.4858   2.5154   2.5213
     2.5417   2.5495   2.5677   2.5861   2.5968   2.6130   2.6288   2.6484
     2.6706   2.6776   2.6969   2.7122   2.7270   2.7422   2.7452   2.7672
     2.8574   2.8600   2.8945   2.8996   3.8739   3.8959   3.9187   3.9251
     4.1609   4.2394   4.2574   4.4989   4.6206   4.7030   4.8362   4.9379
     4.9576   5.0469   5.1875   5.2615   5.8170   5.8610   5.9102   6.0180
     6.6232   6.8002   6.9453   7.4478   7.8558   7.8670   7.9453   8.0874
     8.1403   8.1769   8.1935   8.2847   8.3317   8.4784   8.5100   8.5448
     8.5529   8.6231

     occupation numbers 
     1.0000   1.0000   1.0000   1.0000   1.0000   1.0000   1.0000   1.0000
     1.0000   1.0000   1.0000   1.0000   1.0000   1.0000   1.0000   1.0000
     1.0000   1.0000   1.0000   1.0000   1.0000   1.0000   1.0000   1.0000
     1.0000   1.0000   1.0000   1.0000   1.0000   1.0000   1.0000   1.0000
     1.0000   1.0000   1.0000   1.0000   1.0000   1.0000   1.0000   1.0000
     1.0000   1.0000   1.0000   1.0000   1.0000   1.0000   1.0000   1.0000
     1.0000   1.0000   1.0000   1.0000   1.0000   1.0000   1.0000   1.0000
     1.0000   1.0000   1.0000   1.0000   1.0000   1.0000   1.0000   1.0000
     1.0000   1.0000   1.0000   1.0000   1.0000   1.0000   1.0000   1.0000
     1.0000   1.0000   1.0000   1.0000   1.0000   1.0000   1.0000   1.0000
     1.0000   1.0000   1.0000   1.0000   1.0000   1.0000   1.0000   1.0000
     1.0000   1.0000   1.0000   1.0000   1.0000   1.0000   1.0000   1.0000
     1.0000   1.0000   1.0000   1.0000   1.0000   1.0000   1.0000   1.0000
     1.0000   1.0000   1.0000   1.0000   1.0000   1.0000   1.0000   1.0000
     1.0000   1.0000   1.0000   1.0000   1.0000   1.0000   1.0000   1.0000
     1.0000   1.0000   1.0000   1.0000   1.0000   1.0000   1.0000   1.0000
     1.0000   1.0000   1.0000   1.0000   1.0000   1.0000   1.0000   1.0000
     1.0000   1.0000   1.0000   1.0000   1.0000   1.0000   1.0000   1.0000
     1.0000   1.0000   1.0000   1.0000   1.0000   1.0000   1.0000   1.0000
     1.0000   1.0000   1.0000   1.0000   1.0000   1.0000   1.0000   1.0000
     0.9999   0.9996   0.9996   0.9995   0.9994   0.9976   0.9974   0.9973
[...]
     0.6340   0.6202   0.6187   0.6143   0.6099   0.6050   0.5990   0.5249
     0.3456   0.3142   0.2042   0.0758   0.0442   0.0205   0.0049   0.0031
     0.0002   0.0001   0.0000   0.0000   0.0000   0.0000   0.0000   0.0000
     0.0000   0.0000   0.0000   0.0000   0.0000   0.0000   0.0000   0.0000
     0.0000   0.0000   0.0000   0.0000   0.0000   0.0000   0.0000   0.0000
     0.0000   0.0000

          k =-0.5000 0.0000 0.0000 ( 65180 PWs)   bands (ev):

   -92.8634 -92.8112 -92.7171 -92.6707 -92.6114 -92.5696 -92.5527 -92.4300
   -56.2170 -56.1980 -56.0741 -56.0637 -56.0574 -56.0506 -56.0156 -55.9861
   -55.9716 -55.9693 -55.9610 -55.9188 -55.9012 -55.8623 -55.8437 -55.8115
   -55.8063 -55.7577 -55.7549 -55.7546 -55.7462 -55.7034 -55.6827 -55.5981
   -31.4233 -31.4118 -31.2651 -31.1805 -31.0946 -31.0589 -31.0114 -30.9438
   -30.0061 -29.9677 -29.9382 -29.8325 -15.1738 -15.1233 -15.0605 -14.9458
   -14.8479 -14.7020 -14.5596 -14.4028 -14.2899 -14.2730 -14.2660 -14.2045
   -14.1472 -14.1176 -14.0678 -14.0546 -14.0397 -13.9923 -13.9613 -13.8596
   -13.7122 -13.6857 -13.6518 -13.6442 -13.5685 -13.5200 -13.4457 -13.4164
   -13.3930 -13.3608 -13.2042 -13.1913 -13.1658 -13.1561 -13.1047 -13.0955
   -13.0819 -13.0697 -12.9303 -12.9077 -12.8947 -12.8690 -12.8594 -12.8324
   -12.7916 -12.7821 -12.6922 -12.5791 -12.4782 -12.4162 -12.3392 -12.3052
   -11.9747 -11.9384 -11.9169 -11.9100 -11.8964 -11.8780 -11.8366 -11.7734
   -11.7552 -11.7214 -11.6793 -11.6700 -11.6542  -2.7416  -2.7029  -2.5400
    -2.5004  -2.1868  -2.1115  -1.9645  -1.8462  -1.8073  -1.7604  -1.7140
    -1.6890  -1.5649  -1.5210  -1.5051  -1.4231  -1.3869  -1.3720  -1.3407
    -1.2814  -1.2143  -1.1855  -1.1546  -1.0583  -1.0139  -0.9653  -0.9318
    -0.9107  -0.8794  -0.8316  -0.8064  -0.7684  -0.6702  -0.5935  -0.5293
    -0.4668  -0.3001  -0.2572  -0.2145  -0.1781  -0.1142  -0.1029   0.0437
     0.0699   0.1247   0.2807   0.3803   0.4288   0.5288   0.5921   0.7078
     0.7202   0.8502   0.8735   0.9270   0.9600   0.9978   1.0044   1.0527
     1.0735   1.1414   1.1939   1.2401   1.2478   1.5485   1.5581   1.5773
     1.5944   1.6986   1.7145   1.7323   1.7416   1.7699   1.7802   1.8194
     1.8420   1.8726   1.9181   1.9393   1.9868   2.0132   2.0641   2.1856
     2.2774   2.3442   2.3574   2.4345   2.4656   2.4964   2.5548   2.5693
     2.5776   2.6075   2.6198   2.6257   2.6564   2.6987   2.7310   2.7739
     2.7970   2.8415   2.8452   2.8503   2.8599   2.8760   2.8850   2.8972
     2.9037   2.9241   2.9299   2.9498   2.9686   2.9733   3.1042   3.1134
     3.9479   3.9714   4.0326   4.1837   4.6365   4.7147   4.9042   4.9438
     5.3900   5.4225   5.4982   5.5324   5.8773   5.8835   6.3345   6.5408
     6.7455   6.9612   7.2146   7.2683   7.6189   7.6440   7.6683   7.7021
     7.7917   7.9724   8.0636   8.0829   8.2629   8.3889   8.5009   8.6173
     8.6529   8.7990

     occupation numbers 
     1.0000   1.0000   1.0000   1.0000   1.0000   1.0000   1.0000   1.0000
     1.0000   1.0000   1.0000   1.0000   1.0000   1.0000   1.0000   1.0000
     1.0000   1.0000   1.0000   1.0000   1.0000   1.0000   1.0000   1.0000
     1.0000   1.0000   1.0000   1.0000   1.0000   1.0000   1.0000   1.0000
     1.0000   1.0000   1.0000   1.0000   1.0000   1.0000   1.0000   1.0000
     1.0000   1.0000   1.0000   1.0000   1.0000   1.0000   1.0000   1.0000
     1.0000   1.0000   1.0000   1.0000   1.0000   1.0000   1.0000   1.0000
     1.0000   1.0000   1.0000   1.0000   1.0000   1.0000   1.0000   1.0000
     1.0000   1.0000   1.0000   1.0000   1.0000   1.0000   1.0000   1.0000
     1.0000   1.0000   1.0000   1.0000   1.0000   1.0000   1.0000   1.0000
     1.0000   1.0000   1.0000   1.0000   1.0000   1.0000   1.0000   1.0000
     1.0000   1.0000   1.0000   1.0000   1.0000   1.0000   1.0000   1.0000
     1.0000   1.0000   1.0000   1.0000   1.0000   1.0000   1.0000   1.0000
     1.0000   1.0000   1.0000   1.0000   1.0000   1.0000   1.0000   1.0000
     1.0000   1.0000   1.0000   1.0000   1.0000   1.0000   1.0000   1.0000
     1.0000   1.0000   1.0000   1.0000   1.0000   1.0000   1.0000   1.0000
     1.0000   1.0000   1.0000   1.0000   1.0000   1.0000   1.0000   1.0000
     1.0000   1.0000   1.0000   1.0000   1.0000   1.0000   1.0000   1.0000
     1.0000   1.0000   1.0000   1.0000   1.0000   1.0000   1.0000   1.0000
     1.0000   1.0000   1.0000   1.0000   1.0000   1.0000   0.9999   0.9999
     0.9999   0.9997   0.9997   0.9996   0.9995   0.9994   0.9993   0.9991
     0.9991   0.9987   0.9983   0.9979   0.9978   0.9918   0.9915   0.9908
     0.9902   0.9853   0.9844   0.9833   0.9828   0.9809   0.9802   0.9772
     0.9753   0.9725   0.9680   0.9657   0.9599   0.9565   0.9490   0.9272
     0.9064   0.8887   0.8849   0.8611   0.8506   0.8398   0.8177   0.8120
     0.8086   0.7963   0.7911   0.7886   0.7752   0.7559   0.7406   0.7195
     0.7078   0.6847   0.6828   0.6801   0.6749   0.6663   0.6614   0.6548
     0.6512   0.6399   0.6368   0.6256   0.6150   0.6123   0.5362   0.5308
     0.1226   0.1157   0.0989   0.0653   0.0145   0.0107   0.0049   0.0041
     0.0005   0.0004   0.0003   0.0002   0.0000   0.0000   0.0000   0.0000
     0.0000   0.0000   0.0000   0.0000   0.0000   0.0000   0.0000   0.0000
     0.0000   0.0000   0.0000   0.0000   0.0000   0.0000   0.0000   0.0000
     0.0000   0.0000

          k =-0.2500 0.2500 0.0000 ( 65198 PWs)   bands (ev):

   -92.8634 -92.8112 -92.7171 -92.6707 -92.6114 -92.5696 -92.5527 -92.4300
   -56.2170 -56.1980 -56.0741 -56.0637 -56.0574 -56.0506 -56.0156 -55.9861
   -55.9716 -55.9693 -55.9610 -55.9188 -55.9012 -55.8623 -55.8437 -55.8115
   -55.8063 -55.7577 -55.7549 -55.7546 -55.7462 -55.7034 -55.6827 -55.5981
   -31.4253 -31.4095 -31.2657 -31.1802 -31.0950 -31.0577 -31.0123 -30.9436
   -30.0065 -29.9663 -29.9392 -29.8324 -15.1763 -15.1355 -15.0604 -14.9436
   -14.8295 -14.7040 -14.6195 -14.4087 -14.2714 -14.2425 -14.2258 -14.1825
   -14.1567 -14.1368 -14.1180 -14.0638 -13.9916 -13.9804 -13.8266 -13.8012
   -13.7735 -13.7514 -13.7046 -13.6532 -13.5886 -13.5804 -13.4284 -13.3894
   -13.3702 -13.2961 -13.2522 -13.1904 -13.1584 -13.1349 -13.0968 -13.0833
   -13.0733 -13.0045 -12.9788 -12.9262 -12.9210 -12.8980 -12.8827 -12.8541
   -12.8420 -12.8229 -12.6461 -12.5933 -12.5490 -12.4340 -12.2625 -12.2158
   -11.9749 -11.9585 -11.9371 -11.9102 -11.8977 -11.8570 -11.8221 -11.7994
   -11.7772 -11.7549 -11.6710 -11.6257 -11.6161  -2.8262  -2.6185  -2.4969
    -2.4088  -2.2909  -2.2247  -2.0207  -1.8768  -1.8583  -1.8288  -1.7369
    -1.6991  -1.6069  -1.5727  -1.5467  -1.4044  -1.3480  -1.2799  -1.2522
    -1.1915  -1.1699  -1.1301  -1.1015  -1.0616  -0.9976  -0.9497  -0.8865
    -0.8174  -0.7911  -0.7414  -0.7112  -0.6659  -0.6097  -0.5642  -0.5224
    -0.4220  -0.3904  -0.3768  -0.3350  -0.2679  -0.1938  -0.1493  -0.1165
    -0.0411  -0.0032   0.2326   0.4026   0.4417   0.4826   0.5427   0.6131
     0.6636   0.7197   0.7464   1.0271   1.1327   1.1729   1.2055   1.2129
     1.2538   1.2706   1.3153   1.3463   1.3602   1.3856   1.4319   1.4482
     1.4920   1.5105   1.5565   1.6430   1.6668   1.6783   1.7272   1.7465
     1.7909   1.8481   1.9485   2.0467   2.0747   2.1251   2.1472   2.2121
     2.2504   2.2751   2.3000   2.3220   2.4200   2.4569   2.5467   2.6101
     2.6340   2.6801   2.7240   2.7332   2.7455   2.7556   2.7657   2.7800
     2.7861   2.8057   2.8150   2.8271   2.8378   2.8490   2.8593   2.8706
     2.9012   2.9114   2.9186   2.9533   3.2441   3.3267   3.3928   3.4802
     3.4961   3.6947   3.8038   4.1549   4.3651   4.5733   4.8390   5.1412
     5.5186   5.5722   5.6186   5.6753   5.7424   6.1111   6.1365   6.1671
     6.8492   7.0716   7.1653   7.3557   7.4782   7.5048   7.5825   7.7853
     7.8589   7.9776   8.2185   8.2359   8.3425   8.3749   8.4376   8.4605
     8.5482   8.7358

     occupation numbers 
     1.0000   1.0000   1.0000   1.0000   1.0000   1.0000   1.0000   1.0000
     1.0000   1.0000   1.0000   1.0000   1.0000   1.0000   1.0000   1.0000
     1.0000   1.0000   1.0000   1.0000   1.0000   1.0000   1.0000   1.0000
     1.0000   1.0000   1.0000   1.0000   1.0000   1.0000   1.0000   1.0000
     1.0000   1.0000   1.0000   1.0000   1.0000   1.0000   1.0000   1.0000
     1.0000   1.0000   1.0000   1.0000   1.0000   1.0000   1.0000   1.0000
     1.0000   1.0000   1.0000   1.0000   1.0000   1.0000   1.0000   1.0000
     1.0000   1.0000   1.0000   1.0000   1.0000   1.0000   1.0000   1.0000
     1.0000   1.0000   1.0000   1.0000   1.0000   1.0000   1.0000   1.0000
     1.0000   1.0000   1.0000   1.0000   1.0000   1.0000   1.0000   1.0000
     1.0000   1.0000   1.0000   1.0000   1.0000   1.0000   1.0000   1.0000
     1.0000   1.0000   1.0000   1.0000   1.0000   1.0000   1.0000   1.0000
     1.0000   1.0000   1.0000   1.0000   1.0000   1.0000   1.0000   1.0000
     1.0000   1.0000   1.0000   1.0000   1.0000   1.0000   1.0000   1.0000
     1.0000   1.0000   1.0000   1.0000   1.0000   1.0000   1.0000   1.0000
     1.0000   1.0000   1.0000   1.0000   1.0000   1.0000   1.0000   1.0000
     1.0000   1.0000   1.0000   1.0000   1.0000   1.0000   1.0000   1.0000
     1.0000   1.0000   1.0000   1.0000   1.0000   1.0000   1.0000   1.0000
     1.0000   1.0000   1.0000   1.0000   1.0000   1.0000   1.0000   1.0000
     1.0000   1.0000   1.0000   1.0000   1.0000   1.0000   1.0000   0.9999
     0.9999   0.9999   0.9998   0.9993   0.9987   0.9985   0.9982   0.9981
     0.9977   0.9976   0.9970   0.9965   0.9963   0.9959   0.9950   0.9946
     0.9935   0.9930   0.9916   0.9881   0.9870   0.9864   0.9836   0.9824
     0.9794   0.9748   0.9646   0.9517   0.9473   0.9388   0.9347   0.9215
     0.9129   0.9069   0.9006   0.8948   0.8658   0.8536   0.8209   0.7952
     0.7850   0.7645   0.7439   0.7395   0.7335   0.7286   0.7236   0.7164
     0.7134   0.7034   0.6986   0.6923   0.6867   0.6808   0.6753   0.6692
     0.6526   0.6470   0.6430   0.6236   0.4535   0.4054   0.3678   0.3201
     0.3117   0.2160   0.1716   0.0709   0.0374   0.0183   0.0065   0.0017
     0.0002   0.0002   0.0001   0.0001   0.0001   0.0000   0.0000   0.0000
     0.0000   0.0000   0.0000   0.0000   0.0000   0.0000   0.0000   0.0000
     0.0000   0.0000   0.0000   0.0000   0.0000   0.0000   0.0000   0.0000
     0.0000   0.0000

          k =-0.5000 0.2500 0.0000 ( 65138 PWs)   bands (ev):

   -92.8634 -92.8112 -92.7171 -92.6707 -92.6114 -92.5696 -92.5527 -92.4300
   -56.2170 -56.1980 -56.0741 -56.0637 -56.0574 -56.0506 -56.0156 -55.9861
   -55.9716 -55.9693 -55.9610 -55.9188 -55.9012 -55.8623 -55.8437 -55.8115
   -55.8063 -55.7577 -55.7549 -55.7546 -55.7462 -55.7034 -55.6827 -55.5981
   -31.4231 -31.4117 -31.2653 -31.1806 -31.0942 -31.0586 -31.0118 -30.9441
   -30.0055 -29.9673 -29.9388 -29.8328 -15.1413 -15.0968 -15.0177 -14.9137
   -14.8741 -14.7495 -14.6618 -14.5246 -14.2225 -14.1915 -14.1795 -14.1368
   -14.1118 -14.0892 -14.0537 -14.0388 -14.0201 -13.9792 -13.9622 -13.8538
   -13.7930 -13.7447 -13.7414 -13.7266 -13.6222 -13.6141 -13.4789 -13.4210
   -13.3505 -13.3143 -13.2162 -13.1773 -13.1664 -13.1359 -13.1012 -13.0897
   -13.0502 -13.0454 -12.9614 -12.9266 -12.8945 -12.8690 -12.8637 -12.8449
   -12.7732 -12.7655 -12.6903 -12.5585 -12.4735 -12.3914 -12.3310 -12.3029
   -11.9748 -11.9312 -11.9188 -11.9046 -11.8921 -11.8715 -11.8413 -11.7597
   -11.7521 -11.7277 -11.6936 -11.6657 -11.6566  -2.5991  -2.5571  -2.4096
    -2.3669  -2.2057  -2.1299  -1.9887  -1.8519  -1.7960  -1.7681  -1.7302
    -1.6914  -1.6106  -1.4948  -1.4376  -1.4141  -1.3885  -1.3120  -1.2832
    -1.2448  -1.2276  -1.1674  -1.1371  -1.0992  -1.0636  -1.0349  -0.9765
    -0.9488  -0.9067  -0.8721  -0.7678  -0.7413  -0.6520  -0.5870  -0.5592
    -0.5019  -0.4159  -0.3818  -0.2839  -0.2420  -0.1822  -0.1304  -0.1105
    -0.0373  -0.0043   0.0323   0.0734   0.1122   0.4314   0.4848   0.5798
     0.5922   0.8613   0.9217   0.9938   1.0171   1.1942   1.2299   1.2673
     1.2776   1.2964   1.3142   1.3825   1.4286   1.4700   1.4982   1.6232
     1.6579   1.6897   1.7061   1.7449   1.7618   1.7791   1.7976   1.8129
     1.8347   1.8871   1.8948   1.9338   1.9549   1.9893   2.0445   2.1702
     2.2642   2.2900   2.3568   2.3925   2.4505   2.4925   2.4976   2.5360
     2.5670   2.5893   2.6133   2.6253   2.6534   2.6988   2.7284   2.7330
     2.7431   2.7597   2.7826   2.7944   2.8078   2.8225   2.8442   2.8576
     2.8656   2.8742   2.8889   2.8999   3.4341   3.4711   3.6172   3.6359
     3.9477   3.9953   4.0431   4.2598   4.6293   4.7278   4.9004   4.9590
     5.2532   5.2845   5.5044   5.5851   5.6282   5.6600   6.3443   6.4276
     6.4722   6.6460   7.2956   7.6164   7.6761   7.6883   7.7354   7.8043
     7.8518   7.9451   8.1577   8.3694   8.4113   8.4416   8.5183   8.5777
     8.7128   8.7516

     occupation numbers 
     1.0000   1.0000   1.0000   1.0000   1.0000   1.0000   1.0000   1.0000
     1.0000   1.0000   1.0000   1.0000   1.0000   1.0000   1.0000   1.0000
     1.0000   1.0000   1.0000   1.0000   1.0000   1.0000   1.0000   1.0000
     1.0000   1.0000   1.0000   1.0000   1.0000   1.0000   1.0000   1.0000
     1.0000   1.0000   1.0000   1.0000   1.0000   1.0000   1.0000   1.0000
     1.0000   1.0000   1.0000   1.0000   1.0000   1.0000   1.0000   1.0000
     1.0000   1.0000   1.0000   1.0000   1.0000   1.0000   1.0000   1.0000
     1.0000   1.0000   1.0000   1.0000   1.0000   1.0000   1.0000   1.0000
     1.0000   1.0000   1.0000   1.0000   1.0000   1.0000   1.0000   1.0000
     1.0000   1.0000   1.0000   1.0000   1.0000   1.0000   1.0000   1.0000
     1.0000   1.0000   1.0000   1.0000   1.0000   1.0000   1.0000   1.0000
     1.0000   1.0000   1.0000   1.0000   1.0000   1.0000   1.0000   1.0000
     1.0000   1.0000   1.0000   1.0000   1.0000   1.0000   1.0000   1.0000
     1.0000   1.0000   1.0000   1.0000   1.0000   1.0000   1.0000   1.0000
     1.0000   1.0000   1.0000   1.0000   1.0000   1.0000   1.0000   1.0000
     1.0000   1.0000   1.0000   1.0000   1.0000   1.0000   1.0000   1.0000
     1.0000   1.0000   1.0000   1.0000   1.0000   1.0000   1.0000   1.0000
     1.0000   1.0000   1.0000   1.0000   1.0000   1.0000   1.0000   1.0000
     1.0000   1.0000   1.0000   1.0000   1.0000   1.0000   1.0000   1.0000
     1.0000   1.0000   1.0000   1.0000   1.0000   1.0000   1.0000   0.9999
     0.9999   0.9997   0.9996   0.9994   0.9993   0.9983   0.9980   0.9976
     0.9975   0.9972   0.9970   0.9959   0.9950   0.9941   0.9934   0.9890
     0.9874   0.9858   0.9849   0.9825   0.9814   0.9802   0.9789   0.9777
     0.9759   0.9712   0.9704   0.9663   0.9639   0.9596   0.9520   0.9303
     0.9096   0.9032   0.8851   0.8745   0.8558   0.8411   0.8393   0.8250
     0.8129   0.8039   0.7939   0.7887   0.7765   0.7558   0.7418   0.7396
     0.7347   0.7266   0.7151   0.7092   0.7023   0.6947   0.6833   0.6762
     0.6719   0.6673   0.6593   0.6533   0.3450   0.3249   0.2512   0.2424
     0.1227   0.1089   0.0962   0.0521   0.0149   0.0102   0.0050   0.0039
     0.0010   0.0008   0.0003   0.0002   0.0001   0.0001   0.0000   0.0000
     0.0000   0.0000   0.0000   0.0000   0.0000   0.0000   0.0000   0.0000
     0.0000   0.0000   0.0000   0.0000   0.0000   0.0000   0.0000   0.0000
     0.0000   0.0000

     the Fermi energy is     3.1654 ev

!    total energy              =   -4440.29663320 Ry
     estimated scf accuracy    <          7.6E-09 Ry
     smearing contrib. (-TS)   =      -1.20695759 Ry
     internal energy E=F+TS    =   -4439.08967561 Ry

     The total energy is F=E-TS. E is the sum of the following terms:
     one-electron contribution =  -20889.83443770 Ry
     hartree contribution      =   10574.18805233 Ry
     xc contribution           =    -693.24544084 Ry
     ewald contribution        =    6845.99384851 Ry
     one-center paw contrib.   =    -276.19169790 Ry
      -> PAW hartree energy AE =      25.17076353 Ry
      -> PAW hartree energy PS =     -25.05457217 Ry
      -> PAW xc energy AE      =     -16.51863436 Ry
      -> PAW xc energy PS      =       6.87814314 Ry
      -> total E_H with PAW    =   10574.30424369 Ry
      -> total E_XC with PAW   =    -702.88593206 Ry

     convergence has been achieved in  51 iterations

     Writing all to output data dir /bsuhome/zayahcortright/scratch/pwscf.save/
 
     init_run     :      7.66s CPU      8.52s WALL (       1 calls)
     electrons    :    737.87s CPU    772.79s WALL (       1 calls)

     Called by init_run:
     wfcinit      :      6.30s CPU      6.51s WALL (       1 calls)
     wfcinit:atom :      0.03s CPU      0.06s WALL (       5 calls)
     wfcinit:wfcr :      6.00s CPU      6.13s WALL (       5 calls)
     potinit      :      0.16s CPU      0.19s WALL (       1 calls)
     hinit0       :      0.33s CPU      0.69s WALL (       1 calls)

     Called by electrons:
     c_bands      :    585.19s CPU    592.14s WALL (      51 calls)
     sum_band     :    114.75s CPU    129.96s WALL (      51 calls)
     v_of_rho     :      5.56s CPU      5.94s WALL (      52 calls)
     v_h          :      0.47s CPU      0.48s WALL (      52 calls)
     v_xc         :      5.09s CPU      5.46s WALL (      52 calls)
     newd         :     16.70s CPU     28.62s WALL (      52 calls)
     PAW_pot      :      1.68s CPU      1.71s WALL (      52 calls)
     mix_rho      :     13.59s CPU     13.98s WALL (      51 calls)

     Called by c_bands:
     init_us_2    :      7.18s CPU      7.25s WALL (     515 calls)
     init_us_2:cp :      7.17s CPU      7.25s WALL (     515 calls)
     cegterg      :    548.84s CPU    555.50s WALL (     255 calls)

     Called by sum_band:
     sum_band:wei :      0.38s CPU      0.38s WALL (      51 calls)
     sum_band:loo :     96.26s CPU     97.02s WALL (      51 calls)
     sum_band:buf :      1.46s CPU      1.55s WALL (     255 calls)
     sum_band:ini :      3.40s CPU      3.41s WALL (     255 calls)
     sum_band:cal :     20.35s CPU     20.40s WALL (     255 calls)
     sum_band:bec :      0.58s CPU      0.58s WALL (     255 calls)
     addusdens    :     16.47s CPU     30.84s WALL (      51 calls)
                                        0.00s GPU  (      51 calls)
     addusd:skk   :      0.31s CPU      1.00s WALL (     153 calls)
                                        0.00s GPU  (     153 calls)

     Called by *egterg:
     cdiaghg      :     56.96s CPU     57.19s WALL (    1294 calls)
     cegterg:over :     40.71s CPU     40.88s WALL (    1039 calls)
     cegterg:upda :     28.52s CPU     29.06s WALL (    1039 calls)
     cegterg:last :     59.78s CPU     60.03s WALL (     458 calls)
     cdiaghg:chol :      3.22s CPU      3.25s WALL (    1294 calls)
     cdiaghg:inve :      2.97s CPU      2.98s WALL (    1294 calls)
     cdiaghg:para :      7.30s CPU      7.34s WALL (    2588 calls)
     h_psi        :    305.85s CPU    309.11s WALL (    1299 calls)
     s_psi        :     40.87s CPU     41.00s WALL (    1299 calls)
     g_psi        :      1.04s CPU      1.04s WALL (    1039 calls)

     Called by h_psi:
     h_psi:calbec :     46.22s CPU     46.45s WALL (    1299 calls)
     vloc_psi     :    215.83s CPU    217.94s WALL (    1299 calls)
     add_vuspsi   :     40.78s CPU     40.99s WALL (    1299 calls)

     General routines
     calbec       :     66.56s CPU     66.84s WALL (    1554 calls)
     fft          :      4.00s CPU      4.06s WALL (     674 calls)
     ffts         :      5.02s CPU      5.08s WALL (    5601 calls)
     fftw         :    185.89s CPU    187.40s WALL (  342380 calls)
     interpolate  :      0.42s CPU      0.43s WALL (      52 calls)
 
     Parallel routines

     PAW routines
     PAW_pot      :      1.68s CPU      1.71s WALL (      52 calls)
 
     PWSCF        :  12m27.25s CPU  13m 6.32s WALL

 
   This run was terminated on:   0:39:18  22Jun2024            

=------------------------------------------------------------------------------=
   JOB DONE.
=------------------------------------------------------------------------------=
