
     Program PWSCF v.7.2 starts on 22Jun2024 at  4: 2:58 

     This program is part of the open-source Quantum ESPRESSO suite
     for quantum simulation of materials; please cite
         "P. Giannozzi et al., J. Phys.:Condens. Matter 21 395502 (2009);
         "P. Giannozzi et al., J. Phys.:Condens. Matter 29 465901 (2017);
         "P. Giannozzi et al., J. Chem. Phys. 152 154105 (2020);
          URL http://www.quantum-espresso.org", 
     in publications or presentations arising from this work. More details at
     http://www.quantum-espresso.org/quote

     Parallel version (MPI & OpenMP), running on      48 processor cores
     Number of MPI processes:                48
     Threads/MPI process:                     1

     MPI processes distributed on     1 nodes
     33231 MiB available memory on the printing compute node when the environment starts
 
     Reading input from espresso.pwi
Warning: card &CELL ignored
Warning: card / ignored
Warning: card &FCP ignored
Warning: card / ignored
Warning: card &RISM ignored
Warning: card / ignored

     Current dimensions of program PWSCF are:
     Max number of different atomic species (ntypx) = 10
     Max number of k-points (npk) =  40000
     Max angular momentum in pseudopotentials (lmaxx) =  4
     file O.pbe-n-kjpaw_psl.0.1.UPF: wavefunction(s)  2P renormalized
     signal trapping enabled: kill the code with -SIGUSR1 to stop cleanly the simulation 
 
     K-points division:     npool     =       2
     R & G space division:  proc/nbgrp/npool/nimage =      24
     Subspace diagonalization in iterative solution of the eigenvalue problem:
     one sub-group per band group will be used
     scalapack distributed-memory algorithm (size of sub-group:  3*  3 procs)

 
     Parallelization info
     --------------------
     sticks:   dense  smooth     PW     G-vecs:    dense   smooth      PW
     Min         350     175     47                61430    21716    3036
     Max         351     177     48                61449    21727    3041
     Sum        8421    4205   1137              1474595   521381   72913
 
     Using Slab Decomposition
 


     bravais-lattice index     =            0
     lattice parameter (alat)  =      14.8599  a.u.
     unit-cell volume          =    8305.1283 (a.u.)^3
     number of atoms/cell      =           50
     number of atomic types    =            4
     number of electrons       =       431.00
     number of Kohn-Sham states=          259
     kinetic-energy cutoff     =      60.0000  Ry
     charge density cutoff     =     480.0000  Ry
     scf convergence threshold =      1.0E-08
     mixing beta               =       0.1500
     number of iterations used =            8  local-TF  mixing
     Exchange-correlation= PBE
                           (   1   4   3   4   0   0   0)

     celldm(1)=  14.859904  celldm(2)=   0.000000  celldm(3)=   0.000000
     celldm(4)=   0.000000  celldm(5)=   0.000000  celldm(6)=   0.000000

     crystal axes: (cart. coord. in units of alat)
               a(1) = (   1.000000   0.000000   0.000000 )  
               a(2) = (   0.000000   1.000000   0.000000 )  
               a(3) = (   0.000000   0.000000   2.531036 )  

     reciprocal axes: (cart. coord. in units 2 pi/alat)
               b(1) = (  1.000000  0.000000  0.000000 )  
               b(2) = (  0.000000  1.000000  0.000000 )  
               b(3) = (  0.000000  0.000000  0.395095 )  


     PseudoPot. # 1 for Sr read from file:
     /bsuhome/zayahcortright/q-e/pseudo/Sr_pbe_v1.uspp.F.UPF
     MD5 check sum: 6b418c05fbe9db5448babca5e47b7a5b
     Pseudo is Ultrasoft + core correction, Zval = 10.0
     Generated by new atomic code, or converted to UPF format
     Using radial grid of  883 points,  6 beta functions with: 
                l(1) =   0
                l(2) =   0
                l(3) =   1
                l(4) =   1
                l(5) =   2
                l(6) =   2
     Q(r) pseudized with  6 coefficients,  rinner =    1.400   1.400   1.400
                                                       1.400   1.400

     PseudoPot. # 2 for O  read from file:
     /bsuhome/zayahcortright/q-e/pseudo/O.pbe-n-kjpaw_psl.0.1.UPF
     MD5 check sum: 0234752ac141de4415c5fc33072bef88
     Pseudo is Projector augmented-wave + core cor, Zval =  6.0
     Generated using "atomic" code by A. Dal Corso  v.5.0.99 svn rev. 10869
     Shape of augmentation charge: BESSEL
     Using radial grid of 1095 points,  4 beta functions with: 
                l(1) =   0
                l(2) =   0
                l(3) =   1
                l(4) =   1
     Q(r) pseudized with 0 coefficients 


     PseudoPot. # 3 for Co read from file:
     /bsuhome/zayahcortright/q-e/pseudo/Co_pbe_v1.2.uspp.F.UPF
     MD5 check sum: 5f91765df6ddd3222702df6e7b74a16d
     Pseudo is Ultrasoft + core correction, Zval = 17.0
     Generated by new atomic code, or converted to UPF format
     Using radial grid of  863 points,  6 beta functions with: 
                l(1) =   0
                l(2) =   0
                l(3) =   1
                l(4) =   1
                l(5) =   2
                l(6) =   2
     Q(r) pseudized with  8 coefficients,  rinner =    1.200   1.200   1.200
                                                       1.200   1.200

     PseudoPot. # 4 for H  read from file:
     /bsuhome/zayahcortright/q-e/pseudo/H.pbe-rrkjus_psl.1.0.0.UPF
     MD5 check sum: f52b6d4d1c606e5624b1dc7b2218f220
     Pseudo is Ultrasoft, Zval =  1.0
     Generated using "atomic" code by A. Dal Corso  v.5.1
     Using radial grid of  929 points,  2 beta functions with: 
                l(1) =   0
                l(2) =   0
     Q(r) pseudized with 0 coefficients 


     atomic species   valence    mass     pseudopotential
        Sr            10.00    87.62000     Sr( 1.00)
        O              6.00    15.99900     O ( 1.00)
        Co            17.00    58.93319     Co( 1.00)
        H              1.00     1.00800     H ( 1.00)

     No symmetry found


                                    s                        frac. trans.

      isym =  1     identity                                     

 cryst.   s( 1) = (     1          0          0      )
                  (     0          1          0      )
                  (     0          0          1      )

 cart.    s( 1) = (  1.0000000  0.0000000  0.0000000 )
                  (  0.0000000  1.0000000  0.0000000 )
                  (  0.0000000  0.0000000  1.0000000 )


   Cartesian axes

     site n.     atom                  positions (alat units)
         1           Sr  tau(   1) = (   0.2508693   0.7491307   1.7574407  )
         2           O   tau(   2) = (   0.4985141   0.5014859   1.7715967  )
         3           Sr  tau(   3) = (   0.7482398   0.7454518   1.7648669  )
         4           Sr  tau(   4) = (   0.7441748   0.2558252   1.7667843  )
         5           Sr  tau(   5) = (   0.2508693   0.7491307   1.2696799  )
         6           Sr  tau(   6) = (   0.2508693   0.7491307   0.7632319  )
         7           Co  tau(   7) = (   0.4998914   0.5001086   1.0164559  )
         8           Co  tau(   8) = (   0.4936915   0.5063085   1.5135603  )
         9           O   tau(   9) = (   0.4988895   0.7610401   1.0164559  )
        10           O   tau(  10) = (   0.2389599   0.5011105   1.0164559  )
        11           O   tau(  11) = (   0.0070918   0.7374880   1.0164559  )
        12           O   tau(  12) = (   0.0088340   0.7405089   1.5135603  )
        13           O   tau(  13) = (   0.5066944   0.7415376   1.5135603  )
        14           O   tau(  14) = (   0.2584624   0.4933056   1.5135603  )
        15           O   tau(  15) = (   0.4985141   0.5014859   0.7773880  )
        16           O   tau(  16) = (   0.4985141   0.5014859   1.2555238  )
        17           Sr  tau(  17) = (   0.7482398   0.7454518   0.7706582  )
        18           Sr  tau(  18) = (   0.7482398   0.7454518   1.2622536  )
        19           Sr  tau(  19) = (   0.7441748   0.2558252   0.7725755  )
        20           Sr  tau(  20) = (   0.7441748   0.2558252   1.2603363  )
        21           O   tau(  21) = (   0.7322655   0.0078049   1.5135603  )
        22           O   tau(  22) = (   0.7558175   0.4996027   1.5135603  )
        23           O   tau(  23) = (   0.5003973   0.2441825   1.5135603  )
        24           O   tau(  24) = (   0.7527966   0.4978604   1.0164559  )
        25           O   tau(  25) = (   0.5021396   0.2472034   1.0164559  )
        26           O   tau(  26) = (   0.7517679   0.0000000   1.0164559  )
        27           O   tau(  27) = (   0.0114961   0.4948124   1.7455321  )
        28           O   tau(  28) = (   0.0048226   0.0077944   1.7715967  )
        29           Sr  tau(  29) = (   0.2545482   0.2517602   1.7648669  )
        30           O   tau(  30) = (   0.5048017   0.0015068   1.7786929  )
        31           Co  tau(  31) = (   0.0056869   0.5006215   1.0164559  )
        32           Co  tau(  32) = (   0.0065315   0.4997770   1.5135603  )
        33           Co  tau(  33) = (   0.0061999   0.0064171   1.0164559  )
        34           Co  tau(  34) = (   0.0000000   0.0126169   1.5135603  )
        35           O   tau(  35) = (   0.0114961   0.4948124   1.2815885  )
        36           O   tau(  36) = (   0.0114961   0.4948124   0.7513233  )
        37           O   tau(  37) = (   0.0051979   0.2673486   1.0164559  )
        38           O   tau(  38) = (   0.0130029   0.2478461   1.5135603  )
        39           O   tau(  39) = (   0.0048226   0.0077944   0.7773880  )
        40           O   tau(  40) = (   0.0048226   0.0077944   1.2555238  )
        41           Sr  tau(  41) = (   0.2545482   0.2517602   0.7706582  )
        42           Sr  tau(  42) = (   0.2545482   0.2517602   1.2622536  )
        43           Co  tau(  43) = (   0.4989925   0.0073160   1.5135603  )
        44           Co  tau(  44) = (   0.4998370   0.0064714   1.0164559  )
        45           O   tau(  45) = (   0.5048017   0.0015068   0.7844841  )
        46           O   tau(  46) = (   0.5048017   0.0015068   1.2484277  )
        47           O   tau(  47) = (   0.2621260   0.0059111   1.5135603  )
        48           O   tau(  48) = (   0.2591051   0.0041689   1.0164559  )
        49           O   tau(  49) = (   0.9951520   0.1421646   2.1602013  )
        50           H   tau(  50) = (   0.9951520   0.1421646   2.2847091  )

   Crystallographic axes

     site n.     atom                  positions (cryst. coord.)
         1           Sr  tau(   1) = (  0.2508693  0.7491307  0.6943562  )
         2           O   tau(   2) = (  0.4985141  0.5014859  0.6999492  )
         3           Sr  tau(   3) = (  0.7482398  0.7454518  0.6972903  )
         4           Sr  tau(   4) = (  0.7441748  0.2558252  0.6980478  )
         5           Sr  tau(   5) = (  0.2508693  0.7491307  0.5016443  )
         6           Sr  tau(   6) = (  0.2508693  0.7491307  0.3015492  )
         7           Co  tau(   7) = (  0.4998914  0.5001086  0.4015968  )
         8           Co  tau(   8) = (  0.4936915  0.5063085  0.5980003  )
         9           O   tau(   9) = (  0.4988895  0.7610401  0.4015968  )
        10           O   tau(  10) = (  0.2389599  0.5011105  0.4015968  )
        11           O   tau(  11) = (  0.0070918  0.7374880  0.4015968  )
        12           O   tau(  12) = (  0.0088340  0.7405089  0.5980003  )
        13           O   tau(  13) = (  0.5066944  0.7415376  0.5980003  )
        14           O   tau(  14) = (  0.2584624  0.4933056  0.5980003  )
        15           O   tau(  15) = (  0.4985141  0.5014859  0.3071422  )
        16           O   tau(  16) = (  0.4985141  0.5014859  0.4960513  )
        17           Sr  tau(  17) = (  0.7482398  0.7454518  0.3044833  )
        18           Sr  tau(  18) = (  0.7482398  0.7454518  0.4987103  )
        19           Sr  tau(  19) = (  0.7441748  0.2558252  0.3052408  )
        20           Sr  tau(  20) = (  0.7441748  0.2558252  0.4979527  )
        21           O   tau(  21) = (  0.7322655  0.0078049  0.5980003  )
        22           O   tau(  22) = (  0.7558175  0.4996027  0.5980003  )
        23           O   tau(  23) = (  0.5003973  0.2441825  0.5980003  )
        24           O   tau(  24) = (  0.7527966  0.4978604  0.4015968  )
        25           O   tau(  25) = (  0.5021396  0.2472034  0.4015968  )
        26           O   tau(  26) = (  0.7517679  0.0000000  0.4015968  )
        27           O   tau(  27) = (  0.0114961  0.4948124  0.6896512  )
        28           O   tau(  28) = (  0.0048226  0.0077944  0.6999492  )
        29           Sr  tau(  29) = (  0.2545482  0.2517602  0.6972903  )
        30           O   tau(  30) = (  0.5048017  0.0015068  0.7027529  )
        31           Co  tau(  31) = (  0.0056869  0.5006215  0.4015968  )
        32           Co  tau(  32) = (  0.0065315  0.4997770  0.5980003  )
        33           Co  tau(  33) = (  0.0061999  0.0064171  0.4015968  )
        34           Co  tau(  34) = (  0.0000000  0.0126169  0.5980003  )
        35           O   tau(  35) = (  0.0114961  0.4948124  0.5063494  )
        36           O   tau(  36) = (  0.0114961  0.4948124  0.2968442  )
        37           O   tau(  37) = (  0.0051979  0.2673486  0.4015968  )
        38           O   tau(  38) = (  0.0130029  0.2478461  0.5980003  )
        39           O   tau(  39) = (  0.0048226  0.0077944  0.3071422  )
        40           O   tau(  40) = (  0.0048226  0.0077944  0.4960513  )
        41           Sr  tau(  41) = (  0.2545482  0.2517602  0.3044833  )
        42           Sr  tau(  42) = (  0.2545482  0.2517602  0.4987103  )
        43           Co  tau(  43) = (  0.4989925  0.0073160  0.5980003  )
        44           Co  tau(  44) = (  0.4998370  0.0064714  0.4015968  )
        45           O   tau(  45) = (  0.5048017  0.0015068  0.3099459  )
        46           O   tau(  46) = (  0.5048017  0.0015068  0.4932477  )
        47           O   tau(  47) = (  0.2621260  0.0059111  0.5980003  )
        48           O   tau(  48) = (  0.2591051  0.0041689  0.4015968  )
        49           O   tau(  49) = (  0.9951520  0.1421646  0.8534850  )
        50           H   tau(  50) = (  0.9951520  0.1421646  0.9026774  )

     number of k points=    10  Gaussian smearing, width (Ry)=  0.0700
                       cart. coord. in units 2pi/alat
        k(    1) = (   0.0000000   0.0000000   0.0000000), wk =   0.1250000
        k(    2) = (   0.0000000   0.2500000   0.0000000), wk =   0.2500000
        k(    3) = (   0.0000000  -0.5000000   0.0000000), wk =   0.1250000
        k(    4) = (   0.2500000   0.2500000   0.0000000), wk =   0.2500000
        k(    5) = (   0.2500000  -0.5000000   0.0000000), wk =   0.2500000
        k(    6) = (  -0.5000000  -0.5000000   0.0000000), wk =   0.1250000
        k(    7) = (   0.2500000   0.0000000   0.0000000), wk =   0.2500000
        k(    8) = (  -0.5000000   0.0000000   0.0000000), wk =   0.1250000
        k(    9) = (  -0.2500000   0.2500000   0.0000000), wk =   0.2500000
        k(   10) = (  -0.5000000   0.2500000   0.0000000), wk =   0.2500000

                       cryst. coord.
        k(    1) = (   0.0000000   0.0000000   0.0000000), wk =   0.1250000
        k(    2) = (   0.0000000   0.2500000   0.0000000), wk =   0.2500000
        k(    3) = (   0.0000000  -0.5000000   0.0000000), wk =   0.1250000
        k(    4) = (   0.2500000   0.2500000   0.0000000), wk =   0.2500000
        k(    5) = (   0.2500000  -0.5000000   0.0000000), wk =   0.2500000
        k(    6) = (  -0.5000000  -0.5000000   0.0000000), wk =   0.1250000
        k(    7) = (   0.2500000   0.0000000   0.0000000), wk =   0.2500000
        k(    8) = (  -0.5000000   0.0000000   0.0000000), wk =   0.1250000
        k(    9) = (  -0.2500000   0.2500000   0.0000000), wk =   0.2500000
        k(   10) = (  -0.5000000   0.2500000   0.0000000), wk =   0.2500000

     Dense  grid:  1474595 G-vectors     FFT dimensions: ( 108, 108, 270)

     Smooth grid:   521381 G-vectors     FFT dimensions: (  75,  75, 192)

     Dynamical RAM for                 wfc:      10.73 MB

     Dynamical RAM for     wfc (w. buffer):      64.38 MB

     Dynamical RAM for           str. fact:       3.75 MB

     Dynamical RAM for           local pot:       0.00 MB

     Dynamical RAM for          nlocal pot:      24.61 MB

     Dynamical RAM for                qrad:       7.03 MB

     Dynamical RAM for          rho,v,vnew:       6.02 MB

     Dynamical RAM for               rhoin:       2.01 MB

     Dynamical RAM for            rho*nmix:      15.00 MB

     Dynamical RAM for           G-vectors:       3.68 MB

     Dynamical RAM for          h,s,v(r/c):       1.35 MB

     Dynamical RAM for          <psi|beta>:       2.35 MB

     Dynamical RAM for                 psi:      21.46 MB

     Dynamical RAM for                hpsi:      21.46 MB

     Dynamical RAM for                spsi:      21.46 MB

     Dynamical RAM for      wfcinit/wfcrot:      34.49 MB

     Dynamical RAM for           addusdens:     101.26 MB

     Estimated static dynamical RAM per process >     121.50 MB

     Estimated max dynamical RAM per process >     237.76 MB

     Estimated total dynamical RAM >      10.79 GB

     Check: negative core charge=   -0.000004

     Initial potential from superposition of free atoms

     starting charge     422.5961, renormalised to     431.0000

     negative rho (up, down):  7.819E-01 0.000E+00
     Starting wfcs are  377 randomized atomic wfcs
     Checking if some PAW data can be deallocated... 
       PAW data deallocated on   19 nodes for type:  2

     total cpu time spent up to now is       10.3 secs

     Self-consistent Calculation

     iteration #  1     ecut=    60.00 Ry     beta= 0.15
     Davidson diagonalization with overlap

---- Real-time Memory Report at c_bands before calling an iterative solver
             0 MiB given to the printing process from OS
             0 MiB allocation reported by mallinfo(arena+hblkhd)
         23988 MiB available memory on the node where the printing process lives
------------------
     ethr =  1.00E-02,  avg # of iterations =  2.0

     negative rho (up, down):  7.718E-01 0.000E+00

     total cpu time spent up to now is       27.2 secs

     total energy              =   -4446.67101636 Ry
     estimated scf accuracy    <      44.79578753 Ry

     iteration #  2     ecut=    60.00 Ry     beta= 0.15
     Davidson diagonalization with overlap

---- Real-time Memory Report at c_bands before calling an iterative solver
             0 MiB given to the printing process from OS
             0 MiB allocation reported by mallinfo(arena+hblkhd)
         24249 MiB available memory on the node where the printing process lives
------------------
     ethr =  1.00E-02,  avg # of iterations =  1.0

     negative rho (up, down):  7.582E-01 0.000E+00

     total cpu time spent up to now is       41.7 secs

     total energy              =   -4443.26669234 Ry
     estimated scf accuracy    <      29.85293925 Ry

     iteration #  3     ecut=    60.00 Ry     beta= 0.15
     Davidson diagonalization with overlap

---- Real-time Memory Report at c_bands before calling an iterative solver
             0 MiB given to the printing process from OS
             0 MiB allocation reported by mallinfo(arena+hblkhd)
         23414 MiB available memory on the node where the printing process lives
------------------
     ethr =  6.93E-03,  avg # of iterations =  1.0

     negative rho (up, down):  7.554E-01 0.000E+00

     total cpu time spent up to now is       56.7 secs

     total energy              =   -4444.26429983 Ry
     estimated scf accuracy    <      28.74872837 Ry

     iteration #  4     ecut=    60.00 Ry     beta= 0.15
     Davidson diagonalization with overlap

---- Real-time Memory Report at c_bands before calling an iterative solver
             0 MiB given to the printing process from OS
             0 MiB allocation reported by mallinfo(arena+hblkhd)
         23388 MiB available memory on the node where the printing process lives
------------------
     ethr =  6.67E-03,  avg # of iterations =  1.0

     negative rho (up, down):  7.497E-01 0.000E+00

     total cpu time spent up to now is       71.6 secs

     total energy              =   -4443.07328317 Ry
     estimated scf accuracy    <      20.87396538 Ry

     iteration #  5     ecut=    60.00 Ry     beta= 0.15
     Davidson diagonalization with overlap

---- Real-time Memory Report at c_bands before calling an iterative solver
             0 MiB given to the printing process from OS
             0 MiB allocation reported by mallinfo(arena+hblkhd)
         23367 MiB available memory on the node where the printing process lives
------------------
     ethr =  4.84E-03,  avg # of iterations =  1.0

     negative rho (up, down):  7.403E-01 0.000E+00

     total cpu time spent up to now is       86.3 secs

     total energy              =   -4442.55209217 Ry
     estimated scf accuracy    <      10.85291722 Ry

     iteration #  6     ecut=    60.00 Ry     beta= 0.15
     Davidson diagonalization with overlap

---- Real-time Memory Report at c_bands before calling an iterative solver
             0 MiB given to the printing process from OS
             0 MiB allocation reported by mallinfo(arena+hblkhd)
         23354 MiB available memory on the node where the printing process lives
------------------
     ethr =  2.52E-03,  avg # of iterations =  1.1

     negative rho (up, down):  7.427E-01 0.000E+00

     total cpu time spent up to now is      101.1 secs

     total energy              =   -4442.81601593 Ry
     estimated scf accuracy    <       4.95701065 Ry

     iteration #  7     ecut=    60.00 Ry     beta= 0.15
     Davidson diagonalization with overlap

---- Real-time Memory Report at c_bands before calling an iterative solver
             0 MiB given to the printing process from OS
             0 MiB allocation reported by mallinfo(arena+hblkhd)
         23332 MiB available memory on the node where the printing process lives
------------------
     ethr =  1.15E-03,  avg # of iterations =  1.7

     negative rho (up, down):  7.655E-01 0.000E+00

     total cpu time spent up to now is      116.3 secs

     total energy              =   -4441.64431328 Ry
     estimated scf accuracy    <       3.97814252 Ry

     iteration #  8     ecut=    60.00 Ry     beta= 0.15
     Davidson diagonalization with overlap

---- Real-time Memory Report at c_bands before calling an iterative solver
             0 MiB given to the printing process from OS
             0 MiB allocation reported by mallinfo(arena+hblkhd)
         23311 MiB available memory on the node where the printing process lives
------------------
     ethr =  9.23E-04,  avg # of iterations =  4.2

     negative rho (up, down):  7.723E-01 0.000E+00

     total cpu time spent up to now is      135.6 secs

     total energy              =   -4441.47422426 Ry
     estimated scf accuracy    <      16.66269823 Ry

     iteration #  9     ecut=    60.00 Ry     beta= 0.15
     Davidson diagonalization with overlap

---- Real-time Memory Report at c_bands before calling an iterative solver
             0 MiB given to the printing process from OS
             0 MiB allocation reported by mallinfo(arena+hblkhd)
         23122 MiB available memory on the node where the printing process lives
------------------
     ethr =  9.23E-04,  avg # of iterations = 10.0

     negative rho (up, down):  7.703E-01 0.000E+00

     total cpu time spent up to now is      157.3 secs

     total energy              =   -4441.76560556 Ry
     estimated scf accuracy    <       2.77297415 Ry

     iteration # 10     ecut=    60.00 Ry     beta= 0.15
     Davidson diagonalization with overlap

---- Real-time Memory Report at c_bands before calling an iterative solver
             0 MiB given to the printing process from OS
             0 MiB allocation reported by mallinfo(arena+hblkhd)
         22799 MiB available memory on the node where the printing process lives
------------------
     ethr =  6.43E-04,  avg # of iterations =  1.4

     negative rho (up, down):  7.766E-01 0.000E+00

     total cpu time spent up to now is      173.0 secs

     total energy              =   -4441.91158653 Ry
     estimated scf accuracy    <       1.26019314 Ry

     iteration # 11     ecut=    60.00 Ry     beta= 0.15
     Davidson diagonalization with overlap

---- Real-time Memory Report at c_bands before calling an iterative solver
             0 MiB given to the printing process from OS
             0 MiB allocation reported by mallinfo(arena+hblkhd)
         22789 MiB available memory on the node where the printing process lives
------------------
     ethr =  2.92E-04,  avg # of iterations =  3.3

     negative rho (up, down):  8.097E-01 0.000E+00

     total cpu time spent up to now is      190.6 secs

     total energy              =   -4441.69695080 Ry
     estimated scf accuracy    <       1.31428636 Ry

     iteration # 12     ecut=    60.00 Ry     beta= 0.15
     Davidson diagonalization with overlap

---- Real-time Memory Report at c_bands before calling an iterative solver
             0 MiB given to the printing process from OS
             0 MiB allocation reported by mallinfo(arena+hblkhd)
         22780 MiB available memory on the node where the printing process lives
------------------
     ethr =  2.92E-04,  avg # of iterations =  7.3

     negative rho (up, down):  8.176E-01 0.000E+00

     total cpu time spent up to now is      210.4 secs

     total energy              =   -4441.85724592 Ry
     estimated scf accuracy    <       1.43327501 Ry

     iteration # 13     ecut=    60.00 Ry     beta= 0.15
     Davidson diagonalization with overlap

---- Real-time Memory Report at c_bands before calling an iterative solver
             0 MiB given to the printing process from OS
             0 MiB allocation reported by mallinfo(arena+hblkhd)
         22783 MiB available memory on the node where the printing process lives
------------------
     ethr =  2.92E-04,  avg # of iterations =  4.2

     negative rho (up, down):  8.187E-01 0.000E+00

     total cpu time spent up to now is      228.4 secs

     total energy              =   -4441.78971200 Ry
     estimated scf accuracy    <       0.92569502 Ry

     iteration # 14     ecut=    60.00 Ry     beta= 0.15
     Davidson diagonalization with overlap

---- Real-time Memory Report at c_bands before calling an iterative solver
             0 MiB given to the printing process from OS
             0 MiB allocation reported by mallinfo(arena+hblkhd)
         22768 MiB available memory on the node where the printing process lives
------------------
     ethr =  2.15E-04,  avg # of iterations =  5.0

     negative rho (up, down):  8.209E-01 0.000E+00

     total cpu time spent up to now is      246.6 secs

     total energy              =   -4441.74898416 Ry
     estimated scf accuracy    <       0.37420642 Ry

     iteration # 15     ecut=    60.00 Ry     beta= 0.15
     Davidson diagonalization with overlap

---- Real-time Memory Report at c_bands before calling an iterative solver
             0 MiB given to the printing process from OS
             0 MiB allocation reported by mallinfo(arena+hblkhd)
         22751 MiB available memory on the node where the printing process lives
------------------
     c_bands:  3 eigenvalues not converged
     ethr =  8.68E-05,  avg # of iterations = 13.5

     negative rho (up, down):  8.298E-01 0.000E+00

     total cpu time spent up to now is      270.7 secs

     total energy              =   -4441.71969617 Ry
     estimated scf accuracy    <       0.27434212 Ry

     iteration # 16     ecut=    60.00 Ry     beta= 0.15
     Davidson diagonalization with overlap

---- Real-time Memory Report at c_bands before calling an iterative solver
             0 MiB given to the printing process from OS
             0 MiB allocation reported by mallinfo(arena+hblkhd)
         22704 MiB available memory on the node where the printing process lives
------------------
     ethr =  6.37E-05,  avg # of iterations =  7.9

     negative rho (up, down):  8.311E-01 0.000E+00

     total cpu time spent up to now is      291.4 secs

     total energy              =   -4441.72039055 Ry
     estimated scf accuracy    <       0.26041456 Ry

     iteration # 17     ecut=    60.00 Ry     beta= 0.15
     Davidson diagonalization with overlap

---- Real-time Memory Report at c_bands before calling an iterative solver
             0 MiB given to the printing process from OS
             0 MiB allocation reported by mallinfo(arena+hblkhd)
         22721 MiB available memory on the node where the printing process lives
------------------
     ethr =  6.04E-05,  avg # of iterations =  1.1

     negative rho (up, down):  8.129E-01 0.000E+00

     total cpu time spent up to now is      307.0 secs

     total energy              =   -4441.68692400 Ry
     estimated scf accuracy    <       0.21832925 Ry

     iteration # 18     ecut=    60.00 Ry     beta= 0.15
     Davidson diagonalization with overlap

---- Real-time Memory Report at c_bands before calling an iterative solver
             0 MiB given to the printing process from OS
             0 MiB allocation reported by mallinfo(arena+hblkhd)
         22707 MiB available memory on the node where the printing process lives
------------------
     ethr =  5.07E-05,  avg # of iterations =  7.7

     negative rho (up, down):  8.201E-01 0.000E+00

     total cpu time spent up to now is      327.9 secs

     total energy              =   -4441.66961312 Ry
     estimated scf accuracy    <       0.11589891 Ry

     iteration # 19     ecut=    60.00 Ry     beta= 0.15
     Davidson diagonalization with overlap

---- Real-time Memory Report at c_bands before calling an iterative solver
             0 MiB given to the printing process from OS
             0 MiB allocation reported by mallinfo(arena+hblkhd)
         22690 MiB available memory on the node where the printing process lives
------------------
     ethr =  2.69E-05,  avg # of iterations =  8.9

     negative rho (up, down):  8.281E-01 0.000E+00

     total cpu time spent up to now is      349.6 secs

     total energy              =   -4441.66415104 Ry
     estimated scf accuracy    <       0.07531677 Ry

     iteration # 20     ecut=    60.00 Ry     beta= 0.15
     Davidson diagonalization with overlap

---- Real-time Memory Report at c_bands before calling an iterative solver
             0 MiB given to the printing process from OS
             0 MiB allocation reported by mallinfo(arena+hblkhd)
         22661 MiB available memory on the node where the printing process lives
------------------
     ethr =  1.75E-05,  avg # of iterations =  6.0

     negative rho (up, down):  8.181E-01 0.000E+00

     total cpu time spent up to now is      369.0 secs

     total energy              =   -4441.66179199 Ry
     estimated scf accuracy    <       0.03987560 Ry

     iteration # 21     ecut=    60.00 Ry     beta= 0.15
     Davidson diagonalization with overlap

---- Real-time Memory Report at c_bands before calling an iterative solver
             0 MiB given to the printing process from OS
             0 MiB allocation reported by mallinfo(arena+hblkhd)
         22607 MiB available memory on the node where the printing process lives
------------------
     c_bands:  1 eigenvalues not converged
     ethr =  9.25E-06,  avg # of iterations = 12.4

     negative rho (up, down):  8.100E-01 0.000E+00

     total cpu time spent up to now is      392.2 secs

     total energy              =   -4441.66033558 Ry
     estimated scf accuracy    <       0.02625154 Ry

     iteration # 22     ecut=    60.00 Ry     beta= 0.15
     Davidson diagonalization with overlap

---- Real-time Memory Report at c_bands before calling an iterative solver
             0 MiB given to the printing process from OS
             0 MiB allocation reported by mallinfo(arena+hblkhd)
         22572 MiB available memory on the node where the printing process lives
------------------
     ethr =  6.09E-06,  avg # of iterations =  3.3

     negative rho (up, down):  8.011E-01 0.000E+00

     total cpu time spent up to now is      410.0 secs

     total energy              =   -4441.65737661 Ry
     estimated scf accuracy    <       0.01742934 Ry

     iteration # 23     ecut=    60.00 Ry     beta= 0.15
     Davidson diagonalization with overlap

---- Real-time Memory Report at c_bands before calling an iterative solver
             0 MiB given to the printing process from OS
             0 MiB allocation reported by mallinfo(arena+hblkhd)
         22586 MiB available memory on the node where the printing process lives
------------------
     c_bands:  1 eigenvalues not converged
     c_bands:  1 eigenvalues not converged
     ethr =  4.04E-06,  avg # of iterations = 14.7

     negative rho (up, down):  7.950E-01 0.000E+00

     total cpu time spent up to now is      434.9 secs

     total energy              =   -4441.65629048 Ry
     estimated scf accuracy    <       0.00945820 Ry

     iteration # 24     ecut=    60.00 Ry     beta= 0.15
     Davidson diagonalization with overlap

---- Real-time Memory Report at c_bands before calling an iterative solver
             0 MiB given to the printing process from OS
             0 MiB allocation reported by mallinfo(arena+hblkhd)
         22600 MiB available memory on the node where the printing process lives
------------------
     ethr =  2.19E-06,  avg # of iterations =  6.4

     negative rho (up, down):  7.983E-01 0.000E+00

     total cpu time spent up to now is      455.0 secs

     total energy              =   -4441.65613498 Ry
     estimated scf accuracy    <       0.00501137 Ry

     iteration # 25     ecut=    60.00 Ry     beta= 0.15
     Davidson diagonalization with overlap

---- Real-time Memory Report at c_bands before calling an iterative solver
             0 MiB given to the printing process from OS
             0 MiB allocation reported by mallinfo(arena+hblkhd)
         22612 MiB available memory on the node where the printing process lives
------------------
     ethr =  1.16E-06,  avg # of iterations =  6.4

     negative rho (up, down):  7.964E-01 0.000E+00

     total cpu time spent up to now is      474.9 secs

     total energy              =   -4441.65602488 Ry
     estimated scf accuracy    <       0.00216812 Ry

     iteration # 26     ecut=    60.00 Ry     beta= 0.15
     Davidson diagonalization with overlap

---- Real-time Memory Report at c_bands before calling an iterative solver
             0 MiB given to the printing process from OS
             0 MiB allocation reported by mallinfo(arena+hblkhd)
         22610 MiB available memory on the node where the printing process lives
------------------
     ethr =  5.03E-07,  avg # of iterations = 10.6

     negative rho (up, down):  7.969E-01 0.000E+00

     total cpu time spent up to now is      497.8 secs

     total energy              =   -4441.65616683 Ry
     estimated scf accuracy    <       0.00099451 Ry

     iteration # 27     ecut=    60.00 Ry     beta= 0.15
     Davidson diagonalization with overlap

---- Real-time Memory Report at c_bands before calling an iterative solver
             0 MiB given to the printing process from OS
             0 MiB allocation reported by mallinfo(arena+hblkhd)
         22595 MiB available memory on the node where the printing process lives
------------------
     c_bands:  1 eigenvalues not converged
     ethr =  2.31E-07,  avg # of iterations = 10.5

     negative rho (up, down):  7.975E-01 0.000E+00

     total cpu time spent up to now is      519.5 secs

     total energy              =   -4441.65623054 Ry
     estimated scf accuracy    <       0.00041592 Ry

     iteration # 28     ecut=    60.00 Ry     beta= 0.15
     Davidson diagonalization with overlap

---- Real-time Memory Report at c_bands before calling an iterative solver
             0 MiB given to the printing process from OS
             0 MiB allocation reported by mallinfo(arena+hblkhd)
         22564 MiB available memory on the node where the printing process lives
------------------
     c_bands:  1 eigenvalues not converged
     ethr =  9.65E-08,  avg # of iterations =  4.2

     negative rho (up, down):  7.982E-01 0.000E+00

     total cpu time spent up to now is      538.2 secs

     total energy              =   -4441.65627841 Ry
     estimated scf accuracy    <       0.00020845 Ry

     iteration # 29     ecut=    60.00 Ry     beta= 0.15
     Davidson diagonalization with overlap

---- Real-time Memory Report at c_bands before calling an iterative solver
             0 MiB given to the printing process from OS
             0 MiB allocation reported by mallinfo(arena+hblkhd)
         22614 MiB available memory on the node where the printing process lives
------------------
     ethr =  4.84E-08,  avg # of iterations =  3.2

     negative rho (up, down):  7.967E-01 0.000E+00

     total cpu time spent up to now is      556.0 secs

     total energy              =   -4441.65626336 Ry
     estimated scf accuracy    <       0.00013254 Ry

     iteration # 30     ecut=    60.00 Ry     beta= 0.15
     Davidson diagonalization with overlap

---- Real-time Memory Report at c_bands before calling an iterative solver
             0 MiB given to the printing process from OS
             0 MiB allocation reported by mallinfo(arena+hblkhd)
         22595 MiB available memory on the node where the printing process lives
------------------
     ethr =  3.08E-08,  avg # of iterations =  2.2

     negative rho (up, down):  7.943E-01 0.000E+00

     total cpu time spent up to now is      573.3 secs

     total energy              =   -4441.65622498 Ry
     estimated scf accuracy    <       0.00007080 Ry

     iteration # 31     ecut=    60.00 Ry     beta= 0.15
     Davidson diagonalization with overlap

---- Real-time Memory Report at c_bands before calling an iterative solver
             0 MiB given to the printing process from OS
             0 MiB allocation reported by mallinfo(arena+hblkhd)
         22604 MiB available memory on the node where the printing process lives
------------------
     ethr =  1.64E-08,  avg # of iterations =  2.5

     negative rho (up, down):  7.926E-01 0.000E+00

     total cpu time spent up to now is      590.8 secs

     total energy              =   -4441.65621297 Ry
     estimated scf accuracy    <       0.00003617 Ry

     iteration # 32     ecut=    60.00 Ry     beta= 0.15
     Davidson diagonalization with overlap

---- Real-time Memory Report at c_bands before calling an iterative solver
             0 MiB given to the printing process from OS
             0 MiB allocation reported by mallinfo(arena+hblkhd)
         22607 MiB available memory on the node where the printing process lives
------------------
     c_bands:  1 eigenvalues not converged
     ethr =  8.39E-09,  avg # of iterations =  8.1

     negative rho (up, down):  7.920E-01 0.000E+00

     total cpu time spent up to now is      610.6 secs

     total energy              =   -4441.65621566 Ry
     estimated scf accuracy    <       0.00001441 Ry

     iteration # 33     ecut=    60.00 Ry     beta= 0.15
     Davidson diagonalization with overlap

---- Real-time Memory Report at c_bands before calling an iterative solver
             0 MiB given to the printing process from OS
             0 MiB allocation reported by mallinfo(arena+hblkhd)
         22659 MiB available memory on the node where the printing process lives
------------------
     ethr =  3.34E-09,  avg # of iterations =  3.6

     negative rho (up, down):  7.921E-01 0.000E+00

     total cpu time spent up to now is      628.1 secs

     total energy              =   -4441.65621353 Ry
     estimated scf accuracy    <       0.00000815 Ry

     iteration # 34     ecut=    60.00 Ry     beta= 0.15
     Davidson diagonalization with overlap

---- Real-time Memory Report at c_bands before calling an iterative solver
             0 MiB given to the printing process from OS
             0 MiB allocation reported by mallinfo(arena+hblkhd)
         22651 MiB available memory on the node where the printing process lives
------------------
     ethr =  1.89E-09,  avg # of iterations =  3.4

     negative rho (up, down):  7.923E-01 0.000E+00

     total cpu time spent up to now is      645.6 secs

     total energy              =   -4441.65621383 Ry
     estimated scf accuracy    <       0.00000263 Ry

     iteration # 35     ecut=    60.00 Ry     beta= 0.15
     Davidson diagonalization with overlap

---- Real-time Memory Report at c_bands before calling an iterative solver
             0 MiB given to the printing process from OS
             0 MiB allocation reported by mallinfo(arena+hblkhd)
         22651 MiB available memory on the node where the printing process lives
------------------
     ethr =  6.09E-10,  avg # of iterations =  2.1

     negative rho (up, down):  7.923E-01 0.000E+00

     total cpu time spent up to now is      663.1 secs

     total energy              =   -4441.65621416 Ry
     estimated scf accuracy    <       0.00000097 Ry

     iteration # 36     ecut=    60.00 Ry     beta= 0.15
     Davidson diagonalization with overlap

---- Real-time Memory Report at c_bands before calling an iterative solver
             0 MiB given to the printing process from OS
             0 MiB allocation reported by mallinfo(arena+hblkhd)
         22656 MiB available memory on the node where the printing process lives
------------------
     ethr =  2.25E-10,  avg # of iterations =  2.1

     negative rho (up, down):  7.924E-01 0.000E+00

     total cpu time spent up to now is      679.9 secs

     total energy              =   -4441.65621457 Ry
     estimated scf accuracy    <       0.00000073 Ry

     iteration # 37     ecut=    60.00 Ry     beta= 0.15
     Davidson diagonalization with overlap

---- Real-time Memory Report at c_bands before calling an iterative solver
             0 MiB given to the printing process from OS
             0 MiB allocation reported by mallinfo(arena+hblkhd)
         22662 MiB available memory on the node where the printing process lives
------------------
     ethr =  1.69E-10,  avg # of iterations =  2.3

     negative rho (up, down):  7.924E-01 0.000E+00

     total cpu time spent up to now is      696.7 secs

     total energy              =   -4441.65621490 Ry
     estimated scf accuracy    <       0.00000056 Ry

     iteration # 38     ecut=    60.00 Ry     beta= 0.15
     Davidson diagonalization with overlap

---- Real-time Memory Report at c_bands before calling an iterative solver
             0 MiB given to the printing process from OS
             0 MiB allocation reported by mallinfo(arena+hblkhd)
         22655 MiB available memory on the node where the printing process lives
------------------
     ethr =  1.30E-10,  avg # of iterations =  2.7

     negative rho (up, down):  7.924E-01 0.000E+00

     total cpu time spent up to now is      713.6 secs

     total energy              =   -4441.65621520 Ry
     estimated scf accuracy    <       0.00000044 Ry

     iteration # 39     ecut=    60.00 Ry     beta= 0.15
     Davidson diagonalization with overlap

---- Real-time Memory Report at c_bands before calling an iterative solver
             0 MiB given to the printing process from OS
             0 MiB allocation reported by mallinfo(arena+hblkhd)
         22661 MiB available memory on the node where the printing process lives
------------------
     ethr =  1.02E-10,  avg # of iterations =  3.8

     negative rho (up, down):  7.924E-01 0.000E+00

     total cpu time spent up to now is      731.3 secs

     total energy              =   -4441.65621517 Ry
     estimated scf accuracy    <       0.00000027 Ry

     iteration # 40     ecut=    60.00 Ry     beta= 0.15
     Davidson diagonalization with overlap

---- Real-time Memory Report at c_bands before calling an iterative solver
             0 MiB given to the printing process from OS
             0 MiB allocation reported by mallinfo(arena+hblkhd)
         22676 MiB available memory on the node where the printing process lives
------------------
     ethr =  6.36E-11,  avg # of iterations =  4.0

     negative rho (up, down):  7.924E-01 0.000E+00

     total cpu time spent up to now is      749.0 secs

     total energy              =   -4441.65621518 Ry
     estimated scf accuracy    <       0.00000013 Ry

     iteration # 41     ecut=    60.00 Ry     beta= 0.15
     Davidson diagonalization with overlap

---- Real-time Memory Report at c_bands before calling an iterative solver
             0 MiB given to the printing process from OS
             0 MiB allocation reported by mallinfo(arena+hblkhd)
         22668 MiB available memory on the node where the printing process lives
------------------
     ethr =  3.07E-11,  avg # of iterations =  2.2

     negative rho (up, down):  7.925E-01 0.000E+00

     total cpu time spent up to now is      765.7 secs

     total energy              =   -4441.65621515 Ry
     estimated scf accuracy    <       0.00000010 Ry

     iteration # 42     ecut=    60.00 Ry     beta= 0.15
     Davidson diagonalization with overlap

---- Real-time Memory Report at c_bands before calling an iterative solver
             0 MiB given to the printing process from OS
             0 MiB allocation reported by mallinfo(arena+hblkhd)
         22671 MiB available memory on the node where the printing process lives
------------------
     ethr =  2.24E-11,  avg # of iterations =  2.2

     negative rho (up, down):  7.925E-01 0.000E+00

     total cpu time spent up to now is      782.8 secs

     total energy              =   -4441.65621514 Ry
     estimated scf accuracy    <       0.00000006 Ry

     iteration # 43     ecut=    60.00 Ry     beta= 0.15
     Davidson diagonalization with overlap

---- Real-time Memory Report at c_bands before calling an iterative solver
             0 MiB given to the printing process from OS
             0 MiB allocation reported by mallinfo(arena+hblkhd)
         22673 MiB available memory on the node where the printing process lives
------------------
     ethr =  1.35E-11,  avg # of iterations =  3.0

     negative rho (up, down):  7.925E-01 0.000E+00

     total cpu time spent up to now is      800.3 secs

     total energy              =   -4441.65621514 Ry
     estimated scf accuracy    <       0.00000002 Ry

     iteration # 44     ecut=    60.00 Ry     beta= 0.15
     Davidson diagonalization with overlap

---- Real-time Memory Report at c_bands before calling an iterative solver
             0 MiB given to the printing process from OS
             0 MiB allocation reported by mallinfo(arena+hblkhd)
         22672 MiB available memory on the node where the printing process lives
------------------
     ethr =  4.99E-12,  avg # of iterations =  2.2

     negative rho (up, down):  7.925E-01 0.000E+00

     total cpu time spent up to now is      817.1 secs

     total energy              =   -4441.65621514 Ry
     estimated scf accuracy    <       0.00000001 Ry

     iteration # 45     ecut=    60.00 Ry     beta= 0.15
     Davidson diagonalization with overlap

---- Real-time Memory Report at c_bands before calling an iterative solver
             0 MiB given to the printing process from OS
             0 MiB allocation reported by mallinfo(arena+hblkhd)
         22681 MiB available memory on the node where the printing process lives
------------------
     ethr =  3.44E-12,  avg # of iterations =  2.2

     negative rho (up, down):  7.925E-01 0.000E+00

     total cpu time spent up to now is      833.5 secs

     End of self-consistent calculation

          k = 0.0000 0.0000 0.0000 ( 65197 PWs)   bands (ev):

   -92.6901 -92.6390 -92.5443 -92.4976 -92.4382 -92.3965 -92.3797 -92.2611
   -56.0436 -56.0258 -55.9016 -55.8908 -55.8851 -55.8776 -55.8432 -55.8135
   -55.7985 -55.7959 -55.7888 -55.7459 -55.7281 -55.6895 -55.6709 -55.6382
   -55.6333 -55.5858 -55.5851 -55.5818 -55.5734 -55.5360 -55.5099 -55.4269
   -31.2678 -31.2484 -31.1065 -31.0989 -31.0196 -30.9035 -30.8635 -30.6523
   -29.8378 -29.7946 -29.7681 -29.6596 -15.0707 -15.0252 -14.9455 -14.8154
   -14.6212 -14.4991 -14.2083 -14.1882 -14.1600 -14.1124 -14.0665 -14.0527
   -14.0459 -14.0277 -14.0118 -13.9684 -13.9452 -13.9196 -13.7677 -13.5869
   -13.5559 -13.5255 -13.4911 -13.4767 -13.4217 -13.3890 -13.3123 -13.2402
   -13.1210 -13.1000 -13.0968 -13.0725 -13.0647 -13.0458 -12.9916 -12.9839
   -12.9590 -12.9425 -12.9131 -12.8966 -12.8880 -12.8645 -12.8124 -12.7878
   -12.7535 -12.7301 -12.6029 -12.5971 -12.5727 -12.3321 -12.1864 -12.0033
   -11.9229 -11.8509 -11.7772 -11.7657 -11.7430 -11.7252 -11.6616 -11.6442
   -11.6100 -11.5807 -11.4682 -11.3890 -11.3854  -2.9304  -2.6984  -2.4687
    -2.3216  -2.2588  -2.1170  -1.8096  -1.7952  -1.7758  -1.6906  -1.6718
    -1.6036  -1.5874  -1.5469  -1.5007  -1.3206  -1.1008  -1.0869  -1.0662
    -0.9202  -0.9056  -0.8594  -0.8393  -0.7950  -0.7784  -0.7229  -0.6963
    -0.6231  -0.6103  -0.5362  -0.4050  -0.3920  -0.3623  -0.2815  -0.2633
    -0.2378  -0.1864  -0.1173  -0.0763  -0.0188   0.0053   0.0755   0.1549
     0.1917   0.2178   0.2461   0.4843   0.4988   0.6721   0.7358   0.8003
     0.8687   0.9444   0.9535   0.9727   1.0332   1.0606   1.0954   1.1524
     1.2843   1.3417   1.3645   1.3911   1.3979   1.4607   1.5320   1.6379
     1.6551   1.7125   1.7247   1.7677   1.7915   1.7977   1.8554   1.9131
     1.9295   1.9584   1.9962   2.0409   2.1719   2.2509   2.2952   2.3362
     2.4530   2.4638   2.4818   2.4970   2.5232   2.5242   2.6447   2.6698
     2.6986   2.7168   2.7308   2.8121   2.9181   2.9509   2.9620   2.9684
     3.0359   3.0398   3.0646   3.0722   3.0814   3.0942   3.1004   3.1140
     3.1199   3.1334   3.1409   3.1480   3.1674   3.1884   3.1942   3.2053
     3.2286   3.3461   3.4301   4.1204   4.4389   4.7772   4.8733   5.0581
     5.7705   5.9489   5.9938   6.0285   6.3248   6.3720   6.4876   6.4984
     6.7425   7.0148   7.1065   7.3263   7.4905   7.5430   7.6585   7.6735
     7.6939   7.8681   7.9404   8.0957   8.1207   8.1752   8.4107   8.4491
     8.7398   8.8788   8.9069

     occupation numbers 
     1.0000   1.0000   1.0000   1.0000   1.0000   1.0000   1.0000   1.0000
     1.0000   1.0000   1.0000   1.0000   1.0000   1.0000   1.0000   1.0000
     1.0000   1.0000   1.0000   1.0000   1.0000   1.0000   1.0000   1.0000
     1.0000   1.0000   1.0000   1.0000   1.0000   1.0000   1.0000   1.0000
     1.0000   1.0000   1.0000   1.0000   1.0000   1.0000   1.0000   1.0000
     1.0000   1.0000   1.0000   1.0000   1.0000   1.0000   1.0000   1.0000
     1.0000   1.0000   1.0000   1.0000   1.0000   1.0000   1.0000   1.0000
     1.0000   1.0000   1.0000   1.0000   1.0000   1.0000   1.0000   1.0000
     1.0000   1.0000   1.0000   1.0000   1.0000   1.0000   1.0000   1.0000
     1.0000   1.0000   1.0000   1.0000   1.0000   1.0000   1.0000   1.0000
     1.0000   1.0000   1.0000   1.0000   1.0000   1.0000   1.0000   1.0000
     1.0000   1.0000   1.0000   1.0000   1.0000   1.0000   1.0000   1.0000
     1.0000   1.0000   1.0000   1.0000   1.0000   1.0000   1.0000   1.0000
     1.0000   1.0000   1.0000   1.0000   1.0000   1.0000   1.0000   1.0000
     1.0000   1.0000   1.0000   1.0000   1.0000   1.0000   1.0000   1.0000
     1.0000   1.0000   1.0000   1.0000   1.0000   1.0000   1.0000   1.0000
     1.0000   1.0000   1.0000   1.0000   1.0000   1.0000   1.0000   1.0000
     1.0000   1.0000   1.0000   1.0000   1.0000   1.0000   1.0000   1.0000
     1.0000   1.0000   1.0000   1.0000   1.0000   1.0000   1.0000   1.0000
     1.0000   1.0000   1.0000   1.0000   1.0000   1.0000   0.9999   0.9999
     0.9999   0.9998   0.9998   0.9998   0.9997   0.9996   0.9996   0.9994
     0.9989   0.9985   0.9983   0.9981   0.9980   0.9973   0.9963   0.9942
     0.9938   0.9921   0.9917   0.9901   0.9891   0.9889   0.9861   0.9828
     0.9817   0.9797   0.9768   0.9729   0.9583   0.9467   0.9392   0.9315
     0.9055   0.9027   0.8981   0.8940   0.8867   0.8864   0.8482   0.8393
     0.8286   0.8216   0.8161   0.7823   0.7332   0.7170   0.7114   0.7081
     0.6728   0.6707   0.6573   0.6532   0.6481   0.6410   0.6376   0.6299
     0.6267   0.6190   0.6148   0.6108   0.5997   0.5876   0.5842   0.5778
     0.5642   0.4949   0.4453   0.1225   0.0510   0.0163   0.0113   0.0053
     0.0002   0.0001   0.0000   0.0000   0.0000   0.0000   0.0000   0.0000
     0.0000   0.0000   0.0000   0.0000   0.0000   0.0000   0.0000   0.0000
     0.0000   0.0000   0.0000   0.0000   0.0000   0.0000   0.0000   0.0000
     0.0000   0.0000   0.0000

          k = 0.0000 0.2500 0.0000 ( 65257 PWs)   bands (ev):

   -92.6901 -92.6390 -92.5443 -92.4976 -92.4382 -92.3965 -92.3797 -92.2611
   -56.0436 -56.0258 -55.9016 -55.8908 -55.8851 -55.8777 -55.8432 -55.8135
   -55.7985 -55.7959 -55.7888 -55.7459 -55.7281 -55.6895 -55.6709 -55.6382
   -55.6333 -55.5858 -55.5852 -55.5818 -55.5734 -55.5360 -55.5099 -55.4269
   -31.2676 -31.2482 -31.1067 -31.0987 -31.0198 -30.9034 -30.8636 -30.6524
   -29.8372 -29.7943 -29.7687 -29.6600 -15.0342 -14.9987 -14.9204 -14.7861
   -14.6631 -14.4891 -14.3529 -14.1743 -14.1389 -14.1191 -14.0883 -14.0321
   -14.0234 -14.0090 -13.9920 -13.9517 -13.9341 -13.8379 -13.7991 -13.6370
   -13.6126 -13.5675 -13.5299 -13.4808 -13.4422 -13.3953 -13.3325 -13.2977
   -13.2260 -13.1484 -13.1364 -13.0996 -13.0888 -13.0558 -12.9756 -12.9506
   -12.9239 -12.8985 -12.8831 -12.8618 -12.8559 -12.8265 -12.7881 -12.7628
   -12.6805 -12.6346 -12.5961 -12.5383 -12.4748 -12.3934 -12.2376 -12.0576
   -11.9869 -11.8164 -11.7740 -11.7456 -11.7173 -11.7008 -11.6536 -11.6422
   -11.6195 -11.5860 -11.4825 -11.4305 -11.4200  -2.7950  -2.5740  -2.4362
    -2.2543  -2.2107  -2.0472  -1.8275  -1.7434  -1.7304  -1.6712  -1.5702
    -1.5541  -1.5193  -1.4932  -1.4492  -1.2517  -1.1248  -1.1142  -1.0883
    -1.0333  -1.0248  -0.9203  -0.8908  -0.8320  -0.8069  -0.7669  -0.7028
    -0.6761  -0.6438  -0.6126  -0.5950  -0.5631  -0.4895  -0.4380  -0.3648
    -0.2608  -0.2351  -0.1962  -0.0820  -0.0473   0.0210   0.0670   0.1365
     0.1645   0.1823   0.2305   0.5336   0.6188   0.6485   0.7418   0.7874
     0.8306   0.9237   0.9446   1.0387   1.0618   1.0878   1.2036   1.2971
     1.3175   1.3419   1.3654   1.3864   1.4460   1.4739   1.5006   1.5481
     1.5851   1.6148   1.6979   1.7321   1.7711   1.8224   1.8735   1.9171
     1.9474   1.9766   1.9870   2.0869   2.2030   2.2783   2.3169   2.3711
     2.4161   2.4525   2.4586   2.4678   2.4948   2.5321   2.5655   2.6615
     2.6935   2.7091   2.8763   2.8980   2.9308   2.9537   2.9696   2.9781
     2.9849   2.9943   3.0241   3.0270   3.0450   3.0500   3.0596   3.0774
     3.0892   3.0968   3.1190   3.1295   3.1348   3.1693   3.1855   3.2471
     3.6101   3.6544   3.8944   4.3145   4.4319   4.7194   5.0262   5.0830
     5.6514   5.8215   5.9339   5.9941   6.0943   6.1202   6.1933   6.6058
     6.8327   7.1026   7.1692   7.3390   7.4928   7.5082   7.5519   7.6543
     7.8422   7.8856   8.0361   8.1751   8.3058   8.3784   8.4041   8.4298
     8.5989   8.8561   8.9672

     occupation numbers 
     1.0000   1.0000   1.0000   1.0000   1.0000   1.0000   1.0000   1.0000
     1.0000   1.0000   1.0000   1.0000   1.0000   1.0000   1.0000   1.0000
     1.0000   1.0000   1.0000   1.0000   1.0000   1.0000   1.0000   1.0000
     1.0000   1.0000   1.0000   1.0000   1.0000   1.0000   1.0000   1.0000
     1.0000   1.0000   1.0000   1.0000   1.0000   1.0000   1.0000   1.0000
     1.0000   1.0000   1.0000   1.0000   1.0000   1.0000   1.0000   1.0000
     1.0000   1.0000   1.0000   1.0000   1.0000   1.0000   1.0000   1.0000
     1.0000   1.0000   1.0000   1.0000   1.0000   1.0000   1.0000   1.0000
     1.0000   1.0000   1.0000   1.0000   1.0000   1.0000   1.0000   1.0000
     1.0000   1.0000   1.0000   1.0000   1.0000   1.0000   1.0000   1.0000
     1.0000   1.0000   1.0000   1.0000   1.0000   1.0000   1.0000   1.0000
     1.0000   1.0000   1.0000   1.0000   1.0000   1.0000   1.0000   1.0000
     1.0000   1.0000   1.0000   1.0000   1.0000   1.0000   1.0000   1.0000
     1.0000   1.0000   1.0000   1.0000   1.0000   1.0000   1.0000   1.0000
     1.0000   1.0000   1.0000   1.0000   1.0000   1.0000   1.0000   1.0000
     1.0000   1.0000   1.0000   1.0000   1.0000   1.0000   1.0000   1.0000
     1.0000   1.0000   1.0000   1.0000   1.0000   1.0000   1.0000   1.0000
     1.0000   1.0000   1.0000   1.0000   1.0000   1.0000   1.0000   1.0000
     1.0000   1.0000   1.0000   1.0000   1.0000   1.0000   1.0000   1.0000
     1.0000   1.0000   1.0000   1.0000   1.0000   1.0000   0.9999   0.9999
     0.9999   0.9998   0.9998   0.9997   0.9996   0.9996   0.9992   0.9988
     0.9986   0.9985   0.9983   0.9981   0.9975   0.9972   0.9968   0.9961
     0.9954   0.9947   0.9925   0.9914   0.9900   0.9878   0.9851   0.9825
     0.9805   0.9783   0.9775   0.9683   0.9540   0.9421   0.9352   0.9243
     0.9144   0.9056   0.9040   0.9017   0.8946   0.8841   0.8742   0.8422
     0.8305   0.8246   0.7533   0.7430   0.7270   0.7156   0.7075   0.7032
     0.6997   0.6948   0.6791   0.6776   0.6679   0.6652   0.6600   0.6503
     0.6438   0.6396   0.6272   0.6213   0.6183   0.5986   0.5892   0.5533
     0.3428   0.3189   0.2041   0.0734   0.0521   0.0201   0.0061   0.0048
     0.0003   0.0001   0.0001   0.0000   0.0000   0.0000   0.0000   0.0000
     0.0000   0.0000   0.0000   0.0000   0.0000   0.0000   0.0000   0.0000
     0.0000   0.0000   0.0000   0.0000   0.0000   0.0000   0.0000   0.0000
     0.0000   0.0000   0.0000

          k = 0.0000-0.5000 0.0000 ( 65180 PWs)   bands (ev):

   -92.6901 -92.6390 -92.5443 -92.4976 -92.4382 -92.3965 -92.3797 -92.2611
   -56.0436 -56.0258 -55.9016 -55.8908 -55.8851 -55.8776 -55.8432 -55.8135
   -55.7985 -55.7959 -55.7888 -55.7459 -55.7281 -55.6895 -55.6709 -55.6382
   -55.6333 -55.5858 -55.5852 -55.5818 -55.5734 -55.5360 -55.5099 -55.4269
   -31.2674 -31.2481 -31.1069 -31.0986 -31.0199 -30.9033 -30.8637 -30.6526
   -29.8366 -29.7940 -29.7694 -29.6603 -14.9981 -14.9503 -14.8945 -14.7694
   -14.6829 -14.5491 -14.3879 -14.2739 -14.1468 -14.0715 -14.0310 -14.0263
   -13.9768 -13.9607 -13.9483 -13.9072 -13.8872 -13.8638 -13.8331 -13.7961
   -13.7446 -13.5727 -13.5137 -13.4849 -13.4457 -13.3934 -13.3479 -13.2916
   -13.2732 -13.2371 -13.2076 -13.1013 -13.0912 -13.0515 -12.9581 -12.9477
   -12.9216 -12.9177 -12.8725 -12.8593 -12.8253 -12.7576 -12.6952 -12.6535
   -12.6419 -12.6212 -12.5947 -12.5044 -12.4199 -12.3127 -12.2862 -12.1504
   -12.0990 -11.7709 -11.7681 -11.7404 -11.7029 -11.6687 -11.6576 -11.6159
   -11.6118 -11.5678 -11.5038 -11.4909 -11.4770  -2.5805  -2.5208  -2.3709
    -2.2992  -2.0168  -1.9336  -1.8057  -1.6698  -1.6293  -1.6125  -1.5330
    -1.5034  -1.4195  -1.3853  -1.3072  -1.2679  -1.2301  -1.2030  -1.1417
    -1.1130  -1.0849  -1.0606  -1.0244  -0.9907  -0.9582  -0.8470  -0.8030
    -0.7667  -0.7642  -0.6795  -0.6465  -0.6263  -0.5744  -0.4894  -0.4205
    -0.3317  -0.2987  -0.2044  -0.1586  -0.0184   0.0279   0.0456   0.1198
     0.2441   0.2783   0.4026   0.4732   0.4799   0.6061   0.6575   0.8046
     0.8848   0.9955   1.0260   1.0650   1.0712   1.1163   1.1259   1.1602
     1.1771   1.1892   1.2963   1.3590   1.3953   1.4193   1.6798   1.7088
     1.7342   1.8271   1.8550   1.8771   1.8923   1.9216   1.9355   1.9567
     1.9785   2.0141   2.0501   2.0810   2.0851   2.1111   2.1634   2.2503
     2.2775   2.4468   2.4716   2.4907   2.6138   2.6252   2.6572   2.6806
     2.6868   2.6937   2.7446   2.7565   2.8104   2.8321   2.9081   2.9254
     2.9913   2.9987   3.0213   3.0239   3.0414   3.0469   3.0533   3.0544
     3.0585   3.0713   3.0889   3.0904   3.1548   3.1593   3.1750   3.2296
     4.1465   4.1658   4.1870   4.2695   4.7630   4.9111   5.0350   5.1789
     5.4250   5.4744   5.5918   5.7436   6.0395   6.0595   6.2551   6.5353
     6.8605   6.9616   7.2287   7.3323   7.4042   7.4961   7.6158   7.7649
     7.9183   7.9524   8.1452   8.2844   8.3737   8.4840   8.5321   8.6931
     8.8161   8.8254   8.8794

     occupation numbers 
     1.0000   1.0000   1.0000   1.0000   1.0000   1.0000   1.0000   1.0000
     1.0000   1.0000   1.0000   1.0000   1.0000   1.0000   1.0000   1.0000
     1.0000   1.0000   1.0000   1.0000   1.0000   1.0000   1.0000   1.0000
     1.0000   1.0000   1.0000   1.0000   1.0000   1.0000   1.0000   1.0000
     1.0000   1.0000   1.0000   1.0000   1.0000   1.0000   1.0000   1.0000
     1.0000   1.0000   1.0000   1.0000   1.0000   1.0000   1.0000   1.0000
     1.0000   1.0000   1.0000   1.0000   1.0000   1.0000   1.0000   1.0000
     1.0000   1.0000   1.0000   1.0000   1.0000   1.0000   1.0000   1.0000
     1.0000   1.0000   1.0000   1.0000   1.0000   1.0000   1.0000   1.0000
     1.0000   1.0000   1.0000   1.0000   1.0000   1.0000   1.0000   1.0000
     1.0000   1.0000   1.0000   1.0000   1.0000   1.0000   1.0000   1.0000
     1.0000   1.0000   1.0000   1.0000   1.0000   1.0000   1.0000   1.0000
     1.0000   1.0000   1.0000   1.0000   1.0000   1.0000   1.0000   1.0000
     1.0000   1.0000   1.0000   1.0000   1.0000   1.0000   1.0000   1.0000
     1.0000   1.0000   1.0000   1.0000   1.0000   1.0000   1.0000   1.0000
     1.0000   1.0000   1.0000   1.0000   1.0000   1.0000   1.0000   1.0000
     1.0000   1.0000   1.0000   1.0000   1.0000   1.0000   1.0000   1.0000
     1.0000   1.0000   1.0000   1.0000   1.0000   1.0000   1.0000   1.0000
     1.0000   1.0000   1.0000   1.0000   1.0000   1.0000   1.0000   1.0000
     1.0000   1.0000   1.0000   1.0000   1.0000   1.0000   1.0000   0.9999
     0.9999   0.9997   0.9997   0.9996   0.9996   0.9995   0.9995   0.9994
     0.9993   0.9993   0.9988   0.9983   0.9980   0.9978   0.9931   0.9922
     0.9914   0.9875   0.9861   0.9849   0.9841   0.9822   0.9813   0.9798
     0.9782   0.9753   0.9720   0.9690   0.9685   0.9657   0.9594   0.9468
     0.9422   0.9070   0.9007   0.8957   0.8587   0.8549   0.8438   0.8353
     0.8330   0.8304   0.8107   0.8058   0.7831   0.7735   0.7381   0.7297
     0.6964   0.6925   0.6806   0.6793   0.6699   0.6669   0.6635   0.6629
     0.6607   0.6536   0.6440   0.6432   0.6069   0.6043   0.5953   0.5636
     0.1148   0.1093   0.1036   0.0832   0.0171   0.0097   0.0059   0.0031
     0.0010   0.0008   0.0004   0.0002   0.0000   0.0000   0.0000   0.0000
     0.0000   0.0000   0.0000   0.0000   0.0000   0.0000   0.0000   0.0000
     0.0000   0.0000   0.0000   0.0000   0.0000   0.0000   0.0000   0.0000
     0.0000   0.0000   0.0000

          k = 0.2500 0.2500 0.0000 ( 65198 PWs)   bands (ev):

   -92.6901 -92.6390 -92.5443 -92.4976 -92.4382 -92.3965 -92.3797 -92.2611
   -56.0436 -56.0258 -55.9016 -55.8908 -55.8851 -55.8776 -55.8432 -55.8135
   -55.7985 -55.7959 -55.7888 -55.7459 -55.7281 -55.6895 -55.6709 -55.6382
   -55.6333 -55.5858 -55.5851 -55.5818 -55.5734 -55.5360 -55.5099 -55.4269
   -31.2659 -31.2499 -31.1063 -31.0986 -31.0201 -30.9036 -30.8634 -30.6526
   -29.8363 -29.7953 -29.7683 -29.6604 -15.0054 -14.9640 -14.8922 -14.7759
   -14.6551 -14.5298 -14.4589 -14.2520 -14.0978 -14.0850 -14.0476 -14.0198
   -13.9955 -13.9663 -13.9500 -13.9361 -13.8998 -13.8286 -13.8124 -13.6525
   -13.6381 -13.6072 -13.5898 -13.5303 -13.4994 -13.4324 -13.4157 -13.2821
   -13.2342 -13.2160 -13.1328 -13.0925 -13.0503 -13.0259 -13.0077 -12.9632
   -12.9365 -12.9090 -12.8886 -12.8366 -12.7888 -12.7722 -12.7341 -12.7190
   -12.7034 -12.6520 -12.5953 -12.4832 -12.4419 -12.3513 -12.2667 -12.0875
   -12.0363 -11.7887 -11.7573 -11.7461 -11.7390 -11.6768 -11.6415 -11.6352
   -11.5998 -11.5917 -11.4992 -11.4587 -11.4414  -2.6567  -2.4483  -2.3301
    -2.2358  -2.1152  -2.0506  -1.8521  -1.7080  -1.6890  -1.6584  -1.5651
    -1.5295  -1.4366  -1.4087  -1.3588  -1.2289  -1.1796  -1.1061  -1.0909
    -1.0617  -1.0167  -0.9929  -0.9696  -0.9263  -0.9119  -0.8210  -0.7711
    -0.7045  -0.6559  -0.6266  -0.5767  -0.5623  -0.4995  -0.4502  -0.3883
    -0.3576  -0.2703  -0.2205  -0.1903  -0.1525  -0.0967  -0.0254   0.0135
     0.0435   0.1208   0.1813   0.4206   0.5695   0.6026   0.6611   0.7032
     0.7880   0.8377   0.8855   0.9152   1.1881   1.2523   1.3266   1.3498
     1.4015   1.4304   1.4662   1.5026   1.5204   1.5472   1.5920   1.6020
     1.6158   1.6638   1.7049   1.7407   1.7925   1.8368   1.8450   1.8831
     1.9152   1.9748   2.0034   2.1274   2.1875   2.2209   2.2468   2.3296
     2.3800   2.4066   2.4376   2.4512   2.4700   2.4820   2.4997   2.6059
     2.6327   2.7218   2.8873   2.9043   2.9101   2.9263   2.9409   2.9548
     2.9666   2.9737   2.9851   2.9982   3.0110   3.0292   3.0366   3.0471
     3.0700   3.0809   3.0898   3.1220   3.4221   3.5153   3.5585   3.6285
     3.6539   3.8740   3.9653   4.3186   4.5220   4.7289   4.9953   5.1744
     5.6560   5.7140   5.7852   5.8477   5.9058   6.0898   6.1685   6.2188
     6.9043   6.9602   7.0696   7.2955   7.5601   7.6152   7.7225   7.8459
     7.8821   8.0165   8.1834   8.1976   8.2980   8.3456   8.4548   8.5051
     8.5623   8.7742   8.9172

     occupation numbers 
     1.0000   1.0000   1.0000   1.0000   1.0000   1.0000   1.0000   1.0000
     1.0000   1.0000   1.0000   1.0000   1.0000   1.0000   1.0000   1.0000
     1.0000   1.0000   1.0000   1.0000   1.0000   1.0000   1.0000   1.0000
     1.0000   1.0000   1.0000   1.0000   1.0000   1.0000   1.0000   1.0000
     1.0000   1.0000   1.0000   1.0000   1.0000   1.0000   1.0000   1.0000
     1.0000   1.0000   1.0000   1.0000   1.0000   1.0000   1.0000   1.0000
     1.0000   1.0000   1.0000   1.0000   1.0000   1.0000   1.0000   1.0000
     1.0000   1.0000   1.0000   1.0000   1.0000   1.0000   1.0000   1.0000
     1.0000   1.0000   1.0000   1.0000   1.0000   1.0000   1.0000   1.0000
     1.0000   1.0000   1.0000   1.0000   1.0000   1.0000   1.0000   1.0000
     1.0000   1.0000   1.0000   1.0000   1.0000   1.0000   1.0000   1.0000
     1.0000   1.0000   1.0000   1.0000   1.0000   1.0000   1.0000   1.0000
     1.0000   1.0000   1.0000   1.0000   1.0000   1.0000   1.0000   1.0000
     1.0000   1.0000   1.0000   1.0000   1.0000   1.0000   1.0000   1.0000
     1.0000   1.0000   1.0000   1.0000   1.0000   1.0000   1.0000   1.0000
     1.0000   1.0000   1.0000   1.0000   1.0000   1.0000   1.0000   1.0000
     1.0000   1.0000   1.0000   1.0000   1.0000   1.0000   1.0000   1.0000
     1.0000   1.0000   1.0000   1.0000   1.0000   1.0000   1.0000   1.0000
     1.0000   1.0000   1.0000   1.0000   1.0000   1.0000   1.0000   1.0000
     1.0000   1.0000   1.0000   1.0000   1.0000   1.0000   1.0000   1.0000
     0.9999   0.9999   0.9999   0.9998   0.9993   0.9990   0.9986   0.9984
     0.9980   0.9977   0.9973   0.9968   0.9965   0.9961   0.9952   0.9950
     0.9947   0.9935   0.9923   0.9911   0.9891   0.9871   0.9867   0.9846
     0.9826   0.9785   0.9762   0.9638   0.9561   0.9513   0.9473   0.9327
     0.9224   0.9165   0.9093   0.9059   0.9011   0.8980   0.8932   0.8613
     0.8523   0.8197   0.7480   0.7399   0.7371   0.7292   0.7220   0.7151
     0.7091   0.7055   0.6996   0.6928   0.6860   0.6764   0.6724   0.6668
     0.6544   0.6484   0.6435   0.6255   0.4500   0.3958   0.3714   0.3328
     0.3192   0.2128   0.1756   0.0726   0.0393   0.0194   0.0069   0.0032
     0.0003   0.0002   0.0001   0.0001   0.0001   0.0000   0.0000   0.0000
     0.0000   0.0000   0.0000   0.0000   0.0000   0.0000   0.0000   0.0000
     0.0000   0.0000   0.0000   0.0000   0.0000   0.0000   0.0000   0.0000
     0.0000   0.0000   0.0000

          k = 0.2500-0.5000 0.0000 ( 65138 PWs)   bands (ev):

   -92.6901 -92.6390 -92.5443 -92.4976 -92.4382 -92.3965 -92.3797 -92.2611
   -56.0436 -56.0258 -55.9016 -55.8908 -55.8851 -55.8776 -55.8432 -55.8135
   -55.7985 -55.7959 -55.7888 -55.7459 -55.7281 -55.6895 -55.6709 -55.6382
   -55.6333 -55.5858 -55.5851 -55.5818 -55.5734 -55.5360 -55.5099 -55.4269
   -31.2657 -31.2498 -31.1065 -31.0985 -31.0203 -30.9034 -30.8636 -30.6527
   -29.8356 -29.7950 -29.7690 -29.6607 -14.9673 -14.9235 -14.8515 -14.7404
   -14.7053 -14.5890 -14.4927 -14.3693 -14.0621 -14.0077 -13.9834 -13.9602
   -13.9482 -13.9451 -13.9320 -13.8916 -13.8748 -13.8457 -13.8093 -13.7838
   -13.7375 -13.6551 -13.6072 -13.5458 -13.5272 -13.4600 -13.4446 -13.3362
   -13.2825 -13.1968 -13.1320 -13.1131 -13.0341 -13.0132 -12.9795 -12.9635
   -12.9331 -12.9014 -12.8780 -12.8564 -12.8071 -12.7675 -12.6934 -12.6669
   -12.6459 -12.6164 -12.5957 -12.5110 -12.3800 -12.3102 -12.2418 -12.1440
   -12.1096 -11.7645 -11.7524 -11.7413 -11.7140 -11.6830 -11.6539 -11.6136
   -11.5854 -11.5638 -11.5172 -11.4920 -11.4812  -2.4386  -2.3725  -2.2447
    -2.1679  -2.0373  -1.9533  -1.8301  -1.6807  -1.6251  -1.6044  -1.5419
    -1.5285  -1.4301  -1.3651  -1.2802  -1.2291  -1.2205  -1.1573  -1.1135
    -1.0943  -1.0763  -1.0324  -0.9956  -0.9607  -0.9210  -0.9074  -0.8640
    -0.8351  -0.7927  -0.7615  -0.6945  -0.5911  -0.5513  -0.4749  -0.4098
    -0.3577  -0.3171  -0.2980  -0.2425  -0.0838  -0.0755   0.0391   0.0683
     0.0818   0.1294   0.1549   0.2005   0.2207   0.2859   0.5602   0.6528
     0.7552   0.8193   1.0484   1.0723   1.1587   1.1873   1.3499   1.3851
     1.4261   1.4469   1.4623   1.4828   1.5468   1.5954   1.6285   1.7137
     1.7953   1.8373   1.8587   1.8718   1.9028   1.9182   1.9224   1.9685
     1.9812   1.9970   2.0475   2.0587   2.0728   2.1086   2.1643   2.2034
     2.2846   2.4172   2.4545   2.4942   2.5669   2.5876   2.6101   2.6319
     2.6537   2.6830   2.7036   2.7193   2.7421   2.8382   2.8861   2.9061
     2.9124   2.9234   2.9439   2.9581   2.9770   2.9840   3.0184   3.0304
     3.0434   3.0529   3.0631   3.0719   3.6009   3.6052   3.7533   3.8039
     4.1522   4.1936   4.2080   4.3269   4.7811   4.9334   5.0725   5.1487
     5.3158   5.4429   5.6157   5.6563   5.7782   5.7997   6.3590   6.4052
     6.4953   6.6775   7.1862   7.4369   7.5480   7.7130   7.8103   7.8348
     7.8906   8.0505   8.2490   8.3660   8.4664   8.5428   8.5545   8.5760
     8.7225   8.7676   8.7972

     occupation numbers 
     1.0000   1.0000   1.0000   1.0000   1.0000   1.0000   1.0000   1.0000
     1.0000   1.0000   1.0000   1.0000   1.0000   1.0000   1.0000   1.0000
     1.0000   1.0000   1.0000   1.0000   1.0000   1.0000   1.0000   1.0000
     1.0000   1.0000   1.0000   1.0000   1.0000   1.0000   1.0000   1.0000
     1.0000   1.0000   1.0000   1.0000   1.0000   1.0000   1.0000   1.0000
     1.0000   1.0000   1.0000   1.0000   1.0000   1.0000   1.0000   1.0000
     1.0000   1.0000   1.0000   1.0000   1.0000   1.0000   1.0000   1.0000
     1.0000   1.0000   1.0000   1.0000   1.0000   1.0000   1.0000   1.0000
     1.0000   1.0000   1.0000   1.0000   1.0000   1.0000   1.0000   1.0000
     1.0000   1.0000   1.0000   1.0000   1.0000   1.0000   1.0000   1.0000
     1.0000   1.0000   1.0000   1.0000   1.0000   1.0000   1.0000   1.0000
     1.0000   1.0000   1.0000   1.0000   1.0000   1.0000   1.0000   1.0000
     1.0000   1.0000   1.0000   1.0000   1.0000   1.0000   1.0000   1.0000
     1.0000   1.0000   1.0000   1.0000   1.0000   1.0000   1.0000   1.0000
     1.0000   1.0000   1.0000   1.0000   1.0000   1.0000   1.0000   1.0000
     1.0000   1.0000   1.0000   1.0000   1.0000   1.0000   1.0000   1.0000
     1.0000   1.0000   1.0000   1.0000   1.0000   1.0000   1.0000   1.0000
     1.0000   1.0000   1.0000   1.0000   1.0000   1.0000   1.0000   1.0000
     1.0000   1.0000   1.0000   1.0000   1.0000   1.0000   1.0000   1.0000
     1.0000   1.0000   1.0000   1.0000   1.0000   1.0000   1.0000   1.0000
     0.9999   0.9999   0.9997   0.9996   0.9994   0.9993   0.9984   0.9981
     0.9977   0.9975   0.9973   0.9971   0.9961   0.9952   0.9944   0.9920
     0.9890   0.9870   0.9859   0.9852   0.9834   0.9825   0.9822   0.9790
     0.9780   0.9767   0.9723   0.9712   0.9698   0.9660   0.9592   0.9539
     0.9410   0.9141   0.9051   0.8947   0.8737   0.8672   0.8599   0.8526
     0.8450   0.8344   0.8267   0.8207   0.8117   0.7708   0.7486   0.7391
     0.7360   0.7307   0.7205   0.7134   0.7038   0.7001   0.6822   0.6758
     0.6688   0.6637   0.6581   0.6533   0.3478   0.3454   0.2684   0.2443
     0.1132   0.1018   0.0980   0.0709   0.0160   0.0089   0.0050   0.0036
     0.0017   0.0009   0.0004   0.0003   0.0001   0.0001   0.0000   0.0000
     0.0000   0.0000   0.0000   0.0000   0.0000   0.0000   0.0000   0.0000
     0.0000   0.0000   0.0000   0.0000   0.0000   0.0000   0.0000   0.0000
     0.0000   0.0000   0.0000

          k =-0.5000-0.5000 0.0000 ( 65132 PWs)   bands (ev):

   -92.6901 -92.6390 -92.5443 -92.4976 -92.4382 -92.3965 -92.3797 -92.2611
   -56.0436 -56.0258 -55.9016 -55.8908 -55.8851 -55.8776 -55.8432 -55.8135
   -55.7985 -55.7959 -55.7888 -55.7459 -55.7281 -55.6895 -55.6709 -55.6382
   -55.6333 -55.5858 -55.5851 -55.5818 -55.5734 -55.5360 -55.5099 -55.4269
   -31.2635 -31.2520 -31.1061 -31.0983 -31.0207 -30.9036 -30.8634 -30.6529
   -29.8346 -29.7960 -29.7686 -29.6611 -14.9202 -14.8962 -14.7796 -14.7646
   -14.6675 -14.6354 -14.5997 -14.4675 -13.9725 -13.9631 -13.9479 -13.9273
   -13.9091 -13.8899 -13.8700 -13.8499 -13.8363 -13.8179 -13.8171 -13.8006
   -13.7216 -13.7161 -13.6810 -13.6521 -13.6341 -13.5482 -13.5159 -13.3766
   -13.3206 -13.1479 -13.1103 -13.0389 -13.0153 -12.9969 -12.9784 -12.9737
   -12.9641 -12.9453 -12.8456 -12.8210 -12.7944 -12.7796 -12.7420 -12.7048
   -12.6127 -12.5926 -12.5843 -12.5275 -12.3465 -12.3065 -12.1947 -12.1336
   -12.1317 -11.7608 -11.7486 -11.7309 -11.7139 -11.6792 -11.6619 -11.6259
   -11.5653 -11.5459 -11.5399 -11.4899 -11.4870  -2.2137  -2.1395  -2.1298
    -2.0548  -2.0182  -1.9401  -1.8722  -1.7461  -1.6308  -1.6013  -1.5601
    -1.5041  -1.4327  -1.4167  -1.3478  -1.3040  -1.1872  -1.1576  -1.1093
    -1.0902  -1.0816  -1.0171  -0.9703  -0.9525  -0.9402  -0.8846  -0.8421
    -0.8255  -0.7130  -0.6561  -0.6085  -0.5605  -0.5303  -0.5173  -0.4848
    -0.4424  -0.4055  -0.3965  -0.3099  -0.2463  -0.1994  -0.1736  -0.1005
    -0.0428  -0.0316   0.0272   0.0623   0.0676   0.1014   0.5331   0.5699
     0.6852   0.7629   1.0789   1.0962   1.1252   1.1634   1.4365   1.4564
     1.4620   1.5024   1.6285   1.7223   1.7498   1.7856   1.8075   1.8346
     1.8414   1.8701   1.8794   1.8952   1.9070   1.9600   1.9640   1.9938
     2.0068   2.0315   2.0420   2.0800   2.1057   2.1222   2.1529   2.1933
     2.2427   2.3099   2.4478   2.4923   2.5811   2.6110   2.6320   2.6485
     2.6659   2.6901   2.6941   2.7133   2.7243   2.7408   2.7613   2.7731
     2.8389   2.8411   2.8645   2.8772   2.8896   2.9098   2.9137   2.9234
     3.0275   3.0312   3.0594   3.0699   4.0413   4.0552   4.0700   4.0816
     4.3319   4.4075   4.4292   4.6700   4.7922   4.8749   5.0040   5.0902
     5.1112   5.2182   5.3097   5.4353   5.8628   5.8938   5.9683   6.0363
     6.6138   6.7608   7.0391   7.1042   7.9203   7.9271   7.9335   7.9606
     7.9879   8.0325   8.1025   8.2722   8.4309   8.5914   8.6104   8.6280
     8.6711   8.7539   8.7587

     occupation numbers 
     1.0000   1.0000   1.0000   1.0000   1.0000   1.0000   1.0000   1.0000
     1.0000   1.0000   1.0000   1.0000   1.0000   1.0000   1.0000   1.0000
     1.0000   1.0000   1.0000   1.0000   1.0000   1.0000   1.0000   1.0000
     1.0000   1.0000   1.0000   1.0000   1.0000   1.0000   1.0000   1.0000
     1.0000   1.0000   1.0000   1.0000   1.0000   1.0000   1.0000   1.0000
     1.0000   1.0000   1.0000   1.0000   1.0000   1.0000   1.0000   1.0000
     1.0000   1.0000   1.0000   1.0000   1.0000   1.0000   1.0000   1.0000
     1.0000   1.0000   1.0000   1.0000   1.0000   1.0000   1.0000   1.0000
     1.0000   1.0000   1.0000   1.0000   1.0000   1.0000   1.0000   1.0000
     1.0000   1.0000   1.0000   1.0000   1.0000   1.0000   1.0000   1.0000
     1.0000   1.0000   1.0000   1.0000   1.0000   1.0000   1.0000   1.0000
     1.0000   1.0000   1.0000   1.0000   1.0000   1.0000   1.0000   1.0000
     1.0000   1.0000   1.0000   1.0000   1.0000   1.0000   1.0000   1.0000
     1.0000   1.0000   1.0000   1.0000   1.0000   1.0000   1.0000   1.0000
     1.0000   1.0000   1.0000   1.0000   1.0000   1.0000   1.0000   1.0000
     1.0000   1.0000   1.0000   1.0000   1.0000   1.0000   1.0000   1.0000
     1.0000   1.0000   1.0000   1.0000   1.0000   1.0000   1.0000   1.0000
     1.0000   1.0000   1.0000   1.0000   1.0000   1.0000   1.0000   1.0000
     1.0000   1.0000   1.0000   1.0000   1.0000   1.0000   1.0000   1.0000
     1.0000   1.0000   1.0000   1.0000   1.0000   1.0000   1.0000   1.0000
     1.0000   0.9999   0.9996   0.9996   0.9995   0.9994   0.9976   0.9974
     0.9973   0.9968   0.9944   0.9918   0.9908   0.9894   0.9884   0.9872
     0.9868   0.9853   0.9848   0.9839   0.9832   0.9796   0.9793   0.9770
     0.9759   0.9738   0.9728   0.9691   0.9663   0.9644   0.9607   0.9553
     0.9480   0.9365   0.9068   0.8953   0.8693   0.8596   0.8526   0.8468
     0.8407   0.8318   0.8303   0.8230   0.8187   0.8122   0.8039   0.7990
     0.7704   0.7694   0.7588   0.7528   0.7470   0.7373   0.7354   0.7307
     0.6773   0.6754   0.6601   0.6544   0.1480   0.1433   0.1384   0.1346
     0.0699   0.0560   0.0525   0.0239   0.0154   0.0112   0.0067   0.0046
     0.0042   0.0026   0.0017   0.0009   0.0001   0.0001   0.0000   0.0000
     0.0000   0.0000   0.0000   0.0000   0.0000   0.0000   0.0000   0.0000
     0.0000   0.0000   0.0000   0.0000   0.0000   0.0000   0.0000   0.0000
     0.0000   0.0000   0.0000

          k = 0.2500 0.0000 0.0000 ( 65257 PWs)   bands (ev):

   -92.6901 -92.6390 -92.5443 -92.4976 -92.4382 -92.3965 -92.3797 -92.2611
   -56.0436 -56.0258 -55.9016 -55.8908 -55.8851 -55.8776 -55.8432 -55.8135
   -55.7985 -55.7959 -55.7888 -55.7459 -55.7281 -55.6895 -55.6709 -55.6382
   -55.6333 -55.5858 -55.5852 -55.5818 -55.5734 -55.5360 -55.5099 -55.4269
   -31.2661 -31.2501 -31.1061 -31.0987 -31.0200 -30.9037 -30.8633 -30.6524
   -29.8369 -29.7956 -29.7677 -29.6600 -15.0379 -14.9942 -14.9259 -14.7790
   -14.6712 -14.4775 -14.3443 -14.1649 -14.1480 -14.1175 -14.0860 -14.0617
   -14.0274 -14.0117 -13.9924 -13.9544 -13.9365 -13.8285 -13.7976 -13.6488
   -13.5787 -13.5680 -13.5037 -13.4814 -13.4690 -13.4102 -13.3351 -13.3027
   -13.2135 -13.1492 -13.1357 -13.0710 -13.0502 -13.0325 -13.0146 -12.9963
   -12.9610 -12.9262 -12.9000 -12.8355 -12.8191 -12.8094 -12.7726 -12.7592
   -12.6873 -12.6601 -12.5948 -12.5353 -12.4630 -12.3956 -12.2386 -12.0575
   -11.9881 -11.8158 -11.7638 -11.7469 -11.7333 -11.7066 -11.6558 -11.6329
   -11.6245 -11.5738 -11.4842 -11.4289 -11.4230  -2.7945  -2.5731  -2.4430
    -2.2704  -2.2065  -2.0372  -1.8285  -1.7526  -1.7085  -1.6724  -1.5726
    -1.5585  -1.5229  -1.5032  -1.4351  -1.2550  -1.1457  -1.1112  -1.0868
    -1.0092  -0.9964  -0.9186  -0.8917  -0.8408  -0.8002  -0.7471  -0.7180
    -0.6693  -0.6431  -0.6245  -0.5690  -0.5535  -0.4642  -0.4544  -0.3877
    -0.2885  -0.2345  -0.1227  -0.1060  -0.0386  -0.0022   0.0557   0.0788
     0.1175   0.1961   0.2435   0.5088   0.6404   0.6800   0.7584   0.7878
     0.8325   0.8618   0.9186   1.0344   1.0772   1.1027   1.1400   1.2945
     1.3211   1.3570   1.3636   1.4016   1.4496   1.4925   1.5260   1.5789
     1.6278   1.6430   1.7010   1.7413   1.7828   1.8052   1.8942   1.8966
     1.9262   1.9711   1.9956   2.1074   2.1725   2.2339   2.3154   2.3459
     2.4030   2.4503   2.4636   2.4891   2.5018   2.5503   2.5584   2.5888
     2.6349   2.7605   2.8692   2.8920   2.9237   2.9488   2.9549   2.9777
     2.9865   3.0008   3.0216   3.0277   3.0544   3.0656   3.0720   3.0841
     3.1036   3.1295   3.1328   3.1404   3.1480   3.1577   3.1676   3.2914
     3.5985   3.6419   3.8924   4.2913   4.4698   4.6973   5.0300   5.0784
     5.6450   5.8282   5.9366   6.0196   6.0803   6.1053   6.1952   6.5914
[...]
     0.3491   0.3256   0.2050   0.0783   0.0463   0.0217   0.0060   0.0049
     0.0003   0.0001   0.0001   0.0000   0.0000   0.0000   0.0000   0.0000
     0.0000   0.0000   0.0000   0.0000   0.0000   0.0000   0.0000   0.0000
     0.0000   0.0000   0.0000   0.0000   0.0000   0.0000   0.0000   0.0000
     0.0000   0.0000   0.0000

          k =-0.5000 0.0000 0.0000 ( 65180 PWs)   bands (ev):

   -92.6901 -92.6390 -92.5443 -92.4976 -92.4382 -92.3965 -92.3797 -92.2611
   -56.0436 -56.0258 -55.9016 -55.8908 -55.8851 -55.8776 -55.8432 -55.8135
   -55.7985 -55.7959 -55.7888 -55.7459 -55.7281 -55.6895 -55.6709 -55.6382
   -55.6333 -55.5858 -55.5851 -55.5818 -55.5734 -55.5360 -55.5099 -55.4269
   -31.2639 -31.2523 -31.1057 -31.0986 -31.0204 -30.9038 -30.8632 -30.6526
   -29.8358 -29.7967 -29.7673 -29.6605 -15.0041 -14.9508 -14.8896 -14.7790
   -14.6778 -14.5327 -14.3883 -14.2418 -14.1217 -14.1076 -14.0977 -14.0385
   -13.9817 -13.9500 -13.9468 -13.8984 -13.8899 -13.8721 -13.8266 -13.8028
   -13.6989 -13.5444 -13.5109 -13.4840 -13.4762 -13.4162 -13.3539 -13.2884
   -13.2576 -13.2341 -13.2035 -13.0606 -13.0440 -13.0287 -13.0047 -12.9920
   -12.9522 -12.9302 -12.9123 -12.8323 -12.8147 -12.7652 -12.6642 -12.6450
   -12.6300 -12.6213 -12.5952 -12.5306 -12.4113 -12.3166 -12.2755 -12.1496
   -12.1064 -11.7679 -11.7462 -11.7396 -11.7251 -11.7071 -11.6659 -11.6024
   -11.5848 -11.5519 -11.5070 -11.4980 -11.4824  -2.5704  -2.5319  -2.3684
    -2.3293  -2.0156  -1.9399  -1.7929  -1.6750  -1.6361  -1.5886  -1.5423
    -1.5176  -1.3943  -1.3505  -1.3338  -1.2518  -1.2169  -1.2026  -1.1699
    -1.1116  -1.0891  -1.0423  -1.0148  -0.9833  -0.8900  -0.8433  -0.7939
    -0.7620  -0.7406  -0.7089  -0.6623  -0.6369  -0.5990  -0.4982  -0.4247
    -0.3593  -0.2977  -0.1392  -0.0846  -0.0457  -0.0064   0.0466   0.0679
     0.2086   0.2398   0.3096   0.4505   0.5497   0.5978   0.7051   0.7513
     0.8756   0.9048   1.0146   1.0422   1.0972   1.1360   1.1658   1.1734
     1.2209   1.2444   1.3102   1.3612   1.4092   1.4169   1.7149   1.7256
     1.7393   1.7623   1.8660   1.8806   1.8951   1.9047   1.9388   1.9501
     1.9883   2.0122   2.0347   2.0885   2.1047   2.1576   2.1814   2.2340
     2.3686   2.4373   2.4495   2.4965   2.5128   2.5267   2.6179   2.6373
     2.6700   2.7359   2.7443   2.7509   2.7809   2.8489   2.8922   2.9420
     2.9651   3.0119   3.0153   3.0182   3.0279   3.0450   3.0554   3.0683
     3.0741   3.0942   3.1001   3.1197   3.1400   3.1447   3.2732   3.2809
     4.1100   4.1353   4.1962   4.3313   4.8015   4.8721   5.0557   5.0670
     5.4929   5.5209   5.6108   5.6637   6.0436   6.0533   6.3463   6.4258
     6.8054   7.0086   7.2696   7.2989   7.3466   7.4347   7.7859   7.8097
     7.8943   7.9947   8.1576   8.3014   8.3438   8.4866   8.5309   8.6439
     8.7724   8.8340   8.9295

     occupation numbers 
     1.0000   1.0000   1.0000   1.0000   1.0000   1.0000   1.0000   1.0000
     1.0000   1.0000   1.0000   1.0000   1.0000   1.0000   1.0000   1.0000
     1.0000   1.0000   1.0000   1.0000   1.0000   1.0000   1.0000   1.0000
     1.0000   1.0000   1.0000   1.0000   1.0000   1.0000   1.0000   1.0000
     1.0000   1.0000   1.0000   1.0000   1.0000   1.0000   1.0000   1.0000
     1.0000   1.0000   1.0000   1.0000   1.0000   1.0000   1.0000   1.0000
     1.0000   1.0000   1.0000   1.0000   1.0000   1.0000   1.0000   1.0000
     1.0000   1.0000   1.0000   1.0000   1.0000   1.0000   1.0000   1.0000
     1.0000   1.0000   1.0000   1.0000   1.0000   1.0000   1.0000   1.0000
     1.0000   1.0000   1.0000   1.0000   1.0000   1.0000   1.0000   1.0000
     1.0000   1.0000   1.0000   1.0000   1.0000   1.0000   1.0000   1.0000
     1.0000   1.0000   1.0000   1.0000   1.0000   1.0000   1.0000   1.0000
     1.0000   1.0000   1.0000   1.0000   1.0000   1.0000   1.0000   1.0000
     1.0000   1.0000   1.0000   1.0000   1.0000   1.0000   1.0000   1.0000
     1.0000   1.0000   1.0000   1.0000   1.0000   1.0000   1.0000   1.0000
     1.0000   1.0000   1.0000   1.0000   1.0000   1.0000   1.0000   1.0000
     1.0000   1.0000   1.0000   1.0000   1.0000   1.0000   1.0000   1.0000
     1.0000   1.0000   1.0000   1.0000   1.0000   1.0000   1.0000   1.0000
     1.0000   1.0000   1.0000   1.0000   1.0000   1.0000   1.0000   1.0000
     1.0000   1.0000   1.0000   1.0000   1.0000   1.0000   1.0000   0.9999
     0.9999   0.9998   0.9997   0.9997   0.9996   0.9995   0.9994   0.9993
     0.9992   0.9991   0.9987   0.9983   0.9979   0.9978   0.9920   0.9917
     0.9912   0.9903   0.9856   0.9847   0.9839   0.9833   0.9811   0.9803
     0.9774   0.9755   0.9735   0.9682   0.9664   0.9601   0.9570   0.9493
     0.9249   0.9093   0.9063   0.8941   0.8896   0.8857   0.8573   0.8508
     0.8392   0.8141   0.8108   0.8081   0.7957   0.7659   0.7457   0.7215
     0.7098   0.6856   0.6838   0.6823   0.6771   0.6679   0.6623   0.6553
     0.6521   0.6410   0.6377   0.6268   0.6153   0.6126   0.5380   0.5334
     0.1257   0.1181   0.1011   0.0700   0.0149   0.0113   0.0054   0.0051
     0.0007   0.0006   0.0004   0.0003   0.0000   0.0000   0.0000   0.0000
     0.0000   0.0000   0.0000   0.0000   0.0000   0.0000   0.0000   0.0000
     0.0000   0.0000   0.0000   0.0000   0.0000   0.0000   0.0000   0.0000
     0.0000   0.0000   0.0000

          k =-0.2500 0.2500 0.0000 ( 65198 PWs)   bands (ev):

   -92.6901 -92.6390 -92.5443 -92.4976 -92.4382 -92.3965 -92.3797 -92.2611
   -56.0436 -56.0258 -55.9016 -55.8908 -55.8851 -55.8776 -55.8432 -55.8135
   -55.7985 -55.7959 -55.7888 -55.7459 -55.7281 -55.6895 -55.6709 -55.6382
   -55.6333 -55.5858 -55.5851 -55.5818 -55.5734 -55.5360 -55.5099 -55.4269
   -31.2659 -31.2499 -31.1063 -31.0986 -31.0201 -30.9036 -30.8634 -30.6526
   -29.8363 -29.7953 -29.7683 -29.6604 -15.0067 -14.9628 -14.8911 -14.7741
   -14.6609 -14.5353 -14.4506 -14.2428 -14.1043 -14.0758 -14.0613 -14.0140
   -13.9899 -13.9677 -13.9522 -13.9464 -13.9055 -13.8236 -13.8131 -13.6619
   -13.6344 -13.6048 -13.5849 -13.5318 -13.4862 -13.4277 -13.4238 -13.2924
   -13.2284 -13.2104 -13.1367 -13.0946 -13.0352 -13.0253 -12.9931 -12.9736
   -12.9357 -12.9165 -12.8832 -12.8487 -12.8135 -12.7665 -12.7580 -12.7382
   -12.6821 -12.6251 -12.5940 -12.4503 -12.4317 -12.3834 -12.2724 -12.0927
   -12.0297 -11.7880 -11.7665 -11.7392 -11.7271 -11.6863 -11.6512 -11.6286
   -11.6066 -11.5843 -11.4990 -11.4542 -11.4446  -2.6551  -2.4472  -2.3260
    -2.2375  -2.1194  -2.0533  -1.8497  -1.7049  -1.6866  -1.6564  -1.5657
    -1.5284  -1.4362  -1.4021  -1.3760  -1.2350  -1.1778  -1.1116  -1.0926
    -1.0750  -1.0203  -0.9995  -0.9592  -0.9309  -0.8906  -0.8275  -0.7795
    -0.7160  -0.6474  -0.6226  -0.5714  -0.5428  -0.4965  -0.4396  -0.3915
    -0.3528  -0.2520  -0.2201  -0.2081  -0.1644  -0.0994  -0.0300   0.0168
     0.0502   0.1236   0.1807   0.4022   0.5720   0.6104   0.6499   0.7103
     0.7853   0.8459   0.8877   0.9145   1.1967   1.3022   1.3426   1.3758
     1.3829   1.4246   1.4399   1.4852   1.5156   1.5303   1.5554   1.6004
     1.6162   1.6603   1.6812   1.7251   1.8058   1.8265   1.8461   1.8906
     1.9116   1.9533   2.0111   2.1148   2.2166   2.2461   2.2967   2.3239
     2.3796   2.4180   2.4381   2.4532   2.4705   2.4936   2.4990   2.6057
     2.6310   2.7216   2.8941   2.9022   2.9159   2.9256   2.9368   2.9505
     2.9570   2.9756   2.9846   2.9983   3.0083   3.0202   3.0301   3.0396
     3.0714   3.0810   3.0893   3.1238   3.4155   3.4973   3.5609   3.6378
     3.6567   3.8594   3.9740   4.3180   4.5195   4.7299   5.0054   5.1744
     5.6576   5.7112   5.7878   5.8438   5.9067   6.0920   6.1770   6.2091
     6.8963   6.9685   7.0807   7.2758   7.5745   7.6224   7.6831   7.8555
     7.9155   7.9797   8.1794   8.2111   8.3308   8.3496   8.4568   8.4823
     8.5742   8.7654   8.9252

     occupation numbers 
     1.0000   1.0000   1.0000   1.0000   1.0000   1.0000   1.0000   1.0000
     1.0000   1.0000   1.0000   1.0000   1.0000   1.0000   1.0000   1.0000
     1.0000   1.0000   1.0000   1.0000   1.0000   1.0000   1.0000   1.0000
     1.0000   1.0000   1.0000   1.0000   1.0000   1.0000   1.0000   1.0000
     1.0000   1.0000   1.0000   1.0000   1.0000   1.0000   1.0000   1.0000
     1.0000   1.0000   1.0000   1.0000   1.0000   1.0000   1.0000   1.0000
     1.0000   1.0000   1.0000   1.0000   1.0000   1.0000   1.0000   1.0000
     1.0000   1.0000   1.0000   1.0000   1.0000   1.0000   1.0000   1.0000
     1.0000   1.0000   1.0000   1.0000   1.0000   1.0000   1.0000   1.0000
     1.0000   1.0000   1.0000   1.0000   1.0000   1.0000   1.0000   1.0000
     1.0000   1.0000   1.0000   1.0000   1.0000   1.0000   1.0000   1.0000
     1.0000   1.0000   1.0000   1.0000   1.0000   1.0000   1.0000   1.0000
     1.0000   1.0000   1.0000   1.0000   1.0000   1.0000   1.0000   1.0000
     1.0000   1.0000   1.0000   1.0000   1.0000   1.0000   1.0000   1.0000
     1.0000   1.0000   1.0000   1.0000   1.0000   1.0000   1.0000   1.0000
     1.0000   1.0000   1.0000   1.0000   1.0000   1.0000   1.0000   1.0000
     1.0000   1.0000   1.0000   1.0000   1.0000   1.0000   1.0000   1.0000
     1.0000   1.0000   1.0000   1.0000   1.0000   1.0000   1.0000   1.0000
     1.0000   1.0000   1.0000   1.0000   1.0000   1.0000   1.0000   1.0000
     1.0000   1.0000   1.0000   1.0000   1.0000   1.0000   1.0000   1.0000
     0.9999   0.9999   0.9999   0.9998   0.9993   0.9987   0.9985   0.9982
     0.9981   0.9977   0.9976   0.9970   0.9966   0.9964   0.9959   0.9951
     0.9947   0.9936   0.9930   0.9917   0.9885   0.9876   0.9866   0.9842
     0.9829   0.9801   0.9755   0.9653   0.9520   0.9474   0.9389   0.9338
     0.9225   0.9139   0.9091   0.9054   0.9010   0.8949   0.8934   0.8614
     0.8529   0.8198   0.7448   0.7410   0.7343   0.7296   0.7240   0.7172
     0.7139   0.7045   0.6998   0.6927   0.6875   0.6812   0.6760   0.6709
     0.6536   0.6483   0.6437   0.6245   0.4539   0.4062   0.3700   0.3278
     0.3177   0.2192   0.1723   0.0727   0.0396   0.0193   0.0066   0.0032
     0.0003   0.0002   0.0001   0.0001   0.0001   0.0000   0.0000   0.0000
     0.0000   0.0000   0.0000   0.0000   0.0000   0.0000   0.0000   0.0000
     0.0000   0.0000   0.0000   0.0000   0.0000   0.0000   0.0000   0.0000
     0.0000   0.0000   0.0000

          k =-0.5000 0.2500 0.0000 ( 65138 PWs)   bands (ev):

   -92.6901 -92.6390 -92.5443 -92.4976 -92.4382 -92.3965 -92.3797 -92.2611
   -56.0436 -56.0258 -55.9016 -55.8908 -55.8851 -55.8776 -55.8432 -55.8135
   -55.7985 -55.7959 -55.7888 -55.7459 -55.7281 -55.6895 -55.6709 -55.6382
   -55.6333 -55.5858 -55.5851 -55.5818 -55.5734 -55.5360 -55.5099 -55.4269
   -31.2637 -31.2521 -31.1059 -31.0984 -31.0205 -30.9037 -30.8633 -30.6527
   -29.8352 -29.7963 -29.7680 -29.6608 -14.9710 -14.9246 -14.8467 -14.7465
   -14.7051 -14.5800 -14.4919 -14.3605 -14.0545 -14.0244 -14.0128 -13.9681
   -13.9481 -13.9457 -13.9207 -13.8846 -13.8752 -13.8514 -13.8134 -13.8016
   -13.6922 -13.6268 -13.5775 -13.5720 -13.5568 -13.4676 -13.4579 -13.3293
   -13.2678 -13.1902 -13.1544 -13.0599 -13.0262 -13.0120 -13.0047 -12.9708
   -12.9381 -12.9283 -12.8977 -12.8359 -12.8019 -12.7672 -12.7025 -12.6764
   -12.6143 -12.6071 -12.5940 -12.5288 -12.3766 -12.3119 -12.2369 -12.1430
   -12.1146 -11.7606 -11.7479 -11.7339 -11.7218 -11.7007 -11.6707 -11.5894
   -11.5807 -11.5578 -11.5213 -11.4938 -11.4848  -2.4280  -2.3861  -2.2380
    -2.1959  -2.0349  -1.9584  -1.8170  -1.6810  -1.6241  -1.5966  -1.5586
    -1.5201  -1.4395  -1.3240  -1.2669  -1.2438  -1.2178  -1.1421  -1.1137
    -1.0883  -1.0740  -1.0562  -0.9961  -0.9659  -0.9285  -0.8931  -0.8644
    -0.8060  -0.7790  -0.7375  -0.7024  -0.5976  -0.5724  -0.4796  -0.4195
    -0.3884  -0.3298  -0.2464  -0.2153  -0.1123  -0.0793  -0.0137   0.0305
     0.0621   0.1308   0.1666   0.2100   0.2448   0.2819   0.5993   0.6491
     0.7313   0.7943   1.0257   1.0955   1.1603   1.1879   1.3644   1.3991
     1.4367   1.4478   1.4663   1.4840   1.5524   1.5981   1.6363   1.6690
     1.7825   1.8230   1.8573   1.8758   1.9061   1.9286   1.9464   1.9640
     1.9805   2.0026   2.0498   2.0629   2.1016   2.1259   2.1567   2.2167
     2.3480   2.4289   2.4461   2.4620   2.4948   2.5267   2.5643   2.6346
     2.6647   2.6712   2.7104   2.7412   2.7649   2.8489   2.8902   2.9034
     2.9087   2.9299   2.9521   2.9646   2.9791   2.9920   3.0138   3.0284
     3.0364   3.0446   3.0566   3.0697   3.6002   3.6331   3.7875   3.8060
     4.1116   4.1560   4.2085   4.4157   4.7960   4.8902   5.0581   5.0900
     5.4195   5.4431   5.5983   5.6351   5.7565   5.8089   6.4008   6.4443
     6.4971   6.5479   7.2800   7.3781   7.5801   7.7244   7.7933   7.8251
     7.9026   8.0360   8.2394   8.4171   8.5035   8.5241   8.5755   8.6003
     8.6683   8.7623   8.7844

     occupation numbers 
     1.0000   1.0000   1.0000   1.0000   1.0000   1.0000   1.0000   1.0000
     1.0000   1.0000   1.0000   1.0000   1.0000   1.0000   1.0000   1.0000
     1.0000   1.0000   1.0000   1.0000   1.0000   1.0000   1.0000   1.0000
     1.0000   1.0000   1.0000   1.0000   1.0000   1.0000   1.0000   1.0000
     1.0000   1.0000   1.0000   1.0000   1.0000   1.0000   1.0000   1.0000
     1.0000   1.0000   1.0000   1.0000   1.0000   1.0000   1.0000   1.0000
     1.0000   1.0000   1.0000   1.0000   1.0000   1.0000   1.0000   1.0000
     1.0000   1.0000   1.0000   1.0000   1.0000   1.0000   1.0000   1.0000
     1.0000   1.0000   1.0000   1.0000   1.0000   1.0000   1.0000   1.0000
     1.0000   1.0000   1.0000   1.0000   1.0000   1.0000   1.0000   1.0000
     1.0000   1.0000   1.0000   1.0000   1.0000   1.0000   1.0000   1.0000
     1.0000   1.0000   1.0000   1.0000   1.0000   1.0000   1.0000   1.0000
     1.0000   1.0000   1.0000   1.0000   1.0000   1.0000   1.0000   1.0000
     1.0000   1.0000   1.0000   1.0000   1.0000   1.0000   1.0000   1.0000
     1.0000   1.0000   1.0000   1.0000   1.0000   1.0000   1.0000   1.0000
     1.0000   1.0000   1.0000   1.0000   1.0000   1.0000   1.0000   1.0000
     1.0000   1.0000   1.0000   1.0000   1.0000   1.0000   1.0000   1.0000
     1.0000   1.0000   1.0000   1.0000   1.0000   1.0000   1.0000   1.0000
     1.0000   1.0000   1.0000   1.0000   1.0000   1.0000   1.0000   1.0000
     1.0000   1.0000   1.0000   1.0000   1.0000   1.0000   1.0000   1.0000
     0.9999   0.9999   0.9997   0.9996   0.9994   0.9993   0.9983   0.9980
     0.9976   0.9975   0.9973   0.9970   0.9960   0.9951   0.9942   0.9934
     0.9895   0.9877   0.9860   0.9850   0.9832   0.9818   0.9806   0.9793
     0.9780   0.9763   0.9721   0.9708   0.9668   0.9640   0.9602   0.9520
     0.9291   0.9113   0.9072   0.9032   0.8946   0.8857   0.8745   0.8517
     0.8411   0.8388   0.8241   0.8120   0.8024   0.7659   0.7467   0.7404
     0.7378   0.7275   0.7164   0.7101   0.7027   0.6960   0.6846   0.6768
     0.6725   0.6682   0.6617   0.6545   0.3482   0.3303   0.2520   0.2433
     0.1252   0.1121   0.0979   0.0547   0.0152   0.0106   0.0053   0.0046
     0.0010   0.0009   0.0004   0.0003   0.0002   0.0001   0.0000   0.0000
     0.0000   0.0000   0.0000   0.0000   0.0000   0.0000   0.0000   0.0000
     0.0000   0.0000   0.0000   0.0000   0.0000   0.0000   0.0000   0.0000
     0.0000   0.0000   0.0000

     the Fermi energy is     3.3374 ev

!    total energy              =   -4441.65621522 Ry
     estimated scf accuracy    <          9.9E-09 Ry
     smearing contrib. (-TS)   =      -1.15490749 Ry
     internal energy E=F+TS    =   -4440.50130773 Ry

     The total energy is F=E-TS. E is the sum of the following terms:
     one-electron contribution =  -20804.13182452 Ry
     hartree contribution      =   10534.19625773 Ry
     xc contribution           =    -694.18059643 Ry
     ewald contribution        =    6799.78548177 Ry
     one-center paw contrib.   =    -276.17062626 Ry
      -> PAW hartree energy AE =      25.17509311 Ry
      -> PAW hartree energy PS =     -25.05886488 Ry
      -> PAW xc energy AE      =     -16.51922317 Ry
      -> PAW xc energy PS      =       6.87877033 Ry
      -> total E_H with PAW    =   10534.31248595 Ry
      -> total E_XC with PAW   =    -703.82104927 Ry

     convergence has been achieved in  45 iterations

     Writing all to output data dir /bsuhome/zayahcortright/scratch/pwscf.save/
 
     init_run     :      8.68s CPU      9.56s WALL (       1 calls)
     electrons    :    748.15s CPU    823.42s WALL (       1 calls)

     Called by init_run:
     wfcinit      :      6.58s CPU      6.78s WALL (       1 calls)
     wfcinit:atom :      0.04s CPU      0.06s WALL (       5 calls)
     wfcinit:wfcr :      6.28s CPU      6.40s WALL (       5 calls)
     potinit      :      0.18s CPU      0.21s WALL (       1 calls)
     hinit0       :      0.35s CPU      0.76s WALL (       1 calls)

     Called by electrons:
     c_bands      :    601.67s CPU    613.38s WALL (      45 calls)
     sum_band     :    110.13s CPU    145.47s WALL (      45 calls)
     v_of_rho     :      5.02s CPU      5.31s WALL (      46 calls)
     v_h          :      0.42s CPU      0.43s WALL (      46 calls)
     v_xc         :      4.60s CPU      4.88s WALL (      46 calls)
     newd         :     17.72s CPU     45.27s WALL (      46 calls)
     PAW_pot      :      1.47s CPU      1.51s WALL (      46 calls)
     mix_rho      :     11.79s CPU     12.19s WALL (      45 calls)

     Called by c_bands:
     init_us_2    :      5.86s CPU      5.92s WALL (     455 calls)
     init_us_2:cp :      5.85s CPU      5.92s WALL (     455 calls)
     cegterg      :    569.82s CPU    581.22s WALL (     225 calls)

     Called by sum_band:
     sum_band:wei :      0.32s CPU      0.33s WALL (      45 calls)
     sum_band:loo :     90.15s CPU     90.84s WALL (      45 calls)
     sum_band:buf :      1.23s CPU      1.31s WALL (     225 calls)
     sum_band:ini :      2.66s CPU      2.67s WALL (     225 calls)
     sum_band:cal :     17.77s CPU     17.82s WALL (     225 calls)
     sum_band:bec :      0.51s CPU      0.53s WALL (     225 calls)
     addusdens    :     17.41s CPU     51.99s WALL (      45 calls)
                                        0.00s GPU  (      45 calls)
     addusd:skk   :      0.28s CPU      1.90s WALL (     180 calls)
                                        0.00s GPU  (     180 calls)

     Called by *egterg:
     cdiaghg      :     58.34s CPU     58.63s WALL (    1338 calls)
     cegterg:over :     46.05s CPU     46.25s WALL (    1113 calls)
     cegterg:upda :     49.82s CPU     50.95s WALL (    1113 calls)
     cegterg:last :     67.31s CPU     67.57s WALL (     412 calls)
     cdiaghg:chol :      3.33s CPU      3.36s WALL (    1338 calls)
     cdiaghg:inve :      3.48s CPU      3.49s WALL (    1338 calls)
     cdiaghg:para :      7.25s CPU      7.30s WALL (    2676 calls)
     h_psi        :    287.57s CPU    292.10s WALL (    1343 calls)
     s_psi        :     36.61s CPU     36.73s WALL (    1343 calls)
     g_psi        :      2.45s CPU      2.46s WALL (    1113 calls)

     Called by h_psi:
     h_psi:calbec :     42.78s CPU     43.01s WALL (    1343 calls)
     vloc_psi     :    203.23s CPU    205.30s WALL (    1343 calls)
     add_vuspsi   :     36.36s CPU     36.56s WALL (    1343 calls)

     General routines
     calbec       :     60.54s CPU     60.83s WALL (    1568 calls)
     fft          :      4.27s CPU      4.32s WALL (     596 calls)
     ffts         :      4.28s CPU      4.33s WALL (    4777 calls)
     fftw         :    182.97s CPU    184.61s WALL (  306771 calls)
     interpolate  :      0.40s CPU      0.41s WALL (      46 calls)
 
     Parallel routines

     PAW routines
     PAW_pot      :      1.47s CPU      1.51s WALL (      46 calls)
 
     PWSCF        :  12m38.95s CPU  13m58.41s WALL

 
   This run was terminated on:   4:16:57  22Jun2024            

=------------------------------------------------------------------------------=
   JOB DONE.
=------------------------------------------------------------------------------=
