
     Program PWSCF v.7.2 starts on 21Jun2024 at 17:13:10 

     This program is part of the open-source Quantum ESPRESSO suite
     for quantum simulation of materials; please cite
         "P. Giannozzi et al., J. Phys.:Condens. Matter 21 395502 (2009);
         "P. Giannozzi et al., J. Phys.:Condens. Matter 29 465901 (2017);
         "P. Giannozzi et al., J. Chem. Phys. 152 154105 (2020);
          URL http://www.quantum-espresso.org", 
     in publications or presentations arising from this work. More details at
     http://www.quantum-espresso.org/quote

     Parallel version (MPI & OpenMP), running on      48 processor cores
     Number of MPI processes:                48
     Threads/MPI process:                     1

     MPI processes distributed on     1 nodes
     180139 MiB available memory on the printing compute node when the environment starts
 
     Reading input from espresso.pwi
Warning: card &CELL ignored
Warning: card / ignored
Warning: card &FCP ignored
Warning: card / ignored
Warning: card &RISM ignored
Warning: card / ignored

     Current dimensions of program PWSCF are:
     Max number of different atomic species (ntypx) = 10
     Max number of k-points (npk) =  40000
     Max angular momentum in pseudopotentials (lmaxx) =  4
     file O.pbe-n-kjpaw_psl.0.1.UPF: wavefunction(s)  2P renormalized
     signal trapping enabled: kill the code with -SIGUSR1 to stop cleanly the simulation 
 
     K-points division:     npool     =       2
     R & G space division:  proc/nbgrp/npool/nimage =      24
     Subspace diagonalization in iterative solution of the eigenvalue problem:
     one sub-group per band group will be used
     scalapack distributed-memory algorithm (size of sub-group:  3*  3 procs)

 
     Parallelization info
     --------------------
     sticks:   dense  smooth     PW     G-vecs:    dense   smooth      PW
     Min         350     175     47                61430    21716    3036
     Max         351     177     48                61449    21727    3041
     Sum        8421    4205   1137              1474595   521381   72913
 
     Using Slab Decomposition
 


     bravais-lattice index     =            0
     lattice parameter (alat)  =      14.8599  a.u.
     unit-cell volume          =    8305.1283 (a.u.)^3
     number of atoms/cell      =           49
     number of atomic types    =            4
     number of electrons       =       425.00
     number of Kohn-Sham states=          256
     kinetic-energy cutoff     =      60.0000  Ry
     charge density cutoff     =     480.0000  Ry
     scf convergence threshold =      1.0E-08
     mixing beta               =       0.1500
     number of iterations used =            8  local-TF  mixing
     Exchange-correlation= PBE
                           (   1   4   3   4   0   0   0)

     celldm(1)=  14.859904  celldm(2)=   0.000000  celldm(3)=   0.000000
     celldm(4)=   0.000000  celldm(5)=   0.000000  celldm(6)=   0.000000

     crystal axes: (cart. coord. in units of alat)
               a(1) = (   1.000000   0.000000   0.000000 )  
               a(2) = (   0.000000   1.000000   0.000000 )  
               a(3) = (   0.000000   0.000000   2.531036 )  

     reciprocal axes: (cart. coord. in units 2 pi/alat)
               b(1) = (  1.000000  0.000000  0.000000 )  
               b(2) = (  0.000000  1.000000  0.000000 )  
               b(3) = (  0.000000  0.000000  0.395095 )  


     PseudoPot. # 1 for Sr read from file:
     /bsuhome/zayahcortright/q-e/pseudo/Sr_pbe_v1.uspp.F.UPF
     MD5 check sum: 6b418c05fbe9db5448babca5e47b7a5b
     Pseudo is Ultrasoft + core correction, Zval = 10.0
     Generated by new atomic code, or converted to UPF format
     Using radial grid of  883 points,  6 beta functions with: 
                l(1) =   0
                l(2) =   0
                l(3) =   1
                l(4) =   1
                l(5) =   2
                l(6) =   2
     Q(r) pseudized with  6 coefficients,  rinner =    1.400   1.400   1.400
                                                       1.400   1.400

     PseudoPot. # 2 for O  read from file:
     /bsuhome/zayahcortright/q-e/pseudo/O.pbe-n-kjpaw_psl.0.1.UPF
     MD5 check sum: 0234752ac141de4415c5fc33072bef88
     Pseudo is Projector augmented-wave + core cor, Zval =  6.0
     Generated using "atomic" code by A. Dal Corso  v.5.0.99 svn rev. 10869
     Shape of augmentation charge: BESSEL
     Using radial grid of 1095 points,  4 beta functions with: 
                l(1) =   0
                l(2) =   0
                l(3) =   1
                l(4) =   1
     Q(r) pseudized with 0 coefficients 


     PseudoPot. # 3 for Co read from file:
     /bsuhome/zayahcortright/q-e/pseudo/Co_pbe_v1.2.uspp.F.UPF
     MD5 check sum: 5f91765df6ddd3222702df6e7b74a16d
     Pseudo is Ultrasoft + core correction, Zval = 17.0
     Generated by new atomic code, or converted to UPF format
     Using radial grid of  863 points,  6 beta functions with: 
                l(1) =   0
                l(2) =   0
                l(3) =   1
                l(4) =   1
                l(5) =   2
                l(6) =   2
     Q(r) pseudized with  8 coefficients,  rinner =    1.200   1.200   1.200
                                                       1.200   1.200

     PseudoPot. # 4 for H  read from file:
     /bsuhome/zayahcortright/q-e/pseudo/H.pbe-rrkjus_psl.1.0.0.UPF
     MD5 check sum: f52b6d4d1c606e5624b1dc7b2218f220
     Pseudo is Ultrasoft, Zval =  1.0
     Generated using "atomic" code by A. Dal Corso  v.5.1
     Using radial grid of  929 points,  2 beta functions with: 
                l(1) =   0
                l(2) =   0
     Q(r) pseudized with 0 coefficients 


     atomic species   valence    mass     pseudopotential
        Sr            10.00    87.62000     Sr( 1.00)
        O              6.00    15.99900     O ( 1.00)
        Co            17.00    58.93319     Co( 1.00)
        H              1.00     1.00800     H ( 1.00)

     No symmetry found


                                    s                        frac. trans.

      isym =  1     identity                                     

 cryst.   s( 1) = (     1          0          0      )
                  (     0          1          0      )
                  (     0          0          1      )

 cart.    s( 1) = (  1.0000000  0.0000000  0.0000000 )
                  (  0.0000000  1.0000000  0.0000000 )
                  (  0.0000000  0.0000000  1.0000000 )


   Cartesian axes

     site n.     atom                  positions (alat units)
         1           Sr  tau(   1) = (   0.2508693   0.7491307   1.7574407  )
         2           O   tau(   2) = (   0.4985141   0.5014859   1.7715967  )
         3           Sr  tau(   3) = (   0.7482398   0.7454518   1.7648669  )
         4           Sr  tau(   4) = (   0.7441748   0.2558252   1.7667843  )
         5           Sr  tau(   5) = (   0.2508693   0.7491307   1.2696799  )
         6           Sr  tau(   6) = (   0.2508693   0.7491307   0.7632319  )
         7           Co  tau(   7) = (   0.4998914   0.5001086   1.0164559  )
         8           Co  tau(   8) = (   0.4936915   0.5063085   1.5135603  )
         9           O   tau(   9) = (   0.4988895   0.7610401   1.0164559  )
        10           O   tau(  10) = (   0.2389599   0.5011105   1.0164559  )
        11           O   tau(  11) = (   0.0070918   0.7374880   1.0164559  )
        12           O   tau(  12) = (   0.0088340   0.7405089   1.5135603  )
        13           O   tau(  13) = (   0.5066944   0.7415376   1.5135603  )
        14           O   tau(  14) = (   0.2584624   0.4933056   1.5135603  )
        15           O   tau(  15) = (   0.4985141   0.5014859   0.7773880  )
        16           O   tau(  16) = (   0.4985141   0.5014859   1.2555238  )
        17           Sr  tau(  17) = (   0.7482398   0.7454518   0.7706582  )
        18           Sr  tau(  18) = (   0.7482398   0.7454518   1.2622536  )
        19           Sr  tau(  19) = (   0.7441748   0.2558252   0.7725755  )
        20           Sr  tau(  20) = (   0.7441748   0.2558252   1.2603363  )
        21           O   tau(  21) = (   0.7322655   0.0078049   1.5135603  )
        22           O   tau(  22) = (   0.7558175   0.4996027   1.5135603  )
        23           O   tau(  23) = (   0.5003973   0.2441825   1.5135603  )
        24           O   tau(  24) = (   0.7527966   0.4978604   1.0164559  )
        25           O   tau(  25) = (   0.5021396   0.2472034   1.0164559  )
        26           O   tau(  26) = (   0.7517679   0.0000000   1.0164559  )
        27           O   tau(  27) = (   0.0114961   0.4948124   1.7455321  )
        28           O   tau(  28) = (   0.0048226   0.0077944   1.7715967  )
        29           Sr  tau(  29) = (   0.2545482   0.2517602   1.7648669  )
        30           O   tau(  30) = (   0.5048017   0.0015068   1.7786929  )
        31           Co  tau(  31) = (   0.0056869   0.5006215   1.0164559  )
        32           Co  tau(  32) = (   0.0065315   0.4997770   1.5135603  )
        33           Co  tau(  33) = (   0.0061999   0.0064171   1.0164559  )
        34           Co  tau(  34) = (   0.0000000   0.0126169   1.5135603  )
        35           O   tau(  35) = (   0.0114961   0.4948124   1.2815885  )
        36           O   tau(  36) = (   0.0114961   0.4948124   0.7513233  )
        37           O   tau(  37) = (   0.0051979   0.2673486   1.0164559  )
        38           O   tau(  38) = (   0.0130029   0.2478461   1.5135603  )
        39           O   tau(  39) = (   0.0048226   0.0077944   0.7773880  )
        40           O   tau(  40) = (   0.0048226   0.0077944   1.2555238  )
        41           Sr  tau(  41) = (   0.2545482   0.2517602   0.7706582  )
        42           Sr  tau(  42) = (   0.2545482   0.2517602   1.2622536  )
        43           Co  tau(  43) = (   0.4989925   0.0073160   1.5135603  )
        44           Co  tau(  44) = (   0.4998370   0.0064714   1.0164559  )
        45           O   tau(  45) = (   0.5048017   0.0015068   0.7844841  )
        46           O   tau(  46) = (   0.5048017   0.0015068   1.2484277  )
        47           O   tau(  47) = (   0.2621260   0.0059111   1.5135603  )
        48           O   tau(  48) = (   0.2591051   0.0041689   1.0164559  )
        49           H   tau(  49) = (   0.4264937   0.2843291   2.1602013  )

   Crystallographic axes

     site n.     atom                  positions (cryst. coord.)
         1           Sr  tau(   1) = (  0.2508693  0.7491307  0.6943562  )
         2           O   tau(   2) = (  0.4985141  0.5014859  0.6999492  )
         3           Sr  tau(   3) = (  0.7482398  0.7454518  0.6972903  )
         4           Sr  tau(   4) = (  0.7441748  0.2558252  0.6980478  )
         5           Sr  tau(   5) = (  0.2508693  0.7491307  0.5016443  )
         6           Sr  tau(   6) = (  0.2508693  0.7491307  0.3015492  )
         7           Co  tau(   7) = (  0.4998914  0.5001086  0.4015968  )
         8           Co  tau(   8) = (  0.4936915  0.5063085  0.5980003  )
         9           O   tau(   9) = (  0.4988895  0.7610401  0.4015968  )
        10           O   tau(  10) = (  0.2389599  0.5011105  0.4015968  )
        11           O   tau(  11) = (  0.0070918  0.7374880  0.4015968  )
        12           O   tau(  12) = (  0.0088340  0.7405089  0.5980003  )
        13           O   tau(  13) = (  0.5066944  0.7415376  0.5980003  )
        14           O   tau(  14) = (  0.2584624  0.4933056  0.5980003  )
        15           O   tau(  15) = (  0.4985141  0.5014859  0.3071422  )
        16           O   tau(  16) = (  0.4985141  0.5014859  0.4960513  )
        17           Sr  tau(  17) = (  0.7482398  0.7454518  0.3044833  )
        18           Sr  tau(  18) = (  0.7482398  0.7454518  0.4987103  )
        19           Sr  tau(  19) = (  0.7441748  0.2558252  0.3052408  )
        20           Sr  tau(  20) = (  0.7441748  0.2558252  0.4979527  )
        21           O   tau(  21) = (  0.7322655  0.0078049  0.5980003  )
        22           O   tau(  22) = (  0.7558175  0.4996027  0.5980003  )
        23           O   tau(  23) = (  0.5003973  0.2441825  0.5980003  )
        24           O   tau(  24) = (  0.7527966  0.4978604  0.4015968  )
        25           O   tau(  25) = (  0.5021396  0.2472034  0.4015968  )
        26           O   tau(  26) = (  0.7517679  0.0000000  0.4015968  )
        27           O   tau(  27) = (  0.0114961  0.4948124  0.6896512  )
        28           O   tau(  28) = (  0.0048226  0.0077944  0.6999492  )
        29           Sr  tau(  29) = (  0.2545482  0.2517602  0.6972903  )
        30           O   tau(  30) = (  0.5048017  0.0015068  0.7027529  )
        31           Co  tau(  31) = (  0.0056869  0.5006215  0.4015968  )
        32           Co  tau(  32) = (  0.0065315  0.4997770  0.5980003  )
        33           Co  tau(  33) = (  0.0061999  0.0064171  0.4015968  )
        34           Co  tau(  34) = (  0.0000000  0.0126169  0.5980003  )
        35           O   tau(  35) = (  0.0114961  0.4948124  0.5063494  )
        36           O   tau(  36) = (  0.0114961  0.4948124  0.2968442  )
        37           O   tau(  37) = (  0.0051979  0.2673486  0.4015968  )
        38           O   tau(  38) = (  0.0130029  0.2478461  0.5980003  )
        39           O   tau(  39) = (  0.0048226  0.0077944  0.3071422  )
        40           O   tau(  40) = (  0.0048226  0.0077944  0.4960513  )
        41           Sr  tau(  41) = (  0.2545482  0.2517602  0.3044833  )
        42           Sr  tau(  42) = (  0.2545482  0.2517602  0.4987103  )
        43           Co  tau(  43) = (  0.4989925  0.0073160  0.5980003  )
        44           Co  tau(  44) = (  0.4998370  0.0064714  0.4015968  )
        45           O   tau(  45) = (  0.5048017  0.0015068  0.3099459  )
        46           O   tau(  46) = (  0.5048017  0.0015068  0.4932477  )
        47           O   tau(  47) = (  0.2621260  0.0059111  0.5980003  )
        48           O   tau(  48) = (  0.2591051  0.0041689  0.4015968  )
        49           H   tau(  49) = (  0.4264937  0.2843291  0.8534850  )

     number of k points=    10  Gaussian smearing, width (Ry)=  0.0700
                       cart. coord. in units 2pi/alat
        k(    1) = (   0.0000000   0.0000000   0.0000000), wk =   0.1250000
        k(    2) = (   0.0000000   0.2500000   0.0000000), wk =   0.2500000
        k(    3) = (   0.0000000  -0.5000000   0.0000000), wk =   0.1250000
        k(    4) = (   0.2500000   0.2500000   0.0000000), wk =   0.2500000
        k(    5) = (   0.2500000  -0.5000000   0.0000000), wk =   0.2500000
        k(    6) = (  -0.5000000  -0.5000000   0.0000000), wk =   0.1250000
        k(    7) = (   0.2500000   0.0000000   0.0000000), wk =   0.2500000
        k(    8) = (  -0.5000000   0.0000000   0.0000000), wk =   0.1250000
        k(    9) = (  -0.2500000   0.2500000   0.0000000), wk =   0.2500000
        k(   10) = (  -0.5000000   0.2500000   0.0000000), wk =   0.2500000

                       cryst. coord.
        k(    1) = (   0.0000000   0.0000000   0.0000000), wk =   0.1250000
        k(    2) = (   0.0000000   0.2500000   0.0000000), wk =   0.2500000
        k(    3) = (   0.0000000  -0.5000000   0.0000000), wk =   0.1250000
        k(    4) = (   0.2500000   0.2500000   0.0000000), wk =   0.2500000
        k(    5) = (   0.2500000  -0.5000000   0.0000000), wk =   0.2500000
        k(    6) = (  -0.5000000  -0.5000000   0.0000000), wk =   0.1250000
        k(    7) = (   0.2500000   0.0000000   0.0000000), wk =   0.2500000
        k(    8) = (  -0.5000000   0.0000000   0.0000000), wk =   0.1250000
        k(    9) = (  -0.2500000   0.2500000   0.0000000), wk =   0.2500000
        k(   10) = (  -0.5000000   0.2500000   0.0000000), wk =   0.2500000

     Dense  grid:  1474595 G-vectors     FFT dimensions: ( 108, 108, 270)

     Smooth grid:   521381 G-vectors     FFT dimensions: (  75,  75, 192)

     Dynamical RAM for                 wfc:      10.61 MB

     Dynamical RAM for     wfc (w. buffer):      63.63 MB

     Dynamical RAM for           str. fact:       3.75 MB

     Dynamical RAM for           local pot:       0.00 MB

     Dynamical RAM for          nlocal pot:      24.28 MB

     Dynamical RAM for                qrad:       7.03 MB

     Dynamical RAM for          rho,v,vnew:       6.02 MB

     Dynamical RAM for               rhoin:       2.01 MB

     Dynamical RAM for            rho*nmix:      15.00 MB

     Dynamical RAM for           G-vectors:       3.68 MB

     Dynamical RAM for          h,s,v(r/c):       1.32 MB

     Dynamical RAM for          <psi|beta>:       2.29 MB

     Dynamical RAM for                 psi:      21.21 MB

     Dynamical RAM for                hpsi:      21.21 MB

     Dynamical RAM for                spsi:      21.21 MB

     Dynamical RAM for      wfcinit/wfcrot:      34.09 MB

     Dynamical RAM for           addusdens:     100.79 MB

     Estimated static dynamical RAM per process >     120.42 MB

     Estimated max dynamical RAM per process >     236.21 MB

     Estimated total dynamical RAM >      10.72 GB

     Check: negative core charge=   -0.000004

     Initial potential from superposition of free atoms

     starting charge     416.5961, renormalised to     425.0000

     negative rho (up, down):  7.827E-01 0.000E+00
     Starting wfcs are  373 randomized atomic wfcs
     Checking if some PAW data can be deallocated... 
       PAW data deallocated on   20 nodes for type:  2

     total cpu time spent up to now is        8.5 secs

     Self-consistent Calculation

     iteration #  1     ecut=    60.00 Ry     beta= 0.15
     Davidson diagonalization with overlap

---- Real-time Memory Report at c_bands before calling an iterative solver
             0 MiB given to the printing process from OS
             0 MiB allocation reported by mallinfo(arena+hblkhd)
        170478 MiB available memory on the node where the printing process lives
------------------
     ethr =  1.00E-02,  avg # of iterations =  2.0

     negative rho (up, down):  7.719E-01 0.000E+00

     total cpu time spent up to now is       23.1 secs

     total energy              =   -4404.77077754 Ry
     estimated scf accuracy    <      42.19422130 Ry

     iteration #  2     ecut=    60.00 Ry     beta= 0.15
     Davidson diagonalization with overlap

---- Real-time Memory Report at c_bands before calling an iterative solver
             0 MiB given to the printing process from OS
             0 MiB allocation reported by mallinfo(arena+hblkhd)
        170695 MiB available memory on the node where the printing process lives
------------------
     ethr =  9.93E-03,  avg # of iterations =  1.0

     negative rho (up, down):  7.533E-01 0.000E+00

     total cpu time spent up to now is       35.2 secs

     total energy              =   -4400.02369132 Ry
     estimated scf accuracy    <      26.70481176 Ry

     iteration #  3     ecut=    60.00 Ry     beta= 0.15
     Davidson diagonalization with overlap

---- Real-time Memory Report at c_bands before calling an iterative solver
             0 MiB given to the printing process from OS
             0 MiB allocation reported by mallinfo(arena+hblkhd)
        169962 MiB available memory on the node where the printing process lives
------------------
     ethr =  6.28E-03,  avg # of iterations =  2.0

     negative rho (up, down):  7.545E-01 0.000E+00

     total cpu time spent up to now is       48.9 secs

     total energy              =   -4402.38720350 Ry
     estimated scf accuracy    <      49.30333516 Ry

     iteration #  4     ecut=    60.00 Ry     beta= 0.15
     Davidson diagonalization with overlap

---- Real-time Memory Report at c_bands before calling an iterative solver
             0 MiB given to the printing process from OS
             0 MiB allocation reported by mallinfo(arena+hblkhd)
        169831 MiB available memory on the node where the printing process lives
------------------
     ethr =  6.28E-03,  avg # of iterations =  1.0

     negative rho (up, down):  7.411E-01 0.000E+00

     total cpu time spent up to now is       61.2 secs

     total energy              =   -4401.64874155 Ry
     estimated scf accuracy    <      29.36612462 Ry

     iteration #  5     ecut=    60.00 Ry     beta= 0.15
     Davidson diagonalization with overlap

---- Real-time Memory Report at c_bands before calling an iterative solver
             0 MiB given to the printing process from OS
             0 MiB allocation reported by mallinfo(arena+hblkhd)
        169810 MiB available memory on the node where the printing process lives
------------------
     ethr =  6.28E-03,  avg # of iterations =  1.0

     negative rho (up, down):  7.472E-01 0.000E+00

     total cpu time spent up to now is       73.1 secs

     total energy              =   -4399.81381299 Ry
     estimated scf accuracy    <      44.14205451 Ry

     iteration #  6     ecut=    60.00 Ry     beta= 0.15
     Davidson diagonalization with overlap

---- Real-time Memory Report at c_bands before calling an iterative solver
             0 MiB given to the printing process from OS
             0 MiB allocation reported by mallinfo(arena+hblkhd)
        169795 MiB available memory on the node where the printing process lives
------------------
     ethr =  6.28E-03,  avg # of iterations =  1.0

     negative rho (up, down):  7.421E-01 0.000E+00

     total cpu time spent up to now is       85.2 secs

     total energy              =   -4400.64305800 Ry
     estimated scf accuracy    <      12.20395439 Ry

     iteration #  7     ecut=    60.00 Ry     beta= 0.15
     Davidson diagonalization with overlap

---- Real-time Memory Report at c_bands before calling an iterative solver
             0 MiB given to the printing process from OS
             0 MiB allocation reported by mallinfo(arena+hblkhd)
        169775 MiB available memory on the node where the printing process lives
------------------
     ethr =  2.87E-03,  avg # of iterations =  1.1

     negative rho (up, down):  7.444E-01 0.000E+00

     total cpu time spent up to now is       97.4 secs

     total energy              =   -4400.81597826 Ry
     estimated scf accuracy    <       4.13091316 Ry

     iteration #  8     ecut=    60.00 Ry     beta= 0.15
     Davidson diagonalization with overlap

---- Real-time Memory Report at c_bands before calling an iterative solver
             0 MiB given to the printing process from OS
             0 MiB allocation reported by mallinfo(arena+hblkhd)
        169756 MiB available memory on the node where the printing process lives
------------------
     ethr =  9.72E-04,  avg # of iterations =  1.6

     negative rho (up, down):  7.539E-01 0.000E+00

     total cpu time spent up to now is      110.0 secs

     total energy              =   -4400.29665596 Ry
     estimated scf accuracy    <       3.45234592 Ry

     iteration #  9     ecut=    60.00 Ry     beta= 0.15
     Davidson diagonalization with overlap

---- Real-time Memory Report at c_bands before calling an iterative solver
             0 MiB given to the printing process from OS
             0 MiB allocation reported by mallinfo(arena+hblkhd)
        169730 MiB available memory on the node where the printing process lives
------------------
     ethr =  8.12E-04,  avg # of iterations =  5.9

     negative rho (up, down):  7.758E-01 0.000E+00

     total cpu time spent up to now is      125.9 secs

     total energy              =   -4399.86224328 Ry
     estimated scf accuracy    <      41.97393827 Ry

     iteration # 10     ecut=    60.00 Ry     beta= 0.15
     Davidson diagonalization with overlap

---- Real-time Memory Report at c_bands before calling an iterative solver
             0 MiB given to the printing process from OS
             0 MiB allocation reported by mallinfo(arena+hblkhd)
        169573 MiB available memory on the node where the printing process lives
------------------
     ethr =  8.12E-04,  avg # of iterations =  9.5

     negative rho (up, down):  7.782E-01 0.000E+00

     total cpu time spent up to now is      143.5 secs

     total energy              =   -4399.82842962 Ry
     estimated scf accuracy    <      12.30652029 Ry

     iteration # 11     ecut=    60.00 Ry     beta= 0.15
     Davidson diagonalization with overlap

---- Real-time Memory Report at c_bands before calling an iterative solver
             0 MiB given to the printing process from OS
             0 MiB allocation reported by mallinfo(arena+hblkhd)
        169263 MiB available memory on the node where the printing process lives
------------------
     ethr =  8.12E-04,  avg # of iterations =  1.1

     negative rho (up, down):  7.810E-01 0.000E+00

     total cpu time spent up to now is      156.3 secs

     total energy              =   -4400.12397978 Ry
     estimated scf accuracy    <       1.45750179 Ry

     iteration # 12     ecut=    60.00 Ry     beta= 0.15
     Davidson diagonalization with overlap

---- Real-time Memory Report at c_bands before calling an iterative solver
             0 MiB given to the printing process from OS
             0 MiB allocation reported by mallinfo(arena+hblkhd)
        169259 MiB available memory on the node where the printing process lives
------------------
     ethr =  3.43E-04,  avg # of iterations =  2.8

     negative rho (up, down):  7.890E-01 0.000E+00

     total cpu time spent up to now is      169.9 secs

     total energy              =   -4400.09548106 Ry
     estimated scf accuracy    <       0.70183289 Ry

     iteration # 13     ecut=    60.00 Ry     beta= 0.15
     Davidson diagonalization with overlap

---- Real-time Memory Report at c_bands before calling an iterative solver
             0 MiB given to the printing process from OS
             0 MiB allocation reported by mallinfo(arena+hblkhd)
        169255 MiB available memory on the node where the printing process lives
------------------
     ethr =  1.65E-04,  avg # of iterations =  4.5

     negative rho (up, down):  8.008E-01 0.000E+00

     total cpu time spent up to now is      184.9 secs

     total energy              =   -4400.09852345 Ry
     estimated scf accuracy    <       1.09697831 Ry

     iteration # 14     ecut=    60.00 Ry     beta= 0.15
     Davidson diagonalization with overlap

---- Real-time Memory Report at c_bands before calling an iterative solver
             0 MiB given to the printing process from OS
             0 MiB allocation reported by mallinfo(arena+hblkhd)
        169245 MiB available memory on the node where the printing process lives
------------------
     ethr =  1.65E-04,  avg # of iterations =  6.3

     negative rho (up, down):  8.048E-01 0.000E+00

     total cpu time spent up to now is      200.0 secs

     total energy              =   -4400.02620384 Ry
     estimated scf accuracy    <       1.66848336 Ry

     iteration # 15     ecut=    60.00 Ry     beta= 0.15
     Davidson diagonalization with overlap

---- Real-time Memory Report at c_bands before calling an iterative solver
             0 MiB given to the printing process from OS
             0 MiB allocation reported by mallinfo(arena+hblkhd)
        169243 MiB available memory on the node where the printing process lives
------------------
     ethr =  1.65E-04,  avg # of iterations =  3.4

     negative rho (up, down):  8.067E-01 0.000E+00

     total cpu time spent up to now is      213.7 secs

     total energy              =   -4400.05934862 Ry
     estimated scf accuracy    <       0.40250522 Ry

     iteration # 16     ecut=    60.00 Ry     beta= 0.15
     Davidson diagonalization with overlap

---- Real-time Memory Report at c_bands before calling an iterative solver
             0 MiB given to the printing process from OS
             0 MiB allocation reported by mallinfo(arena+hblkhd)
        169243 MiB available memory on the node where the printing process lives
------------------
     ethr =  9.47E-05,  avg # of iterations =  1.9

     negative rho (up, down):  8.092E-01 0.000E+00

     total cpu time spent up to now is      226.9 secs

     total energy              =   -4400.02910725 Ry
     estimated scf accuracy    <       0.32875461 Ry

     iteration # 17     ecut=    60.00 Ry     beta= 0.15
     Davidson diagonalization with overlap

---- Real-time Memory Report at c_bands before calling an iterative solver
             0 MiB given to the printing process from OS
             0 MiB allocation reported by mallinfo(arena+hblkhd)
        169243 MiB available memory on the node where the printing process lives
------------------
     ethr =  7.74E-05,  avg # of iterations =  9.1

     negative rho (up, down):  8.196E-01 0.000E+00

     total cpu time spent up to now is      243.1 secs

     total energy              =   -4399.95382980 Ry
     estimated scf accuracy    <       0.27886332 Ry

     iteration # 18     ecut=    60.00 Ry     beta= 0.15
     Davidson diagonalization with overlap

---- Real-time Memory Report at c_bands before calling an iterative solver
             0 MiB given to the printing process from OS
             0 MiB allocation reported by mallinfo(arena+hblkhd)
        169229 MiB available memory on the node where the printing process lives
------------------
     ethr =  6.56E-05,  avg # of iterations = 11.3

     negative rho (up, down):  8.266E-01 0.000E+00

     total cpu time spent up to now is      261.4 secs

     total energy              =   -4399.95106894 Ry
     estimated scf accuracy    <       0.13735103 Ry

     iteration # 19     ecut=    60.00 Ry     beta= 0.15
     Davidson diagonalization with overlap

---- Real-time Memory Report at c_bands before calling an iterative solver
             0 MiB given to the printing process from OS
             0 MiB allocation reported by mallinfo(arena+hblkhd)
        169122 MiB available memory on the node where the printing process lives
------------------
     ethr =  3.23E-05,  avg # of iterations =  4.6

     negative rho (up, down):  8.246E-01 0.000E+00

     total cpu time spent up to now is      275.9 secs

     total energy              =   -4399.93918923 Ry
     estimated scf accuracy    <       0.10711317 Ry

     iteration # 20     ecut=    60.00 Ry     beta= 0.15
     Davidson diagonalization with overlap

---- Real-time Memory Report at c_bands before calling an iterative solver
             0 MiB given to the printing process from OS
             0 MiB allocation reported by mallinfo(arena+hblkhd)
        169120 MiB available memory on the node where the printing process lives
------------------
     ethr =  2.52E-05,  avg # of iterations =  8.7

     negative rho (up, down):  8.165E-01 0.000E+00

     total cpu time spent up to now is      292.4 secs

     total energy              =   -4399.92784219 Ry
     estimated scf accuracy    <       0.08532546 Ry

     iteration # 21     ecut=    60.00 Ry     beta= 0.15
     Davidson diagonalization with overlap

---- Real-time Memory Report at c_bands before calling an iterative solver
             0 MiB given to the printing process from OS
             0 MiB allocation reported by mallinfo(arena+hblkhd)
        169101 MiB available memory on the node where the printing process lives
------------------
     c_bands:  1 eigenvalues not converged
     ethr =  2.01E-05,  avg # of iterations = 10.4

     negative rho (up, down):  8.134E-01 0.000E+00

     total cpu time spent up to now is      309.9 secs

     total energy              =   -4399.92792844 Ry
     estimated scf accuracy    <       0.04905315 Ry

     iteration # 22     ecut=    60.00 Ry     beta= 0.15
     Davidson diagonalization with overlap

---- Real-time Memory Report at c_bands before calling an iterative solver
             0 MiB given to the printing process from OS
             0 MiB allocation reported by mallinfo(arena+hblkhd)
        169043 MiB available memory on the node where the printing process lives
------------------
     ethr =  1.15E-05,  avg # of iterations =  2.0

     negative rho (up, down):  8.014E-01 0.000E+00

     total cpu time spent up to now is      323.4 secs

     total energy              =   -4399.92168943 Ry
     estimated scf accuracy    <       0.03611017 Ry

     iteration # 23     ecut=    60.00 Ry     beta= 0.15
     Davidson diagonalization with overlap

---- Real-time Memory Report at c_bands before calling an iterative solver
             0 MiB given to the printing process from OS
             0 MiB allocation reported by mallinfo(arena+hblkhd)
        169053 MiB available memory on the node where the printing process lives
------------------
     ethr =  8.50E-06,  avg # of iterations = 12.1

     negative rho (up, down):  8.057E-01 0.000E+00

     total cpu time spent up to now is      341.7 secs

     total energy              =   -4399.92052636 Ry
     estimated scf accuracy    <       0.01960584 Ry

     iteration # 24     ecut=    60.00 Ry     beta= 0.15
     Davidson diagonalization with overlap

---- Real-time Memory Report at c_bands before calling an iterative solver
             0 MiB given to the printing process from OS
             0 MiB allocation reported by mallinfo(arena+hblkhd)
        168994 MiB available memory on the node where the printing process lives
------------------
     ethr =  4.61E-06,  avg # of iterations =  8.8

     negative rho (up, down):  7.994E-01 0.000E+00

     total cpu time spent up to now is      358.3 secs

     total energy              =   -4399.92024240 Ry
     estimated scf accuracy    <       0.01226429 Ry

     iteration # 25     ecut=    60.00 Ry     beta= 0.15
     Davidson diagonalization with overlap

---- Real-time Memory Report at c_bands before calling an iterative solver
             0 MiB given to the printing process from OS
             0 MiB allocation reported by mallinfo(arena+hblkhd)
        168987 MiB available memory on the node where the printing process lives
------------------
     ethr =  2.89E-06,  avg # of iterations =  2.0

     negative rho (up, down):  7.954E-01 0.000E+00

     total cpu time spent up to now is      371.8 secs

     total energy              =   -4399.91978484 Ry
     estimated scf accuracy    <       0.00939271 Ry

     iteration # 26     ecut=    60.00 Ry     beta= 0.15
     Davidson diagonalization with overlap

---- Real-time Memory Report at c_bands before calling an iterative solver
             0 MiB given to the printing process from OS
             0 MiB allocation reported by mallinfo(arena+hblkhd)
        169105 MiB available memory on the node where the printing process lives
------------------
     ethr =  2.21E-06,  avg # of iterations =  4.7

     negative rho (up, down):  7.941E-01 0.000E+00

     total cpu time spent up to now is      386.6 secs

     total energy              =   -4399.91920302 Ry
     estimated scf accuracy    <       0.00642330 Ry

     iteration # 27     ecut=    60.00 Ry     beta= 0.15
     Davidson diagonalization with overlap

---- Real-time Memory Report at c_bands before calling an iterative solver
             0 MiB given to the printing process from OS
             0 MiB allocation reported by mallinfo(arena+hblkhd)
        169112 MiB available memory on the node where the printing process lives
------------------
     ethr =  1.51E-06,  avg # of iterations =  9.1

     negative rho (up, down):  7.932E-01 0.000E+00

     total cpu time spent up to now is      403.3 secs

     total energy              =   -4399.91908889 Ry
     estimated scf accuracy    <       0.00314453 Ry

     iteration # 28     ecut=    60.00 Ry     beta= 0.15
     Davidson diagonalization with overlap

---- Real-time Memory Report at c_bands before calling an iterative solver
             0 MiB given to the printing process from OS
             0 MiB allocation reported by mallinfo(arena+hblkhd)
        169057 MiB available memory on the node where the printing process lives
------------------
     ethr =  7.40E-07,  avg # of iterations =  2.0

     negative rho (up, down):  7.919E-01 0.000E+00

     total cpu time spent up to now is      417.2 secs

     total energy              =   -4399.91887194 Ry
     estimated scf accuracy    <       0.00191740 Ry

     iteration # 29     ecut=    60.00 Ry     beta= 0.15
     Davidson diagonalization with overlap

---- Real-time Memory Report at c_bands before calling an iterative solver
             0 MiB given to the printing process from OS
             0 MiB allocation reported by mallinfo(arena+hblkhd)
        169097 MiB available memory on the node where the printing process lives
------------------
     ethr =  4.51E-07,  avg # of iterations =  8.0

     negative rho (up, down):  7.946E-01 0.000E+00

     total cpu time spent up to now is      433.6 secs

     total energy              =   -4399.91876718 Ry
     estimated scf accuracy    <       0.00090489 Ry

     iteration # 30     ecut=    60.00 Ry     beta= 0.15
     Davidson diagonalization with overlap

---- Real-time Memory Report at c_bands before calling an iterative solver
             0 MiB given to the printing process from OS
             0 MiB allocation reported by mallinfo(arena+hblkhd)
        169137 MiB available memory on the node where the printing process lives
------------------
     ethr =  2.13E-07,  avg # of iterations = 10.5

     negative rho (up, down):  7.954E-01 0.000E+00

     total cpu time spent up to now is      453.2 secs

     total energy              =   -4399.91879848 Ry
     estimated scf accuracy    <       0.00034705 Ry

     iteration # 31     ecut=    60.00 Ry     beta= 0.15
     Davidson diagonalization with overlap

---- Real-time Memory Report at c_bands before calling an iterative solver
             0 MiB given to the printing process from OS
             0 MiB allocation reported by mallinfo(arena+hblkhd)
        168962 MiB available memory on the node where the printing process lives
------------------
     ethr =  8.17E-08,  avg # of iterations =  2.1

     negative rho (up, down):  7.947E-01 0.000E+00

     total cpu time spent up to now is      466.8 secs

     total energy              =   -4399.91877550 Ry
     estimated scf accuracy    <       0.00019044 Ry

     iteration # 32     ecut=    60.00 Ry     beta= 0.15
     Davidson diagonalization with overlap

---- Real-time Memory Report at c_bands before calling an iterative solver
             0 MiB given to the printing process from OS
             0 MiB allocation reported by mallinfo(arena+hblkhd)
        168955 MiB available memory on the node where the printing process lives
------------------
     ethr =  4.48E-08,  avg # of iterations =  1.2

     negative rho (up, down):  7.936E-01 0.000E+00

     total cpu time spent up to now is      479.2 secs

     total energy              =   -4399.91876736 Ry
     estimated scf accuracy    <       0.00012552 Ry

     iteration # 33     ecut=    60.00 Ry     beta= 0.15
     Davidson diagonalization with overlap

---- Real-time Memory Report at c_bands before calling an iterative solver
             0 MiB given to the printing process from OS
             0 MiB allocation reported by mallinfo(arena+hblkhd)
        168978 MiB available memory on the node where the printing process lives
------------------
     ethr =  2.95E-08,  avg # of iterations =  2.1

     negative rho (up, down):  7.931E-01 0.000E+00

     total cpu time spent up to now is      492.7 secs

     total energy              =   -4399.91876551 Ry
     estimated scf accuracy    <       0.00005409 Ry

     iteration # 34     ecut=    60.00 Ry     beta= 0.15
     Davidson diagonalization with overlap

---- Real-time Memory Report at c_bands before calling an iterative solver
             0 MiB given to the printing process from OS
             0 MiB allocation reported by mallinfo(arena+hblkhd)
        168982 MiB available memory on the node where the printing process lives
------------------
     ethr =  1.27E-08,  avg # of iterations =  5.4

     negative rho (up, down):  7.932E-01 0.000E+00

     total cpu time spent up to now is      508.5 secs

     total energy              =   -4399.91877054 Ry
     estimated scf accuracy    <       0.00001239 Ry

     iteration # 35     ecut=    60.00 Ry     beta= 0.15
     Davidson diagonalization with overlap

---- Real-time Memory Report at c_bands before calling an iterative solver
             0 MiB given to the printing process from OS
             0 MiB allocation reported by mallinfo(arena+hblkhd)
        168971 MiB available memory on the node where the printing process lives
------------------
     ethr =  2.91E-09,  avg # of iterations =  2.4

     negative rho (up, down):  7.930E-01 0.000E+00

     total cpu time spent up to now is      522.4 secs

     total energy              =   -4399.91877066 Ry
     estimated scf accuracy    <       0.00001002 Ry

     iteration # 36     ecut=    60.00 Ry     beta= 0.15
     Davidson diagonalization with overlap

---- Real-time Memory Report at c_bands before calling an iterative solver
             0 MiB given to the printing process from OS
             0 MiB allocation reported by mallinfo(arena+hblkhd)
        168993 MiB available memory on the node where the printing process lives
------------------
     ethr =  2.36E-09,  avg # of iterations =  2.1

     negative rho (up, down):  7.927E-01 0.000E+00

     total cpu time spent up to now is      536.1 secs

     total energy              =   -4399.91877236 Ry
     estimated scf accuracy    <       0.00000740 Ry

     iteration # 37     ecut=    60.00 Ry     beta= 0.15
     Davidson diagonalization with overlap

---- Real-time Memory Report at c_bands before calling an iterative solver
             0 MiB given to the printing process from OS
             0 MiB allocation reported by mallinfo(arena+hblkhd)
        168985 MiB available memory on the node where the printing process lives
------------------
     ethr =  1.74E-09,  avg # of iterations =  2.4

     negative rho (up, down):  7.925E-01 0.000E+00

     total cpu time spent up to now is      549.8 secs

     total energy              =   -4399.91877474 Ry
     estimated scf accuracy    <       0.00000468 Ry

     iteration # 38     ecut=    60.00 Ry     beta= 0.15
     Davidson diagonalization with overlap

---- Real-time Memory Report at c_bands before calling an iterative solver
             0 MiB given to the printing process from OS
             0 MiB allocation reported by mallinfo(arena+hblkhd)
        168985 MiB available memory on the node where the printing process lives
------------------
     ethr =  1.10E-09,  avg # of iterations =  3.1

     negative rho (up, down):  7.924E-01 0.000E+00

     total cpu time spent up to now is      563.9 secs

     total energy              =   -4399.91877584 Ry
     estimated scf accuracy    <       0.00000249 Ry

     iteration # 39     ecut=    60.00 Ry     beta= 0.15
     Davidson diagonalization with overlap

---- Real-time Memory Report at c_bands before calling an iterative solver
             0 MiB given to the printing process from OS
             0 MiB allocation reported by mallinfo(arena+hblkhd)
        168985 MiB available memory on the node where the printing process lives
------------------
     ethr =  5.86E-10,  avg # of iterations =  3.5

     negative rho (up, down):  7.924E-01 0.000E+00

     total cpu time spent up to now is      578.0 secs

     total energy              =   -4399.91877597 Ry
     estimated scf accuracy    <       0.00000178 Ry

     iteration # 40     ecut=    60.00 Ry     beta= 0.15
     Davidson diagonalization with overlap

---- Real-time Memory Report at c_bands before calling an iterative solver
             0 MiB given to the printing process from OS
             0 MiB allocation reported by mallinfo(arena+hblkhd)
        168986 MiB available memory on the node where the printing process lives
------------------
     ethr =  4.19E-10,  avg # of iterations =  3.5

     negative rho (up, down):  7.923E-01 0.000E+00

     total cpu time spent up to now is      592.2 secs

     total energy              =   -4399.91877563 Ry
     estimated scf accuracy    <       0.00000099 Ry

     iteration # 41     ecut=    60.00 Ry     beta= 0.15
     Davidson diagonalization with overlap

---- Real-time Memory Report at c_bands before calling an iterative solver
             0 MiB given to the printing process from OS
             0 MiB allocation reported by mallinfo(arena+hblkhd)
        168988 MiB available memory on the node where the printing process lives
------------------
     ethr =  2.33E-10,  avg # of iterations =  3.2

     negative rho (up, down):  7.923E-01 0.000E+00

     total cpu time spent up to now is      606.2 secs

     total energy              =   -4399.91877574 Ry
     estimated scf accuracy    <       0.00000055 Ry

     iteration # 42     ecut=    60.00 Ry     beta= 0.15
     Davidson diagonalization with overlap

---- Real-time Memory Report at c_bands before calling an iterative solver
             0 MiB given to the printing process from OS
             0 MiB allocation reported by mallinfo(arena+hblkhd)
        168990 MiB available memory on the node where the printing process lives
------------------
     ethr =  1.29E-10,  avg # of iterations =  2.1

     negative rho (up, down):  7.923E-01 0.000E+00

     total cpu time spent up to now is      619.7 secs

     total energy              =   -4399.91877588 Ry
     estimated scf accuracy    <       0.00000037 Ry

     iteration # 43     ecut=    60.00 Ry     beta= 0.15
     Davidson diagonalization with overlap

---- Real-time Memory Report at c_bands before calling an iterative solver
             0 MiB given to the printing process from OS
             0 MiB allocation reported by mallinfo(arena+hblkhd)
        168994 MiB available memory on the node where the printing process lives
------------------
     ethr =  8.62E-11,  avg # of iterations =  2.0

     negative rho (up, down):  7.923E-01 0.000E+00

     total cpu time spent up to now is      633.3 secs

     total energy              =   -4399.91877618 Ry
     estimated scf accuracy    <       0.00000029 Ry

     iteration # 44     ecut=    60.00 Ry     beta= 0.15
     Davidson diagonalization with overlap

---- Real-time Memory Report at c_bands before calling an iterative solver
             0 MiB given to the printing process from OS
             0 MiB allocation reported by mallinfo(arena+hblkhd)
        169000 MiB available memory on the node where the printing process lives
------------------
     ethr =  6.73E-11,  avg # of iterations =  2.8

     negative rho (up, down):  7.924E-01 0.000E+00

     total cpu time spent up to now is      647.0 secs

     total energy              =   -4399.91877665 Ry
     estimated scf accuracy    <       0.00000014 Ry

     iteration # 45     ecut=    60.00 Ry     beta= 0.15
     Davidson diagonalization with overlap

---- Real-time Memory Report at c_bands before calling an iterative solver
             0 MiB given to the printing process from OS
             0 MiB allocation reported by mallinfo(arena+hblkhd)
        169001 MiB available memory on the node where the printing process lives
------------------
     ethr =  3.40E-11,  avg # of iterations =  4.3

     negative rho (up, down):  7.924E-01 0.000E+00

     total cpu time spent up to now is      663.4 secs

     total energy              =   -4399.91877669 Ry
     estimated scf accuracy    <       0.00000003 Ry

     iteration # 46     ecut=    60.00 Ry     beta= 0.15
     Davidson diagonalization with overlap

---- Real-time Memory Report at c_bands before calling an iterative solver
             0 MiB given to the printing process from OS
             0 MiB allocation reported by mallinfo(arena+hblkhd)
        169000 MiB available memory on the node where the printing process lives
------------------
     ethr =  7.82E-12,  avg # of iterations =  2.9

     negative rho (up, down):  7.924E-01 0.000E+00

     total cpu time spent up to now is      677.2 secs

     total energy              =   -4399.91877670 Ry
     estimated scf accuracy    <       0.00000002 Ry

     iteration # 47     ecut=    60.00 Ry     beta= 0.15
     Davidson diagonalization with overlap

---- Real-time Memory Report at c_bands before calling an iterative solver
             0 MiB given to the printing process from OS
             0 MiB allocation reported by mallinfo(arena+hblkhd)
        168997 MiB available memory on the node where the printing process lives
------------------
     ethr =  4.16E-12,  avg # of iterations =  2.9

     negative rho (up, down):  7.924E-01 0.000E+00

     total cpu time spent up to now is      690.9 secs

     total energy              =   -4399.91877670 Ry
     estimated scf accuracy    <       0.00000001 Ry

     iteration # 48     ecut=    60.00 Ry     beta= 0.15
     Davidson diagonalization with overlap

---- Real-time Memory Report at c_bands before calling an iterative solver
             0 MiB given to the printing process from OS
             0 MiB allocation reported by mallinfo(arena+hblkhd)
        169003 MiB available memory on the node where the printing process lives
------------------
     ethr =  3.31E-12,  avg # of iterations =  3.6

     negative rho (up, down):  7.924E-01 0.000E+00

     total cpu time spent up to now is      704.7 secs

     End of self-consistent calculation

          k = 0.0000 0.0000 0.0000 ( 65197 PWs)   bands (ev):

   -92.7246 -92.6704 -92.5783 -92.5312 -92.4718 -92.4313 -92.4133 -92.2906
   -56.0780 -56.0570 -55.9357 -55.9252 -55.9173 -55.9120 -55.8742 -55.8476
   -55.8318 -55.8310 -55.8218 -55.7797 -55.7634 -55.7231 -55.7047 -55.6709
   -55.6664 -55.6191 -55.6177 -55.6164 -55.6080 -55.5650 -55.5438 -55.4571
   -31.3009 -31.2813 -31.1781 -31.1392 -31.0519 -30.9896 -30.9592 -30.6096
   -29.8734 -29.8293 -29.8032 -29.6944 -15.1047 -15.0618 -14.9812 -14.8502
   -14.6603 -14.5352 -14.2442 -14.2250 -14.1949 -14.1505 -14.1030 -14.0914
   -14.0845 -14.0648 -14.0496 -14.0120 -13.9555 -13.8041 -13.6278 -13.5919
   -13.5609 -13.5334 -13.5133 -13.4583 -13.4247 -13.3451 -13.2738 -13.1741
   -13.1595 -13.1335 -13.1191 -13.0984 -13.0798 -13.0444 -13.0263 -13.0141
   -12.9809 -12.9588 -12.9523 -12.9408 -12.9194 -12.8875 -12.8732 -12.8325
   -12.8154 -12.6106 -12.6017 -12.5520 -12.3651 -12.2195 -12.0338 -11.9634
   -11.8860 -11.8124 -11.8009 -11.7778 -11.7600 -11.6966 -11.6792 -11.6449
   -11.6162 -11.5031 -11.4239 -11.4203  -2.9658  -2.7332  -2.5035  -2.3572
    -2.2936  -2.1513  -1.8444  -1.8303  -1.8104  -1.7271  -1.7072  -1.6389
    -1.6223  -1.5808  -1.5382  -1.3556  -1.1329  -1.1021  -0.9546  -0.9404
    -0.8952  -0.8761  -0.8313  -0.8150  -0.7582  -0.7313  -0.6578  -0.6473
    -0.5709  -0.4391  -0.4263  -0.3981  -0.3172  -0.3038  -0.2910  -0.2265
    -0.1530  -0.1032  -0.0575  -0.0301   0.0358   0.1024   0.1567   0.1745
     0.1899   0.4458   0.4601   0.6315   0.7012   0.7671   0.8067   0.8982
     0.9113   0.9258   0.9973   1.0246   1.0583   1.1181   1.2495   1.3068
     1.3273   1.3469   1.3603   1.4242   1.4979   1.6023   1.6125   1.6778
     1.6928   1.7349   1.7493   1.7584   1.8156   1.8708   1.8807   1.9121
     1.9521   2.0009   2.1330   2.2214   2.2606   2.2719   2.4284   2.4408
     2.4886   2.4912   2.5953   2.6329   2.6572   2.6765   2.6917   2.7518
     2.7908   2.8877   2.9146   2.9279   2.9346   3.0015   3.0051   3.0295
     3.0377   3.0463   3.0560   3.0658   3.0779   3.0851   3.0963   3.1054
     3.1141   3.1333   3.1544   3.1591   3.1715   3.2137   3.3140   3.4078
     4.0863   4.4046   4.7468   4.8559   5.0196   5.8039   5.9319   5.9590
     5.9785   6.2903   6.3377   6.4722   6.4808   6.7381   6.9940   7.0841
     7.1461   7.2946   7.4671   7.5747   7.6286   7.6483   7.6688   7.9008
     7.9374   8.0876   8.1018   8.2153   8.4579   8.5989   8.7835   8.8534

     occupation numbers 
     1.0000   1.0000   1.0000   1.0000   1.0000   1.0000   1.0000   1.0000
     1.0000   1.0000   1.0000   1.0000   1.0000   1.0000   1.0000   1.0000
     1.0000   1.0000   1.0000   1.0000   1.0000   1.0000   1.0000   1.0000
     1.0000   1.0000   1.0000   1.0000   1.0000   1.0000   1.0000   1.0000
     1.0000   1.0000   1.0000   1.0000   1.0000   1.0000   1.0000   1.0000
     1.0000   1.0000   1.0000   1.0000   1.0000   1.0000   1.0000   1.0000
     1.0000   1.0000   1.0000   1.0000   1.0000   1.0000   1.0000   1.0000
     1.0000   1.0000   1.0000   1.0000   1.0000   1.0000   1.0000   1.0000
     1.0000   1.0000   1.0000   1.0000   1.0000   1.0000   1.0000   1.0000
     1.0000   1.0000   1.0000   1.0000   1.0000   1.0000   1.0000   1.0000
     1.0000   1.0000   1.0000   1.0000   1.0000   1.0000   1.0000   1.0000
     1.0000   1.0000   1.0000   1.0000   1.0000   1.0000   1.0000   1.0000
     1.0000   1.0000   1.0000   1.0000   1.0000   1.0000   1.0000   1.0000
     1.0000   1.0000   1.0000   1.0000   1.0000   1.0000   1.0000   1.0000
     1.0000   1.0000   1.0000   1.0000   1.0000   1.0000   1.0000   1.0000
     1.0000   1.0000   1.0000   1.0000   1.0000   1.0000   1.0000   1.0000
     1.0000   1.0000   1.0000   1.0000   1.0000   1.0000   1.0000   1.0000
     1.0000   1.0000   1.0000   1.0000   1.0000   1.0000   1.0000   1.0000
     1.0000   1.0000   1.0000   1.0000   1.0000   1.0000   1.0000   1.0000
     1.0000   1.0000   1.0000   1.0000   0.9999   0.9999   0.9999   0.9998
     0.9998   0.9998   0.9997   0.9996   0.9996   0.9994   0.9989   0.9985
     0.9983   0.9982   0.9980   0.9974   0.9963   0.9942   0.9940   0.9921
     0.9916   0.9901   0.9895   0.9891   0.9864   0.9833   0.9827   0.9806
     0.9776   0.9734   0.9589   0.9459   0.9392   0.9372   0.9030   0.8998
     0.8868   0.8860   0.8534   0.8402   0.8313   0.8240   0.8181   0.7936
     0.7766   0.7314   0.7180   0.7114   0.7079   0.6729   0.6710   0.6578
     0.6533   0.6485   0.6432   0.6378   0.6310   0.6270   0.6207   0.6155
     0.6105   0.5996   0.5874   0.5847   0.5775   0.5529   0.4936   0.4383
     0.1225   0.0510   0.0160   0.0106   0.0054   0.0001   0.0000   0.0000
     0.0000   0.0000   0.0000   0.0000   0.0000   0.0000   0.0000   0.0000
     0.0000   0.0000   0.0000   0.0000   0.0000   0.0000   0.0000   0.0000
     0.0000   0.0000   0.0000   0.0000   0.0000   0.0000   0.0000   0.0000

          k = 0.0000 0.2500 0.0000 ( 65257 PWs)   bands (ev):

   -92.7246 -92.6704 -92.5783 -92.5312 -92.4718 -92.4313 -92.4133 -92.2906
   -56.0780 -56.0570 -55.9357 -55.9252 -55.9173 -55.9120 -55.8742 -55.8476
   -55.8318 -55.8310 -55.8218 -55.7797 -55.7634 -55.7231 -55.7047 -55.6709
   -55.6664 -55.6191 -55.6177 -55.6164 -55.6080 -55.5650 -55.5438 -55.4571
   -31.3007 -31.2812 -31.1779 -31.1394 -31.0521 -30.9898 -30.9592 -30.6097
   -29.8728 -29.8290 -29.8038 -29.6948 -15.0682 -15.0353 -14.9558 -14.8211
   -14.7007 -14.5266 -14.3887 -14.2094 -14.1770 -14.1547 -14.1265 -14.0681
   -14.0607 -14.0455 -14.0311 -13.9864 -13.8743 -13.8354 -13.6712 -13.6531
   -13.6028 -13.5666 -13.5249 -13.4767 -13.4324 -13.3666 -13.3310 -13.2776
   -13.2230 -13.1712 -13.1493 -13.1306 -13.1081 -13.0153 -12.9898 -12.9669
   -12.9556 -12.9307 -12.9235 -12.8940 -12.8823 -12.8560 -12.8203 -12.7609
   -12.7190 -12.5698 -12.5408 -12.5053 -12.4264 -12.2707 -12.0854 -12.0245
   -11.8514 -11.8092 -11.7810 -11.7522 -11.7356 -11.6885 -11.6772 -11.6547
   -11.6213 -11.5173 -11.4654 -11.4549  -2.8305  -2.6088  -2.4712  -2.2893
    -2.2458  -2.0818  -1.8631  -1.7778  -1.7647  -1.7082  -1.6038  -1.5892
    -1.5560  -1.5284  -1.4849  -1.2867  -1.1583  -1.1469  -1.0709  -1.0604
    -0.9561  -0.9256  -0.8679  -0.8435  -0.8020  -0.7389  -0.7125  -0.6800
    -0.6473  -0.6307  -0.5985  -0.5235  -0.4735  -0.4114  -0.2941  -0.2782
    -0.2344  -0.1131  -0.0748  -0.0208   0.0313   0.0827   0.1062   0.1357
     0.1970   0.4930   0.5808   0.6138   0.6986   0.7443   0.7666   0.8834
     0.9026   0.9981   1.0243   1.0517   1.1653   1.2583   1.2826   1.3063
     1.3219   1.3497   1.4106   1.4365   1.4657   1.5126   1.5475   1.5763
     1.6615   1.6935   1.7286   1.7803   1.8397   1.8819   1.9042   1.9294
     1.9499   2.0369   2.1728   2.2415   2.2563   2.3346   2.3803   2.4237
     2.4311   2.4899   2.5306   2.6121   2.6505   2.6679   2.7724   2.8412
     2.8710   2.8996   2.9184   2.9347   2.9429   2.9508   2.9633   2.9890
     2.9911   3.0108   3.0164   3.0240   3.0412   3.0531   3.0621   3.0840
     3.0950   3.1003   3.1358   3.1517   3.2117   3.5905   3.6281   3.8533
     4.2742   4.4011   4.6871   5.0143   5.0405   5.6221   5.7604   5.9017
     5.9694   6.0689   6.0862   6.1659   6.5875   6.8922   6.9550   7.0989
     7.3162   7.3436   7.4667   7.4843   7.6277   7.7455   7.8223   7.9880
     8.0031   8.1214   8.1946   8.2964   8.3916   8.6096   8.7366   8.9132

     occupation numbers 
     1.0000   1.0000   1.0000   1.0000   1.0000   1.0000   1.0000   1.0000
     1.0000   1.0000   1.0000   1.0000   1.0000   1.0000   1.0000   1.0000
     1.0000   1.0000   1.0000   1.0000   1.0000   1.0000   1.0000   1.0000
     1.0000   1.0000   1.0000   1.0000   1.0000   1.0000   1.0000   1.0000
     1.0000   1.0000   1.0000   1.0000   1.0000   1.0000   1.0000   1.0000
     1.0000   1.0000   1.0000   1.0000   1.0000   1.0000   1.0000   1.0000
     1.0000   1.0000   1.0000   1.0000   1.0000   1.0000   1.0000   1.0000
     1.0000   1.0000   1.0000   1.0000   1.0000   1.0000   1.0000   1.0000
     1.0000   1.0000   1.0000   1.0000   1.0000   1.0000   1.0000   1.0000
     1.0000   1.0000   1.0000   1.0000   1.0000   1.0000   1.0000   1.0000
     1.0000   1.0000   1.0000   1.0000   1.0000   1.0000   1.0000   1.0000
     1.0000   1.0000   1.0000   1.0000   1.0000   1.0000   1.0000   1.0000
     1.0000   1.0000   1.0000   1.0000   1.0000   1.0000   1.0000   1.0000
     1.0000   1.0000   1.0000   1.0000   1.0000   1.0000   1.0000   1.0000
     1.0000   1.0000   1.0000   1.0000   1.0000   1.0000   1.0000   1.0000
     1.0000   1.0000   1.0000   1.0000   1.0000   1.0000   1.0000   1.0000
     1.0000   1.0000   1.0000   1.0000   1.0000   1.0000   1.0000   1.0000
     1.0000   1.0000   1.0000   1.0000   1.0000   1.0000   1.0000   1.0000
     1.0000   1.0000   1.0000   1.0000   1.0000   1.0000   1.0000   1.0000
     1.0000   1.0000   1.0000   1.0000   0.9999   0.9999   0.9999   0.9998
     0.9998   0.9997   0.9996   0.9996   0.9992   0.9988   0.9987   0.9985
     0.9984   0.9981   0.9975   0.9972   0.9968   0.9961   0.9954   0.9948
     0.9926   0.9916   0.9903   0.9881   0.9851   0.9826   0.9811   0.9793
     0.9778   0.9700   0.9534   0.9425   0.9400   0.9248   0.9147   0.9042
     0.9023   0.8864   0.8743   0.8476   0.8338   0.8272   0.7847   0.7536
     0.7395   0.7255   0.7161   0.7079   0.7037   0.6996   0.6931   0.6796
     0.6785   0.6679   0.6649   0.6608   0.6514   0.6448   0.6398   0.6276
     0.6214   0.6184   0.5982   0.5890   0.5540   0.3348   0.3148   0.2070
     0.0747   0.0515   0.0199   0.0055   0.0049   0.0003   0.0001   0.0001
     0.0000   0.0000   0.0000   0.0000   0.0000   0.0000   0.0000   0.0000
     0.0000   0.0000   0.0000   0.0000   0.0000   0.0000   0.0000   0.0000
     0.0000   0.0000   0.0000   0.0000   0.0000   0.0000   0.0000   0.0000

          k = 0.0000-0.5000 0.0000 ( 65180 PWs)   bands (ev):

   -92.7246 -92.6704 -92.5783 -92.5312 -92.4718 -92.4313 -92.4133 -92.2906
   -56.0780 -56.0570 -55.9357 -55.9252 -55.9173 -55.9120 -55.8742 -55.8476
   -55.8318 -55.8310 -55.8218 -55.7797 -55.7634 -55.7231 -55.7047 -55.6709
   -55.6664 -55.6191 -55.6177 -55.6164 -55.6080 -55.5650 -55.5438 -55.4571
   -31.3005 -31.2810 -31.1778 -31.1396 -31.0522 -30.9899 -30.9591 -30.6098
   -29.8722 -29.8287 -29.8045 -29.6951 -15.0330 -14.9853 -14.9296 -14.8069
   -14.7180 -14.5857 -14.4249 -14.3130 -14.1807 -14.1136 -14.0684 -14.0617
   -14.0117 -13.9950 -13.9449 -13.9283 -13.8991 -13.8690 -13.8410 -13.7878
   -13.6065 -13.5488 -13.5321 -13.4799 -13.4251 -13.3823 -13.3486 -13.3097
   -13.3061 -13.2404 -13.1505 -13.1308 -13.1026 -13.0199 -12.9885 -12.9759
   -12.9512 -12.9280 -12.9053 -12.8834 -12.8534 -12.7286 -12.7225 -12.6909
   -12.6748 -12.5605 -12.5370 -12.4499 -12.3470 -12.3454 -12.1689 -12.1242
   -11.8062 -11.8032 -11.7758 -11.7378 -11.7038 -11.6928 -11.6511 -11.6470
   -11.6029 -11.5390 -11.5254 -11.5118  -2.6154  -2.5569  -2.4053  -2.3337
    -2.0523  -1.9689  -1.8403  -1.7040  -1.6670  -1.6465  -1.5689  -1.5386
    -1.4543  -1.4203  -1.3424  -1.3026  -1.2643  -1.2375  -1.1779  -1.1422
    -1.0967  -1.0610  -1.0258  -0.9938  -0.8821  -0.8379  -0.8031  -0.8009
    -0.7152  -0.6845  -0.6614  -0.6130  -0.5275  -0.4524  -0.3706  -0.3443
    -0.2272  -0.1951  -0.0536  -0.0221   0.0138   0.0571   0.1834   0.2491
     0.3681   0.4357   0.4436   0.5723   0.6219   0.7123   0.8540   0.9562
     0.9881   1.0281   1.0348   1.0677   1.0887   1.1242   1.1405   1.1536
     1.2642   1.3241   1.3488   1.3712   1.6396   1.6694   1.6946   1.7864
     1.8069   1.8468   1.8635   1.8877   1.9049   1.9148   1.9419   1.9759
     2.0051   2.0319   2.0435   2.0731   2.1271   2.2122   2.2490   2.4176
     2.5776   2.5813   2.6039   2.6360   2.6459   2.6559   2.7027   2.7214
     2.7757   2.7950   2.8044   2.8717   2.8895   2.9561   2.9686   2.9860
     2.9876   3.0065   3.0122   3.0141   3.0210   3.0295   3.0360   3.0540
     3.0566   3.1209   3.1252   3.1416   3.1979   4.0975   4.1318   4.1803
     4.2303   4.7065   4.8899   5.0076   5.1356   5.3989   5.4481   5.5674
     5.6961   5.9852   6.0244   6.0414   6.7286   6.8391   6.9446   7.2056
     7.3022   7.3693   7.4350   7.4944   7.7051   7.7349   7.8045   7.8906
     8.1139   8.2546   8.4602   8.5480   8.6549   8.7430   8.7953   8.8251

     occupation numbers 
     1.0000   1.0000   1.0000   1.0000   1.0000   1.0000   1.0000   1.0000
     1.0000   1.0000   1.0000   1.0000   1.0000   1.0000   1.0000   1.0000
     1.0000   1.0000   1.0000   1.0000   1.0000   1.0000   1.0000   1.0000
     1.0000   1.0000   1.0000   1.0000   1.0000   1.0000   1.0000   1.0000
     1.0000   1.0000   1.0000   1.0000   1.0000   1.0000   1.0000   1.0000
     1.0000   1.0000   1.0000   1.0000   1.0000   1.0000   1.0000   1.0000
     1.0000   1.0000   1.0000   1.0000   1.0000   1.0000   1.0000   1.0000
     1.0000   1.0000   1.0000   1.0000   1.0000   1.0000   1.0000   1.0000
     1.0000   1.0000   1.0000   1.0000   1.0000   1.0000   1.0000   1.0000
     1.0000   1.0000   1.0000   1.0000   1.0000   1.0000   1.0000   1.0000
     1.0000   1.0000   1.0000   1.0000   1.0000   1.0000   1.0000   1.0000
     1.0000   1.0000   1.0000   1.0000   1.0000   1.0000   1.0000   1.0000
     1.0000   1.0000   1.0000   1.0000   1.0000   1.0000   1.0000   1.0000
     1.0000   1.0000   1.0000   1.0000   1.0000   1.0000   1.0000   1.0000
     1.0000   1.0000   1.0000   1.0000   1.0000   1.0000   1.0000   1.0000
     1.0000   1.0000   1.0000   1.0000   1.0000   1.0000   1.0000   1.0000
     1.0000   1.0000   1.0000   1.0000   1.0000   1.0000   1.0000   1.0000
     1.0000   1.0000   1.0000   1.0000   1.0000   1.0000   1.0000   1.0000
     1.0000   1.0000   1.0000   1.0000   1.0000   1.0000   1.0000   1.0000
     1.0000   1.0000   1.0000   1.0000   1.0000   0.9999   0.9999   0.9998
     0.9997   0.9996   0.9996   0.9995   0.9995   0.9994   0.9993   0.9993
     0.9988   0.9984   0.9981   0.9979   0.9932   0.9924   0.9915   0.9878
     0.9869   0.9847   0.9837   0.9822   0.9811   0.9804   0.9784   0.9756
     0.9730   0.9705   0.9693   0.9661   0.9596   0.9474   0.9413   0.9058
     0.8593   0.8581   0.8504   0.8391   0.8355   0.8318   0.8137   0.8062
     0.7833   0.7748   0.7706   0.7391   0.7305   0.6969   0.6904   0.6812
     0.6804   0.6702   0.6672   0.6661   0.6624   0.6578   0.6542   0.6443
     0.6429   0.6067   0.6042   0.5948   0.5621   0.1191   0.1093   0.0964
     0.0843   0.0186   0.0092   0.0057   0.0033   0.0009   0.0007   0.0004
     0.0002   0.0000   0.0000   0.0000   0.0000   0.0000   0.0000   0.0000
     0.0000   0.0000   0.0000   0.0000   0.0000   0.0000   0.0000   0.0000
     0.0000   0.0000   0.0000   0.0000   0.0000   0.0000   0.0000   0.0000

          k = 0.2500 0.2500 0.0000 ( 65198 PWs)   bands (ev):

   -92.7246 -92.6704 -92.5783 -92.5312 -92.4718 -92.4313 -92.4133 -92.2906
   -56.0780 -56.0570 -55.9357 -55.9252 -55.9173 -55.9120 -55.8742 -55.8476
   -55.8318 -55.8310 -55.8218 -55.7797 -55.7634 -55.7231 -55.7047 -55.6709
   -55.6664 -55.6191 -55.6177 -55.6164 -55.6080 -55.5650 -55.5438 -55.4571
   -31.2991 -31.2828 -31.1778 -31.1390 -31.0525 -30.9897 -30.9593 -30.6098
   -29.8719 -29.8299 -29.8034 -29.6952 -15.0395 -15.0001 -14.9278 -14.8109
   -14.6931 -14.5664 -14.4949 -14.2912 -14.1327 -14.1203 -14.0854 -14.0556
   -14.0320 -14.0024 -13.9771 -13.9483 -13.8657 -13.8498 -13.6870 -13.6744
   -13.6437 -13.6245 -13.5804 -13.5340 -13.4658 -13.4496 -13.3372 -13.3060
   -13.2524 -13.1676 -13.1304 -13.1112 -13.0686 -13.0425 -13.0030 -12.9733
   -12.9681 -12.9421 -12.9044 -12.8632 -12.8396 -12.8116 -12.7665 -12.7366
   -12.7009 -12.5694 -12.5204 -12.4748 -12.3852 -12.2998 -12.1086 -12.0752
   -11.8239 -11.7923 -11.7813 -11.7745 -11.7117 -11.6764 -11.6700 -11.6349
   -11.6273 -11.5340 -11.4936 -11.4763  -2.6922  -2.4830  -2.3651  -2.2715
    -2.1500  -2.0849  -1.8881  -1.7426  -1.7234  -1.6949  -1.5988  -1.5663
    -1.4720  -1.4436  -1.3941  -1.2627  -1.2142  -1.1427  -1.0974  -1.0526
    -1.0295  -1.0047  -0.9621  -0.9470  -0.8568  -0.8064  -0.7419  -0.6921
    -0.6611  -0.6118  -0.5988  -0.5350  -0.4860  -0.4310  -0.3941  -0.3104
    -0.2548  -0.2284  -0.1884  -0.1337  -0.0506  -0.0218  -0.0001   0.0790
     0.1094   0.3842   0.5327   0.5678   0.6254   0.6679   0.7194   0.7751
     0.8392   0.8758   1.1470   1.2153   1.2887   1.3151   1.3617   1.3937
     1.4296   1.4674   1.4846   1.5124   1.5585   1.5637   1.5791   1.6212
     1.6606   1.7024   1.7660   1.7988   1.8080   1.8433   1.8786   1.9281
     1.9587   2.0767   2.1527   2.1879   2.2107   2.2716   2.3418   2.3709
     2.4074   2.4352   2.4432   2.5544   2.5917   2.6808   2.7879   2.8528
     2.8705   2.8756   2.8931   2.9096   2.9222   2.9324   2.9409   2.9494
     2.9637   2.9754   2.9941   2.9999   3.0118   3.0324   3.0462   3.0560
     3.0860   3.3873   3.4818   3.5218   3.5906   3.6416   3.8304   3.9306
     4.2823   4.4900   4.6911   4.9597   5.1597   5.6238   5.6743   5.7279
     5.8142   5.8726   5.9910   6.1569   6.1989   6.7853   6.8880   7.0547
     7.1710   7.5369   7.5864   7.6934   7.8255   7.8569   7.9533   8.1022
     8.1476   8.1955   8.2853   8.3443   8.4243   8.4604   8.6480   8.8148

     occupation numbers 
     1.0000   1.0000   1.0000   1.0000   1.0000   1.0000   1.0000   1.0000
     1.0000   1.0000   1.0000   1.0000   1.0000   1.0000   1.0000   1.0000
     1.0000   1.0000   1.0000   1.0000   1.0000   1.0000   1.0000   1.0000
     1.0000   1.0000   1.0000   1.0000   1.0000   1.0000   1.0000   1.0000
     1.0000   1.0000   1.0000   1.0000   1.0000   1.0000   1.0000   1.0000
     1.0000   1.0000   1.0000   1.0000   1.0000   1.0000   1.0000   1.0000
     1.0000   1.0000   1.0000   1.0000   1.0000   1.0000   1.0000   1.0000
     1.0000   1.0000   1.0000   1.0000   1.0000   1.0000   1.0000   1.0000
     1.0000   1.0000   1.0000   1.0000   1.0000   1.0000   1.0000   1.0000
     1.0000   1.0000   1.0000   1.0000   1.0000   1.0000   1.0000   1.0000
     1.0000   1.0000   1.0000   1.0000   1.0000   1.0000   1.0000   1.0000
     1.0000   1.0000   1.0000   1.0000   1.0000   1.0000   1.0000   1.0000
     1.0000   1.0000   1.0000   1.0000   1.0000   1.0000   1.0000   1.0000
     1.0000   1.0000   1.0000   1.0000   1.0000   1.0000   1.0000   1.0000
     1.0000   1.0000   1.0000   1.0000   1.0000   1.0000   1.0000   1.0000
     1.0000   1.0000   1.0000   1.0000   1.0000   1.0000   1.0000   1.0000
     1.0000   1.0000   1.0000   1.0000   1.0000   1.0000   1.0000   1.0000
     1.0000   1.0000   1.0000   1.0000   1.0000   1.0000   1.0000   1.0000
     1.0000   1.0000   1.0000   1.0000   1.0000   1.0000   1.0000   1.0000
     1.0000   1.0000   1.0000   1.0000   1.0000   1.0000   0.9999   0.9999
     0.9999   0.9998   0.9993   0.9990   0.9986   0.9984   0.9980   0.9977
     0.9973   0.9968   0.9965   0.9961   0.9952   0.9951   0.9948   0.9937
     0.9926   0.9913   0.9888   0.9873   0.9868   0.9849   0.9828   0.9794
     0.9771   0.9657   0.9562   0.9512   0.9476   0.9372   0.9233   0.9169
     0.9083   0.9013   0.8992   0.8669   0.8546   0.8223   0.7779   0.7482
     0.7397   0.7373   0.7287   0.7205   0.7142   0.7090   0.7047   0.7004
     0.6929   0.6868   0.6769   0.6738   0.6674   0.6562   0.6486   0.6432
     0.6265   0.4503   0.3954   0.3728   0.3348   0.3077   0.2168   0.1758
     0.0730   0.0390   0.0197   0.0070   0.0029   0.0003   0.0002   0.0002
     0.0001   0.0001   0.0000   0.0000   0.0000   0.0000   0.0000   0.0000
     0.0000   0.0000   0.0000   0.0000   0.0000   0.0000   0.0000   0.0000
     0.0000   0.0000   0.0000   0.0000   0.0000   0.0000   0.0000   0.0000

          k = 0.2500-0.5000 0.0000 ( 65138 PWs)   bands (ev):

   -92.7246 -92.6704 -92.5783 -92.5312 -92.4718 -92.4313 -92.4133 -92.2906
   -56.0780 -56.0570 -55.9357 -55.9252 -55.9173 -55.9120 -55.8742 -55.8476
   -55.8318 -55.8310 -55.8218 -55.7797 -55.7634 -55.7231 -55.7047 -55.6709
   -55.6664 -55.6191 -55.6177 -55.6164 -55.6080 -55.5650 -55.5438 -55.4571
   -31.2989 -31.2827 -31.1776 -31.1392 -31.0526 -30.9899 -30.9592 -30.6099
   -29.8713 -29.8296 -29.8041 -29.6955 -15.0022 -14.9584 -14.8864 -14.7772
   -14.7413 -14.6253 -14.5304 -14.4078 -14.0972 -14.0463 -14.0192 -13.9952
   -13.9813 -13.9662 -13.9296 -13.9160 -13.8834 -13.8438 -13.8280 -13.7787
   -13.6891 -13.6412 -13.5967 -13.5615 -13.4928 -13.4752 -13.3920 -13.3665
   -13.2299 -13.1651 -13.1510 -13.0951 -13.0538 -13.0141 -13.0008 -12.9704
   -12.9611 -12.9346 -12.9213 -12.8632 -12.8552 -12.7593 -12.7397 -12.6789
   -12.6476 -12.5639 -12.5436 -12.4138 -12.3434 -12.3073 -12.1618 -12.1315
   -11.7997 -11.7876 -11.7764 -11.7493 -11.7181 -11.6890 -11.6488 -11.6202
   -11.5989 -11.5521 -11.5268 -11.5160  -2.4736  -2.4087  -2.2791  -2.2024
    -2.0727  -1.9890  -1.8648  -1.7155  -1.6616  -1.6392  -1.5771  -1.5639
    -1.4650  -1.4001  -1.3144  -1.2646  -1.2554  -1.1923  -1.1491  -1.1153
    -1.0681  -1.0314  -0.9960  -0.9558  -0.9432  -0.8998  -0.8705  -0.8290
    -0.7975  -0.7307  -0.6300  -0.5895  -0.5107  -0.4451  -0.3965  -0.3539
    -0.3335  -0.2763  -0.1160  -0.1067  -0.0096   0.0294   0.0361   0.0807
     0.1179   0.1534   0.1857   0.2519   0.5261   0.6236   0.6785   0.7399
     1.0121   1.0311   1.1192   1.1477   1.3122   1.3453   1.3883   1.4121
     1.4268   1.4472   1.5088   1.5551   1.5905   1.6658   1.7688   1.8056
     1.8214   1.8282   1.8688   1.8813   1.8920   1.9345   1.9439   1.9656
     1.9878   2.0115   2.0356   2.0668   2.1263   2.1666   2.2469   2.3840
     2.5305   2.5465   2.5640   2.5909   2.6128   2.6400   2.6680   2.6792
     2.6972   2.8002   2.8160   2.8518   2.8718   2.8783   2.8925   2.9098
     2.9244   2.9427   2.9520   2.9816   2.9928   3.0086   3.0166   3.0246
     3.0359   3.5531   3.5796   3.7191   3.7745   4.1087   4.1610   4.1860
     4.2923   4.7270   4.9106   5.0415   5.1097   5.2815   5.4148   5.5815
     5.6127   5.7433   5.7730   6.1307   6.3821   6.4741   6.6196   7.0270
     7.4740   7.5082   7.6855   7.7884   7.8129   7.8614   8.0203   8.1803
     8.2770   8.4039   8.4730   8.5142   8.5207   8.6461   8.7117   8.7562

     occupation numbers 
     1.0000   1.0000   1.0000   1.0000   1.0000   1.0000   1.0000   1.0000
     1.0000   1.0000   1.0000   1.0000   1.0000   1.0000   1.0000   1.0000
     1.0000   1.0000   1.0000   1.0000   1.0000   1.0000   1.0000   1.0000
     1.0000   1.0000   1.0000   1.0000   1.0000   1.0000   1.0000   1.0000
     1.0000   1.0000   1.0000   1.0000   1.0000   1.0000   1.0000   1.0000
     1.0000   1.0000   1.0000   1.0000   1.0000   1.0000   1.0000   1.0000
     1.0000   1.0000   1.0000   1.0000   1.0000   1.0000   1.0000   1.0000
     1.0000   1.0000   1.0000   1.0000   1.0000   1.0000   1.0000   1.0000
     1.0000   1.0000   1.0000   1.0000   1.0000   1.0000   1.0000   1.0000
     1.0000   1.0000   1.0000   1.0000   1.0000   1.0000   1.0000   1.0000
     1.0000   1.0000   1.0000   1.0000   1.0000   1.0000   1.0000   1.0000
     1.0000   1.0000   1.0000   1.0000   1.0000   1.0000   1.0000   1.0000
     1.0000   1.0000   1.0000   1.0000   1.0000   1.0000   1.0000   1.0000
     1.0000   1.0000   1.0000   1.0000   1.0000   1.0000   1.0000   1.0000
     1.0000   1.0000   1.0000   1.0000   1.0000   1.0000   1.0000   1.0000
     1.0000   1.0000   1.0000   1.0000   1.0000   1.0000   1.0000   1.0000
     1.0000   1.0000   1.0000   1.0000   1.0000   1.0000   1.0000   1.0000
     1.0000   1.0000   1.0000   1.0000   1.0000   1.0000   1.0000   1.0000
     1.0000   1.0000   1.0000   1.0000   1.0000   1.0000   1.0000   1.0000
     1.0000   1.0000   1.0000   1.0000   1.0000   1.0000   1.0000   0.9999
     0.9997   0.9996   0.9994   0.9993   0.9984   0.9982   0.9978   0.9975
     0.9973   0.9971   0.9961   0.9953   0.9945   0.9925   0.9886   0.9869
     0.9861   0.9857   0.9834   0.9826   0.9819   0.9789   0.9782   0.9765
     0.9746   0.9724   0.9701   0.9668   0.9597   0.9543   0.9416   0.9138
     0.8744   0.8694   0.8638   0.8549   0.8473   0.8376   0.8272   0.8229
     0.8159   0.7724   0.7653   0.7487   0.7391   0.7359   0.7290   0.7204
     0.7131   0.7038   0.6990   0.6835   0.6776   0.6691   0.6648   0.6604
     0.6543   0.3553   0.3408   0.2684   0.2420   0.1158   0.1014   0.0950
     0.0710   0.0173   0.0085   0.0049   0.0037   0.0017   0.0009   0.0004
     0.0003   0.0001   0.0001   0.0000   0.0000   0.0000   0.0000   0.0000
     0.0000   0.0000   0.0000   0.0000   0.0000   0.0000   0.0000   0.0000
     0.0000   0.0000   0.0000   0.0000   0.0000   0.0000   0.0000   0.0000

          k =-0.5000-0.5000 0.0000 ( 65132 PWs)   bands (ev):

   -92.7246 -92.6704 -92.5783 -92.5312 -92.4718 -92.4313 -92.4133 -92.2906
   -56.0780 -56.0570 -55.9357 -55.9252 -55.9173 -55.9120 -55.8742 -55.8476
   -55.8318 -55.8310 -55.8218 -55.7797 -55.7634 -55.7231 -55.7047 -55.6709
   -55.6664 -55.6191 -55.6177 -55.6164 -55.6080 -55.5650 -55.5438 -55.4571
   -31.2967 -31.2848 -31.1775 -31.1389 -31.0530 -30.9898 -30.9594 -30.6099
   -29.8703 -29.8306 -29.8037 -29.6959 -14.9549 -14.9310 -14.8142 -14.7992
   -14.7056 -14.6708 -14.6391 -14.5060 -14.0091 -13.9968 -13.9623 -13.9453
   -13.9253 -13.9098 -13.8850 -13.8741 -13.8565 -13.8536 -13.8377 -13.7576
   -13.7503 -13.7241 -13.6871 -13.6859 -13.5819 -13.5461 -13.4249 -13.4190
   -13.1813 -13.1480 -13.0726 -13.0663 -13.0480 -13.0136 -13.0067 -12.9974
   -12.9790 -12.9296 -12.8989 -12.8551 -12.8329 -12.8172 -12.7859 -12.6294
   -12.6215 -12.5685 -12.5598 -12.3828 -12.3397 -12.2705 -12.1545 -12.1411
   -11.7956 -11.7840 -11.7664 -11.7490 -11.7148 -11.6966 -11.6612 -11.5998
   -11.5809 -11.5748 -11.5249 -11.5219  -2.2496  -2.1737  -2.1641  -2.0925
    -2.0534  -1.9750  -1.9067  -1.7823  -1.6656  -1.6355  -1.5965  -1.5387
    -1.4677  -1.4519  -1.3818  -1.3395  -1.2229  -1.1930  -1.1466  -1.1160
    -1.0517  -1.0053  -0.9869  -0.9748  -0.9221  -0.8766  -0.8621  -0.7490
    -0.6917  -0.6430  -0.5944  -0.5695  -0.5584  -0.5212  -0.4780  -0.4435
    -0.4332  -0.3472  -0.2776  -0.2340  -0.2073  -0.1346  -0.0756  -0.0620
    -0.0050   0.0131   0.0266   0.0354   0.4938   0.5517   0.6230   0.6527
     1.0418   1.0543   1.0858   1.1227   1.3966   1.4153   1.4235   1.4597
     1.5934   1.6873   1.7148   1.7513   1.7768   1.7926   1.8043   1.8349
     1.8482   1.8667   1.8775   1.9192   1.9266   1.9511   1.9797   1.9863
     2.0014   2.0422   2.0661   2.0757   2.1102   2.1360   2.2076   2.2738
     2.5435   2.5753   2.5951   2.6062   2.6147   2.6482   2.6546   2.6734
     2.6887   2.7059   2.7231   2.7394   2.8020   2.8033   2.8230   2.8290
     2.8430   2.8532   2.8724   2.8867   2.8974   2.9883   2.9942   3.0207
     3.0311   3.9698   4.0110   4.0423   4.0904   4.2947   4.3664   4.3948
     4.6355   4.7576   4.8403   4.9698   5.0589   5.0738   5.1816   5.2841
     5.3622   5.8464   5.8703   5.9499   6.0221   6.3550   6.5480   6.5853
     7.7914   7.8553   7.9028   7.9056   7.9575   7.9811   8.0000   8.0652
     8.2500   8.3727   8.4929   8.5668   8.5984   8.6198   8.6473   8.6998

     occupation numbers 
     1.0000   1.0000   1.0000   1.0000   1.0000   1.0000   1.0000   1.0000
     1.0000   1.0000   1.0000   1.0000   1.0000   1.0000   1.0000   1.0000
     1.0000   1.0000   1.0000   1.0000   1.0000   1.0000   1.0000   1.0000
     1.0000   1.0000   1.0000   1.0000   1.0000   1.0000   1.0000   1.0000
     1.0000   1.0000   1.0000   1.0000   1.0000   1.0000   1.0000   1.0000
     1.0000   1.0000   1.0000   1.0000   1.0000   1.0000   1.0000   1.0000
     1.0000   1.0000   1.0000   1.0000   1.0000   1.0000   1.0000   1.0000
     1.0000   1.0000   1.0000   1.0000   1.0000   1.0000   1.0000   1.0000
     1.0000   1.0000   1.0000   1.0000   1.0000   1.0000   1.0000   1.0000
     1.0000   1.0000   1.0000   1.0000   1.0000   1.0000   1.0000   1.0000
     1.0000   1.0000   1.0000   1.0000   1.0000   1.0000   1.0000   1.0000
     1.0000   1.0000   1.0000   1.0000   1.0000   1.0000   1.0000   1.0000
     1.0000   1.0000   1.0000   1.0000   1.0000   1.0000   1.0000   1.0000
     1.0000   1.0000   1.0000   1.0000   1.0000   1.0000   1.0000   1.0000
     1.0000   1.0000   1.0000   1.0000   1.0000   1.0000   1.0000   1.0000
     1.0000   1.0000   1.0000   1.0000   1.0000   1.0000   1.0000   1.0000
     1.0000   1.0000   1.0000   1.0000   1.0000   1.0000   1.0000   1.0000
     1.0000   1.0000   1.0000   1.0000   1.0000   1.0000   1.0000   1.0000
     1.0000   1.0000   1.0000   1.0000   1.0000   1.0000   1.0000   1.0000
     1.0000   1.0000   1.0000   1.0000   1.0000   1.0000   1.0000   1.0000
     0.9996   0.9996   0.9995   0.9994   0.9977   0.9975   0.9974   0.9969
     0.9944   0.9918   0.9908   0.9894   0.9883   0.9876   0.9870   0.9854
     0.9846   0.9835   0.9829   0.9801   0.9795   0.9777   0.9753   0.9747
     0.9734   0.9694   0.9669   0.9658   0.9618   0.9585   0.9481   0.9368
     0.8704   0.8601   0.8535   0.8497   0.8467   0.8346   0.8323   0.8251
     0.8192   0.8124   0.8055   0.7987   0.7716   0.7711   0.7621   0.7593
     0.7528   0.7480   0.7388   0.7319   0.7266   0.6800   0.6768   0.6625
     0.6569   0.1611   0.1466   0.1362   0.1212   0.0705   0.0572   0.0525
     0.0239   0.0154   0.0112   0.0067   0.0046   0.0043   0.0026   0.0016
     0.0011   0.0001   0.0001   0.0000   0.0000   0.0000   0.0000   0.0000
     0.0000   0.0000   0.0000   0.0000   0.0000   0.0000   0.0000   0.0000
     0.0000   0.0000   0.0000   0.0000   0.0000   0.0000   0.0000   0.0000

          k = 0.2500 0.0000 0.0000 ( 65257 PWs)   bands (ev):

   -92.7246 -92.6704 -92.5783 -92.5312 -92.4718 -92.4313 -92.4133 -92.2906
   -56.0780 -56.0570 -55.9357 -55.9252 -55.9173 -55.9120 -55.8742 -55.8476
   -55.8318 -55.8310 -55.8218 -55.7797 -55.7634 -55.7231 -55.7047 -55.6709
   -55.6664 -55.6191 -55.6177 -55.6164 -55.6080 -55.5650 -55.5438 -55.4571
   -31.2993 -31.2830 -31.1779 -31.1388 -31.0523 -30.9895 -30.9594 -30.6097
   -29.8725 -29.8303 -29.8028 -29.6949 -15.0718 -15.0306 -14.9618 -14.8137
   -14.7098 -14.5129 -14.3806 -14.2033 -14.1836 -14.1543 -14.1223 -14.0990
   -14.0633 -14.0482 -14.0324 -13.9906 -13.8656 -13.8348 -13.6828 -13.6192
   -13.6076 -13.5469 -13.5162 -13.5040 -13.4450 -13.3696 -13.3356 -13.2629
   -13.2054 -13.1825 -13.1472 -13.0835 -13.0671 -13.0504 -13.0329 -12.9994
   -12.9789 -12.9547 -12.9313 -12.8999 -12.8626 -12.8424 -12.7938 -12.7403
   -12.7022 -12.5731 -12.5511 -12.5106 -12.4285 -12.2717 -12.0846 -12.0239
   -11.8509 -11.7992 -11.7822 -11.7680 -11.7414 -11.6908 -11.6679 -11.6595
   -11.6094 -11.5190 -11.4638 -11.4578  -2.8300  -2.6079  -2.4780  -2.3056
[...]
     0.7450   0.7278   0.7180   0.7148   0.7044   0.6987   0.6916   0.6805
     0.6767   0.6646   0.6569   0.6538   0.6470   0.6343   0.6218   0.6188
     0.6138   0.6109   0.6051   0.5999   0.5203   0.3561   0.3221   0.2036
     0.0784   0.0459   0.0221   0.0057   0.0047   0.0003   0.0001   0.0001
     0.0000   0.0000   0.0000   0.0000   0.0000   0.0000   0.0000   0.0000
     0.0000   0.0000   0.0000   0.0000   0.0000   0.0000   0.0000   0.0000
     0.0000   0.0000   0.0000   0.0000   0.0000   0.0000   0.0000   0.0000

          k =-0.5000 0.0000 0.0000 ( 65180 PWs)   bands (ev):

   -92.7246 -92.6704 -92.5783 -92.5312 -92.4718 -92.4313 -92.4133 -92.2906
   -56.0780 -56.0570 -55.9357 -55.9252 -55.9173 -55.9120 -55.8742 -55.8476
   -55.8318 -55.8310 -55.8218 -55.7797 -55.7634 -55.7231 -55.7047 -55.6709
   -55.6664 -55.6191 -55.6177 -55.6164 -55.6080 -55.5650 -55.5438 -55.4571
   -31.2971 -31.2851 -31.1778 -31.1385 -31.0527 -30.9894 -30.9595 -30.6098
   -29.8715 -29.8313 -29.8024 -29.6953 -15.0383 -14.9862 -14.9249 -14.8184
   -14.7115 -14.5692 -14.4213 -14.2857 -14.1566 -14.1488 -14.1317 -14.0756
   -14.0148 -13.9819 -13.9342 -13.9315 -13.9119 -13.8622 -13.8505 -13.7444
   -13.5781 -13.5561 -13.5185 -13.5113 -13.4461 -13.3878 -13.3461 -13.2906
   -13.2671 -13.2651 -13.1370 -13.0772 -13.0640 -13.0410 -13.0308 -13.0214
   -12.9681 -12.9476 -12.9301 -12.9021 -12.8543 -12.7012 -12.6736 -12.6631
   -12.6540 -12.5634 -12.5597 -12.4648 -12.3591 -12.3496 -12.1663 -12.1200
   -11.8033 -11.7817 -11.7750 -11.7596 -11.7418 -11.7007 -11.6375 -11.6201
   -11.5879 -11.5415 -11.5326 -11.5171  -2.6056  -2.5673  -2.4031  -2.3642
    -2.0508  -1.9764  -1.8268  -1.7099  -1.6710  -1.6261  -1.5769  -1.5521
    -1.4290  -1.3846  -1.3696  -1.2869  -1.2521  -1.2366  -1.2047  -1.1469
    -1.0785  -1.0493  -1.0203  -0.9259  -0.8783  -0.8296  -0.7966  -0.7752
    -0.7465  -0.6972  -0.6729  -0.6316  -0.5376  -0.4650  -0.3998  -0.3382
    -0.1665  -0.1405  -0.0795  -0.0494   0.0256   0.0302   0.1691   0.1990
     0.2365   0.4171   0.5160   0.5637   0.6357   0.7206   0.8328   0.8479
     0.9851   1.0072   1.0594   1.0846   1.1226   1.1408   1.1816   1.2077
     1.2767   1.3206   1.3683   1.3750   1.6760   1.6846   1.7039   1.7241
     1.8353   1.8469   1.8600   1.8679   1.8965   1.9081   1.9476   1.9716
     1.9945   2.0538   2.0652   2.1181   2.1352   2.1962   2.2969   2.4100
     2.4783   2.4914   2.5687   2.6029   2.6307   2.6949   2.7053   2.7137
     2.7431   2.7902   2.8188   2.8589   2.9046   2.9408   2.9755   2.9801
     2.9810   2.9943   3.0073   3.0189   3.0343   3.0390   3.0630   3.0721
     3.0856   3.1056   3.1128   3.2408   3.2548   4.0312   4.1070   4.1693
     4.3147   4.7698   4.8490   5.0083   5.0317   5.4704   5.4987   5.5712
     5.6357   5.9532   6.0123   6.0446   6.7031   6.7896   6.9914   7.2672
     7.2999   7.3271   7.3882   7.5079   7.7562   7.7677   7.8691   8.0083
     8.0996   8.2659   8.4316   8.5226   8.6073   8.7022   8.7437   8.8541

     occupation numbers 
     1.0000   1.0000   1.0000   1.0000   1.0000   1.0000   1.0000   1.0000
     1.0000   1.0000   1.0000   1.0000   1.0000   1.0000   1.0000   1.0000
     1.0000   1.0000   1.0000   1.0000   1.0000   1.0000   1.0000   1.0000
     1.0000   1.0000   1.0000   1.0000   1.0000   1.0000   1.0000   1.0000
     1.0000   1.0000   1.0000   1.0000   1.0000   1.0000   1.0000   1.0000
     1.0000   1.0000   1.0000   1.0000   1.0000   1.0000   1.0000   1.0000
     1.0000   1.0000   1.0000   1.0000   1.0000   1.0000   1.0000   1.0000
     1.0000   1.0000   1.0000   1.0000   1.0000   1.0000   1.0000   1.0000
     1.0000   1.0000   1.0000   1.0000   1.0000   1.0000   1.0000   1.0000
     1.0000   1.0000   1.0000   1.0000   1.0000   1.0000   1.0000   1.0000
     1.0000   1.0000   1.0000   1.0000   1.0000   1.0000   1.0000   1.0000
     1.0000   1.0000   1.0000   1.0000   1.0000   1.0000   1.0000   1.0000
     1.0000   1.0000   1.0000   1.0000   1.0000   1.0000   1.0000   1.0000
     1.0000   1.0000   1.0000   1.0000   1.0000   1.0000   1.0000   1.0000
     1.0000   1.0000   1.0000   1.0000   1.0000   1.0000   1.0000   1.0000
     1.0000   1.0000   1.0000   1.0000   1.0000   1.0000   1.0000   1.0000
     1.0000   1.0000   1.0000   1.0000   1.0000   1.0000   1.0000   1.0000
     1.0000   1.0000   1.0000   1.0000   1.0000   1.0000   1.0000   1.0000
     1.0000   1.0000   1.0000   1.0000   1.0000   1.0000   1.0000   1.0000
     1.0000   1.0000   1.0000   1.0000   1.0000   0.9999   0.9999   0.9999
     0.9997   0.9997   0.9996   0.9995   0.9994   0.9993   0.9992   0.9991
     0.9987   0.9984   0.9980   0.9979   0.9922   0.9919   0.9912   0.9905
     0.9854   0.9847   0.9839   0.9835   0.9816   0.9809   0.9779   0.9760
     0.9740   0.9682   0.9670   0.9608   0.9586   0.9499   0.9325   0.9076
     0.8897   0.8860   0.8623   0.8508   0.8410   0.8168   0.8127   0.8093
     0.7972   0.7769   0.7640   0.7453   0.7230   0.7047   0.6867   0.6843
     0.6838   0.6768   0.6698   0.6636   0.6552   0.6526   0.6393   0.6343
     0.6267   0.6154   0.6113   0.5369   0.5287   0.1398   0.1163   0.0992
     0.0666   0.0147   0.0109   0.0057   0.0051   0.0006   0.0006   0.0004
     0.0003   0.0000   0.0000   0.0000   0.0000   0.0000   0.0000   0.0000
     0.0000   0.0000   0.0000   0.0000   0.0000   0.0000   0.0000   0.0000
     0.0000   0.0000   0.0000   0.0000   0.0000   0.0000   0.0000   0.0000

          k =-0.2500 0.2500 0.0000 ( 65198 PWs)   bands (ev):

   -92.7246 -92.6704 -92.5783 -92.5312 -92.4718 -92.4313 -92.4133 -92.2906
   -56.0780 -56.0570 -55.9357 -55.9252 -55.9173 -55.9120 -55.8742 -55.8476
   -55.8318 -55.8310 -55.8218 -55.7797 -55.7634 -55.7231 -55.7047 -55.6709
   -55.6664 -55.6191 -55.6177 -55.6164 -55.6080 -55.5650 -55.5438 -55.4571
   -31.2991 -31.2828 -31.1778 -31.1390 -31.0525 -30.9897 -30.9593 -30.6098
   -29.8719 -29.8299 -29.8034 -29.6952 -15.0408 -14.9988 -14.9268 -14.8089
   -14.6993 -14.5717 -14.4864 -14.2816 -14.1401 -14.1105 -14.0977 -14.0503
   -14.0252 -14.0052 -13.9919 -13.9517 -13.8615 -13.8504 -13.6957 -13.6706
   -13.6420 -13.6205 -13.5817 -13.5202 -13.4593 -13.4561 -13.3405 -13.3147
   -13.2464 -13.1707 -13.1317 -13.0990 -13.0628 -13.0312 -13.0095 -12.9732
   -12.9613 -12.9484 -12.9281 -12.8816 -12.8540 -12.8056 -12.7929 -12.7149
   -12.6644 -12.5614 -12.4853 -12.4646 -12.4386 -12.3056 -12.1227 -12.0573
   -11.8231 -11.8019 -11.7742 -11.7622 -11.7214 -11.6860 -11.6635 -11.6419
   -11.6195 -11.5338 -11.4890 -11.4796  -2.6906  -2.4819  -2.3610  -2.2732
    -2.1542  -2.0877  -1.8857  -1.7394  -1.7211  -1.6929  -1.5993  -1.5652
    -1.4713  -1.4379  -1.4111  -1.2683  -1.2130  -1.1451  -1.1158  -1.0564
    -1.0350  -0.9949  -0.9660  -0.9257  -0.8633  -0.8152  -0.7533  -0.6838
    -0.6573  -0.6060  -0.5784  -0.5324  -0.4761  -0.4332  -0.3898  -0.2901
    -0.2572  -0.2455  -0.2017  -0.1354  -0.0537  -0.0198   0.0078   0.0819
     0.1074   0.3659   0.5335   0.5764   0.6153   0.6749   0.7202   0.7776
     0.8459   0.8730   1.1550   1.2658   1.3055   1.3392   1.3432   1.3879
     1.4045   1.4488   1.4802   1.4947   1.5205   1.5648   1.5810   1.6204
     1.6377   1.6828   1.7799   1.7894   1.8087   1.8461   1.8750   1.9131
     1.9616   2.0701   2.1824   2.2081   2.2531   2.2733   2.3390   2.3835
     2.4098   2.4343   2.4548   2.5552   2.5914   2.6812   2.7855   2.8592
     2.8700   2.8829   2.8918   2.9024   2.9210   2.9232   2.9400   2.9502
     2.9642   2.9733   2.9869   2.9954   3.0018   3.0341   3.0451   3.0544
     3.0881   3.3804   3.4625   3.5241   3.6006   3.6456   3.8151   3.9394
     4.2824   4.4873   4.6932   4.9684   5.1596   5.6268   5.6679   5.7273
     5.8110   5.8736   6.0043   6.1569   6.1957   6.7624   6.8856   7.0591
     7.2066   7.5497   7.5940   7.6527   7.7953   7.8698   7.9417   8.1046
     8.1719   8.2052   8.2994   8.3064   8.4301   8.4688   8.6698   8.8174

     occupation numbers 
     1.0000   1.0000   1.0000   1.0000   1.0000   1.0000   1.0000   1.0000
     1.0000   1.0000   1.0000   1.0000   1.0000   1.0000   1.0000   1.0000
     1.0000   1.0000   1.0000   1.0000   1.0000   1.0000   1.0000   1.0000
     1.0000   1.0000   1.0000   1.0000   1.0000   1.0000   1.0000   1.0000
     1.0000   1.0000   1.0000   1.0000   1.0000   1.0000   1.0000   1.0000
     1.0000   1.0000   1.0000   1.0000   1.0000   1.0000   1.0000   1.0000
     1.0000   1.0000   1.0000   1.0000   1.0000   1.0000   1.0000   1.0000
     1.0000   1.0000   1.0000   1.0000   1.0000   1.0000   1.0000   1.0000
     1.0000   1.0000   1.0000   1.0000   1.0000   1.0000   1.0000   1.0000
     1.0000   1.0000   1.0000   1.0000   1.0000   1.0000   1.0000   1.0000
     1.0000   1.0000   1.0000   1.0000   1.0000   1.0000   1.0000   1.0000
     1.0000   1.0000   1.0000   1.0000   1.0000   1.0000   1.0000   1.0000
     1.0000   1.0000   1.0000   1.0000   1.0000   1.0000   1.0000   1.0000
     1.0000   1.0000   1.0000   1.0000   1.0000   1.0000   1.0000   1.0000
     1.0000   1.0000   1.0000   1.0000   1.0000   1.0000   1.0000   1.0000
     1.0000   1.0000   1.0000   1.0000   1.0000   1.0000   1.0000   1.0000
     1.0000   1.0000   1.0000   1.0000   1.0000   1.0000   1.0000   1.0000
     1.0000   1.0000   1.0000   1.0000   1.0000   1.0000   1.0000   1.0000
     1.0000   1.0000   1.0000   1.0000   1.0000   1.0000   1.0000   1.0000
     1.0000   1.0000   1.0000   1.0000   1.0000   1.0000   0.9999   0.9999
     0.9999   0.9998   0.9993   0.9988   0.9985   0.9982   0.9982   0.9978
     0.9976   0.9971   0.9966   0.9964   0.9959   0.9951   0.9947   0.9938
     0.9933   0.9919   0.9882   0.9877   0.9868   0.9848   0.9830   0.9805
     0.9768   0.9665   0.9520   0.9480   0.9405   0.9369   0.9239   0.9140
     0.9077   0.9015   0.8961   0.8667   0.8547   0.8222   0.7790   0.7451
     0.7400   0.7337   0.7293   0.7241   0.7148   0.7137   0.7051   0.6999
     0.6926   0.6879   0.6807   0.6762   0.6728   0.6553   0.6492   0.6441
     0.6253   0.4543   0.4065   0.3714   0.3294   0.3056   0.2236   0.1724
     0.0730   0.0394   0.0195   0.0067   0.0029   0.0003   0.0002   0.0002
     0.0001   0.0001   0.0000   0.0000   0.0000   0.0000   0.0000   0.0000
     0.0000   0.0000   0.0000   0.0000   0.0000   0.0000   0.0000   0.0000
     0.0000   0.0000   0.0000   0.0000   0.0000   0.0000   0.0000   0.0000

          k =-0.5000 0.2500 0.0000 ( 65138 PWs)   bands (ev):

   -92.7246 -92.6704 -92.5783 -92.5312 -92.4718 -92.4313 -92.4133 -92.2906
   -56.0780 -56.0570 -55.9357 -55.9252 -55.9173 -55.9120 -55.8742 -55.8476
   -55.8318 -55.8310 -55.8218 -55.7797 -55.7634 -55.7231 -55.7047 -55.6709
   -55.6664 -55.6191 -55.6177 -55.6164 -55.6080 -55.5650 -55.5438 -55.4571
   -31.2969 -31.2850 -31.1777 -31.1387 -31.0528 -30.9896 -30.9594 -30.6099
   -29.8709 -29.8310 -29.8030 -29.6956 -15.0053 -14.9599 -14.8817 -14.7845
   -14.7407 -14.6160 -14.5269 -14.4013 -14.0907 -14.0606 -14.0487 -14.0014
   -13.9831 -13.9548 -13.9210 -13.9177 -13.8897 -13.8528 -13.8423 -13.7372
   -13.6608 -13.6141 -13.6110 -13.5989 -13.4974 -13.4909 -13.3878 -13.3443
   -13.2232 -13.1886 -13.1072 -13.0820 -13.0490 -13.0385 -13.0085 -12.9756
   -12.9673 -12.9616 -12.9284 -12.8671 -12.8623 -12.7501 -12.7276 -12.6454
   -12.6383 -12.5640 -12.5605 -12.4198 -12.3451 -12.3128 -12.1610 -12.1287
   -11.7959 -11.7830 -11.7692 -11.7573 -11.7355 -11.7055 -11.6247 -11.6156
   -11.5932 -11.5560 -11.5285 -11.5196  -2.4633  -2.4215  -2.2727  -2.2308
    -2.0700  -1.9950  -1.8511  -1.7163  -1.6599  -1.6329  -1.5933  -1.5544
    -1.4740  -1.3589  -1.3016  -1.2787  -1.2537  -1.1762  -1.1481  -1.1098
    -1.0920  -1.0313  -1.0022  -0.9637  -0.9284  -0.8993  -0.8416  -0.8146
    -0.7727  -0.7384  -0.6346  -0.6055  -0.5203  -0.4584  -0.4258  -0.3708
    -0.2844  -0.2495  -0.1509  -0.1061  -0.0555  -0.0007   0.0207   0.0975
     0.1192   0.1511   0.2076   0.2469   0.5537   0.6278   0.6758   0.7005
     0.9940   1.0452   1.1221   1.1471   1.3244   1.3619   1.3986   1.4109
     1.4292   1.4470   1.5173   1.5591   1.6032   1.6271   1.7584   1.7922
     1.8175   1.8277   1.8717   1.8964   1.9073   1.9208   1.9431   1.9659
     2.0087   2.0275   2.0596   2.0834   2.1128   2.1729   2.2908   2.3913
     2.4259   2.4926   2.5296   2.5863   2.6282   2.6343   2.6714   2.7011
     2.7275   2.7932   2.8178   2.8544   2.8719   2.8824   2.8958   2.9172
     2.9300   2.9469   2.9610   2.9783   2.9903   3.0016   3.0086   3.0190
     3.0305   3.5559   3.6254   3.7492   3.7750   4.0401   4.1298   4.1739
     4.3911   4.7638   4.8648   5.0091   5.0572   5.3802   5.4105   5.5850
     5.6035   5.7282   5.7556   6.1011   6.3833   6.4849   6.6437   6.9842
     7.4566   7.5364   7.7005   7.7791   7.8675   7.9112   8.0053   8.1861
     8.3257   8.3894   8.4204   8.5303   8.5527   8.6226   8.6488   8.7420

     occupation numbers 
     1.0000   1.0000   1.0000   1.0000   1.0000   1.0000   1.0000   1.0000
     1.0000   1.0000   1.0000   1.0000   1.0000   1.0000   1.0000   1.0000
     1.0000   1.0000   1.0000   1.0000   1.0000   1.0000   1.0000   1.0000
     1.0000   1.0000   1.0000   1.0000   1.0000   1.0000   1.0000   1.0000
     1.0000   1.0000   1.0000   1.0000   1.0000   1.0000   1.0000   1.0000
     1.0000   1.0000   1.0000   1.0000   1.0000   1.0000   1.0000   1.0000
     1.0000   1.0000   1.0000   1.0000   1.0000   1.0000   1.0000   1.0000
     1.0000   1.0000   1.0000   1.0000   1.0000   1.0000   1.0000   1.0000
     1.0000   1.0000   1.0000   1.0000   1.0000   1.0000   1.0000   1.0000
     1.0000   1.0000   1.0000   1.0000   1.0000   1.0000   1.0000   1.0000
     1.0000   1.0000   1.0000   1.0000   1.0000   1.0000   1.0000   1.0000
     1.0000   1.0000   1.0000   1.0000   1.0000   1.0000   1.0000   1.0000
     1.0000   1.0000   1.0000   1.0000   1.0000   1.0000   1.0000   1.0000
     1.0000   1.0000   1.0000   1.0000   1.0000   1.0000   1.0000   1.0000
     1.0000   1.0000   1.0000   1.0000   1.0000   1.0000   1.0000   1.0000
     1.0000   1.0000   1.0000   1.0000   1.0000   1.0000   1.0000   1.0000
     1.0000   1.0000   1.0000   1.0000   1.0000   1.0000   1.0000   1.0000
     1.0000   1.0000   1.0000   1.0000   1.0000   1.0000   1.0000   1.0000
     1.0000   1.0000   1.0000   1.0000   1.0000   1.0000   1.0000   1.0000
     1.0000   1.0000   1.0000   1.0000   1.0000   1.0000   1.0000   0.9999
     0.9997   0.9996   0.9994   0.9993   0.9983   0.9980   0.9977   0.9975
     0.9973   0.9971   0.9960   0.9952   0.9942   0.9936   0.9891   0.9876
     0.9863   0.9858   0.9832   0.9816   0.9809   0.9799   0.9783   0.9765
     0.9727   0.9709   0.9676   0.9650   0.9614   0.9534   0.9336   0.9122
     0.9037   0.8856   0.8747   0.8564   0.8419   0.8397   0.8259   0.8144
     0.8037   0.7756   0.7645   0.7474   0.7391   0.7340   0.7274   0.7168
     0.7103   0.7016   0.6943   0.6853   0.6789   0.6729   0.6691   0.6635
     0.6572   0.3538   0.3162   0.2539   0.2418   0.1369   0.1098   0.0980
     0.0531   0.0150   0.0102   0.0057   0.0046   0.0010   0.0009   0.0004
     0.0003   0.0002   0.0001   0.0000   0.0000   0.0000   0.0000   0.0000
     0.0000   0.0000   0.0000   0.0000   0.0000   0.0000   0.0000   0.0000
     0.0000   0.0000   0.0000   0.0000   0.0000   0.0000   0.0000   0.0000

     the Fermi energy is     3.3032 ev

!    total energy              =   -4399.91877669 Ry
     estimated scf accuracy    <          9.7E-09 Ry
     smearing contrib. (-TS)   =      -1.14635419 Ry
     internal energy E=F+TS    =   -4398.77242249 Ry

     The total energy is F=E-TS. E is the sum of the following terms:
     one-electron contribution =  -21252.86287695 Ry
     hartree contribution      =   10754.21573810 Ry
     xc contribution           =    -686.72935294 Ry
     ewald contribution        =    7053.24932477 Ry
     one-center paw contrib.   =    -266.64525547 Ry
      -> PAW hartree energy AE =      25.11489409 Ry
      -> PAW hartree energy PS =     -24.99939942 Ry
      -> PAW xc energy AE      =     -16.51058313 Ry
      -> PAW xc energy PS      =       6.86973209 Ry
      -> total E_H with PAW    =   10754.33123277 Ry
      -> total E_XC with PAW   =    -696.37020398 Ry

     convergence has been achieved in  48 iterations

     Writing all to output data dir /bsuhome/zayahcortright/scratch/pwscf.save/
 
     init_run     :      7.65s CPU      8.05s WALL (       1 calls)
     electrons    :    684.28s CPU    696.42s WALL (       1 calls)

     Called by init_run:
     wfcinit      :      5.95s CPU      6.07s WALL (       1 calls)
     wfcinit:atom :      0.05s CPU      0.06s WALL (       5 calls)
     wfcinit:wfcr :      5.61s CPU      5.70s WALL (       5 calls)
     potinit      :      0.19s CPU      0.20s WALL (       1 calls)
     hinit0       :      0.65s CPU      0.83s WALL (       1 calls)

     Called by electrons:
     c_bands      :    541.08s CPU    545.78s WALL (      48 calls)
     sum_band     :    107.32s CPU    111.55s WALL (      48 calls)
     v_of_rho     :      5.29s CPU      5.53s WALL (      49 calls)
     v_h          :      0.48s CPU      0.48s WALL (      49 calls)
     v_xc         :      4.82s CPU      5.05s WALL (      49 calls)
     newd         :     16.27s CPU     18.82s WALL (      49 calls)
     PAW_pot      :      1.56s CPU      1.58s WALL (      49 calls)
     mix_rho      :     12.42s CPU     12.67s WALL (      48 calls)

     Called by c_bands:
     init_us_2    :      7.02s CPU      7.07s WALL (     485 calls)
     init_us_2:cp :      7.01s CPU      7.06s WALL (     485 calls)
     cegterg      :    514.49s CPU    519.01s WALL (     240 calls)

     Called by sum_band:
     sum_band:wei :      0.34s CPU      0.35s WALL (      48 calls)
     sum_band:loo :     88.12s CPU     88.72s WALL (      48 calls)
     sum_band:buf :      1.44s CPU      1.45s WALL (     240 calls)
     sum_band:ini :      3.43s CPU      3.44s WALL (     240 calls)
     sum_band:cal :     18.15s CPU     18.20s WALL (     240 calls)
     sum_band:bec :      0.51s CPU      0.52s WALL (     240 calls)
     addusdens    :     17.83s CPU     21.44s WALL (      48 calls)
                                        0.00s GPU  (      48 calls)
     addusd:skk   :      0.34s CPU      0.69s WALL (     192 calls)
                                        0.00s GPU  (     192 calls)

     Called by *egterg:
     cdiaghg      :     55.50s CPU     55.70s WALL (    1285 calls)
     cegterg:over :     37.36s CPU     37.48s WALL (    1045 calls)
     cegterg:upda :     27.62s CPU     27.96s WALL (    1045 calls)
     cegterg:last :     56.00s CPU     56.15s WALL (     436 calls)
     cdiaghg:chol :      3.15s CPU      3.17s WALL (    1285 calls)
     cdiaghg:inve :      3.39s CPU      3.40s WALL (    1285 calls)
     cdiaghg:para :      7.23s CPU      7.26s WALL (    2570 calls)
     h_psi        :    284.60s CPU    287.27s WALL (    1290 calls)
     s_psi        :     38.11s CPU     38.22s WALL (    1290 calls)
     g_psi        :      1.15s CPU      1.16s WALL (    1045 calls)

     Called by h_psi:
     h_psi:calbec :     41.93s CPU     42.05s WALL (    1290 calls)
     vloc_psi     :    201.48s CPU    203.50s WALL (    1290 calls)
     add_vuspsi   :     37.88s CPU     37.99s WALL (    1290 calls)

     General routines
     calbec       :     60.07s CPU     60.24s WALL (    1530 calls)
     fft          :      3.49s CPU      3.52s WALL (     635 calls)
     ffts         :      4.46s CPU      4.49s WALL (    5070 calls)
     fftw         :    174.13s CPU    175.56s WALL (  322854 calls)
     interpolate  :      0.39s CPU      0.40s WALL (      49 calls)
 
     Parallel routines

     PAW routines
     PAW_pot      :      1.56s CPU      1.58s WALL (      49 calls)
 
     PWSCF        :  11m33.58s CPU  11m49.11s WALL

 
   This run was terminated on:  17:24:59  21Jun2024            

=------------------------------------------------------------------------------=
   JOB DONE.
=------------------------------------------------------------------------------=
