
     Program PWSCF v.7.2 starts on 18Jun2024 at 18:52:50 

     This program is part of the open-source Quantum ESPRESSO suite
     for quantum simulation of materials; please cite
         "P. Giannozzi et al., J. Phys.:Condens. Matter 21 395502 (2009);
         "P. Giannozzi et al., J. Phys.:Condens. Matter 29 465901 (2017);
         "P. Giannozzi et al., J. Chem. Phys. 152 154105 (2020);
          URL http://www.quantum-espresso.org", 
     in publications or presentations arising from this work. More details at
     http://www.quantum-espresso.org/quote

     Parallel version (MPI & OpenMP), running on      48 processor cores
     Number of MPI processes:                48
     Threads/MPI process:                     1

     MPI processes distributed on     1 nodes
     15864 MiB available memory on the printing compute node when the environment starts
 
     Reading input from espresso.pwi
Warning: card &CELL ignored
Warning: card / ignored
Warning: card &FCP ignored
Warning: card / ignored
Warning: card &RISM ignored
Warning: card / ignored

     Current dimensions of program PWSCF are:
     Max number of different atomic species (ntypx) = 10
     Max number of k-points (npk) =  40000
     Max angular momentum in pseudopotentials (lmaxx) =  4
     file O.pbe-n-kjpaw_psl.0.1.UPF: wavefunction(s)  2P renormalized
     signal trapping enabled: kill the code with -SIGUSR1 to stop cleanly the simulation 
 
     K-points division:     npool     =       2
     R & G space division:  proc/nbgrp/npool/nimage =      24
     Subspace diagonalization in iterative solution of the eigenvalue problem:
     one sub-group per band group will be used
     scalapack distributed-memory algorithm (size of sub-group:  3*  3 procs)

 
     Parallelization info
     --------------------
     sticks:   dense  smooth     PW     G-vecs:    dense   smooth      PW
     Min         350     175     47                61430    21716    3036
     Max         351     177     48                61449    21727    3041
     Sum        8421    4205   1137              1474595   521381   72913
 
     Using Slab Decomposition
 


     bravais-lattice index     =            0
     lattice parameter (alat)  =      14.8599  a.u.
     unit-cell volume          =    8305.1283 (a.u.)^3
     number of atoms/cell      =           51
     number of atomic types    =            4
     number of electrons       =       437.00
     number of Kohn-Sham states=          263
     kinetic-energy cutoff     =      60.0000  Ry
     charge density cutoff     =     480.0000  Ry
     scf convergence threshold =      1.0E-08
     mixing beta               =       0.1500
     number of iterations used =            8  local-TF  mixing
     Exchange-correlation= PBE
                           (   1   4   3   4   0   0   0)

     celldm(1)=  14.859904  celldm(2)=   0.000000  celldm(3)=   0.000000
     celldm(4)=   0.000000  celldm(5)=   0.000000  celldm(6)=   0.000000

     crystal axes: (cart. coord. in units of alat)
               a(1) = (   1.000000   0.000000   0.000000 )  
               a(2) = (   0.000000   1.000000   0.000000 )  
               a(3) = (   0.000000   0.000000   2.531036 )  

     reciprocal axes: (cart. coord. in units 2 pi/alat)
               b(1) = (  1.000000  0.000000  0.000000 )  
               b(2) = (  0.000000  1.000000  0.000000 )  
               b(3) = (  0.000000  0.000000  0.395095 )  


     PseudoPot. # 1 for Sr read from file:
     /bsuhome/zayahcortright/q-e/pseudo/Sr_pbe_v1.uspp.F.UPF
     MD5 check sum: 6b418c05fbe9db5448babca5e47b7a5b
     Pseudo is Ultrasoft + core correction, Zval = 10.0
     Generated by new atomic code, or converted to UPF format
     Using radial grid of  883 points,  6 beta functions with: 
                l(1) =   0
                l(2) =   0
                l(3) =   1
                l(4) =   1
                l(5) =   2
                l(6) =   2
     Q(r) pseudized with  6 coefficients,  rinner =    1.400   1.400   1.400
                                                       1.400   1.400

     PseudoPot. # 2 for O  read from file:
     /bsuhome/zayahcortright/q-e/pseudo/O.pbe-n-kjpaw_psl.0.1.UPF
     MD5 check sum: 0234752ac141de4415c5fc33072bef88
     Pseudo is Projector augmented-wave + core cor, Zval =  6.0
     Generated using "atomic" code by A. Dal Corso  v.5.0.99 svn rev. 10869
     Shape of augmentation charge: BESSEL
     Using radial grid of 1095 points,  4 beta functions with: 
                l(1) =   0
                l(2) =   0
                l(3) =   1
                l(4) =   1
     Q(r) pseudized with 0 coefficients 


     PseudoPot. # 3 for Co read from file:
     /bsuhome/zayahcortright/q-e/pseudo/Co_pbe_v1.2.uspp.F.UPF
     MD5 check sum: 5f91765df6ddd3222702df6e7b74a16d
     Pseudo is Ultrasoft + core correction, Zval = 17.0
     Generated by new atomic code, or converted to UPF format
     Using radial grid of  863 points,  6 beta functions with: 
                l(1) =   0
                l(2) =   0
                l(3) =   1
                l(4) =   1
                l(5) =   2
                l(6) =   2
     Q(r) pseudized with  8 coefficients,  rinner =    1.200   1.200   1.200
                                                       1.200   1.200

     PseudoPot. # 4 for H  read from file:
     /bsuhome/zayahcortright/q-e/pseudo/H.pbe-rrkjus_psl.1.0.0.UPF
     MD5 check sum: f52b6d4d1c606e5624b1dc7b2218f220
     Pseudo is Ultrasoft, Zval =  1.0
     Generated using "atomic" code by A. Dal Corso  v.5.1
     Using radial grid of  929 points,  2 beta functions with: 
                l(1) =   0
                l(2) =   0
     Q(r) pseudized with 0 coefficients 


     atomic species   valence    mass     pseudopotential
        Sr            10.00    87.62000     Sr( 1.00)
        O              6.00    15.99900     O ( 1.00)
        Co            17.00    58.93319     Co( 1.00)
        H              1.00     1.00800     H ( 1.00)

     No symmetry found


                                    s                        frac. trans.

      isym =  1     identity                                     

 cryst.   s( 1) = (     1          0          0      )
                  (     0          1          0      )
                  (     0          0          1      )

 cart.    s( 1) = (  1.0000000  0.0000000  0.0000000 )
                  (  0.0000000  1.0000000  0.0000000 )
                  (  0.0000000  0.0000000  1.0000000 )


   Cartesian axes

     site n.     atom                  positions (alat units)
         1           Sr  tau(   1) = (   0.2508693   0.7491307   1.7574407  )
         2           O   tau(   2) = (   0.4985141   0.5014859   1.7715967  )
         3           Sr  tau(   3) = (   0.7482398   0.7454518   1.7648669  )
         4           Sr  tau(   4) = (   0.7441748   0.2558252   1.7667843  )
         5           Sr  tau(   5) = (   0.2508693   0.7491307   1.2696799  )
         6           Sr  tau(   6) = (   0.2508693   0.7491307   0.7632319  )
         7           Co  tau(   7) = (   0.4998914   0.5001086   1.0164559  )
         8           Co  tau(   8) = (   0.4936915   0.5063085   1.5135603  )
         9           O   tau(   9) = (   0.4988895   0.7610401   1.0164559  )
        10           O   tau(  10) = (   0.2389599   0.5011105   1.0164559  )
        11           O   tau(  11) = (   0.0070918   0.7374880   1.0164559  )
        12           O   tau(  12) = (   0.0088340   0.7405089   1.5135603  )
        13           O   tau(  13) = (   0.5066944   0.7415376   1.5135603  )
        14           O   tau(  14) = (   0.2584624   0.4933056   1.5135603  )
        15           O   tau(  15) = (   0.4985141   0.5014859   0.7773880  )
        16           O   tau(  16) = (   0.4985141   0.5014859   1.2555238  )
        17           Sr  tau(  17) = (   0.7482398   0.7454518   0.7706582  )
        18           Sr  tau(  18) = (   0.7482398   0.7454518   1.2622536  )
        19           Sr  tau(  19) = (   0.7441748   0.2558252   0.7725755  )
        20           Sr  tau(  20) = (   0.7441748   0.2558252   1.2603363  )
        21           O   tau(  21) = (   0.7322655   0.0078049   1.5135603  )
        22           O   tau(  22) = (   0.7558175   0.4996027   1.5135603  )
        23           O   tau(  23) = (   0.5003973   0.2441825   1.5135603  )
        24           O   tau(  24) = (   0.7527966   0.4978604   1.0164559  )
        25           O   tau(  25) = (   0.5021396   0.2472034   1.0164559  )
        26           O   tau(  26) = (   0.7517679   0.0000000   1.0164559  )
        27           O   tau(  27) = (   0.0114961   0.4948124   1.7455321  )
        28           O   tau(  28) = (   0.0048226   0.0077944   1.7715967  )
        29           Sr  tau(  29) = (   0.2545482   0.2517602   1.7648669  )
        30           O   tau(  30) = (   0.5048017   0.0015068   1.7786929  )
        31           Co  tau(  31) = (   0.0056869   0.5006215   1.0164559  )
        32           Co  tau(  32) = (   0.0065315   0.4997770   1.5135603  )
        33           Co  tau(  33) = (   0.0061999   0.0064171   1.0164559  )
        34           Co  tau(  34) = (   0.0000000   0.0126169   1.5135603  )
        35           O   tau(  35) = (   0.0114961   0.4948124   1.2815885  )
        36           O   tau(  36) = (   0.0114961   0.4948124   0.7513233  )
        37           O   tau(  37) = (   0.0051979   0.2673486   1.0164559  )
        38           O   tau(  38) = (   0.0130029   0.2478461   1.5135603  )
        39           O   tau(  39) = (   0.0048226   0.0077944   0.7773880  )
        40           O   tau(  40) = (   0.0048226   0.0077944   1.2555238  )
        41           Sr  tau(  41) = (   0.2545482   0.2517602   0.7706582  )
        42           Sr  tau(  42) = (   0.2545482   0.2517602   1.2622536  )
        43           Co  tau(  43) = (   0.4989925   0.0073160   1.5135603  )
        44           Co  tau(  44) = (   0.4998370   0.0064714   1.0164559  )
        45           O   tau(  45) = (   0.5048017   0.0015068   0.7844841  )
        46           O   tau(  46) = (   0.5048017   0.0015068   1.2484277  )
        47           O   tau(  47) = (   0.2621260   0.0059111   1.5135603  )
        48           O   tau(  48) = (   0.2591051   0.0041689   1.0164559  )
        49           O   tau(  49) = (   0.0000000   0.8529874   2.1602013  )
        50           O   tau(  50) = (   0.0000000   0.8529874   2.3186489  )
        51           H   tau(  51) = (   0.0000000   0.8529874   2.4431567  )

   Crystallographic axes

     site n.     atom                  positions (cryst. coord.)
         1           Sr  tau(   1) = (  0.2508693  0.7491307  0.6943562  )
         2           O   tau(   2) = (  0.4985141  0.5014859  0.6999492  )
         3           Sr  tau(   3) = (  0.7482398  0.7454518  0.6972903  )
         4           Sr  tau(   4) = (  0.7441748  0.2558252  0.6980478  )
         5           Sr  tau(   5) = (  0.2508693  0.7491307  0.5016443  )
         6           Sr  tau(   6) = (  0.2508693  0.7491307  0.3015492  )
         7           Co  tau(   7) = (  0.4998914  0.5001086  0.4015968  )
         8           Co  tau(   8) = (  0.4936915  0.5063085  0.5980003  )
         9           O   tau(   9) = (  0.4988895  0.7610401  0.4015968  )
        10           O   tau(  10) = (  0.2389599  0.5011105  0.4015968  )
        11           O   tau(  11) = (  0.0070918  0.7374880  0.4015968  )
        12           O   tau(  12) = (  0.0088340  0.7405089  0.5980003  )
        13           O   tau(  13) = (  0.5066944  0.7415376  0.5980003  )
        14           O   tau(  14) = (  0.2584624  0.4933056  0.5980003  )
        15           O   tau(  15) = (  0.4985141  0.5014859  0.3071422  )
        16           O   tau(  16) = (  0.4985141  0.5014859  0.4960513  )
        17           Sr  tau(  17) = (  0.7482398  0.7454518  0.3044833  )
        18           Sr  tau(  18) = (  0.7482398  0.7454518  0.4987103  )
        19           Sr  tau(  19) = (  0.7441748  0.2558252  0.3052408  )
        20           Sr  tau(  20) = (  0.7441748  0.2558252  0.4979527  )
        21           O   tau(  21) = (  0.7322655  0.0078049  0.5980003  )
        22           O   tau(  22) = (  0.7558175  0.4996027  0.5980003  )
        23           O   tau(  23) = (  0.5003973  0.2441825  0.5980003  )
        24           O   tau(  24) = (  0.7527966  0.4978604  0.4015968  )
        25           O   tau(  25) = (  0.5021396  0.2472034  0.4015968  )
        26           O   tau(  26) = (  0.7517679  0.0000000  0.4015968  )
        27           O   tau(  27) = (  0.0114961  0.4948124  0.6896512  )
        28           O   tau(  28) = (  0.0048226  0.0077944  0.6999492  )
        29           Sr  tau(  29) = (  0.2545482  0.2517602  0.6972903  )
        30           O   tau(  30) = (  0.5048017  0.0015068  0.7027529  )
        31           Co  tau(  31) = (  0.0056869  0.5006215  0.4015968  )
        32           Co  tau(  32) = (  0.0065315  0.4997770  0.5980003  )
        33           Co  tau(  33) = (  0.0061999  0.0064171  0.4015968  )
        34           Co  tau(  34) = (  0.0000000  0.0126169  0.5980003  )
        35           O   tau(  35) = (  0.0114961  0.4948124  0.5063494  )
        36           O   tau(  36) = (  0.0114961  0.4948124  0.2968442  )
        37           O   tau(  37) = (  0.0051979  0.2673486  0.4015968  )
        38           O   tau(  38) = (  0.0130029  0.2478461  0.5980003  )
        39           O   tau(  39) = (  0.0048226  0.0077944  0.3071422  )
        40           O   tau(  40) = (  0.0048226  0.0077944  0.4960513  )
        41           Sr  tau(  41) = (  0.2545482  0.2517602  0.3044833  )
        42           Sr  tau(  42) = (  0.2545482  0.2517602  0.4987103  )
        43           Co  tau(  43) = (  0.4989925  0.0073160  0.5980003  )
        44           Co  tau(  44) = (  0.4998370  0.0064714  0.4015968  )
        45           O   tau(  45) = (  0.5048017  0.0015068  0.3099459  )
        46           O   tau(  46) = (  0.5048017  0.0015068  0.4932477  )
        47           O   tau(  47) = (  0.2621260  0.0059111  0.5980003  )
        48           O   tau(  48) = (  0.2591051  0.0041689  0.4015968  )
        49           O   tau(  49) = (  0.0000000  0.8529874  0.8534850  )
        50           O   tau(  50) = (  0.0000000  0.8529874  0.9160869  )
        51           H   tau(  51) = (  0.0000000  0.8529874  0.9652793  )

     number of k points=    10  Gaussian smearing, width (Ry)=  0.0700
                       cart. coord. in units 2pi/alat
        k(    1) = (   0.0000000   0.0000000   0.0000000), wk =   0.1250000
        k(    2) = (   0.0000000   0.2500000   0.0000000), wk =   0.2500000
        k(    3) = (   0.0000000  -0.5000000   0.0000000), wk =   0.1250000
        k(    4) = (   0.2500000   0.2500000   0.0000000), wk =   0.2500000
        k(    5) = (   0.2500000  -0.5000000   0.0000000), wk =   0.2500000
        k(    6) = (  -0.5000000  -0.5000000   0.0000000), wk =   0.1250000
        k(    7) = (   0.2500000   0.0000000   0.0000000), wk =   0.2500000
        k(    8) = (  -0.5000000   0.0000000   0.0000000), wk =   0.1250000
        k(    9) = (  -0.2500000   0.2500000   0.0000000), wk =   0.2500000
        k(   10) = (  -0.5000000   0.2500000   0.0000000), wk =   0.2500000

                       cryst. coord.
        k(    1) = (   0.0000000   0.0000000   0.0000000), wk =   0.1250000
        k(    2) = (   0.0000000   0.2500000   0.0000000), wk =   0.2500000
        k(    3) = (   0.0000000  -0.5000000   0.0000000), wk =   0.1250000
        k(    4) = (   0.2500000   0.2500000   0.0000000), wk =   0.2500000
        k(    5) = (   0.2500000  -0.5000000   0.0000000), wk =   0.2500000
        k(    6) = (  -0.5000000  -0.5000000   0.0000000), wk =   0.1250000
        k(    7) = (   0.2500000   0.0000000   0.0000000), wk =   0.2500000
        k(    8) = (  -0.5000000   0.0000000   0.0000000), wk =   0.1250000
        k(    9) = (  -0.2500000   0.2500000   0.0000000), wk =   0.2500000
        k(   10) = (  -0.5000000   0.2500000   0.0000000), wk =   0.2500000

     Dense  grid:  1474595 G-vectors     FFT dimensions: ( 108, 108, 270)

     Smooth grid:   521381 G-vectors     FFT dimensions: (  75,  75, 192)

     Dynamical RAM for                 wfc:      10.90 MB

     Dynamical RAM for     wfc (w. buffer):      65.37 MB

     Dynamical RAM for           str. fact:       3.75 MB

     Dynamical RAM for           local pot:       0.00 MB

     Dynamical RAM for          nlocal pot:      24.94 MB

     Dynamical RAM for                qrad:       7.03 MB

     Dynamical RAM for          rho,v,vnew:       6.02 MB

     Dynamical RAM for               rhoin:       2.01 MB

     Dynamical RAM for            rho*nmix:      15.00 MB

     Dynamical RAM for           G-vectors:       3.68 MB

     Dynamical RAM for          h,s,v(r/c):       1.40 MB

     Dynamical RAM for          <psi|beta>:       2.42 MB

     Dynamical RAM for                 psi:      21.79 MB

     Dynamical RAM for                hpsi:      21.79 MB

     Dynamical RAM for                spsi:      21.79 MB

     Dynamical RAM for      wfcinit/wfcrot:      34.89 MB

     Dynamical RAM for           addusdens:     101.73 MB

     Estimated static dynamical RAM per process >     122.82 MB

     Estimated max dynamical RAM per process >     239.55 MB

     Estimated total dynamical RAM >      10.88 GB

     Check: negative core charge=   -0.000004

     Initial potential from superposition of free atoms

     starting charge     428.5961, renormalised to     437.0000

     negative rho (up, down):  7.813E-01 0.000E+00
     Starting wfcs are  381 randomized atomic wfcs
     Checking if some PAW data can be deallocated... 
       PAW data deallocated on   18 nodes for type:  2

     total cpu time spent up to now is        9.1 secs

     Self-consistent Calculation

     iteration #  1     ecut=    60.00 Ry     beta= 0.15
     Davidson diagonalization with overlap

---- Real-time Memory Report at c_bands before calling an iterative solver
             0 MiB given to the printing process from OS
             0 MiB allocation reported by mallinfo(arena+hblkhd)
          6364 MiB available memory on the node where the printing process lives
------------------
     ethr =  1.00E-02,  avg # of iterations =  2.0

     negative rho (up, down):  7.717E-01 0.000E+00

     total cpu time spent up to now is       25.4 secs

     total energy              =   -4489.34039342 Ry
     estimated scf accuracy    <      49.74855523 Ry

     iteration #  2     ecut=    60.00 Ry     beta= 0.15
     Davidson diagonalization with overlap

---- Real-time Memory Report at c_bands before calling an iterative solver
             0 MiB given to the printing process from OS
             0 MiB allocation reported by mallinfo(arena+hblkhd)
          6656 MiB available memory on the node where the printing process lives
------------------
     ethr =  1.00E-02,  avg # of iterations =  1.0

     negative rho (up, down):  7.615E-01 0.000E+00

     total cpu time spent up to now is       38.4 secs

     total energy              =   -4486.82300285 Ry
     estimated scf accuracy    <      35.46759291 Ry

     iteration #  3     ecut=    60.00 Ry     beta= 0.15
     Davidson diagonalization with overlap

---- Real-time Memory Report at c_bands before calling an iterative solver
             0 MiB given to the printing process from OS
             0 MiB allocation reported by mallinfo(arena+hblkhd)
          5849 MiB available memory on the node where the printing process lives
------------------
     ethr =  8.12E-03,  avg # of iterations =  1.0

     negative rho (up, down):  7.563E-01 0.000E+00

     total cpu time spent up to now is       51.5 secs

     total energy              =   -4486.76494057 Ry
     estimated scf accuracy    <      35.21418346 Ry

     iteration #  4     ecut=    60.00 Ry     beta= 0.15
     Davidson diagonalization with overlap

---- Real-time Memory Report at c_bands before calling an iterative solver
             0 MiB given to the printing process from OS
             0 MiB allocation reported by mallinfo(arena+hblkhd)
          5828 MiB available memory on the node where the printing process lives
------------------
     ethr =  8.06E-03,  avg # of iterations =  1.0

     negative rho (up, down):  7.575E-01 0.000E+00

     total cpu time spent up to now is       64.5 secs

     total energy              =   -4486.63387244 Ry
     estimated scf accuracy    <      34.30158758 Ry

     iteration #  5     ecut=    60.00 Ry     beta= 0.15
     Davidson diagonalization with overlap

---- Real-time Memory Report at c_bands before calling an iterative solver
             0 MiB given to the printing process from OS
             0 MiB allocation reported by mallinfo(arena+hblkhd)
          5809 MiB available memory on the node where the printing process lives
------------------
     ethr =  7.85E-03,  avg # of iterations =  1.0

     negative rho (up, down):  7.340E-01 0.000E+00

     total cpu time spent up to now is       77.4 secs

     total energy              =   -4482.71539840 Ry
     estimated scf accuracy    <      23.06658213 Ry

     iteration #  6     ecut=    60.00 Ry     beta= 0.15
     Davidson diagonalization with overlap

---- Real-time Memory Report at c_bands before calling an iterative solver
             0 MiB given to the printing process from OS
             0 MiB allocation reported by mallinfo(arena+hblkhd)
          5789 MiB available memory on the node where the printing process lives
------------------
     ethr =  5.28E-03,  avg # of iterations =  2.0

     negative rho (up, down):  7.482E-01 0.000E+00

     total cpu time spent up to now is       91.6 secs

     total energy              =   -4483.83567222 Ry
     estimated scf accuracy    <      37.23391259 Ry

     iteration #  7     ecut=    60.00 Ry     beta= 0.15
     Davidson diagonalization with overlap

---- Real-time Memory Report at c_bands before calling an iterative solver
             0 MiB given to the printing process from OS
             0 MiB allocation reported by mallinfo(arena+hblkhd)
          5771 MiB available memory on the node where the printing process lives
------------------
     ethr =  5.28E-03,  avg # of iterations =  1.0

     negative rho (up, down):  7.530E-01 0.000E+00

     total cpu time spent up to now is      104.6 secs

     total energy              =   -4483.61259245 Ry
     estimated scf accuracy    <      38.26004047 Ry

     iteration #  8     ecut=    60.00 Ry     beta= 0.15
     Davidson diagonalization with overlap

---- Real-time Memory Report at c_bands before calling an iterative solver
             0 MiB given to the printing process from OS
             0 MiB allocation reported by mallinfo(arena+hblkhd)
          5750 MiB available memory on the node where the printing process lives
------------------
     ethr =  5.28E-03,  avg # of iterations =  1.0

     negative rho (up, down):  7.505E-01 0.000E+00

     total cpu time spent up to now is      117.3 secs

     total energy              =   -4483.79929303 Ry
     estimated scf accuracy    <       5.98542616 Ry

     iteration #  9     ecut=    60.00 Ry     beta= 0.15
     Davidson diagonalization with overlap

---- Real-time Memory Report at c_bands before calling an iterative solver
             0 MiB given to the printing process from OS
             0 MiB allocation reported by mallinfo(arena+hblkhd)
          5734 MiB available memory on the node where the printing process lives
------------------
     ethr =  1.37E-03,  avg # of iterations =  3.9

     negative rho (up, down):  7.646E-01 0.000E+00

     total cpu time spent up to now is      132.5 secs

     total energy              =   -4483.71446353 Ry
     estimated scf accuracy    <       3.54773310 Ry

     iteration # 10     ecut=    60.00 Ry     beta= 0.15
     Davidson diagonalization with overlap

---- Real-time Memory Report at c_bands before calling an iterative solver
             0 MiB given to the printing process from OS
             0 MiB allocation reported by mallinfo(arena+hblkhd)
          5691 MiB available memory on the node where the printing process lives
------------------
     ethr =  8.12E-04,  avg # of iterations = 10.5

     negative rho (up, down):  7.858E-01 0.000E+00

     total cpu time spent up to now is      151.7 secs

     total energy              =   -4483.53828789 Ry
     estimated scf accuracy    <       4.55920288 Ry

     iteration # 11     ecut=    60.00 Ry     beta= 0.15
     Davidson diagonalization with overlap

---- Real-time Memory Report at c_bands before calling an iterative solver
             0 MiB given to the printing process from OS
             0 MiB allocation reported by mallinfo(arena+hblkhd)
          5420 MiB available memory on the node where the printing process lives
------------------
     ethr =  8.12E-04,  avg # of iterations =  8.2

     negative rho (up, down):  7.890E-01 0.000E+00

     total cpu time spent up to now is      169.2 secs

     total energy              =   -4483.20992905 Ry
     estimated scf accuracy    <       4.52642013 Ry

     iteration # 12     ecut=    60.00 Ry     beta= 0.15
     Davidson diagonalization with overlap

---- Real-time Memory Report at c_bands before calling an iterative solver
             0 MiB given to the printing process from OS
             0 MiB allocation reported by mallinfo(arena+hblkhd)
          5283 MiB available memory on the node where the printing process lives
------------------
     ethr =  8.12E-04,  avg # of iterations =  7.6

     negative rho (up, down):  8.005E-01 0.000E+00

     total cpu time spent up to now is      186.1 secs

     total energy              =   -4483.20568690 Ry
     estimated scf accuracy    <       2.12878422 Ry

     iteration # 13     ecut=    60.00 Ry     beta= 0.15
     Davidson diagonalization with overlap

---- Real-time Memory Report at c_bands before calling an iterative solver
             0 MiB given to the printing process from OS
             0 MiB allocation reported by mallinfo(arena+hblkhd)
          5281 MiB available memory on the node where the printing process lives
------------------
     ethr =  4.87E-04,  avg # of iterations =  2.0

     negative rho (up, down):  8.002E-01 0.000E+00

     total cpu time spent up to now is      200.6 secs

     total energy              =   -4483.27050867 Ry
     estimated scf accuracy    <       1.29572667 Ry

     iteration # 14     ecut=    60.00 Ry     beta= 0.15
     Davidson diagonalization with overlap

---- Real-time Memory Report at c_bands before calling an iterative solver
             0 MiB given to the printing process from OS
             0 MiB allocation reported by mallinfo(arena+hblkhd)
          5311 MiB available memory on the node where the printing process lives
------------------
     ethr =  2.97E-04,  avg # of iterations =  6.0

     negative rho (up, down):  8.131E-01 0.000E+00

     total cpu time spent up to now is      217.0 secs

     total energy              =   -4483.12397755 Ry
     estimated scf accuracy    <       0.81200418 Ry

     iteration # 15     ecut=    60.00 Ry     beta= 0.15
     Davidson diagonalization with overlap

---- Real-time Memory Report at c_bands before calling an iterative solver
             0 MiB given to the printing process from OS
             0 MiB allocation reported by mallinfo(arena+hblkhd)
          5284 MiB available memory on the node where the printing process lives
------------------
     c_bands:  1 eigenvalues not converged
     ethr =  1.86E-04,  avg # of iterations =  7.3

     negative rho (up, down):  8.172E-01 0.000E+00

     total cpu time spent up to now is      233.7 secs

     total energy              =   -4483.14806212 Ry
     estimated scf accuracy    <       3.25578091 Ry

     iteration # 16     ecut=    60.00 Ry     beta= 0.15
     Davidson diagonalization with overlap

---- Real-time Memory Report at c_bands before calling an iterative solver
             0 MiB given to the printing process from OS
             0 MiB allocation reported by mallinfo(arena+hblkhd)
          5263 MiB available memory on the node where the printing process lives
------------------
     ethr =  1.86E-04,  avg # of iterations =  2.8

     negative rho (up, down):  8.134E-01 0.000E+00

     total cpu time spent up to now is      248.3 secs

     total energy              =   -4483.10834892 Ry
     estimated scf accuracy    <       1.51765161 Ry

     iteration # 17     ecut=    60.00 Ry     beta= 0.15
     Davidson diagonalization with overlap

---- Real-time Memory Report at c_bands before calling an iterative solver
             0 MiB given to the printing process from OS
             0 MiB allocation reported by mallinfo(arena+hblkhd)
          5269 MiB available memory on the node where the printing process lives
------------------
     ethr =  1.86E-04,  avg # of iterations =  2.9

     negative rho (up, down):  8.183E-01 0.000E+00

     total cpu time spent up to now is      263.2 secs

     total energy              =   -4483.06026995 Ry
     estimated scf accuracy    <       0.46007947 Ry

     iteration # 18     ecut=    60.00 Ry     beta= 0.15
     Davidson diagonalization with overlap

---- Real-time Memory Report at c_bands before calling an iterative solver
             0 MiB given to the printing process from OS
             0 MiB allocation reported by mallinfo(arena+hblkhd)
          5277 MiB available memory on the node where the printing process lives
------------------
     c_bands:  1 eigenvalues not converged
     ethr =  1.05E-04,  avg # of iterations =  9.9

     negative rho (up, down):  8.208E-01 0.000E+00

     total cpu time spent up to now is      281.5 secs

     total energy              =   -4483.03882538 Ry
     estimated scf accuracy    <       0.99653133 Ry

     iteration # 19     ecut=    60.00 Ry     beta= 0.15
     Davidson diagonalization with overlap

---- Real-time Memory Report at c_bands before calling an iterative solver
             0 MiB given to the printing process from OS
             0 MiB allocation reported by mallinfo(arena+hblkhd)
          5275 MiB available memory on the node where the printing process lives
------------------
     c_bands:  1 eigenvalues not converged
     ethr =  1.05E-04,  avg # of iterations =  9.3

     negative rho (up, down):  8.257E-01 0.000E+00

     total cpu time spent up to now is      299.6 secs

     total energy              =   -4483.03138660 Ry
     estimated scf accuracy    <       0.47751402 Ry

     iteration # 20     ecut=    60.00 Ry     beta= 0.15
     Davidson diagonalization with overlap

---- Real-time Memory Report at c_bands before calling an iterative solver
             0 MiB given to the printing process from OS
             0 MiB allocation reported by mallinfo(arena+hblkhd)
          5245 MiB available memory on the node where the printing process lives
------------------
     ethr =  1.05E-04,  avg # of iterations =  1.9

     negative rho (up, down):  8.268E-01 0.000E+00

     total cpu time spent up to now is      314.1 secs

     total energy              =   -4482.99109910 Ry
     estimated scf accuracy    <       0.47710253 Ry

     iteration # 21     ecut=    60.00 Ry     beta= 0.15
     Davidson diagonalization with overlap

---- Real-time Memory Report at c_bands before calling an iterative solver
             0 MiB given to the printing process from OS
             0 MiB allocation reported by mallinfo(arena+hblkhd)
          5241 MiB available memory on the node where the printing process lives
------------------
     ethr =  1.05E-04,  avg # of iterations =  8.3

     negative rho (up, down):  8.377E-01 0.000E+00

     total cpu time spent up to now is      331.3 secs

     total energy              =   -4482.98011864 Ry
     estimated scf accuracy    <       0.16819211 Ry

     iteration # 22     ecut=    60.00 Ry     beta= 0.15
     Davidson diagonalization with overlap

---- Real-time Memory Report at c_bands before calling an iterative solver
             0 MiB given to the printing process from OS
             0 MiB allocation reported by mallinfo(arena+hblkhd)
          5238 MiB available memory on the node where the printing process lives
------------------
     ethr =  3.85E-05,  avg # of iterations = 11.5

     negative rho (up, down):  8.384E-01 0.000E+00

     total cpu time spent up to now is      350.7 secs

     total energy              =   -4482.97906136 Ry
     estimated scf accuracy    <       0.05590451 Ry

     iteration # 23     ecut=    60.00 Ry     beta= 0.15
     Davidson diagonalization with overlap

---- Real-time Memory Report at c_bands before calling an iterative solver
             0 MiB given to the printing process from OS
             0 MiB allocation reported by mallinfo(arena+hblkhd)
          5073 MiB available memory on the node where the printing process lives
------------------
     ethr =  1.28E-05,  avg # of iterations =  5.4

     negative rho (up, down):  8.356E-01 0.000E+00

     total cpu time spent up to now is      367.0 secs

     total energy              =   -4482.97553286 Ry
     estimated scf accuracy    <       0.03285561 Ry

     iteration # 24     ecut=    60.00 Ry     beta= 0.15
     Davidson diagonalization with overlap

---- Real-time Memory Report at c_bands before calling an iterative solver
             0 MiB given to the printing process from OS
             0 MiB allocation reported by mallinfo(arena+hblkhd)
          5091 MiB available memory on the node where the printing process lives
------------------
     ethr =  7.52E-06,  avg # of iterations = 14.5

     negative rho (up, down):  8.268E-01 0.000E+00

     total cpu time spent up to now is      387.2 secs

     total energy              =   -4482.97513633 Ry
     estimated scf accuracy    <       0.01807468 Ry

     iteration # 25     ecut=    60.00 Ry     beta= 0.15
     Davidson diagonalization with overlap

---- Real-time Memory Report at c_bands before calling an iterative solver
             0 MiB given to the printing process from OS
             0 MiB allocation reported by mallinfo(arena+hblkhd)
          5053 MiB available memory on the node where the printing process lives
------------------
     ethr =  4.14E-06,  avg # of iterations =  2.0

     negative rho (up, down):  8.213E-01 0.000E+00

     total cpu time spent up to now is      401.5 secs

     total energy              =   -4482.97372111 Ry
     estimated scf accuracy    <       0.01354148 Ry

     iteration # 26     ecut=    60.00 Ry     beta= 0.15
     Davidson diagonalization with overlap

---- Real-time Memory Report at c_bands before calling an iterative solver
             0 MiB given to the printing process from OS
             0 MiB allocation reported by mallinfo(arena+hblkhd)
          5060 MiB available memory on the node where the printing process lives
------------------
     ethr =  3.10E-06,  avg # of iterations = 10.3

     negative rho (up, down):  7.950E-01 0.000E+00

     total cpu time spent up to now is      420.5 secs

     total energy              =   -4482.97253377 Ry
     estimated scf accuracy    <       0.00764323 Ry

     iteration # 27     ecut=    60.00 Ry     beta= 0.15
     Davidson diagonalization with overlap

---- Real-time Memory Report at c_bands before calling an iterative solver
             0 MiB given to the printing process from OS
             0 MiB allocation reported by mallinfo(arena+hblkhd)
          5047 MiB available memory on the node where the printing process lives
------------------
     ethr =  1.75E-06,  avg # of iterations =  8.7

     negative rho (up, down):  7.941E-01 0.000E+00

     total cpu time spent up to now is      439.9 secs

     total energy              =   -4482.97246326 Ry
     estimated scf accuracy    <       0.00471998 Ry

     iteration # 28     ecut=    60.00 Ry     beta= 0.15
     Davidson diagonalization with overlap

---- Real-time Memory Report at c_bands before calling an iterative solver
             0 MiB given to the printing process from OS
             0 MiB allocation reported by mallinfo(arena+hblkhd)
          5039 MiB available memory on the node where the printing process lives
------------------
     ethr =  1.08E-06,  avg # of iterations =  2.2

     negative rho (up, down):  7.918E-01 0.000E+00

     total cpu time spent up to now is      454.9 secs

     total energy              =   -4482.97214040 Ry
     estimated scf accuracy    <       0.00298766 Ry

     iteration # 29     ecut=    60.00 Ry     beta= 0.15
     Davidson diagonalization with overlap

---- Real-time Memory Report at c_bands before calling an iterative solver
             0 MiB given to the printing process from OS
             0 MiB allocation reported by mallinfo(arena+hblkhd)
          5053 MiB available memory on the node where the printing process lives
------------------
     ethr =  6.84E-07,  avg # of iterations =  8.7

     negative rho (up, down):  7.936E-01 0.000E+00

     total cpu time spent up to now is      473.1 secs

     total energy              =   -4482.97195131 Ry
     estimated scf accuracy    <       0.00179960 Ry

     iteration # 30     ecut=    60.00 Ry     beta= 0.15
     Davidson diagonalization with overlap

---- Real-time Memory Report at c_bands before calling an iterative solver
             0 MiB given to the printing process from OS
             0 MiB allocation reported by mallinfo(arena+hblkhd)
          5015 MiB available memory on the node where the printing process lives
------------------
     ethr =  4.12E-07,  avg # of iterations =  4.1

     negative rho (up, down):  7.939E-01 0.000E+00

     total cpu time spent up to now is      489.4 secs

     total energy              =   -4482.97201624 Ry
     estimated scf accuracy    <       0.00059139 Ry

     iteration # 31     ecut=    60.00 Ry     beta= 0.15
     Davidson diagonalization with overlap

---- Real-time Memory Report at c_bands before calling an iterative solver
             0 MiB given to the printing process from OS
             0 MiB allocation reported by mallinfo(arena+hblkhd)
          5029 MiB available memory on the node where the printing process lives
------------------
     ethr =  1.35E-07,  avg # of iterations =  5.6

     negative rho (up, down):  7.931E-01 0.000E+00

     total cpu time spent up to now is      506.1 secs

     total energy              =   -4482.97198166 Ry
     estimated scf accuracy    <       0.00043349 Ry

     iteration # 32     ecut=    60.00 Ry     beta= 0.15
     Davidson diagonalization with overlap

---- Real-time Memory Report at c_bands before calling an iterative solver
             0 MiB given to the printing process from OS
             0 MiB allocation reported by mallinfo(arena+hblkhd)
          5010 MiB available memory on the node where the printing process lives
------------------
     ethr =  9.92E-08,  avg # of iterations =  3.0

     negative rho (up, down):  7.919E-01 0.000E+00

     total cpu time spent up to now is      520.9 secs

     total energy              =   -4482.97198445 Ry
     estimated scf accuracy    <       0.00022122 Ry

     iteration # 33     ecut=    60.00 Ry     beta= 0.15
     Davidson diagonalization with overlap

---- Real-time Memory Report at c_bands before calling an iterative solver
             0 MiB given to the printing process from OS
             0 MiB allocation reported by mallinfo(arena+hblkhd)
          5032 MiB available memory on the node where the printing process lives
------------------
     ethr =  5.06E-08,  avg # of iterations =  3.5

     negative rho (up, down):  7.921E-01 0.000E+00

     total cpu time spent up to now is      536.3 secs

     total energy              =   -4482.97199239 Ry
     estimated scf accuracy    <       0.00005006 Ry

     iteration # 34     ecut=    60.00 Ry     beta= 0.15
     Davidson diagonalization with overlap

---- Real-time Memory Report at c_bands before calling an iterative solver
             0 MiB given to the printing process from OS
             0 MiB allocation reported by mallinfo(arena+hblkhd)
          5027 MiB available memory on the node where the printing process lives
------------------
     ethr =  1.15E-08,  avg # of iterations =  3.2

     negative rho (up, down):  7.922E-01 0.000E+00

     total cpu time spent up to now is      551.4 secs

     total energy              =   -4482.97198596 Ry
     estimated scf accuracy    <       0.00003705 Ry

     iteration # 35     ecut=    60.00 Ry     beta= 0.15
     Davidson diagonalization with overlap

---- Real-time Memory Report at c_bands before calling an iterative solver
             0 MiB given to the printing process from OS
             0 MiB allocation reported by mallinfo(arena+hblkhd)
          5028 MiB available memory on the node where the printing process lives
------------------
     ethr =  8.48E-09,  avg # of iterations =  3.9

     negative rho (up, down):  7.921E-01 0.000E+00

     total cpu time spent up to now is      566.6 secs

     total energy              =   -4482.97198821 Ry
     estimated scf accuracy    <       0.00003071 Ry

     iteration # 36     ecut=    60.00 Ry     beta= 0.15
     Davidson diagonalization with overlap

---- Real-time Memory Report at c_bands before calling an iterative solver
             0 MiB given to the printing process from OS
             0 MiB allocation reported by mallinfo(arena+hblkhd)
          5057 MiB available memory on the node where the printing process lives
------------------
     ethr =  7.03E-09,  avg # of iterations =  2.0

     negative rho (up, down):  7.921E-01 0.000E+00

     total cpu time spent up to now is      581.3 secs

     total energy              =   -4482.97199375 Ry
     estimated scf accuracy    <       0.00002580 Ry

     iteration # 37     ecut=    60.00 Ry     beta= 0.15
     Davidson diagonalization with overlap

---- Real-time Memory Report at c_bands before calling an iterative solver
             0 MiB given to the printing process from OS
             0 MiB allocation reported by mallinfo(arena+hblkhd)
          5052 MiB available memory on the node where the printing process lives
------------------
     ethr =  5.90E-09,  avg # of iterations =  2.5

     negative rho (up, down):  7.921E-01 0.000E+00

     total cpu time spent up to now is      596.1 secs

     total energy              =   -4482.97199670 Ry
     estimated scf accuracy    <       0.00002207 Ry

     iteration # 38     ecut=    60.00 Ry     beta= 0.15
     Davidson diagonalization with overlap

---- Real-time Memory Report at c_bands before calling an iterative solver
             0 MiB given to the printing process from OS
             0 MiB allocation reported by mallinfo(arena+hblkhd)
          5050 MiB available memory on the node where the printing process lives
------------------
     ethr =  5.05E-09,  avg # of iterations =  3.4

     negative rho (up, down):  7.922E-01 0.000E+00

     total cpu time spent up to now is      611.4 secs

     total energy              =   -4482.97199918 Ry
     estimated scf accuracy    <       0.00001011 Ry

     iteration # 39     ecut=    60.00 Ry     beta= 0.15
     Davidson diagonalization with overlap

---- Real-time Memory Report at c_bands before calling an iterative solver
             0 MiB given to the printing process from OS
             0 MiB allocation reported by mallinfo(arena+hblkhd)
          5057 MiB available memory on the node where the printing process lives
------------------
     ethr =  2.31E-09,  avg # of iterations =  4.5

     negative rho (up, down):  7.923E-01 0.000E+00

     total cpu time spent up to now is      626.9 secs

     total energy              =   -4482.97200043 Ry
     estimated scf accuracy    <       0.00000593 Ry

     iteration # 40     ecut=    60.00 Ry     beta= 0.15
     Davidson diagonalization with overlap

---- Real-time Memory Report at c_bands before calling an iterative solver
             0 MiB given to the printing process from OS
             0 MiB allocation reported by mallinfo(arena+hblkhd)
          5064 MiB available memory on the node where the printing process lives
------------------
     ethr =  1.36E-09,  avg # of iterations =  3.9

     negative rho (up, down):  7.923E-01 0.000E+00

     total cpu time spent up to now is      642.3 secs

     total energy              =   -4482.97200100 Ry
     estimated scf accuracy    <       0.00000355 Ry

     iteration # 41     ecut=    60.00 Ry     beta= 0.15
     Davidson diagonalization with overlap

---- Real-time Memory Report at c_bands before calling an iterative solver
             0 MiB given to the printing process from OS
             0 MiB allocation reported by mallinfo(arena+hblkhd)
          5077 MiB available memory on the node where the printing process lives
------------------
     ethr =  8.12E-10,  avg # of iterations =  4.1

     negative rho (up, down):  7.923E-01 0.000E+00

     total cpu time spent up to now is      657.7 secs

     total energy              =   -4482.97200160 Ry
     estimated scf accuracy    <       0.00000235 Ry

     iteration # 42     ecut=    60.00 Ry     beta= 0.15
     Davidson diagonalization with overlap

---- Real-time Memory Report at c_bands before calling an iterative solver
             0 MiB given to the printing process from OS
             0 MiB allocation reported by mallinfo(arena+hblkhd)
          5092 MiB available memory on the node where the printing process lives
------------------
     ethr =  5.39E-10,  avg # of iterations =  4.7

     negative rho (up, down):  7.923E-01 0.000E+00

     total cpu time spent up to now is      673.7 secs

     total energy              =   -4482.97200169 Ry
     estimated scf accuracy    <       0.00000161 Ry

     iteration # 43     ecut=    60.00 Ry     beta= 0.15
     Davidson diagonalization with overlap

---- Real-time Memory Report at c_bands before calling an iterative solver
             0 MiB given to the printing process from OS
             0 MiB allocation reported by mallinfo(arena+hblkhd)
          5083 MiB available memory on the node where the printing process lives
------------------
     ethr =  3.68E-10,  avg # of iterations =  3.3

     negative rho (up, down):  7.923E-01 0.000E+00

     total cpu time spent up to now is      688.8 secs

     total energy              =   -4482.97200162 Ry
     estimated scf accuracy    <       0.00000118 Ry

     iteration # 44     ecut=    60.00 Ry     beta= 0.15
     Davidson diagonalization with overlap

---- Real-time Memory Report at c_bands before calling an iterative solver
             0 MiB given to the printing process from OS
             0 MiB allocation reported by mallinfo(arena+hblkhd)
          5091 MiB available memory on the node where the printing process lives
------------------
     ethr =  2.69E-10,  avg # of iterations =  3.3

     negative rho (up, down):  7.923E-01 0.000E+00

     total cpu time spent up to now is      704.7 secs

     total energy              =   -4482.97200164 Ry
     estimated scf accuracy    <       0.00000047 Ry

     iteration # 45     ecut=    60.00 Ry     beta= 0.15
     Davidson diagonalization with overlap

---- Real-time Memory Report at c_bands before calling an iterative solver
             0 MiB given to the printing process from OS
             0 MiB allocation reported by mallinfo(arena+hblkhd)
          5091 MiB available memory on the node where the printing process lives
------------------
     ethr =  1.07E-10,  avg # of iterations =  3.6

     negative rho (up, down):  7.923E-01 0.000E+00

     total cpu time spent up to now is      720.6 secs

     total energy              =   -4482.97200165 Ry
     estimated scf accuracy    <       0.00000027 Ry

     iteration # 46     ecut=    60.00 Ry     beta= 0.15
     Davidson diagonalization with overlap

---- Real-time Memory Report at c_bands before calling an iterative solver
             0 MiB given to the printing process from OS
             0 MiB allocation reported by mallinfo(arena+hblkhd)
          5110 MiB available memory on the node where the printing process lives
------------------
     ethr =  6.24E-11,  avg # of iterations =  3.6

     negative rho (up, down):  7.923E-01 0.000E+00

     total cpu time spent up to now is      736.2 secs

     total energy              =   -4482.97200166 Ry
     estimated scf accuracy    <       0.00000013 Ry

     iteration # 47     ecut=    60.00 Ry     beta= 0.15
     Davidson diagonalization with overlap

---- Real-time Memory Report at c_bands before calling an iterative solver
             0 MiB given to the printing process from OS
             0 MiB allocation reported by mallinfo(arena+hblkhd)
          5110 MiB available memory on the node where the printing process lives
------------------
     ethr =  2.95E-11,  avg # of iterations =  1.8

     negative rho (up, down):  7.923E-01 0.000E+00

     total cpu time spent up to now is      751.2 secs

     total energy              =   -4482.97200168 Ry
     estimated scf accuracy    <       0.00000010 Ry

     iteration # 48     ecut=    60.00 Ry     beta= 0.15
     Davidson diagonalization with overlap

---- Real-time Memory Report at c_bands before calling an iterative solver
             0 MiB given to the printing process from OS
             0 MiB allocation reported by mallinfo(arena+hblkhd)
          5110 MiB available memory on the node where the printing process lives
------------------
     ethr =  2.19E-11,  avg # of iterations =  4.2

     negative rho (up, down):  7.923E-01 0.000E+00

     total cpu time spent up to now is      767.4 secs

     total energy              =   -4482.97200169 Ry
     estimated scf accuracy    <       0.00000008 Ry

     iteration # 49     ecut=    60.00 Ry     beta= 0.15
     Davidson diagonalization with overlap

---- Real-time Memory Report at c_bands before calling an iterative solver
             0 MiB given to the printing process from OS
             0 MiB allocation reported by mallinfo(arena+hblkhd)
          5113 MiB available memory on the node where the printing process lives
------------------
     ethr =  1.83E-11,  avg # of iterations =  4.6

     negative rho (up, down):  7.923E-01 0.000E+00

     total cpu time spent up to now is      783.6 secs

     total energy              =   -4482.97200168 Ry
     estimated scf accuracy    <       0.00000004 Ry

     iteration # 50     ecut=    60.00 Ry     beta= 0.15
     Davidson diagonalization with overlap

---- Real-time Memory Report at c_bands before calling an iterative solver
             0 MiB given to the printing process from OS
             0 MiB allocation reported by mallinfo(arena+hblkhd)
          5113 MiB available memory on the node where the printing process lives
------------------
     ethr =  9.01E-12,  avg # of iterations =  4.3

     negative rho (up, down):  7.923E-01 0.000E+00

     total cpu time spent up to now is      799.7 secs

     total energy              =   -4482.97200167 Ry
     estimated scf accuracy    <       0.00000002 Ry

     iteration # 51     ecut=    60.00 Ry     beta= 0.15
     Davidson diagonalization with overlap

---- Real-time Memory Report at c_bands before calling an iterative solver
             0 MiB given to the printing process from OS
             0 MiB allocation reported by mallinfo(arena+hblkhd)
          5115 MiB available memory on the node where the printing process lives
------------------
     ethr =  5.47E-12,  avg # of iterations =  3.5

     negative rho (up, down):  7.923E-01 0.000E+00

     total cpu time spent up to now is      814.9 secs

     total energy              =   -4482.97200168 Ry
     estimated scf accuracy    <       0.00000001 Ry

     iteration # 52     ecut=    60.00 Ry     beta= 0.15
     Davidson diagonalization with overlap

---- Real-time Memory Report at c_bands before calling an iterative solver
             0 MiB given to the printing process from OS
             0 MiB allocation reported by mallinfo(arena+hblkhd)
          5110 MiB available memory on the node where the printing process lives
------------------
     ethr =  2.40E-12,  avg # of iterations =  2.4

     negative rho (up, down):  7.923E-01 0.000E+00

     total cpu time spent up to now is      829.4 secs

     End of self-consistent calculation

          k = 0.0000 0.0000 0.0000 ( 65197 PWs)   bands (ev):

   -92.3351 -92.2808 -92.1890 -92.1394 -92.0809 -92.0414 -92.0244 -91.9018
   -55.6882 -55.6672 -55.5469 -55.5363 -55.5283 -55.5230 -55.4862 -55.4587
   -55.4425 -55.4403 -55.4314 -55.3897 -55.3702 -55.3330 -55.3149 -55.2802
   -55.2749 -55.2305 -55.2278 -55.2272 -55.2187 -55.1765 -55.1551 -55.0687
   -30.9221 -30.9031 -30.7622 -30.7373 -30.7192 -30.6755 -30.5349 -30.5034
   -29.4865 -29.4430 -29.4177 -29.3093 -22.2514 -14.7204 -14.6845 -14.5987
   -14.4682 -14.2853 -14.1623 -13.8606 -13.8432 -13.8111 -13.7718 -13.7688
   -13.7294 -13.7221 -13.7036 -13.6888 -13.6652 -13.6331 -13.5693 -13.4223
   -13.2516 -13.2116 -13.1790 -13.1518 -13.1337 -13.0894 -13.0491 -12.9691
   -12.8965 -12.8074 -12.7762 -12.7550 -12.7436 -12.7197 -12.7029 -12.6782
   -12.6511 -12.6374 -12.6094 -12.5776 -12.5717 -12.5608 -12.5587 -12.5418
   -12.4912 -12.4798 -12.4541 -12.4136 -12.3711 -12.3579 -11.9873 -11.8426
   -11.7293 -11.6528 -11.5006 -11.4257 -11.4147 -11.3926 -11.3750 -11.3109
   -11.2938 -11.2589 -11.2301 -11.1193 -11.0384 -11.0348  -5.8482  -3.1574
    -3.1518  -2.5809  -2.3473  -2.1178  -1.9721  -1.9077  -1.7647  -1.4588
    -1.4446  -1.4231  -1.3413  -1.3228  -1.2548  -1.2391  -1.1969  -1.1509
    -0.9715  -0.7480  -0.7196  -0.5685  -0.5549  -0.5112  -0.4936  -0.4495
    -0.4337  -0.3718  -0.3459  -0.2792  -0.2662  -0.1848  -0.0595  -0.0442
    -0.0150   0.0669   0.0710   0.0829   0.1528   0.2317   0.2513   0.3257
     0.3452   0.3997   0.4906   0.5399   0.5628   0.5690   0.8236   0.8382
     1.0087   1.0787   1.1400   1.1845   1.2794   1.2931   1.3099   1.3780
     1.4064   1.4413   1.4999   1.6355   1.6867   1.7108   1.7269   1.7358
     1.8064   1.8851   1.9765   1.9912   2.0457   2.0693   2.1065   2.1308
     2.1365   2.1922   2.2421   2.2521   2.2867   2.3142   2.3829   2.5123
     2.5890   2.6410   2.6585   2.8030   2.8176   2.8652   2.8771   2.9743
     3.0163   3.0350   3.0555   3.0665   3.0717   3.0878   3.1551   3.2662
     3.2999   3.3141   3.3212   3.3873   3.3915   3.4163   3.4248   3.4325
     3.4440   3.4506   3.4637   3.4688   3.4835   3.4920   3.4992   3.5196
     3.5407   3.5462   3.5575   3.5745   3.6984   3.7520   4.4240   4.7622
     4.7894   5.1429   5.3855   5.4874   5.7118   6.2808   6.3219   6.3601
     6.6216   6.6236   6.6777   6.7266   6.9812   7.2067   7.2306   7.3921
     7.4765   7.6542   7.7842   7.9294   7.9374   7.9612   8.0405   8.0564
     8.3066   8.3391   8.3747   8.4537   8.5343   8.5519   8.6090

     occupation numbers 
     1.0000   1.0000   1.0000   1.0000   1.0000   1.0000   1.0000   1.0000
     1.0000   1.0000   1.0000   1.0000   1.0000   1.0000   1.0000   1.0000
     1.0000   1.0000   1.0000   1.0000   1.0000   1.0000   1.0000   1.0000
     1.0000   1.0000   1.0000   1.0000   1.0000   1.0000   1.0000   1.0000
     1.0000   1.0000   1.0000   1.0000   1.0000   1.0000   1.0000   1.0000
     1.0000   1.0000   1.0000   1.0000   1.0000   1.0000   1.0000   1.0000
     1.0000   1.0000   1.0000   1.0000   1.0000   1.0000   1.0000   1.0000
     1.0000   1.0000   1.0000   1.0000   1.0000   1.0000   1.0000   1.0000
     1.0000   1.0000   1.0000   1.0000   1.0000   1.0000   1.0000   1.0000
     1.0000   1.0000   1.0000   1.0000   1.0000   1.0000   1.0000   1.0000
     1.0000   1.0000   1.0000   1.0000   1.0000   1.0000   1.0000   1.0000
     1.0000   1.0000   1.0000   1.0000   1.0000   1.0000   1.0000   1.0000
     1.0000   1.0000   1.0000   1.0000   1.0000   1.0000   1.0000   1.0000
     1.0000   1.0000   1.0000   1.0000   1.0000   1.0000   1.0000   1.0000
     1.0000   1.0000   1.0000   1.0000   1.0000   1.0000   1.0000   1.0000
     1.0000   1.0000   1.0000   1.0000   1.0000   1.0000   1.0000   1.0000
     1.0000   1.0000   1.0000   1.0000   1.0000   1.0000   1.0000   1.0000
     1.0000   1.0000   1.0000   1.0000   1.0000   1.0000   1.0000   1.0000
     1.0000   1.0000   1.0000   1.0000   1.0000   1.0000   1.0000   1.0000
     1.0000   1.0000   1.0000   1.0000   1.0000   1.0000   1.0000   1.0000
     1.0000   0.9999   0.9999   0.9999   0.9998   0.9998   0.9998   0.9997
     0.9997   0.9996   0.9994   0.9989   0.9985   0.9984   0.9982   0.9982
     0.9974   0.9963   0.9946   0.9942   0.9927   0.9920   0.9907   0.9897
     0.9895   0.9870   0.9843   0.9837   0.9815   0.9796   0.9740   0.9600
     0.9492   0.9405   0.9374   0.9064   0.9027   0.8900   0.8866   0.8564
     0.8419   0.8350   0.8274   0.8232   0.8212   0.8148   0.7870   0.7360
     0.7194   0.7122   0.7086   0.6741   0.6718   0.6584   0.6538   0.6496
     0.6432   0.6395   0.6322   0.6294   0.6211   0.6163   0.6122   0.6005
     0.5884   0.5852   0.5787   0.5688   0.4957   0.4640   0.1383   0.0559
     0.0515   0.0156   0.0059   0.0038   0.0013   0.0001   0.0000   0.0000
     0.0000   0.0000   0.0000   0.0000   0.0000   0.0000   0.0000   0.0000
     0.0000   0.0000   0.0000   0.0000   0.0000   0.0000   0.0000   0.0000
     0.0000   0.0000   0.0000   0.0000   0.0000   0.0000   0.0000

          k = 0.0000 0.2500 0.0000 ( 65257 PWs)   bands (ev):

   -92.3351 -92.2808 -92.1890 -92.1394 -92.0809 -92.0414 -92.0244 -91.9018
   -55.6882 -55.6672 -55.5469 -55.5363 -55.5283 -55.5230 -55.4862 -55.4587
   -55.4425 -55.4403 -55.4314 -55.3897 -55.3702 -55.3330 -55.3149 -55.2802
   -55.2749 -55.2305 -55.2278 -55.2272 -55.2187 -55.1765 -55.1551 -55.0687
   -30.9219 -30.9029 -30.7624 -30.7354 -30.7210 -30.6757 -30.5339 -30.5045
   -29.4859 -29.4427 -29.4183 -29.3096 -22.2514 -14.6833 -14.6586 -14.5738
   -14.4388 -14.3236 -14.1521 -14.0063 -13.8265 -13.7967 -13.7743 -13.7705
   -13.7459 -13.6886 -13.6837 -13.6692 -13.6514 -13.6160 -13.4897 -13.4527
   -13.2910 -13.2766 -13.2208 -13.1868 -13.1438 -13.1055 -13.0687 -12.9880
   -12.9554 -12.9213 -12.8505 -12.7929 -12.7552 -12.7506 -12.7360 -12.6530
   -12.6263 -12.6012 -12.5790 -12.5483 -12.5185 -12.5119 -12.5067 -12.4792
   -12.4673 -12.4506 -12.4403 -12.4041 -12.2692 -12.1899 -12.0487 -11.8939
   -11.7868 -11.7214 -11.4661 -11.4225 -11.3953 -11.3668 -11.3501 -11.3029
   -11.2915 -11.2691 -11.2348 -11.1335 -11.0801 -11.0694  -5.8482  -3.1574
    -3.1520  -2.4456  -2.2229  -2.0859  -1.9038  -1.8602  -1.6957  -1.4785
    -1.3912  -1.3781  -1.3222  -1.2196  -1.2044  -1.1695  -1.1447  -1.1008
    -0.9028  -0.7746  -0.7623  -0.6861  -0.6750  -0.5704  -0.5397  -0.4855
    -0.4606  -0.4163  -0.3542  -0.3293  -0.2955  -0.2673  -0.2500  -0.2155
    -0.1439  -0.0897  -0.0292   0.0785   0.0998   0.1407   0.2576   0.2930
     0.3566   0.4067   0.4723   0.4881   0.5175   0.5721   0.8705   0.9598
     0.9877   1.0782   1.1205   1.1374   1.2687   1.2862   1.3789   1.4043
     1.4355   1.5511   1.6358   1.6631   1.6865   1.7035   1.7334   1.7946
     1.8206   1.8464   1.8965   1.9256   1.9551   2.0318   2.0635   2.0994
     2.1579   2.2066   2.2370   2.2682   2.3052   2.3263   2.4199   2.5465
     2.6190   2.6417   2.7198   2.7617   2.7984   2.8051   2.8737   2.9166
     2.9898   3.0318   3.0487   3.0639   3.0769   3.2282   3.2492   3.2807
     3.3026   3.3207   3.3297   3.3370   3.3452   3.3752   3.3778   3.3946
     3.3987   3.4110   3.4275   3.4376   3.4481   3.4709   3.4814   3.4864
     3.5212   3.5380   3.5989   3.9448   3.9831   4.2409   4.6078   4.7510
     4.9086   5.0879   5.4162   5.5353   5.8366   5.9063   6.1657   6.3159
     6.3400   6.4615   6.5278   6.7369   6.9122   7.0818   7.2763   7.4779
     7.5483   7.7065   7.8012   7.8981   7.9420   7.9612   8.1114   8.2114
     8.2524   8.4131   8.5327   8.5500   8.6053   8.6840   8.9471

     occupation numbers 
     1.0000   1.0000   1.0000   1.0000   1.0000   1.0000   1.0000   1.0000
     1.0000   1.0000   1.0000   1.0000   1.0000   1.0000   1.0000   1.0000
     1.0000   1.0000   1.0000   1.0000   1.0000   1.0000   1.0000   1.0000
     1.0000   1.0000   1.0000   1.0000   1.0000   1.0000   1.0000   1.0000
     1.0000   1.0000   1.0000   1.0000   1.0000   1.0000   1.0000   1.0000
     1.0000   1.0000   1.0000   1.0000   1.0000   1.0000   1.0000   1.0000
     1.0000   1.0000   1.0000   1.0000   1.0000   1.0000   1.0000   1.0000
     1.0000   1.0000   1.0000   1.0000   1.0000   1.0000   1.0000   1.0000
     1.0000   1.0000   1.0000   1.0000   1.0000   1.0000   1.0000   1.0000
     1.0000   1.0000   1.0000   1.0000   1.0000   1.0000   1.0000   1.0000
     1.0000   1.0000   1.0000   1.0000   1.0000   1.0000   1.0000   1.0000
     1.0000   1.0000   1.0000   1.0000   1.0000   1.0000   1.0000   1.0000
     1.0000   1.0000   1.0000   1.0000   1.0000   1.0000   1.0000   1.0000
     1.0000   1.0000   1.0000   1.0000   1.0000   1.0000   1.0000   1.0000
     1.0000   1.0000   1.0000   1.0000   1.0000   1.0000   1.0000   1.0000
     1.0000   1.0000   1.0000   1.0000   1.0000   1.0000   1.0000   1.0000
     1.0000   1.0000   1.0000   1.0000   1.0000   1.0000   1.0000   1.0000
     1.0000   1.0000   1.0000   1.0000   1.0000   1.0000   1.0000   1.0000
     1.0000   1.0000   1.0000   1.0000   1.0000   1.0000   1.0000   1.0000
     1.0000   1.0000   1.0000   1.0000   1.0000   1.0000   1.0000   1.0000
     1.0000   0.9999   0.9999   0.9999   0.9998   0.9998   0.9997   0.9997
     0.9996   0.9993   0.9989   0.9987   0.9985   0.9984   0.9982   0.9976
     0.9973   0.9969   0.9962   0.9956   0.9950   0.9931   0.9922   0.9910
     0.9886   0.9863   0.9846   0.9827   0.9802   0.9787   0.9705   0.9554
     0.9443   0.9404   0.9254   0.9162   0.9075   0.9059   0.8876   0.8750
     0.8512   0.8362   0.8299   0.8242   0.8192   0.7541   0.7442   0.7289
     0.7180   0.7089   0.7043   0.7005   0.6963   0.6806   0.6791   0.6702
     0.6679   0.6613   0.6523   0.6467   0.6409   0.6282   0.6223   0.6195
     0.5996   0.5899   0.5545   0.3532   0.3323   0.2072   0.0867   0.0578
     0.0353   0.0190   0.0052   0.0031   0.0007   0.0005   0.0001   0.0000
     0.0000   0.0000   0.0000   0.0000   0.0000   0.0000   0.0000   0.0000
     0.0000   0.0000   0.0000   0.0000   0.0000   0.0000   0.0000   0.0000
     0.0000   0.0000   0.0000   0.0000   0.0000   0.0000   0.0000

          k = 0.0000-0.5000 0.0000 ( 65180 PWs)   bands (ev):

   -92.3351 -92.2808 -92.1890 -92.1394 -92.0809 -92.0414 -92.0244 -91.9018
   -55.6882 -55.6672 -55.5469 -55.5363 -55.5283 -55.5230 -55.4862 -55.4587
   -55.4425 -55.4403 -55.4314 -55.3897 -55.3702 -55.3330 -55.3149 -55.2802
   -55.2749 -55.2305 -55.2278 -55.2272 -55.2187 -55.1765 -55.1551 -55.0687
   -30.9217 -30.9028 -30.7626 -30.7329 -30.7236 -30.6758 -30.5327 -30.5056
   -29.4852 -29.4424 -29.4189 -29.3099 -22.2514 -14.6517 -14.6025 -14.5521
   -14.4252 -14.3383 -14.1989 -14.0575 -13.9282 -13.7966 -13.7713 -13.7363
   -13.6904 -13.6774 -13.6326 -13.6126 -13.5681 -13.5492 -13.5234 -13.4859
   -13.4617 -13.4251 -13.2237 -13.1675 -13.1530 -13.0974 -13.0850 -13.0007
   -12.9877 -12.9291 -12.9286 -12.8638 -12.7546 -12.7418 -12.7236 -12.6970
   -12.6172 -12.6017 -12.5743 -12.5264 -12.5208 -12.4979 -12.4777 -12.4622
   -12.4239 -12.4137 -12.3497 -12.2963 -12.1598 -12.1217 -11.9692 -11.9557
   -11.9025 -11.8608 -11.4194 -11.4176 -11.3905 -11.3525 -11.3184 -11.3074
   -11.2644 -11.2605 -11.2163 -11.1552 -11.1410 -11.1266  -5.8482  -3.1574
    -3.1522  -2.2311  -2.1711  -2.0200  -1.9472  -1.6675  -1.5843  -1.4561
    -1.3173  -1.2819  -1.2617  -1.1821  -1.1511  -1.0708  -1.0350  -0.9593
    -0.9176  -0.8777  -0.8509  -0.7962  -0.7580  -0.7114  -0.6748  -0.6418
    -0.6073  -0.4973  -0.4518  -0.4200  -0.4186  -0.3328  -0.2987  -0.2773
    -0.2300  -0.1440  -0.0781   0.0048   0.0311   0.1333   0.1785   0.3316
     0.3620   0.3897   0.4444   0.5573   0.6054   0.7537   0.8186   0.8260
     0.9547   0.9926   1.0971   1.2313   1.3386   1.3706   1.4043   1.4106
     1.4513   1.4690   1.5060   1.5226   1.5325   1.6412   1.6997   1.7304
     1.7574   2.0130   2.0433   2.0642   2.1533   2.1812   2.2139   2.2285
     2.2655   2.2731   2.2856   2.3153   2.3615   2.3863   2.4159   2.4270
     2.4558   2.5096   2.5886   2.6130   2.7958   2.9648   2.9723   2.9820
     3.0275   3.0317   3.0441   3.0599   3.0714   3.0961   3.1068   3.1622
     3.1827   3.2586   3.2705   3.3392   3.3479   3.3721   3.3742   3.3938
     3.3967   3.4006   3.4051   3.4084   3.4205   3.4409   3.4424   3.5063
     3.5127   3.5276   3.5818   4.4758   4.4882   4.5227   4.5940   4.9599
     5.1331   5.2327   5.4195   5.5329   5.6155   5.8122   5.9301   6.0145
     6.2228   6.3774   6.4002   6.4622   6.9993   7.0862   7.1430   7.4183
     7.6063   7.6188   7.7259   7.9997   8.0458   8.0751   8.2109   8.3449
     8.5038   8.5800   8.6890   8.7244   8.7610   8.8600   8.9677

     occupation numbers 
     1.0000   1.0000   1.0000   1.0000   1.0000   1.0000   1.0000   1.0000
     1.0000   1.0000   1.0000   1.0000   1.0000   1.0000   1.0000   1.0000
     1.0000   1.0000   1.0000   1.0000   1.0000   1.0000   1.0000   1.0000
     1.0000   1.0000   1.0000   1.0000   1.0000   1.0000   1.0000   1.0000
     1.0000   1.0000   1.0000   1.0000   1.0000   1.0000   1.0000   1.0000
     1.0000   1.0000   1.0000   1.0000   1.0000   1.0000   1.0000   1.0000
     1.0000   1.0000   1.0000   1.0000   1.0000   1.0000   1.0000   1.0000
     1.0000   1.0000   1.0000   1.0000   1.0000   1.0000   1.0000   1.0000
     1.0000   1.0000   1.0000   1.0000   1.0000   1.0000   1.0000   1.0000
     1.0000   1.0000   1.0000   1.0000   1.0000   1.0000   1.0000   1.0000
     1.0000   1.0000   1.0000   1.0000   1.0000   1.0000   1.0000   1.0000
     1.0000   1.0000   1.0000   1.0000   1.0000   1.0000   1.0000   1.0000
     1.0000   1.0000   1.0000   1.0000   1.0000   1.0000   1.0000   1.0000
     1.0000   1.0000   1.0000   1.0000   1.0000   1.0000   1.0000   1.0000
     1.0000   1.0000   1.0000   1.0000   1.0000   1.0000   1.0000   1.0000
     1.0000   1.0000   1.0000   1.0000   1.0000   1.0000   1.0000   1.0000
     1.0000   1.0000   1.0000   1.0000   1.0000   1.0000   1.0000   1.0000
     1.0000   1.0000   1.0000   1.0000   1.0000   1.0000   1.0000   1.0000
     1.0000   1.0000   1.0000   1.0000   1.0000   1.0000   1.0000   1.0000
     1.0000   1.0000   1.0000   1.0000   1.0000   1.0000   1.0000   1.0000
     1.0000   1.0000   0.9999   0.9999   0.9998   0.9997   0.9997   0.9996
     0.9996   0.9995   0.9994   0.9994   0.9993   0.9988   0.9984   0.9982
     0.9980   0.9936   0.9928   0.9922   0.9888   0.9875   0.9859   0.9851
     0.9829   0.9824   0.9816   0.9795   0.9758   0.9737   0.9709   0.9698
     0.9667   0.9603   0.9492   0.9453   0.9082   0.8596   0.8571   0.8538
     0.8378   0.8363   0.8317   0.8257   0.8213   0.8116   0.8072   0.7839
     0.7749   0.7397   0.7339   0.6994   0.6949   0.6822   0.6811   0.6706
     0.6690   0.6670   0.6645   0.6627   0.6561   0.6449   0.6441   0.6081
     0.6045   0.5959   0.5645   0.1220   0.1183   0.1085   0.0900   0.0298
     0.0161   0.0110   0.0051   0.0031   0.0021   0.0008   0.0004   0.0003
     0.0001   0.0000   0.0000   0.0000   0.0000   0.0000   0.0000   0.0000
     0.0000   0.0000   0.0000   0.0000   0.0000   0.0000   0.0000   0.0000
     0.0000   0.0000   0.0000   0.0000   0.0000   0.0000   0.0000

          k = 0.2500 0.2500 0.0000 ( 65198 PWs)   bands (ev):

   -92.3351 -92.2808 -92.1890 -92.1394 -92.0809 -92.0414 -92.0244 -91.9018
   -55.6882 -55.6672 -55.5469 -55.5363 -55.5283 -55.5230 -55.4862 -55.4587
   -55.4425 -55.4403 -55.4314 -55.3897 -55.3702 -55.3330 -55.3149 -55.2802
   -55.2749 -55.2305 -55.2278 -55.2272 -55.2187 -55.1765 -55.1551 -55.0687
   -30.9202 -30.9047 -30.7621 -30.7353 -30.7209 -30.6761 -30.5340 -30.5046
   -29.4849 -29.4437 -29.4179 -29.3100 -22.2514 -14.6555 -14.6228 -14.5461
   -14.4284 -14.3152 -14.1913 -14.1113 -13.9109 -13.7718 -13.7497 -13.7385
   -13.7045 -13.6731 -13.6535 -13.6313 -13.5977 -13.5767 -13.4824 -13.4669
   -13.3069 -13.2936 -13.2629 -13.2429 -13.2018 -13.1556 -13.1186 -13.0704
   -12.9814 -12.9382 -12.8759 -12.7874 -12.7472 -12.7112 -12.6963 -12.6649
   -12.6450 -12.6055 -12.5931 -12.5728 -12.5487 -12.5143 -12.4841 -12.4543
   -12.4087 -12.3989 -12.3871 -12.3585 -12.2081 -12.0973 -12.0947 -11.9230
   -11.8181 -11.7697 -11.4382 -11.4062 -11.3957 -11.3883 -11.3259 -11.2911
   -11.2845 -11.2491 -11.2413 -11.1501 -11.1083 -11.0909  -5.8482  -3.1576
    -3.1520  -2.3076  -2.0973  -1.9801  -1.8867  -1.7644  -1.6990  -1.5035
    -1.3566  -1.3361  -1.3089  -1.2143  -1.1792  -1.0869  -1.0603  -1.0102
    -0.8776  -0.8305  -0.7581  -0.7126  -0.6688  -0.6439  -0.6187  -0.5778
    -0.5611  -0.4714  -0.4220  -0.3595  -0.3100  -0.2812  -0.2277  -0.2178
    -0.1543  -0.1031  -0.0490  -0.0132   0.0699   0.1218   0.1519   0.1934
     0.2473   0.3056   0.3544   0.3830   0.4483   0.4948   0.7650   0.9094
     0.9498   0.9995   1.0436   1.0990   1.1545   1.2123   1.2511   1.5258
     1.5977   1.6718   1.6974   1.7421   1.7777   1.8124   1.8485   1.8669
     1.8953   1.9313   1.9436   1.9622   2.0033   2.0442   2.0832   2.1242
     2.1632   2.1794   2.2064   2.2476   2.2982   2.3266   2.4604   2.5263
     2.5675   2.5975   2.6563   2.7222   2.7533   2.7914   2.8113   2.8261
     2.9369   2.9754   3.0522   3.0618   3.0814   3.2386   3.2564   3.2626
     3.2778   3.2917   3.3053   3.3176   3.3254   3.3356   3.3494   3.3609
     3.3804   3.3864   3.3981   3.4182   3.4322   3.4418   3.4728   3.7748
     3.8653   3.9028   3.9641   3.9848   4.2121   4.3164   4.6426   4.8029
     4.9833   5.1422   5.3296   5.5625   5.9386   5.9670   6.0041   6.1234
     6.2032   6.2529   6.3625   6.4012   6.9522   7.0064   7.0702   7.2026
     7.7239   7.8002   7.8480   7.9082   8.0256   8.1368   8.2078   8.2928
     8.3872   8.4588   8.5588   8.6910   8.7150   8.7904   8.8489

     occupation numbers 
     1.0000   1.0000   1.0000   1.0000   1.0000   1.0000   1.0000   1.0000
     1.0000   1.0000   1.0000   1.0000   1.0000   1.0000   1.0000   1.0000
     1.0000   1.0000   1.0000   1.0000   1.0000   1.0000   1.0000   1.0000
     1.0000   1.0000   1.0000   1.0000   1.0000   1.0000   1.0000   1.0000
     1.0000   1.0000   1.0000   1.0000   1.0000   1.0000   1.0000   1.0000
     1.0000   1.0000   1.0000   1.0000   1.0000   1.0000   1.0000   1.0000
     1.0000   1.0000   1.0000   1.0000   1.0000   1.0000   1.0000   1.0000
     1.0000   1.0000   1.0000   1.0000   1.0000   1.0000   1.0000   1.0000
     1.0000   1.0000   1.0000   1.0000   1.0000   1.0000   1.0000   1.0000
     1.0000   1.0000   1.0000   1.0000   1.0000   1.0000   1.0000   1.0000
     1.0000   1.0000   1.0000   1.0000   1.0000   1.0000   1.0000   1.0000
     1.0000   1.0000   1.0000   1.0000   1.0000   1.0000   1.0000   1.0000
     1.0000   1.0000   1.0000   1.0000   1.0000   1.0000   1.0000   1.0000
     1.0000   1.0000   1.0000   1.0000   1.0000   1.0000   1.0000   1.0000
     1.0000   1.0000   1.0000   1.0000   1.0000   1.0000   1.0000   1.0000
     1.0000   1.0000   1.0000   1.0000   1.0000   1.0000   1.0000   1.0000
     1.0000   1.0000   1.0000   1.0000   1.0000   1.0000   1.0000   1.0000
     1.0000   1.0000   1.0000   1.0000   1.0000   1.0000   1.0000   1.0000
     1.0000   1.0000   1.0000   1.0000   1.0000   1.0000   1.0000   1.0000
     1.0000   1.0000   1.0000   1.0000   1.0000   1.0000   1.0000   1.0000
     1.0000   1.0000   1.0000   0.9999   0.9999   0.9999   0.9999   0.9993
     0.9991   0.9986   0.9985   0.9981   0.9978   0.9974   0.9969   0.9966
     0.9962   0.9955   0.9953   0.9949   0.9939   0.9928   0.9915   0.9900
     0.9884   0.9876   0.9863   0.9840   0.9807   0.9786   0.9662   0.9582
     0.9524   0.9478   0.9378   0.9249   0.9181   0.9092   0.9043   0.9005
     0.8687   0.8561   0.8287   0.8250   0.8174   0.7492   0.7407   0.7377
     0.7304   0.7235   0.7167   0.7104   0.7065   0.7013   0.6941   0.6881
     0.6778   0.6746   0.6683   0.6574   0.6497   0.6444   0.6271   0.4506
     0.3980   0.3767   0.3426   0.3314   0.2196   0.1766   0.0789   0.0494
     0.0275   0.0156   0.0075   0.0027   0.0004   0.0004   0.0003   0.0002
     0.0001   0.0001   0.0000   0.0000   0.0000   0.0000   0.0000   0.0000
     0.0000   0.0000   0.0000   0.0000   0.0000   0.0000   0.0000   0.0000
     0.0000   0.0000   0.0000   0.0000   0.0000   0.0000   0.0000

          k = 0.2500-0.5000 0.0000 ( 65138 PWs)   bands (ev):

   -92.3351 -92.2808 -92.1890 -92.1394 -92.0809 -92.0414 -92.0244 -91.9018
   -55.6882 -55.6672 -55.5469 -55.5363 -55.5283 -55.5230 -55.4862 -55.4587
   -55.4425 -55.4403 -55.4314 -55.3897 -55.3702 -55.3330 -55.3149 -55.2802
   -55.2749 -55.2305 -55.2278 -55.2272 -55.2187 -55.1765 -55.1551 -55.0687
   -30.9200 -30.9045 -30.7623 -30.7328 -30.7234 -30.6762 -30.5329 -30.5058
   -29.4843 -29.4434 -29.4185 -29.3103 -22.2514 -14.6215 -14.5755 -14.5091
   -14.3935 -14.3626 -14.2395 -14.1579 -14.0254 -13.7715 -13.7137 -13.6671
   -13.6359 -13.6183 -13.5996 -13.5847 -13.5532 -13.5369 -13.5023 -13.4619
   -13.4418 -13.4191 -13.3074 -13.2590 -13.2202 -13.1799 -13.1421 -13.1108
   -13.0350 -12.9926 -12.8515 -12.7874 -12.7657 -12.6944 -12.6807 -12.6551
   -12.6338 -12.6160 -12.5887 -12.5575 -12.5197 -12.5058 -12.4840 -12.4654
   -12.4345 -12.4149 -12.3003 -12.2689 -12.1665 -12.1046 -11.9668 -11.9354
   -11.8926 -11.8606 -11.4135 -11.4017 -11.3908 -11.3637 -11.3320 -11.3039
   -11.2623 -11.2349 -11.2126 -11.1682 -11.1420 -11.1306  -5.8482  -3.1575
    -3.1522  -2.0897  -2.0235  -1.8941  -1.8162  -1.6882  -1.6044  -1.4807
    -1.3289  -1.2764  -1.2538  -1.1903  -1.1772  -1.0816  -1.0135  -0.9280
    -0.8810  -0.8712  -0.8061  -0.7659  -0.7298  -0.6827  -0.6457  -0.6111
    -0.5705  -0.5604  -0.5140  -0.4861  -0.4446  -0.4141  -0.3461  -0.2458
    -0.2078  -0.1299  -0.0661  -0.0198   0.0248   0.0478   0.0940   0.2569
     0.2654   0.3744   0.4111   0.4211   0.4680   0.4913   0.5315   0.5592
     0.6356   0.8939   0.9853   1.0602   1.1224   1.3816   1.4078   1.4985
     1.5228   1.6945   1.7264   1.7692   1.7928   1.8107   1.8310   1.8909
     1.9355   1.9733   2.0499   2.1272   2.1676   2.1931   2.2061   2.2381
     2.2539   2.2645   2.3015   2.3193   2.3364   2.3776   2.3896   2.4186
     2.4479   2.5078   2.5448   2.6206   2.7642   2.9168   2.9316   2.9512
     2.9774   3.0021   3.0301   3.0482   3.0546   3.0615   3.0806   3.0939
     3.1889   3.2368   3.2569   3.2598   3.2755   3.2959   3.3100   3.3284
     3.3365   3.3660   3.3786   3.3941   3.4031   3.4115   3.4229   3.9373
     3.9457   4.1059   4.1538   4.4827   4.5327   4.5380   4.6606   5.0236
     5.1664   5.2612   5.4414   5.5020   5.6572   5.6779   5.8781   5.9179
     6.0948   6.1290   6.2977   6.5085   6.6022   6.6378   7.1383   7.2544
     7.5313   7.6386   7.9558   8.0794   8.1771   8.2158   8.3393   8.4081
     8.5184   8.6359   8.7012   8.8105   8.8367   8.8953   8.9406

     occupation numbers 
     1.0000   1.0000   1.0000   1.0000   1.0000   1.0000   1.0000   1.0000
     1.0000   1.0000   1.0000   1.0000   1.0000   1.0000   1.0000   1.0000
     1.0000   1.0000   1.0000   1.0000   1.0000   1.0000   1.0000   1.0000
     1.0000   1.0000   1.0000   1.0000   1.0000   1.0000   1.0000   1.0000
     1.0000   1.0000   1.0000   1.0000   1.0000   1.0000   1.0000   1.0000
     1.0000   1.0000   1.0000   1.0000   1.0000   1.0000   1.0000   1.0000
     1.0000   1.0000   1.0000   1.0000   1.0000   1.0000   1.0000   1.0000
     1.0000   1.0000   1.0000   1.0000   1.0000   1.0000   1.0000   1.0000
     1.0000   1.0000   1.0000   1.0000   1.0000   1.0000   1.0000   1.0000
     1.0000   1.0000   1.0000   1.0000   1.0000   1.0000   1.0000   1.0000
     1.0000   1.0000   1.0000   1.0000   1.0000   1.0000   1.0000   1.0000
     1.0000   1.0000   1.0000   1.0000   1.0000   1.0000   1.0000   1.0000
     1.0000   1.0000   1.0000   1.0000   1.0000   1.0000   1.0000   1.0000
     1.0000   1.0000   1.0000   1.0000   1.0000   1.0000   1.0000   1.0000
     1.0000   1.0000   1.0000   1.0000   1.0000   1.0000   1.0000   1.0000
     1.0000   1.0000   1.0000   1.0000   1.0000   1.0000   1.0000   1.0000
     1.0000   1.0000   1.0000   1.0000   1.0000   1.0000   1.0000   1.0000
     1.0000   1.0000   1.0000   1.0000   1.0000   1.0000   1.0000   1.0000
     1.0000   1.0000   1.0000   1.0000   1.0000   1.0000   1.0000   1.0000
     1.0000   1.0000   1.0000   1.0000   1.0000   1.0000   1.0000   1.0000
     1.0000   1.0000   1.0000   1.0000   0.9999   0.9997   0.9997   0.9994
     0.9994   0.9985   0.9982   0.9978   0.9976   0.9974   0.9971   0.9962
     0.9954   0.9946   0.9926   0.9899   0.9882   0.9869   0.9863   0.9845
     0.9836   0.9829   0.9805   0.9792   0.9779   0.9744   0.9734   0.9706
     0.9676   0.9606   0.9556   0.9440   0.9157   0.8749   0.8703   0.8641
     0.8554   0.8469   0.8369   0.8302   0.8277   0.8251   0.8177   0.8124
     0.7721   0.7501   0.7405   0.7391   0.7314   0.7214   0.7143   0.7049
     0.7008   0.6854   0.6787   0.6704   0.6656   0.6610   0.6548   0.3574
     0.3527   0.2690   0.2461   0.1199   0.1057   0.1043   0.0750   0.0239
     0.0142   0.0099   0.0047   0.0036   0.0018   0.0016   0.0006   0.0005
     0.0002   0.0001   0.0001   0.0000   0.0000   0.0000   0.0000   0.0000
     0.0000   0.0000   0.0000   0.0000   0.0000   0.0000   0.0000   0.0000
     0.0000   0.0000   0.0000   0.0000   0.0000   0.0000   0.0000

          k =-0.5000-0.5000 0.0000 ( 65132 PWs)   bands (ev):

   -92.3351 -92.2808 -92.1890 -92.1394 -92.0809 -92.0414 -92.0244 -91.9018
   -55.6882 -55.6672 -55.5469 -55.5363 -55.5283 -55.5230 -55.4862 -55.4587
   -55.4425 -55.4403 -55.4314 -55.3897 -55.3702 -55.3330 -55.3149 -55.2802
   -55.2749 -55.2305 -55.2278 -55.2272 -55.2187 -55.1765 -55.1551 -55.0687
   -30.9177 -30.9068 -30.7619 -30.7326 -30.7233 -30.6766 -30.5331 -30.5059
   -29.4833 -29.4444 -29.4181 -29.3108 -22.2514 -14.5760 -14.5481 -14.4308
   -14.4205 -14.3291 -14.2872 -14.2589 -14.1252 -13.7714 -13.6260 -13.6163
   -13.5788 -13.5620 -13.5441 -13.5362 -13.4995 -13.4917 -13.4809 -13.4690
   -13.4534 -13.3762 -13.3699 -13.3459 -13.3192 -13.3065 -13.2146 -13.2031
   -13.0860 -13.0429 -12.8027 -12.7627 -12.6991 -12.6724 -12.6662 -12.6345
   -12.6301 -12.6206 -12.6169 -12.5985 -12.5176 -12.4917 -12.4856 -12.4685
   -12.4563 -12.4295 -12.2501 -12.2424 -12.1828 -12.0884 -11.9633 -11.9121
   -11.8845 -11.8611 -11.4101 -11.3978 -11.3799 -11.3633 -11.3284 -11.3105
   -11.2763 -11.2155 -11.1949 -11.1901 -11.1396 -11.1365  -5.8482  -3.1577
    -3.1522  -1.8663  -1.7902  -1.7809  -1.7065  -1.6684  -1.5902  -1.5224
    -1.3966  -1.2792  -1.2496  -1.2102  -1.1527  -1.0807  -1.0677  -0.9954
    -0.9529  -0.8371  -0.8102  -0.7609  -0.7290  -0.6651  -0.6221  -0.6023
    -0.5914  -0.5385  -0.4900  -0.4782  -0.3637  -0.3063  -0.2607  -0.2111
    -0.1859  -0.1748  -0.1387  -0.0996  -0.0652  -0.0506   0.0354   0.0997
     0.1515   0.1703   0.2480   0.2962   0.3069   0.3676   0.3938   0.4058
     0.4217   0.8615   0.8980   1.0019   1.0364   1.4154   1.4280   1.4597
     1.5004   1.7770   1.7966   1.8032   1.8422   1.9757   2.0727   2.0977
     2.1325   2.1424   2.1702   2.1818   2.2134   2.2185   2.2254   2.2418
     2.3066   2.3081   2.3329   2.3376   2.3657   2.3738   2.4144   2.4458
     2.4565   2.4917   2.5198   2.5907   2.6593   2.9257   2.9614   2.9784
     3.0010   3.0072   3.0352   3.0399   3.0535   3.0614   3.0693   3.0840
     3.0931   3.1122   3.1240   3.1902   3.1934   3.2138   3.2284   3.2395
     3.2590   3.2629   3.2733   3.3745   3.3784   3.4073   3.4176   4.3658
     4.3814   4.3978   4.4121   4.6829   4.7553   4.7826   5.0222   5.1425
[...]
     0.0000   0.0000   0.0000   0.0000   0.0000   0.0000   0.0000   0.0000
     0.0000   0.0000   0.0000   0.0000   0.0000   0.0000   0.0000

          k =-0.5000 0.0000 0.0000 ( 65180 PWs)   bands (ev):

   -92.3351 -92.2808 -92.1890 -92.1394 -92.0809 -92.0414 -92.0244 -91.9018
   -55.6882 -55.6672 -55.5469 -55.5363 -55.5283 -55.5230 -55.4862 -55.4587
   -55.4425 -55.4403 -55.4314 -55.3897 -55.3702 -55.3330 -55.3149 -55.2802
   -55.2749 -55.2305 -55.2278 -55.2272 -55.2187 -55.1765 -55.1551 -55.0687
   -30.9181 -30.9071 -30.7615 -30.7370 -30.7189 -30.6763 -30.5352 -30.5037
   -29.4845 -29.4451 -29.4169 -29.3101 -22.2514 -14.6552 -14.6068 -14.5442
   -14.4388 -14.3303 -14.1861 -14.0484 -13.9075 -13.7739 -13.7714 -13.7676
   -13.7470 -13.6945 -13.6359 -13.6030 -13.5560 -13.5525 -13.5367 -13.4808
   -13.4723 -13.3789 -13.1953 -13.1763 -13.1357 -13.1271 -13.0956 -13.0064
   -12.9842 -12.9142 -12.8942 -12.8906 -12.7585 -12.6990 -12.6899 -12.6682
   -12.6652 -12.6561 -12.5945 -12.5780 -12.5662 -12.5479 -12.4612 -12.4319
   -12.3730 -12.3572 -12.2847 -12.2757 -12.1858 -12.1628 -12.0111 -11.9731
   -11.8799 -11.8412 -11.4169 -11.3958 -11.3889 -11.3741 -11.3561 -11.3148
   -11.2519 -11.2345 -11.2020 -11.1573 -11.1478 -11.1319  -5.8482  -3.1577
    -3.1518  -2.2210  -2.1819  -2.0172  -1.9783  -1.6669  -1.5914  -1.4421
    -1.3239  -1.2856  -1.2392  -1.1913  -1.1653  -1.0441  -0.9984  -0.9848
    -0.9014  -0.8658  -0.8528  -0.8187  -0.7638  -0.6939  -0.6634  -0.6380
    -0.5434  -0.4933  -0.4448  -0.4131  -0.3912  -0.3616  -0.3138  -0.2888
    -0.2529  -0.1568  -0.0841  -0.0215   0.0418   0.1904   0.2438   0.3035
     0.3257   0.3785   0.4147   0.5410   0.5828   0.6255   0.8011   0.8992
     0.9451   1.0252   1.0757   1.2142   1.2271   1.3544   1.3876   1.4421
     1.4659   1.5092   1.5190   1.5663   1.5905   1.6539   1.7010   1.7484
     1.7574   2.0491   2.0596   2.0636   2.0911   2.2086   2.2167   2.2235
     2.2420   2.2749   2.2877   2.3221   2.3542   2.3702   2.4392   2.4429
     2.5009   2.5141   2.5801   2.6875   2.7760   2.8607   2.8754   2.9542
     2.9903   3.0135   3.0529   3.0725   3.0863   3.0933   3.1023   3.1306
     3.1986   3.2420   3.2874   3.3151   3.3633   3.3662   3.3677   3.3798
     3.3942   3.4068   3.4210   3.4237   3.4436   3.4502   3.4725   3.4929
     3.4972   3.6230   3.6313   4.4329   4.4659   4.5286   4.6493   5.0093
     5.1458   5.2075   5.3175   5.4453   5.7241   5.8727   5.9575   5.9893
     6.2389   6.3226   6.3853   6.4381   6.9879   7.0890   7.1480   7.4759
     7.4854   7.7132   7.7639   7.9886   8.0905   8.1267   8.2040   8.3445
     8.4397   8.5918   8.6492   8.7218   8.7709   8.8613   8.9225

     occupation numbers 
     1.0000   1.0000   1.0000   1.0000   1.0000   1.0000   1.0000   1.0000
     1.0000   1.0000   1.0000   1.0000   1.0000   1.0000   1.0000   1.0000
     1.0000   1.0000   1.0000   1.0000   1.0000   1.0000   1.0000   1.0000
     1.0000   1.0000   1.0000   1.0000   1.0000   1.0000   1.0000   1.0000
     1.0000   1.0000   1.0000   1.0000   1.0000   1.0000   1.0000   1.0000
     1.0000   1.0000   1.0000   1.0000   1.0000   1.0000   1.0000   1.0000
     1.0000   1.0000   1.0000   1.0000   1.0000   1.0000   1.0000   1.0000
     1.0000   1.0000   1.0000   1.0000   1.0000   1.0000   1.0000   1.0000
     1.0000   1.0000   1.0000   1.0000   1.0000   1.0000   1.0000   1.0000
     1.0000   1.0000   1.0000   1.0000   1.0000   1.0000   1.0000   1.0000
     1.0000   1.0000   1.0000   1.0000   1.0000   1.0000   1.0000   1.0000
     1.0000   1.0000   1.0000   1.0000   1.0000   1.0000   1.0000   1.0000
     1.0000   1.0000   1.0000   1.0000   1.0000   1.0000   1.0000   1.0000
     1.0000   1.0000   1.0000   1.0000   1.0000   1.0000   1.0000   1.0000
     1.0000   1.0000   1.0000   1.0000   1.0000   1.0000   1.0000   1.0000
     1.0000   1.0000   1.0000   1.0000   1.0000   1.0000   1.0000   1.0000
     1.0000   1.0000   1.0000   1.0000   1.0000   1.0000   1.0000   1.0000
     1.0000   1.0000   1.0000   1.0000   1.0000   1.0000   1.0000   1.0000
     1.0000   1.0000   1.0000   1.0000   1.0000   1.0000   1.0000   1.0000
     1.0000   1.0000   1.0000   1.0000   1.0000   1.0000   1.0000   1.0000
     1.0000   1.0000   0.9999   0.9999   0.9999   0.9997   0.9997   0.9996
     0.9995   0.9994   0.9994   0.9992   0.9991   0.9988   0.9984   0.9980
     0.9980   0.9926   0.9923   0.9922   0.9912   0.9861   0.9857   0.9853
     0.9843   0.9823   0.9814   0.9790   0.9764   0.9751   0.9685   0.9681
     0.9614   0.9597   0.9505   0.9319   0.9129   0.8913   0.8871   0.8631
     0.8510   0.8429   0.8284   0.8209   0.8154   0.8127   0.8091   0.7974
     0.7677   0.7476   0.7256   0.7117   0.6868   0.6853   0.6845   0.6781
     0.6704   0.6636   0.6558   0.6544   0.6434   0.6398   0.6273   0.6158
     0.6134   0.5403   0.5354   0.1354   0.1250   0.1068   0.0774   0.0252
     0.0154   0.0122   0.0079   0.0046   0.0013   0.0006   0.0004   0.0003
     0.0001   0.0000   0.0000   0.0000   0.0000   0.0000   0.0000   0.0000
     0.0000   0.0000   0.0000   0.0000   0.0000   0.0000   0.0000   0.0000
     0.0000   0.0000   0.0000   0.0000   0.0000   0.0000   0.0000

          k =-0.2500 0.2500 0.0000 ( 65198 PWs)   bands (ev):

   -92.3351 -92.2808 -92.1890 -92.1394 -92.0809 -92.0414 -92.0244 -91.9018
   -55.6882 -55.6672 -55.5469 -55.5363 -55.5283 -55.5230 -55.4862 -55.4587
   -55.4425 -55.4403 -55.4314 -55.3897 -55.3702 -55.3330 -55.3149 -55.2802
   -55.2749 -55.2305 -55.2278 -55.2272 -55.2187 -55.1765 -55.1551 -55.0687
   -30.9202 -30.9047 -30.7621 -30.7353 -30.7209 -30.6761 -30.5340 -30.5046
   -29.4849 -29.4437 -29.4179 -29.3100 -22.2514 -14.6569 -14.6217 -14.5445
   -14.4265 -14.3217 -14.1955 -14.1034 -13.9024 -13.7717 -13.7574 -13.7274
   -13.7175 -13.6695 -13.6453 -13.6310 -13.6185 -13.5751 -13.4789 -13.4673
   -13.3159 -13.2888 -13.2614 -13.2405 -13.2058 -13.1411 -13.1087 -13.0801
   -12.9885 -12.9396 -12.8692 -12.7914 -12.7490 -12.7124 -12.6854 -12.6609
   -12.6373 -12.6164 -12.5873 -12.5744 -12.5607 -12.5183 -12.4869 -12.4476
   -12.4168 -12.4135 -12.3908 -12.3366 -12.2005 -12.1037 -12.0869 -11.9288
   -11.8198 -11.7672 -11.4374 -11.4155 -11.3887 -11.3763 -11.3355 -11.3008
   -11.2777 -11.2563 -11.2337 -11.1498 -11.1037 -11.0941  -5.8482  -3.1576
    -3.1520  -2.3059  -2.0963  -1.9758  -1.8886  -1.7686  -1.7016  -1.5012
    -1.3533  -1.3339  -1.3068  -1.2150  -1.1780  -1.0868  -1.0536  -1.0277
    -0.8835  -0.8283  -0.7609  -0.7325  -0.6728  -0.6494  -0.6090  -0.5800
    -0.5402  -0.4778  -0.4314  -0.3700  -0.3016  -0.2775  -0.2241  -0.1955
    -0.1511  -0.0936  -0.0523  -0.0073   0.0880   0.1250   0.1298   0.1808
     0.2442   0.3062   0.3559   0.3871   0.4526   0.4930   0.7462   0.9131
     0.9574   0.9918   1.0484   1.0971   1.1572   1.2201   1.2485   1.5328
     1.6495   1.6875   1.7188   1.7277   1.7696   1.7870   1.8315   1.8614
     1.8783   1.9046   1.9431   1.9553   2.0045   2.0202   2.0645   2.1338
     2.1556   2.1787   2.2117   2.2451   2.2793   2.3334   2.4489   2.5550
     2.5936   2.6383   2.6573   2.7204   2.7656   2.7923   2.8129   2.8370
     2.9375   2.9742   3.0527   3.0626   3.0803   3.2454   3.2540   3.2675
     3.2778   3.2881   3.3012   3.3082   3.3259   3.3343   3.3500   3.3597
     3.3723   3.3818   3.3876   3.4203   3.4318   3.4408   3.4747   3.7678
     3.8484   3.9057   3.9659   3.9946   4.1970   4.3248   4.6417   4.8031
     4.9794   5.1453   5.3393   5.5633   5.9369   5.9639   6.0070   6.1270
     6.1997   6.2534   6.3542   6.4102   6.9332   7.0023   7.0908   7.2188
     7.7259   7.7956   7.8330   7.9052   7.9868   8.1676   8.2177   8.2981
     8.3733   8.4620   8.5857   8.6902   8.7210   8.7704   8.8501

     occupation numbers 
     1.0000   1.0000   1.0000   1.0000   1.0000   1.0000   1.0000   1.0000
     1.0000   1.0000   1.0000   1.0000   1.0000   1.0000   1.0000   1.0000
     1.0000   1.0000   1.0000   1.0000   1.0000   1.0000   1.0000   1.0000
     1.0000   1.0000   1.0000   1.0000   1.0000   1.0000   1.0000   1.0000
     1.0000   1.0000   1.0000   1.0000   1.0000   1.0000   1.0000   1.0000
     1.0000   1.0000   1.0000   1.0000   1.0000   1.0000   1.0000   1.0000
     1.0000   1.0000   1.0000   1.0000   1.0000   1.0000   1.0000   1.0000
     1.0000   1.0000   1.0000   1.0000   1.0000   1.0000   1.0000   1.0000
     1.0000   1.0000   1.0000   1.0000   1.0000   1.0000   1.0000   1.0000
     1.0000   1.0000   1.0000   1.0000   1.0000   1.0000   1.0000   1.0000
     1.0000   1.0000   1.0000   1.0000   1.0000   1.0000   1.0000   1.0000
     1.0000   1.0000   1.0000   1.0000   1.0000   1.0000   1.0000   1.0000
     1.0000   1.0000   1.0000   1.0000   1.0000   1.0000   1.0000   1.0000
     1.0000   1.0000   1.0000   1.0000   1.0000   1.0000   1.0000   1.0000
     1.0000   1.0000   1.0000   1.0000   1.0000   1.0000   1.0000   1.0000
     1.0000   1.0000   1.0000   1.0000   1.0000   1.0000   1.0000   1.0000
     1.0000   1.0000   1.0000   1.0000   1.0000   1.0000   1.0000   1.0000
     1.0000   1.0000   1.0000   1.0000   1.0000   1.0000   1.0000   1.0000
     1.0000   1.0000   1.0000   1.0000   1.0000   1.0000   1.0000   1.0000
     1.0000   1.0000   1.0000   1.0000   1.0000   1.0000   1.0000   1.0000
     1.0000   1.0000   1.0000   0.9999   0.9999   0.9999   0.9999   0.9993
     0.9988   0.9985   0.9983   0.9982   0.9978   0.9977   0.9971   0.9967
     0.9964   0.9960   0.9953   0.9950   0.9939   0.9935   0.9921   0.9896
     0.9887   0.9876   0.9860   0.9841   0.9820   0.9781   0.9675   0.9542
     0.9484   0.9410   0.9376   0.9253   0.9153   0.9090   0.9039   0.8977
     0.8685   0.8565   0.8285   0.8247   0.8178   0.7460   0.7419   0.7354
     0.7303   0.7253   0.7187   0.7152   0.7062   0.7019   0.6938   0.6887
     0.6821   0.6770   0.6739   0.6562   0.6499   0.6450   0.6261   0.4547
     0.4077   0.3750   0.3416   0.3262   0.2263   0.1734   0.0790   0.0494
     0.0279   0.0154   0.0072   0.0027   0.0004   0.0004   0.0003   0.0001
     0.0001   0.0001   0.0000   0.0000   0.0000   0.0000   0.0000   0.0000
     0.0000   0.0000   0.0000   0.0000   0.0000   0.0000   0.0000   0.0000
     0.0000   0.0000   0.0000   0.0000   0.0000   0.0000   0.0000

          k =-0.5000 0.2500 0.0000 ( 65138 PWs)   bands (ev):

   -92.3351 -92.2808 -92.1890 -92.1394 -92.0809 -92.0414 -92.0244 -91.9018
   -55.6882 -55.6672 -55.5469 -55.5363 -55.5283 -55.5230 -55.4862 -55.4587
   -55.4425 -55.4403 -55.4314 -55.3897 -55.3702 -55.3330 -55.3149 -55.2802
   -55.2749 -55.2305 -55.2278 -55.2272 -55.2187 -55.1765 -55.1551 -55.0687
   -30.9179 -30.9069 -30.7617 -30.7351 -30.7208 -30.6765 -30.5342 -30.5048
   -29.4839 -29.4447 -29.4175 -29.3104 -22.2514 -14.6229 -14.5801 -14.5014
   -14.4040 -14.3604 -14.2323 -14.1508 -14.0215 -13.7715 -13.7078 -13.6777
   -13.6656 -13.6228 -13.6039 -13.5759 -13.5417 -13.5369 -13.5141 -13.4743
   -13.4602 -13.3651 -13.2797 -13.2371 -13.2286 -13.2180 -13.1553 -13.1128
   -13.0310 -12.9759 -12.8455 -12.8088 -12.7155 -12.7049 -12.6730 -12.6606
   -12.6430 -12.6160 -12.6016 -12.5854 -12.5754 -12.5102 -12.4739 -12.4525
   -12.4050 -12.3925 -12.2670 -12.2595 -12.1841 -12.1219 -11.9690 -11.9669
   -11.8752 -11.8507 -11.4098 -11.3972 -11.3829 -11.3712 -11.3499 -11.3196
   -11.2392 -11.2306 -11.2072 -11.1717 -11.1433 -11.1344  -5.8482  -3.1577
    -3.1520  -2.0791  -2.0365  -1.8871  -1.8453  -1.6863  -1.6102  -1.4663
    -1.3303  -1.2740  -1.2464  -1.2074  -1.1679  -1.0881  -0.9734  -0.9168
    -0.8933  -0.8678  -0.7932  -0.7625  -0.7263  -0.7066  -0.6461  -0.6191
    -0.5779  -0.5426  -0.5141  -0.4571  -0.4312  -0.3895  -0.3553  -0.2510
    -0.2261  -0.1400  -0.0773  -0.0453   0.0111   0.0973   0.1261   0.2320
     0.2576   0.3225   0.3641   0.3952   0.4741   0.5074   0.5381   0.5925
     0.6294   0.9352   0.9799   1.0516   1.0796   1.3634   1.4248   1.4990
     1.5249   1.7066   1.7425   1.7802   1.7962   1.8137   1.8313   1.8995
     1.9419   1.9770   2.0080   2.1111   2.1554   2.1960   2.2056   2.2356
     2.2664   2.2821   2.2961   2.3180   2.3428   2.3852   2.4107   2.4413
     2.4649   2.4894   2.5589   2.6781   2.7751   2.8044   2.8742   2.9170
     2.9704   3.0127   3.0197   3.0493   3.0578   3.0784   3.0914   3.1145
     3.1985   3.2396   3.2527   3.2600   3.2808   3.3038   3.3168   3.3307
     3.3434   3.3631   3.3771   3.3879   3.3958   3.4056   3.4177   3.9421
     3.9718   4.1376   4.1572   4.4383   4.4901   4.5431   4.7452   5.0627
     5.1635   5.2295   5.3427   5.4539   5.7283   5.7672   5.8381   5.9613
     6.0516   6.1231   6.3357   6.4464   6.5662   6.6496   7.1381   7.3427
     7.4834   7.6547   7.9692   8.0581   8.1882   8.2173   8.3215   8.4025
     8.5270   8.6651   8.6942   8.8157   8.8567   8.8718   8.9324

     occupation numbers 
     1.0000   1.0000   1.0000   1.0000   1.0000   1.0000   1.0000   1.0000
     1.0000   1.0000   1.0000   1.0000   1.0000   1.0000   1.0000   1.0000
     1.0000   1.0000   1.0000   1.0000   1.0000   1.0000   1.0000   1.0000
     1.0000   1.0000   1.0000   1.0000   1.0000   1.0000   1.0000   1.0000
     1.0000   1.0000   1.0000   1.0000   1.0000   1.0000   1.0000   1.0000
     1.0000   1.0000   1.0000   1.0000   1.0000   1.0000   1.0000   1.0000
     1.0000   1.0000   1.0000   1.0000   1.0000   1.0000   1.0000   1.0000
     1.0000   1.0000   1.0000   1.0000   1.0000   1.0000   1.0000   1.0000
     1.0000   1.0000   1.0000   1.0000   1.0000   1.0000   1.0000   1.0000
     1.0000   1.0000   1.0000   1.0000   1.0000   1.0000   1.0000   1.0000
     1.0000   1.0000   1.0000   1.0000   1.0000   1.0000   1.0000   1.0000
     1.0000   1.0000   1.0000   1.0000   1.0000   1.0000   1.0000   1.0000
     1.0000   1.0000   1.0000   1.0000   1.0000   1.0000   1.0000   1.0000
     1.0000   1.0000   1.0000   1.0000   1.0000   1.0000   1.0000   1.0000
     1.0000   1.0000   1.0000   1.0000   1.0000   1.0000   1.0000   1.0000
     1.0000   1.0000   1.0000   1.0000   1.0000   1.0000   1.0000   1.0000
     1.0000   1.0000   1.0000   1.0000   1.0000   1.0000   1.0000   1.0000
     1.0000   1.0000   1.0000   1.0000   1.0000   1.0000   1.0000   1.0000
     1.0000   1.0000   1.0000   1.0000   1.0000   1.0000   1.0000   1.0000
     1.0000   1.0000   1.0000   1.0000   1.0000   1.0000   1.0000   1.0000
     1.0000   1.0000   1.0000   1.0000   0.9999   0.9997   0.9996   0.9994
     0.9994   0.9984   0.9981   0.9977   0.9976   0.9973   0.9971   0.9961
     0.9953   0.9945   0.9938   0.9905   0.9887   0.9868   0.9863   0.9847
     0.9828   0.9818   0.9808   0.9793   0.9774   0.9738   0.9714   0.9683
     0.9657   0.9628   0.9536   0.9337   0.9131   0.9060   0.8875   0.8748
     0.8577   0.8431   0.8406   0.8297   0.8265   0.8186   0.8134   0.8041
     0.7678   0.7487   0.7425   0.7390   0.7289   0.7174   0.7109   0.7038
     0.6972   0.6869   0.6795   0.6738   0.6695   0.6642   0.6577   0.3547
     0.3384   0.2537   0.2445   0.1336   0.1177   0.1029   0.0588   0.0208
     0.0144   0.0112   0.0071   0.0044   0.0012   0.0010   0.0007   0.0004
     0.0002   0.0002   0.0000   0.0000   0.0000   0.0000   0.0000   0.0000
     0.0000   0.0000   0.0000   0.0000   0.0000   0.0000   0.0000   0.0000
     0.0000   0.0000   0.0000   0.0000   0.0000   0.0000   0.0000

     the Fermi energy is     3.6912 ev

!    total energy              =   -4482.97200169 Ry
     estimated scf accuracy    <          5.2E-09 Ry
     smearing contrib. (-TS)   =      -1.17244685 Ry
     internal energy E=F+TS    =   -4481.79955484 Ry

     The total energy is F=E-TS. E is the sum of the following terms:
     one-electron contribution =  -20251.44822971 Ry
     hartree contribution      =   10265.43085525 Ry
     xc contribution           =    -701.58086319 Ry
     ewald contribution        =    6491.45550399 Ry
     one-center paw contrib.   =    -285.65682118 Ry
      -> PAW hartree energy AE =      25.18750499 Ry
      -> PAW hartree energy PS =     -25.07117933 Ry
      -> PAW xc energy AE      =     -16.52090743 Ry
      -> PAW xc energy PS      =       6.88056509 Ry
      -> total E_H with PAW    =   10265.54718091 Ry
      -> total E_XC with PAW   =    -711.22120553 Ry

     convergence has been achieved in  52 iterations

     Writing all to output data dir /bsuhome/zayahcortright/scratch/pwscf.save/
 
     init_run     :      7.74s CPU      8.50s WALL (       1 calls)
     electrons    :    786.62s CPU    820.53s WALL (       1 calls)

     Called by init_run:
     wfcinit      :      6.18s CPU      6.40s WALL (       1 calls)
     wfcinit:atom :      0.04s CPU      0.06s WALL (       5 calls)
     wfcinit:wfcr :      5.87s CPU      6.01s WALL (       5 calls)
     potinit      :      0.19s CPU      0.22s WALL (       1 calls)
     hinit0       :      0.49s CPU      0.75s WALL (       1 calls)

     Called by electrons:
     c_bands      :    626.45s CPU    633.72s WALL (      52 calls)
     sum_band     :    121.09s CPU    136.11s WALL (      52 calls)
     v_of_rho     :      5.74s CPU      6.09s WALL (      53 calls)
     v_h          :      0.50s CPU      0.51s WALL (      53 calls)
     v_xc         :      5.23s CPU      5.58s WALL (      53 calls)
     newd         :     18.24s CPU     29.13s WALL (      53 calls)
     PAW_pot      :      1.75s CPU      1.78s WALL (      53 calls)
     mix_rho      :     12.95s CPU     13.37s WALL (      52 calls)

     Called by c_bands:
     init_us_2    :      7.01s CPU      7.08s WALL (     525 calls)
     init_us_2:cp :      7.01s CPU      7.08s WALL (     525 calls)
     cegterg      :    593.25s CPU    600.19s WALL (     260 calls)

     Called by sum_band:
     sum_band:wei :      0.39s CPU      0.41s WALL (      52 calls)
     sum_band:loo :    100.33s CPU    101.13s WALL (      52 calls)
     sum_band:buf :      1.52s CPU      1.57s WALL (     260 calls)
     sum_band:ini :      3.20s CPU      3.22s WALL (     260 calls)
     sum_band:cal :     21.90s CPU     21.97s WALL (     260 calls)
     sum_band:bec :      0.66s CPU      0.68s WALL (     260 calls)
     addusdens    :     17.15s CPU     31.30s WALL (      52 calls)
                                        0.00s GPU  (      52 calls)
     addusd:skk   :      0.35s CPU      1.01s WALL (     208 calls)
                                        0.00s GPU  (     208 calls)

     Called by *egterg:
     cdiaghg      :     64.26s CPU     64.52s WALL (    1458 calls)
     cegterg:over :     44.32s CPU     44.51s WALL (    1198 calls)
     cegterg:upda :     32.87s CPU     33.44s WALL (    1198 calls)
     cegterg:last :     68.32s CPU     68.59s WALL (     485 calls)
     cdiaghg:chol :      3.95s CPU      3.97s WALL (    1458 calls)
     cdiaghg:inve :      4.19s CPU      4.21s WALL (    1458 calls)
     cdiaghg:para :      8.24s CPU      8.28s WALL (    2916 calls)
     h_psi        :    321.62s CPU    325.02s WALL (    1463 calls)
     s_psi        :     43.75s CPU     43.94s WALL (    1463 calls)
     g_psi        :      1.13s CPU      1.13s WALL (    1198 calls)

     Called by h_psi:
     h_psi:calbec :     50.48s CPU     50.73s WALL (    1463 calls)
     vloc_psi     :    224.49s CPU    226.70s WALL (    1463 calls)
     add_vuspsi   :     43.60s CPU     43.82s WALL (    1463 calls)

     General routines
     calbec       :     72.37s CPU     72.68s WALL (    1723 calls)
     fft          :      5.40s CPU      5.45s WALL (     687 calls)
     ffts         :      4.80s CPU      4.84s WALL (    5440 calls)
     fftw         :    190.26s CPU    191.85s WALL (  356890 calls)
     interpolate  :      0.46s CPU      0.47s WALL (      53 calls)
 
     Parallel routines

     PAW routines
     PAW_pot      :      1.75s CPU      1.78s WALL (      53 calls)
 
     PWSCF        :  13m16.00s CPU  13m55.02s WALL

 
   This run was terminated on:  19: 6:45  18Jun2024            

=------------------------------------------------------------------------------=
   JOB DONE.
=------------------------------------------------------------------------------=
