
     Program PWSCF v.7.2 starts on 18Jun2024 at 22: 9:53 

     This program is part of the open-source Quantum ESPRESSO suite
     for quantum simulation of materials; please cite
         "P. Giannozzi et al., J. Phys.:Condens. Matter 21 395502 (2009);
         "P. Giannozzi et al., J. Phys.:Condens. Matter 29 465901 (2017);
         "P. Giannozzi et al., J. Chem. Phys. 152 154105 (2020);
          URL http://www.quantum-espresso.org", 
     in publications or presentations arising from this work. More details at
     http://www.quantum-espresso.org/quote

     Parallel version (MPI & OpenMP), running on      48 processor cores
     Number of MPI processes:                48
     Threads/MPI process:                     1

     MPI processes distributed on     1 nodes
     16422 MiB available memory on the printing compute node when the environment starts
 
     Reading input from espresso.pwi
Warning: card &CELL ignored
Warning: card / ignored
Warning: card &FCP ignored
Warning: card / ignored
Warning: card &RISM ignored
Warning: card / ignored

     Current dimensions of program PWSCF are:
     Max number of different atomic species (ntypx) = 10
     Max number of k-points (npk) =  40000
     Max angular momentum in pseudopotentials (lmaxx) =  4
     file O.pbe-n-kjpaw_psl.0.1.UPF: wavefunction(s)  2P renormalized
     signal trapping enabled: kill the code with -SIGUSR1 to stop cleanly the simulation 
 
     K-points division:     npool     =       2
     R & G space division:  proc/nbgrp/npool/nimage =      24
     Subspace diagonalization in iterative solution of the eigenvalue problem:
     one sub-group per band group will be used
     scalapack distributed-memory algorithm (size of sub-group:  3*  3 procs)

 
     Parallelization info
     --------------------
     sticks:   dense  smooth     PW     G-vecs:    dense   smooth      PW
     Min         350     175     47                61430    21716    3036
     Max         351     177     48                61449    21727    3041
     Sum        8421    4205   1137              1474595   521381   72913
 
     Using Slab Decomposition
 


     bravais-lattice index     =            0
     lattice parameter (alat)  =      14.8599  a.u.
     unit-cell volume          =    8305.1283 (a.u.)^3
     number of atoms/cell      =           51
     number of atomic types    =            4
     number of electrons       =       437.00
     number of Kohn-Sham states=          263
     kinetic-energy cutoff     =      60.0000  Ry
     charge density cutoff     =     480.0000  Ry
     scf convergence threshold =      1.0E-08
     mixing beta               =       0.1500
     number of iterations used =            8  local-TF  mixing
     Exchange-correlation= PBE
                           (   1   4   3   4   0   0   0)

     celldm(1)=  14.859904  celldm(2)=   0.000000  celldm(3)=   0.000000
     celldm(4)=   0.000000  celldm(5)=   0.000000  celldm(6)=   0.000000

     crystal axes: (cart. coord. in units of alat)
               a(1) = (   1.000000   0.000000   0.000000 )  
               a(2) = (   0.000000   1.000000   0.000000 )  
               a(3) = (   0.000000   0.000000   2.531036 )  

     reciprocal axes: (cart. coord. in units 2 pi/alat)
               b(1) = (  1.000000  0.000000  0.000000 )  
               b(2) = (  0.000000  1.000000  0.000000 )  
               b(3) = (  0.000000  0.000000  0.395095 )  


     PseudoPot. # 1 for Sr read from file:
     /bsuhome/zayahcortright/q-e/pseudo/Sr_pbe_v1.uspp.F.UPF
     MD5 check sum: 6b418c05fbe9db5448babca5e47b7a5b
     Pseudo is Ultrasoft + core correction, Zval = 10.0
     Generated by new atomic code, or converted to UPF format
     Using radial grid of  883 points,  6 beta functions with: 
                l(1) =   0
                l(2) =   0
                l(3) =   1
                l(4) =   1
                l(5) =   2
                l(6) =   2
     Q(r) pseudized with  6 coefficients,  rinner =    1.400   1.400   1.400
                                                       1.400   1.400

     PseudoPot. # 2 for O  read from file:
     /bsuhome/zayahcortright/q-e/pseudo/O.pbe-n-kjpaw_psl.0.1.UPF
     MD5 check sum: 0234752ac141de4415c5fc33072bef88
     Pseudo is Projector augmented-wave + core cor, Zval =  6.0
     Generated using "atomic" code by A. Dal Corso  v.5.0.99 svn rev. 10869
     Shape of augmentation charge: BESSEL
     Using radial grid of 1095 points,  4 beta functions with: 
                l(1) =   0
                l(2) =   0
                l(3) =   1
                l(4) =   1
     Q(r) pseudized with 0 coefficients 


     PseudoPot. # 3 for Co read from file:
     /bsuhome/zayahcortright/q-e/pseudo/Co_pbe_v1.2.uspp.F.UPF
     MD5 check sum: 5f91765df6ddd3222702df6e7b74a16d
     Pseudo is Ultrasoft + core correction, Zval = 17.0
     Generated by new atomic code, or converted to UPF format
     Using radial grid of  863 points,  6 beta functions with: 
                l(1) =   0
                l(2) =   0
                l(3) =   1
                l(4) =   1
                l(5) =   2
                l(6) =   2
     Q(r) pseudized with  8 coefficients,  rinner =    1.200   1.200   1.200
                                                       1.200   1.200

     PseudoPot. # 4 for H  read from file:
     /bsuhome/zayahcortright/q-e/pseudo/H.pbe-rrkjus_psl.1.0.0.UPF
     MD5 check sum: f52b6d4d1c606e5624b1dc7b2218f220
     Pseudo is Ultrasoft, Zval =  1.0
     Generated using "atomic" code by A. Dal Corso  v.5.1
     Using radial grid of  929 points,  2 beta functions with: 
                l(1) =   0
                l(2) =   0
     Q(r) pseudized with 0 coefficients 


     atomic species   valence    mass     pseudopotential
        Sr            10.00    87.62000     Sr( 1.00)
        O              6.00    15.99900     O ( 1.00)
        Co            17.00    58.93319     Co( 1.00)
        H              1.00     1.00800     H ( 1.00)

     No symmetry found


                                    s                        frac. trans.

      isym =  1     identity                                     

 cryst.   s( 1) = (     1          0          0      )
                  (     0          1          0      )
                  (     0          0          1      )

 cart.    s( 1) = (  1.0000000  0.0000000  0.0000000 )
                  (  0.0000000  1.0000000  0.0000000 )
                  (  0.0000000  0.0000000  1.0000000 )


   Cartesian axes

     site n.     atom                  positions (alat units)
         1           Sr  tau(   1) = (   0.2508693   0.7491307   1.7574407  )
         2           O   tau(   2) = (   0.4985141   0.5014859   1.7715967  )
         3           Sr  tau(   3) = (   0.7482398   0.7454518   1.7648669  )
         4           Sr  tau(   4) = (   0.7441748   0.2558252   1.7667843  )
         5           Sr  tau(   5) = (   0.2508693   0.7491307   1.2696799  )
         6           Sr  tau(   6) = (   0.2508693   0.7491307   0.7632319  )
         7           Co  tau(   7) = (   0.4998914   0.5001086   1.0164559  )
         8           Co  tau(   8) = (   0.4936915   0.5063085   1.5135603  )
         9           O   tau(   9) = (   0.4988895   0.7610401   1.0164559  )
        10           O   tau(  10) = (   0.2389599   0.5011105   1.0164559  )
        11           O   tau(  11) = (   0.0070918   0.7374880   1.0164559  )
        12           O   tau(  12) = (   0.0088340   0.7405089   1.5135603  )
        13           O   tau(  13) = (   0.5066944   0.7415376   1.5135603  )
        14           O   tau(  14) = (   0.2584624   0.4933056   1.5135603  )
        15           O   tau(  15) = (   0.4985141   0.5014859   0.7773880  )
        16           O   tau(  16) = (   0.4985141   0.5014859   1.2555238  )
        17           Sr  tau(  17) = (   0.7482398   0.7454518   0.7706582  )
        18           Sr  tau(  18) = (   0.7482398   0.7454518   1.2622536  )
        19           Sr  tau(  19) = (   0.7441748   0.2558252   0.7725755  )
        20           Sr  tau(  20) = (   0.7441748   0.2558252   1.2603363  )
        21           O   tau(  21) = (   0.7322655   0.0078049   1.5135603  )
        22           O   tau(  22) = (   0.7558175   0.4996027   1.5135603  )
        23           O   tau(  23) = (   0.5003973   0.2441825   1.5135603  )
        24           O   tau(  24) = (   0.7527966   0.4978604   1.0164559  )
        25           O   tau(  25) = (   0.5021396   0.2472034   1.0164559  )
        26           O   tau(  26) = (   0.7517679   0.0000000   1.0164559  )
        27           O   tau(  27) = (   0.0114961   0.4948124   1.7455321  )
        28           O   tau(  28) = (   0.0048226   0.0077944   1.7715967  )
        29           Sr  tau(  29) = (   0.2545482   0.2517602   1.7648669  )
        30           O   tau(  30) = (   0.5048017   0.0015068   1.7786929  )
        31           Co  tau(  31) = (   0.0056869   0.5006215   1.0164559  )
        32           Co  tau(  32) = (   0.0065315   0.4997770   1.5135603  )
        33           Co  tau(  33) = (   0.0061999   0.0064171   1.0164559  )
        34           Co  tau(  34) = (   0.0000000   0.0126169   1.5135603  )
        35           O   tau(  35) = (   0.0114961   0.4948124   1.2815885  )
        36           O   tau(  36) = (   0.0114961   0.4948124   0.7513233  )
        37           O   tau(  37) = (   0.0051979   0.2673486   1.0164559  )
        38           O   tau(  38) = (   0.0130029   0.2478461   1.5135603  )
        39           O   tau(  39) = (   0.0048226   0.0077944   0.7773880  )
        40           O   tau(  40) = (   0.0048226   0.0077944   1.2555238  )
        41           Sr  tau(  41) = (   0.2545482   0.2517602   0.7706582  )
        42           Sr  tau(  42) = (   0.2545482   0.2517602   1.2622536  )
        43           Co  tau(  43) = (   0.4989925   0.0073160   1.5135603  )
        44           Co  tau(  44) = (   0.4998370   0.0064714   1.0164559  )
        45           O   tau(  45) = (   0.5048017   0.0015068   0.7844841  )
        46           O   tau(  46) = (   0.5048017   0.0015068   1.2484277  )
        47           O   tau(  47) = (   0.2621260   0.0059111   1.5135603  )
        48           O   tau(  48) = (   0.2591051   0.0041689   1.0164559  )
        49           O   tau(  49) = (   0.2843291   0.5686583   2.1602013  )
        50           O   tau(  50) = (   0.2843291   0.5686583   2.3186489  )
        51           H   tau(  51) = (   0.2843291   0.5686583   2.4431567  )

   Crystallographic axes

     site n.     atom                  positions (cryst. coord.)
         1           Sr  tau(   1) = (  0.2508693  0.7491307  0.6943562  )
         2           O   tau(   2) = (  0.4985141  0.5014859  0.6999492  )
         3           Sr  tau(   3) = (  0.7482398  0.7454518  0.6972903  )
         4           Sr  tau(   4) = (  0.7441748  0.2558252  0.6980478  )
         5           Sr  tau(   5) = (  0.2508693  0.7491307  0.5016443  )
         6           Sr  tau(   6) = (  0.2508693  0.7491307  0.3015492  )
         7           Co  tau(   7) = (  0.4998914  0.5001086  0.4015968  )
         8           Co  tau(   8) = (  0.4936915  0.5063085  0.5980003  )
         9           O   tau(   9) = (  0.4988895  0.7610401  0.4015968  )
        10           O   tau(  10) = (  0.2389599  0.5011105  0.4015968  )
        11           O   tau(  11) = (  0.0070918  0.7374880  0.4015968  )
        12           O   tau(  12) = (  0.0088340  0.7405089  0.5980003  )
        13           O   tau(  13) = (  0.5066944  0.7415376  0.5980003  )
        14           O   tau(  14) = (  0.2584624  0.4933056  0.5980003  )
        15           O   tau(  15) = (  0.4985141  0.5014859  0.3071422  )
        16           O   tau(  16) = (  0.4985141  0.5014859  0.4960513  )
        17           Sr  tau(  17) = (  0.7482398  0.7454518  0.3044833  )
        18           Sr  tau(  18) = (  0.7482398  0.7454518  0.4987103  )
        19           Sr  tau(  19) = (  0.7441748  0.2558252  0.3052408  )
        20           Sr  tau(  20) = (  0.7441748  0.2558252  0.4979527  )
        21           O   tau(  21) = (  0.7322655  0.0078049  0.5980003  )
        22           O   tau(  22) = (  0.7558175  0.4996027  0.5980003  )
        23           O   tau(  23) = (  0.5003973  0.2441825  0.5980003  )
        24           O   tau(  24) = (  0.7527966  0.4978604  0.4015968  )
        25           O   tau(  25) = (  0.5021396  0.2472034  0.4015968  )
        26           O   tau(  26) = (  0.7517679  0.0000000  0.4015968  )
        27           O   tau(  27) = (  0.0114961  0.4948124  0.6896512  )
        28           O   tau(  28) = (  0.0048226  0.0077944  0.6999492  )
        29           Sr  tau(  29) = (  0.2545482  0.2517602  0.6972903  )
        30           O   tau(  30) = (  0.5048017  0.0015068  0.7027529  )
        31           Co  tau(  31) = (  0.0056869  0.5006215  0.4015968  )
        32           Co  tau(  32) = (  0.0065315  0.4997770  0.5980003  )
        33           Co  tau(  33) = (  0.0061999  0.0064171  0.4015968  )
        34           Co  tau(  34) = (  0.0000000  0.0126169  0.5980003  )
        35           O   tau(  35) = (  0.0114961  0.4948124  0.5063494  )
        36           O   tau(  36) = (  0.0114961  0.4948124  0.2968442  )
        37           O   tau(  37) = (  0.0051979  0.2673486  0.4015968  )
        38           O   tau(  38) = (  0.0130029  0.2478461  0.5980003  )
        39           O   tau(  39) = (  0.0048226  0.0077944  0.3071422  )
        40           O   tau(  40) = (  0.0048226  0.0077944  0.4960513  )
        41           Sr  tau(  41) = (  0.2545482  0.2517602  0.3044833  )
        42           Sr  tau(  42) = (  0.2545482  0.2517602  0.4987103  )
        43           Co  tau(  43) = (  0.4989925  0.0073160  0.5980003  )
        44           Co  tau(  44) = (  0.4998370  0.0064714  0.4015968  )
        45           O   tau(  45) = (  0.5048017  0.0015068  0.3099459  )
        46           O   tau(  46) = (  0.5048017  0.0015068  0.4932477  )
        47           O   tau(  47) = (  0.2621260  0.0059111  0.5980003  )
        48           O   tau(  48) = (  0.2591051  0.0041689  0.4015968  )
        49           O   tau(  49) = (  0.2843291  0.5686583  0.8534850  )
        50           O   tau(  50) = (  0.2843291  0.5686583  0.9160869  )
        51           H   tau(  51) = (  0.2843291  0.5686583  0.9652793  )

     number of k points=    10  Gaussian smearing, width (Ry)=  0.0700
                       cart. coord. in units 2pi/alat
        k(    1) = (   0.0000000   0.0000000   0.0000000), wk =   0.1250000
        k(    2) = (   0.0000000   0.2500000   0.0000000), wk =   0.2500000
        k(    3) = (   0.0000000  -0.5000000   0.0000000), wk =   0.1250000
        k(    4) = (   0.2500000   0.2500000   0.0000000), wk =   0.2500000
        k(    5) = (   0.2500000  -0.5000000   0.0000000), wk =   0.2500000
        k(    6) = (  -0.5000000  -0.5000000   0.0000000), wk =   0.1250000
        k(    7) = (   0.2500000   0.0000000   0.0000000), wk =   0.2500000
        k(    8) = (  -0.5000000   0.0000000   0.0000000), wk =   0.1250000
        k(    9) = (  -0.2500000   0.2500000   0.0000000), wk =   0.2500000
        k(   10) = (  -0.5000000   0.2500000   0.0000000), wk =   0.2500000

                       cryst. coord.
        k(    1) = (   0.0000000   0.0000000   0.0000000), wk =   0.1250000
        k(    2) = (   0.0000000   0.2500000   0.0000000), wk =   0.2500000
        k(    3) = (   0.0000000  -0.5000000   0.0000000), wk =   0.1250000
        k(    4) = (   0.2500000   0.2500000   0.0000000), wk =   0.2500000
        k(    5) = (   0.2500000  -0.5000000   0.0000000), wk =   0.2500000
        k(    6) = (  -0.5000000  -0.5000000   0.0000000), wk =   0.1250000
        k(    7) = (   0.2500000   0.0000000   0.0000000), wk =   0.2500000
        k(    8) = (  -0.5000000   0.0000000   0.0000000), wk =   0.1250000
        k(    9) = (  -0.2500000   0.2500000   0.0000000), wk =   0.2500000
        k(   10) = (  -0.5000000   0.2500000   0.0000000), wk =   0.2500000

     Dense  grid:  1474595 G-vectors     FFT dimensions: ( 108, 108, 270)

     Smooth grid:   521381 G-vectors     FFT dimensions: (  75,  75, 192)

     Dynamical RAM for                 wfc:      10.90 MB

     Dynamical RAM for     wfc (w. buffer):      65.37 MB

     Dynamical RAM for           str. fact:       3.75 MB

     Dynamical RAM for           local pot:       0.00 MB

     Dynamical RAM for          nlocal pot:      24.94 MB

     Dynamical RAM for                qrad:       7.03 MB

     Dynamical RAM for          rho,v,vnew:       6.02 MB

     Dynamical RAM for               rhoin:       2.01 MB

     Dynamical RAM for            rho*nmix:      15.00 MB

     Dynamical RAM for           G-vectors:       3.68 MB

     Dynamical RAM for          h,s,v(r/c):       1.40 MB

     Dynamical RAM for          <psi|beta>:       2.42 MB

     Dynamical RAM for                 psi:      21.79 MB

     Dynamical RAM for                hpsi:      21.79 MB

     Dynamical RAM for                spsi:      21.79 MB

     Dynamical RAM for      wfcinit/wfcrot:      34.89 MB

     Dynamical RAM for           addusdens:     101.73 MB

     Estimated static dynamical RAM per process >     122.82 MB

     Estimated max dynamical RAM per process >     239.55 MB

     Estimated total dynamical RAM >      10.88 GB

     Check: negative core charge=   -0.000004

     Initial potential from superposition of free atoms

     starting charge     428.5961, renormalised to     437.0000

     negative rho (up, down):  7.813E-01 0.000E+00
     Starting wfcs are  381 randomized atomic wfcs
     Checking if some PAW data can be deallocated... 
       PAW data deallocated on   18 nodes for type:  2

     total cpu time spent up to now is        9.7 secs

     Self-consistent Calculation

     iteration #  1     ecut=    60.00 Ry     beta= 0.15
     Davidson diagonalization with overlap

---- Real-time Memory Report at c_bands before calling an iterative solver
             0 MiB given to the printing process from OS
             0 MiB allocation reported by mallinfo(arena+hblkhd)
          6871 MiB available memory on the node where the printing process lives
------------------
     ethr =  1.00E-02,  avg # of iterations =  2.0

     negative rho (up, down):  7.716E-01 0.000E+00

     total cpu time spent up to now is       25.9 secs

     total energy              =   -4489.31357078 Ry
     estimated scf accuracy    <      49.77631971 Ry

     iteration #  2     ecut=    60.00 Ry     beta= 0.15
     Davidson diagonalization with overlap

---- Real-time Memory Report at c_bands before calling an iterative solver
             0 MiB given to the printing process from OS
             0 MiB allocation reported by mallinfo(arena+hblkhd)
          7189 MiB available memory on the node where the printing process lives
------------------
     ethr =  1.00E-02,  avg # of iterations =  1.0

     negative rho (up, down):  7.614E-01 0.000E+00

     total cpu time spent up to now is       39.3 secs

     total energy              =   -4486.82698926 Ry
     estimated scf accuracy    <      35.38240085 Ry

     iteration #  3     ecut=    60.00 Ry     beta= 0.15
     Davidson diagonalization with overlap

---- Real-time Memory Report at c_bands before calling an iterative solver
             0 MiB given to the printing process from OS
             0 MiB allocation reported by mallinfo(arena+hblkhd)
          6395 MiB available memory on the node where the printing process lives
------------------
     ethr =  8.10E-03,  avg # of iterations =  1.0

     negative rho (up, down):  7.563E-01 0.000E+00

     total cpu time spent up to now is       52.6 secs

     total energy              =   -4486.75794092 Ry
     estimated scf accuracy    <      35.05601566 Ry

     iteration #  4     ecut=    60.00 Ry     beta= 0.15
     Davidson diagonalization with overlap

---- Real-time Memory Report at c_bands before calling an iterative solver
             0 MiB given to the printing process from OS
             0 MiB allocation reported by mallinfo(arena+hblkhd)
          6373 MiB available memory on the node where the printing process lives
------------------
     ethr =  8.02E-03,  avg # of iterations =  1.0

     negative rho (up, down):  7.573E-01 0.000E+00

     total cpu time spent up to now is       65.8 secs

     total energy              =   -4486.66302503 Ry
     estimated scf accuracy    <      34.34427972 Ry

     iteration #  5     ecut=    60.00 Ry     beta= 0.15
     Davidson diagonalization with overlap

---- Real-time Memory Report at c_bands before calling an iterative solver
             0 MiB given to the printing process from OS
             0 MiB allocation reported by mallinfo(arena+hblkhd)
          6354 MiB available memory on the node where the printing process lives
------------------
     ethr =  7.86E-03,  avg # of iterations =  1.0

     negative rho (up, down):  7.337E-01 0.000E+00

     total cpu time spent up to now is       78.9 secs

     total energy              =   -4482.86392515 Ry
     estimated scf accuracy    <      23.62772081 Ry

     iteration #  6     ecut=    60.00 Ry     beta= 0.15
     Davidson diagonalization with overlap

---- Real-time Memory Report at c_bands before calling an iterative solver
             0 MiB given to the printing process from OS
             0 MiB allocation reported by mallinfo(arena+hblkhd)
          6335 MiB available memory on the node where the printing process lives
------------------
     ethr =  5.41E-03,  avg # of iterations =  2.0

     negative rho (up, down):  7.475E-01 0.000E+00

     total cpu time spent up to now is       93.5 secs

     total energy              =   -4484.13599328 Ry
     estimated scf accuracy    <      44.45608502 Ry

     iteration #  7     ecut=    60.00 Ry     beta= 0.15
     Davidson diagonalization with overlap

---- Real-time Memory Report at c_bands before calling an iterative solver
             0 MiB given to the printing process from OS
             0 MiB allocation reported by mallinfo(arena+hblkhd)
          6315 MiB available memory on the node where the printing process lives
------------------
     ethr =  5.41E-03,  avg # of iterations =  1.0

     negative rho (up, down):  7.531E-01 0.000E+00

     total cpu time spent up to now is      106.5 secs

     total energy              =   -4483.37995852 Ry
     estimated scf accuracy    <      45.31393262 Ry

     iteration #  8     ecut=    60.00 Ry     beta= 0.15
     Davidson diagonalization with overlap

---- Real-time Memory Report at c_bands before calling an iterative solver
             0 MiB given to the printing process from OS
             0 MiB allocation reported by mallinfo(arena+hblkhd)
          6297 MiB available memory on the node where the printing process lives
------------------
     ethr =  5.41E-03,  avg # of iterations =  1.0

     negative rho (up, down):  7.505E-01 0.000E+00

     total cpu time spent up to now is      119.6 secs

     total energy              =   -4483.83855064 Ry
     estimated scf accuracy    <       6.03187222 Ry

     iteration #  9     ecut=    60.00 Ry     beta= 0.15
     Davidson diagonalization with overlap

---- Real-time Memory Report at c_bands before calling an iterative solver
             0 MiB given to the printing process from OS
             0 MiB allocation reported by mallinfo(arena+hblkhd)
          6279 MiB available memory on the node where the printing process lives
------------------
     ethr =  1.38E-03,  avg # of iterations =  5.0

     negative rho (up, down):  7.632E-01 0.000E+00

     total cpu time spent up to now is      135.4 secs

     total energy              =   -4483.72887357 Ry
     estimated scf accuracy    <       3.53086023 Ry

     iteration # 10     ecut=    60.00 Ry     beta= 0.15
     Davidson diagonalization with overlap

---- Real-time Memory Report at c_bands before calling an iterative solver
             0 MiB given to the printing process from OS
             0 MiB allocation reported by mallinfo(arena+hblkhd)
          6223 MiB available memory on the node where the printing process lives
------------------
     ethr =  8.08E-04,  avg # of iterations = 10.2

     negative rho (up, down):  7.800E-01 0.000E+00

     total cpu time spent up to now is      154.1 secs

     total energy              =   -4483.52686455 Ry
     estimated scf accuracy    <       4.36240645 Ry

     iteration # 11     ecut=    60.00 Ry     beta= 0.15
     Davidson diagonalization with overlap

---- Real-time Memory Report at c_bands before calling an iterative solver
             0 MiB given to the printing process from OS
             0 MiB allocation reported by mallinfo(arena+hblkhd)
          5946 MiB available memory on the node where the printing process lives
------------------
     ethr =  8.08E-04,  avg # of iterations =  7.0

     negative rho (up, down):  7.883E-01 0.000E+00

     total cpu time spent up to now is      171.5 secs

     total energy              =   -4483.33182277 Ry
     estimated scf accuracy    <       4.07088355 Ry

     iteration # 12     ecut=    60.00 Ry     beta= 0.15
     Davidson diagonalization with overlap

---- Real-time Memory Report at c_bands before calling an iterative solver
             0 MiB given to the printing process from OS
             0 MiB allocation reported by mallinfo(arena+hblkhd)
          5859 MiB available memory on the node where the printing process lives
------------------
     ethr =  8.08E-04,  avg # of iterations =  7.4

     negative rho (up, down):  8.002E-01 0.000E+00

     total cpu time spent up to now is      189.0 secs

     total energy              =   -4483.18221576 Ry
     estimated scf accuracy    <       2.21921696 Ry

     iteration # 13     ecut=    60.00 Ry     beta= 0.15
     Davidson diagonalization with overlap

---- Real-time Memory Report at c_bands before calling an iterative solver
             0 MiB given to the printing process from OS
             0 MiB allocation reported by mallinfo(arena+hblkhd)
          5827 MiB available memory on the node where the printing process lives
------------------
     ethr =  5.08E-04,  avg # of iterations =  3.4

     negative rho (up, down):  7.975E-01 0.000E+00

     total cpu time spent up to now is      204.5 secs

     total energy              =   -4483.30068727 Ry
     estimated scf accuracy    <       2.05029189 Ry

     iteration # 14     ecut=    60.00 Ry     beta= 0.15
     Davidson diagonalization with overlap

---- Real-time Memory Report at c_bands before calling an iterative solver
             0 MiB given to the printing process from OS
             0 MiB allocation reported by mallinfo(arena+hblkhd)
          5835 MiB available memory on the node where the printing process lives
------------------
     ethr =  4.69E-04,  avg # of iterations =  1.0

     negative rho (up, down):  8.050E-01 0.000E+00

     total cpu time spent up to now is      218.2 secs

     total energy              =   -4483.25131031 Ry
     estimated scf accuracy    <       0.97969821 Ry

     iteration # 15     ecut=    60.00 Ry     beta= 0.15
     Davidson diagonalization with overlap

---- Real-time Memory Report at c_bands before calling an iterative solver
             0 MiB given to the printing process from OS
             0 MiB allocation reported by mallinfo(arena+hblkhd)
          5848 MiB available memory on the node where the printing process lives
------------------
     ethr =  2.24E-04,  avg # of iterations =  5.5

     negative rho (up, down):  8.122E-01 0.000E+00

     total cpu time spent up to now is      234.5 secs

     total energy              =   -4483.15890810 Ry
     estimated scf accuracy    <       1.12505011 Ry

     iteration # 16     ecut=    60.00 Ry     beta= 0.15
     Davidson diagonalization with overlap

---- Real-time Memory Report at c_bands before calling an iterative solver
             0 MiB given to the printing process from OS
             0 MiB allocation reported by mallinfo(arena+hblkhd)
          5822 MiB available memory on the node where the printing process lives
------------------
     ethr =  2.24E-04,  avg # of iterations =  2.8

     negative rho (up, down):  8.199E-01 0.000E+00

     total cpu time spent up to now is      249.8 secs

     total energy              =   -4483.09953037 Ry
     estimated scf accuracy    <       1.62369492 Ry

     iteration # 17     ecut=    60.00 Ry     beta= 0.15
     Davidson diagonalization with overlap

---- Real-time Memory Report at c_bands before calling an iterative solver
             0 MiB given to the printing process from OS
             0 MiB allocation reported by mallinfo(arena+hblkhd)
          5798 MiB available memory on the node where the printing process lives
------------------
     ethr =  2.24E-04,  avg # of iterations =  8.1

     negative rho (up, down):  8.203E-01 0.000E+00

     total cpu time spent up to now is      266.9 secs

     total energy              =   -4483.08833883 Ry
     estimated scf accuracy    <       0.51592124 Ry

     iteration # 18     ecut=    60.00 Ry     beta= 0.15
     Davidson diagonalization with overlap

---- Real-time Memory Report at c_bands before calling an iterative solver
             0 MiB given to the printing process from OS
             0 MiB allocation reported by mallinfo(arena+hblkhd)
          5795 MiB available memory on the node where the printing process lives
------------------
     ethr =  1.18E-04,  avg # of iterations =  8.3

     negative rho (up, down):  8.183E-01 0.000E+00

     total cpu time spent up to now is      284.2 secs

     total energy              =   -4483.05736241 Ry
     estimated scf accuracy    <       0.63614535 Ry

     iteration # 19     ecut=    60.00 Ry     beta= 0.15
     Davidson diagonalization with overlap

---- Real-time Memory Report at c_bands before calling an iterative solver
             0 MiB given to the printing process from OS
             0 MiB allocation reported by mallinfo(arena+hblkhd)
          5808 MiB available memory on the node where the printing process lives
------------------
     ethr =  1.18E-04,  avg # of iterations =  4.9

     negative rho (up, down):  8.329E-01 0.000E+00

     total cpu time spent up to now is      300.7 secs

     total energy              =   -4483.02814519 Ry
     estimated scf accuracy    <       0.54223696 Ry

     iteration # 20     ecut=    60.00 Ry     beta= 0.15
     Davidson diagonalization with overlap

---- Real-time Memory Report at c_bands before calling an iterative solver
             0 MiB given to the printing process from OS
             0 MiB allocation reported by mallinfo(arena+hblkhd)
          5812 MiB available memory on the node where the printing process lives
------------------
     ethr =  1.18E-04,  avg # of iterations =  9.0

     negative rho (up, down):  8.309E-01 0.000E+00

     total cpu time spent up to now is      319.5 secs

     total energy              =   -4482.99141113 Ry
     estimated scf accuracy    <       0.31568870 Ry

     iteration # 21     ecut=    60.00 Ry     beta= 0.15
     Davidson diagonalization with overlap

---- Real-time Memory Report at c_bands before calling an iterative solver
             0 MiB given to the printing process from OS
             0 MiB allocation reported by mallinfo(arena+hblkhd)
          5826 MiB available memory on the node where the printing process lives
------------------
     ethr =  7.22E-05,  avg # of iterations =  8.8

     negative rho (up, down):  8.358E-01 0.000E+00

     total cpu time spent up to now is      337.8 secs

     total energy              =   -4482.98011865 Ry
     estimated scf accuracy    <       0.12374512 Ry

     iteration # 22     ecut=    60.00 Ry     beta= 0.15
     Davidson diagonalization with overlap

---- Real-time Memory Report at c_bands before calling an iterative solver
             0 MiB given to the printing process from OS
             0 MiB allocation reported by mallinfo(arena+hblkhd)
          5787 MiB available memory on the node where the printing process lives
------------------
     ethr =  2.83E-05,  avg # of iterations =  9.2

     negative rho (up, down):  8.379E-01 0.000E+00

     total cpu time spent up to now is      356.7 secs

     total energy              =   -4482.98364059 Ry
     estimated scf accuracy    <       0.05491288 Ry

     iteration # 23     ecut=    60.00 Ry     beta= 0.15
     Davidson diagonalization with overlap

---- Real-time Memory Report at c_bands before calling an iterative solver
             0 MiB given to the printing process from OS
             0 MiB allocation reported by mallinfo(arena+hblkhd)
          5731 MiB available memory on the node where the printing process lives
------------------
     ethr =  1.26E-05,  avg # of iterations =  4.5

     negative rho (up, down):  8.353E-01 0.000E+00

     total cpu time spent up to now is      372.6 secs

     total energy              =   -4482.97761029 Ry
     estimated scf accuracy    <       0.04298063 Ry

     iteration # 24     ecut=    60.00 Ry     beta= 0.15
     Davidson diagonalization with overlap

---- Real-time Memory Report at c_bands before calling an iterative solver
             0 MiB given to the printing process from OS
             0 MiB allocation reported by mallinfo(arena+hblkhd)
          5727 MiB available memory on the node where the printing process lives
------------------
     ethr =  9.84E-06,  avg # of iterations = 13.7

     negative rho (up, down):  8.163E-01 0.000E+00

     total cpu time spent up to now is      393.3 secs

     total energy              =   -4482.97788523 Ry
     estimated scf accuracy    <       0.01933257 Ry

     iteration # 25     ecut=    60.00 Ry     beta= 0.15
     Davidson diagonalization with overlap

---- Real-time Memory Report at c_bands before calling an iterative solver
             0 MiB given to the printing process from OS
             0 MiB allocation reported by mallinfo(arena+hblkhd)
          5661 MiB available memory on the node where the printing process lives
------------------
     ethr =  4.42E-06,  avg # of iterations =  4.6

     negative rho (up, down):  8.062E-01 0.000E+00

     total cpu time spent up to now is      409.4 secs

     total energy              =   -4482.97663792 Ry
     estimated scf accuracy    <       0.01385459 Ry

     iteration # 26     ecut=    60.00 Ry     beta= 0.15
     Davidson diagonalization with overlap

---- Real-time Memory Report at c_bands before calling an iterative solver
             0 MiB given to the printing process from OS
             0 MiB allocation reported by mallinfo(arena+hblkhd)
          5645 MiB available memory on the node where the printing process lives
------------------
     ethr =  3.17E-06,  avg # of iterations =  6.2

     negative rho (up, down):  7.930E-01 0.000E+00

     total cpu time spent up to now is      426.6 secs

     total energy              =   -4482.97444411 Ry
     estimated scf accuracy    <       0.01071858 Ry

     iteration # 27     ecut=    60.00 Ry     beta= 0.15
     Davidson diagonalization with overlap

---- Real-time Memory Report at c_bands before calling an iterative solver
             0 MiB given to the printing process from OS
             0 MiB allocation reported by mallinfo(arena+hblkhd)
          5629 MiB available memory on the node where the printing process lives
------------------
     c_bands:  1 eigenvalues not converged
     ethr =  2.45E-06,  avg # of iterations = 11.1

     negative rho (up, down):  7.945E-01 0.000E+00

     total cpu time spent up to now is      447.5 secs

     total energy              =   -4482.97446420 Ry
     estimated scf accuracy    <       0.00328498 Ry

     iteration # 28     ecut=    60.00 Ry     beta= 0.15
     Davidson diagonalization with overlap

---- Real-time Memory Report at c_bands before calling an iterative solver
             0 MiB given to the printing process from OS
             0 MiB allocation reported by mallinfo(arena+hblkhd)
          5573 MiB available memory on the node where the printing process lives
------------------
     ethr =  7.52E-07,  avg # of iterations =  3.9

     negative rho (up, down):  7.946E-01 0.000E+00

     total cpu time spent up to now is      463.9 secs

     total energy              =   -4482.97454455 Ry
     estimated scf accuracy    <       0.00113989 Ry

     iteration # 29     ecut=    60.00 Ry     beta= 0.15
     Davidson diagonalization with overlap

---- Real-time Memory Report at c_bands before calling an iterative solver
             0 MiB given to the printing process from OS
             0 MiB allocation reported by mallinfo(arena+hblkhd)
          5550 MiB available memory on the node where the printing process lives
------------------
     ethr =  2.61E-07,  avg # of iterations =  3.7

     negative rho (up, down):  7.947E-01 0.000E+00

     total cpu time spent up to now is      479.7 secs

     total energy              =   -4482.97454738 Ry
     estimated scf accuracy    <       0.00061719 Ry

     iteration # 30     ecut=    60.00 Ry     beta= 0.15
     Davidson diagonalization with overlap

---- Real-time Memory Report at c_bands before calling an iterative solver
             0 MiB given to the printing process from OS
             0 MiB allocation reported by mallinfo(arena+hblkhd)
          5549 MiB available memory on the node where the printing process lives
------------------
     ethr =  1.41E-07,  avg # of iterations =  5.6

     negative rho (up, down):  7.937E-01 0.000E+00

     total cpu time spent up to now is      496.8 secs

     total energy              =   -4482.97450586 Ry
     estimated scf accuracy    <       0.00038982 Ry

     iteration # 31     ecut=    60.00 Ry     beta= 0.15
     Davidson diagonalization with overlap

---- Real-time Memory Report at c_bands before calling an iterative solver
             0 MiB given to the printing process from OS
             0 MiB allocation reported by mallinfo(arena+hblkhd)
          5575 MiB available memory on the node where the printing process lives
------------------
     ethr =  8.92E-08,  avg # of iterations =  4.9

     negative rho (up, down):  7.924E-01 0.000E+00

     total cpu time spent up to now is      512.8 secs

     total energy              =   -4482.97445408 Ry
     estimated scf accuracy    <       0.00020051 Ry

     iteration # 32     ecut=    60.00 Ry     beta= 0.15
     Davidson diagonalization with overlap

---- Real-time Memory Report at c_bands before calling an iterative solver
             0 MiB given to the printing process from OS
             0 MiB allocation reported by mallinfo(arena+hblkhd)
          5570 MiB available memory on the node where the printing process lives
------------------
     ethr =  4.59E-08,  avg # of iterations =  5.7

     negative rho (up, down):  7.922E-01 0.000E+00

     total cpu time spent up to now is      530.2 secs

     total energy              =   -4482.97446726 Ry
     estimated scf accuracy    <       0.00005617 Ry

     iteration # 33     ecut=    60.00 Ry     beta= 0.15
     Davidson diagonalization with overlap

---- Real-time Memory Report at c_bands before calling an iterative solver
             0 MiB given to the printing process from OS
             0 MiB allocation reported by mallinfo(arena+hblkhd)
          5618 MiB available memory on the node where the printing process lives
------------------
     ethr =  1.29E-08,  avg # of iterations =  3.2

     negative rho (up, down):  7.922E-01 0.000E+00

     total cpu time spent up to now is      545.6 secs

     total energy              =   -4482.97447469 Ry
     estimated scf accuracy    <       0.00003058 Ry

     iteration # 34     ecut=    60.00 Ry     beta= 0.15
     Davidson diagonalization with overlap

---- Real-time Memory Report at c_bands before calling an iterative solver
             0 MiB given to the printing process from OS
             0 MiB allocation reported by mallinfo(arena+hblkhd)
          5591 MiB available memory on the node where the printing process lives
------------------
     ethr =  7.00E-09,  avg # of iterations =  2.0

     negative rho (up, down):  7.921E-01 0.000E+00

     total cpu time spent up to now is      560.4 secs

     total energy              =   -4482.97448191 Ry
     estimated scf accuracy    <       0.00002211 Ry

     iteration # 35     ecut=    60.00 Ry     beta= 0.15
     Davidson diagonalization with overlap

---- Real-time Memory Report at c_bands before calling an iterative solver
             0 MiB given to the printing process from OS
             0 MiB allocation reported by mallinfo(arena+hblkhd)
          5610 MiB available memory on the node where the printing process lives
------------------
     ethr =  5.06E-09,  avg # of iterations =  2.5

     negative rho (up, down):  7.922E-01 0.000E+00

     total cpu time spent up to now is      575.2 secs

     total energy              =   -4482.97449194 Ry
     estimated scf accuracy    <       0.00001387 Ry

     iteration # 36     ecut=    60.00 Ry     beta= 0.15
     Davidson diagonalization with overlap

---- Real-time Memory Report at c_bands before calling an iterative solver
             0 MiB given to the printing process from OS
             0 MiB allocation reported by mallinfo(arena+hblkhd)
          5624 MiB available memory on the node where the printing process lives
------------------
     ethr =  3.17E-09,  avg # of iterations =  4.1

     negative rho (up, down):  7.923E-01 0.000E+00

     total cpu time spent up to now is      591.3 secs

     total energy              =   -4482.97449662 Ry
     estimated scf accuracy    <       0.00000923 Ry

     iteration # 37     ecut=    60.00 Ry     beta= 0.15
     Davidson diagonalization with overlap

---- Real-time Memory Report at c_bands before calling an iterative solver
             0 MiB given to the printing process from OS
             0 MiB allocation reported by mallinfo(arena+hblkhd)
          5627 MiB available memory on the node where the printing process lives
------------------
     ethr =  2.11E-09,  avg # of iterations =  3.2

     negative rho (up, down):  7.924E-01 0.000E+00

     total cpu time spent up to now is      606.3 secs

     total energy              =   -4482.97449927 Ry
     estimated scf accuracy    <       0.00000635 Ry

     iteration # 38     ecut=    60.00 Ry     beta= 0.15
     Davidson diagonalization with overlap

---- Real-time Memory Report at c_bands before calling an iterative solver
             0 MiB given to the printing process from OS
             0 MiB allocation reported by mallinfo(arena+hblkhd)
          5639 MiB available memory on the node where the printing process lives
------------------
     ethr =  1.45E-09,  avg # of iterations =  3.1

     negative rho (up, down):  7.924E-01 0.000E+00

     total cpu time spent up to now is      621.7 secs

     total energy              =   -4482.97450094 Ry
     estimated scf accuracy    <       0.00000504 Ry

     iteration # 39     ecut=    60.00 Ry     beta= 0.15
     Davidson diagonalization with overlap

---- Real-time Memory Report at c_bands before calling an iterative solver
             0 MiB given to the printing process from OS
             0 MiB allocation reported by mallinfo(arena+hblkhd)
          5636 MiB available memory on the node where the printing process lives
------------------
     ethr =  1.15E-09,  avg # of iterations =  3.5

     negative rho (up, down):  7.924E-01 0.000E+00

     total cpu time spent up to now is      637.0 secs

     total energy              =   -4482.97450140 Ry
     estimated scf accuracy    <       0.00000368 Ry

     iteration # 40     ecut=    60.00 Ry     beta= 0.15
     Davidson diagonalization with overlap

---- Real-time Memory Report at c_bands before calling an iterative solver
             0 MiB given to the printing process from OS
             0 MiB allocation reported by mallinfo(arena+hblkhd)
          5639 MiB available memory on the node where the printing process lives
------------------
     ethr =  8.42E-10,  avg # of iterations =  3.4

     negative rho (up, down):  7.924E-01 0.000E+00

     total cpu time spent up to now is      652.2 secs

     total energy              =   -4482.97450164 Ry
     estimated scf accuracy    <       0.00000308 Ry

     iteration # 41     ecut=    60.00 Ry     beta= 0.15
     Davidson diagonalization with overlap

---- Real-time Memory Report at c_bands before calling an iterative solver
             0 MiB given to the printing process from OS
             0 MiB allocation reported by mallinfo(arena+hblkhd)
          5639 MiB available memory on the node where the printing process lives
------------------
     ethr =  7.06E-10,  avg # of iterations =  2.7

     negative rho (up, down):  7.924E-01 0.000E+00

     total cpu time spent up to now is      667.0 secs

     total energy              =   -4482.97450183 Ry
     estimated scf accuracy    <       0.00000219 Ry

     iteration # 42     ecut=    60.00 Ry     beta= 0.15
     Davidson diagonalization with overlap

---- Real-time Memory Report at c_bands before calling an iterative solver
             0 MiB given to the printing process from OS
             0 MiB allocation reported by mallinfo(arena+hblkhd)
          5639 MiB available memory on the node where the printing process lives
------------------
     ethr =  5.02E-10,  avg # of iterations =  3.8

     negative rho (up, down):  7.923E-01 0.000E+00

     total cpu time spent up to now is      682.3 secs

     total energy              =   -4482.97450195 Ry
     estimated scf accuracy    <       0.00000118 Ry

     iteration # 43     ecut=    60.00 Ry     beta= 0.15
     Davidson diagonalization with overlap

---- Real-time Memory Report at c_bands before calling an iterative solver
             0 MiB given to the printing process from OS
             0 MiB allocation reported by mallinfo(arena+hblkhd)
          5641 MiB available memory on the node where the printing process lives
------------------
     ethr =  2.69E-10,  avg # of iterations =  4.3

     negative rho (up, down):  7.923E-01 0.000E+00

     total cpu time spent up to now is      697.8 secs

     total energy              =   -4482.97450191 Ry
     estimated scf accuracy    <       0.00000071 Ry

     iteration # 44     ecut=    60.00 Ry     beta= 0.15
     Davidson diagonalization with overlap

---- Real-time Memory Report at c_bands before calling an iterative solver
             0 MiB given to the printing process from OS
             0 MiB allocation reported by mallinfo(arena+hblkhd)
          5652 MiB available memory on the node where the printing process lives
------------------
     ethr =  1.63E-10,  avg # of iterations =  4.9

     negative rho (up, down):  7.923E-01 0.000E+00

     total cpu time spent up to now is      713.6 secs

     total energy              =   -4482.97450196 Ry
     estimated scf accuracy    <       0.00000035 Ry

     iteration # 45     ecut=    60.00 Ry     beta= 0.15
     Davidson diagonalization with overlap

---- Real-time Memory Report at c_bands before calling an iterative solver
             0 MiB given to the printing process from OS
             0 MiB allocation reported by mallinfo(arena+hblkhd)
          5658 MiB available memory on the node where the printing process lives
------------------
     ethr =  8.03E-11,  avg # of iterations =  3.5

     negative rho (up, down):  7.923E-01 0.000E+00

     total cpu time spent up to now is      728.9 secs

     total energy              =   -4482.97450198 Ry
     estimated scf accuracy    <       0.00000025 Ry

     iteration # 46     ecut=    60.00 Ry     beta= 0.15
     Davidson diagonalization with overlap

---- Real-time Memory Report at c_bands before calling an iterative solver
             0 MiB given to the printing process from OS
             0 MiB allocation reported by mallinfo(arena+hblkhd)
          5669 MiB available memory on the node where the printing process lives
------------------
     ethr =  5.71E-11,  avg # of iterations =  2.6

     negative rho (up, down):  7.923E-01 0.000E+00

     total cpu time spent up to now is      743.8 secs

     total energy              =   -4482.97450199 Ry
     estimated scf accuracy    <       0.00000017 Ry

     iteration # 47     ecut=    60.00 Ry     beta= 0.15
     Davidson diagonalization with overlap

---- Real-time Memory Report at c_bands before calling an iterative solver
             0 MiB given to the printing process from OS
             0 MiB allocation reported by mallinfo(arena+hblkhd)
          5678 MiB available memory on the node where the printing process lives
------------------
     ethr =  3.85E-11,  avg # of iterations =  3.4

     negative rho (up, down):  7.923E-01 0.000E+00

     total cpu time spent up to now is      758.9 secs

     total energy              =   -4482.97450200 Ry
     estimated scf accuracy    <       0.00000009 Ry

     iteration # 48     ecut=    60.00 Ry     beta= 0.15
     Davidson diagonalization with overlap

---- Real-time Memory Report at c_bands before calling an iterative solver
             0 MiB given to the printing process from OS
             0 MiB allocation reported by mallinfo(arena+hblkhd)
          5679 MiB available memory on the node where the printing process lives
------------------
     ethr =  2.03E-11,  avg # of iterations =  3.7

     negative rho (up, down):  7.923E-01 0.000E+00

     total cpu time spent up to now is      774.5 secs

     total energy              =   -4482.97450200 Ry
     estimated scf accuracy    <       0.00000005 Ry

     iteration # 49     ecut=    60.00 Ry     beta= 0.15
     Davidson diagonalization with overlap

---- Real-time Memory Report at c_bands before calling an iterative solver
             0 MiB given to the printing process from OS
             0 MiB allocation reported by mallinfo(arena+hblkhd)
          5682 MiB available memory on the node where the printing process lives
------------------
     ethr =  1.06E-11,  avg # of iterations =  3.4

     negative rho (up, down):  7.923E-01 0.000E+00

     total cpu time spent up to now is      789.9 secs

     total energy              =   -4482.97450200 Ry
     estimated scf accuracy    <       0.00000003 Ry

     iteration # 50     ecut=    60.00 Ry     beta= 0.15
     Davidson diagonalization with overlap

---- Real-time Memory Report at c_bands before calling an iterative solver
             0 MiB given to the printing process from OS
             0 MiB allocation reported by mallinfo(arena+hblkhd)
          5684 MiB available memory on the node where the printing process lives
------------------
     ethr =  7.07E-12,  avg # of iterations =  2.8

     negative rho (up, down):  7.923E-01 0.000E+00

     total cpu time spent up to now is      805.1 secs

     total energy              =   -4482.97450200 Ry
     estimated scf accuracy    <       0.00000002 Ry

     iteration # 51     ecut=    60.00 Ry     beta= 0.15
     Davidson diagonalization with overlap

---- Real-time Memory Report at c_bands before calling an iterative solver
             0 MiB given to the printing process from OS
             0 MiB allocation reported by mallinfo(arena+hblkhd)
          5684 MiB available memory on the node where the printing process lives
------------------
     ethr =  4.89E-12,  avg # of iterations =  2.7

     negative rho (up, down):  7.923E-01 0.000E+00

     total cpu time spent up to now is      820.0 secs

     total energy              =   -4482.97450200 Ry
     estimated scf accuracy    <       0.00000001 Ry

     iteration # 52     ecut=    60.00 Ry     beta= 0.15
     Davidson diagonalization with overlap

---- Real-time Memory Report at c_bands before calling an iterative solver
             0 MiB given to the printing process from OS
             0 MiB allocation reported by mallinfo(arena+hblkhd)
          5688 MiB available memory on the node where the printing process lives
------------------
     ethr =  2.44E-12,  avg # of iterations =  4.1

     negative rho (up, down):  7.923E-01 0.000E+00

     total cpu time spent up to now is      835.8 secs

     End of self-consistent calculation

          k = 0.0000 0.0000 0.0000 ( 65197 PWs)   bands (ev):

   -92.3421 -92.2882 -92.1961 -92.1467 -92.0904 -92.0486 -92.0310 -91.9065
   -55.6952 -55.6745 -55.5540 -55.5432 -55.5352 -55.5300 -55.4926 -55.4657
   -55.4491 -55.4477 -55.4396 -55.3980 -55.3779 -55.3421 -55.3221 -55.2900
   -55.2820 -55.2373 -55.2346 -55.2343 -55.2258 -55.1806 -55.1618 -55.0734
   -30.9291 -30.9099 -30.8184 -30.7691 -30.7449 -30.6824 -30.4787 -30.4435
   -29.4934 -29.4497 -29.4248 -29.3155 -22.2557 -14.7270 -14.6884 -14.6051
   -14.4744 -14.2900 -14.1662 -13.8671 -13.8525 -13.8176 -13.7801 -13.7768
   -13.7349 -13.7258 -13.7101 -13.6941 -13.6691 -13.6438 -13.5767 -13.4290
   -13.2558 -13.2173 -13.1851 -13.1573 -13.1386 -13.0932 -13.0540 -12.9760
   -12.9035 -12.8280 -12.8157 -12.7619 -12.7501 -12.7270 -12.7119 -12.7028
   -12.6662 -12.6477 -12.6296 -12.6188 -12.6028 -12.5767 -12.5685 -12.5522
   -12.4842 -12.4553 -12.4374 -12.3638 -12.3210 -12.3058 -11.9942 -11.8495
   -11.7206 -11.6433 -11.5072 -11.4325 -11.4216 -11.3992 -11.3817 -11.3176
   -11.3005 -11.2656 -11.2371 -11.1254 -11.0449 -11.0413  -5.8995  -3.1611
    -3.1543  -2.5873  -2.3540  -2.1244  -1.9783  -1.9142  -1.7715  -1.4649
    -1.4507  -1.4299  -1.3469  -1.3290  -1.2609  -1.2452  -1.2026  -1.1590
    -0.9778  -0.7551  -0.7245  -0.5754  -0.5617  -0.5170  -0.4998  -0.4555
    -0.4398  -0.3790  -0.3526  -0.2830  -0.2728  -0.1916  -0.0652  -0.0510
    -0.0216   0.0608   0.0771   0.0810   0.1445   0.2252   0.2565   0.3165
     0.3394   0.4004   0.4715   0.5342   0.5498   0.5647   0.8172   0.8342
     1.0012   1.0745   1.1365   1.1763   1.2701   1.2843   1.2974   1.3726
     1.4004   1.4352   1.4939   1.6286   1.6809   1.7025   1.7198   1.7323
     1.7995   1.8783   1.9725   1.9872   2.0428   2.0661   2.1034   2.1230
     2.1317   2.1874   2.2419   2.2461   2.2761   2.3058   2.3773   2.5055
     2.5920   2.6357   2.6425   2.7965   2.8103   2.8630   2.8701   2.9690
     3.0099   3.0317   3.0341   3.0542   3.0696   3.0753   3.1497   3.2598
     3.2948   3.3075   3.3144   3.3809   3.3847   3.4089   3.4179   3.4255
     3.4337   3.4443   3.4567   3.4634   3.4752   3.4848   3.4930   3.5131
     3.5343   3.5393   3.5515   3.5706   3.6926   3.7409   4.4180   4.7563
     4.7853   5.1379   5.3870   5.4755   5.7110   6.2800   6.3227   6.3455
     6.6105   6.6395   6.6713   6.7194   6.9647   7.1644   7.2366   7.3741
     7.5482   7.6493   7.8354   7.9012   7.9323   7.9508   7.9911   8.0519
     8.2966   8.3667   8.4020   8.4271   8.5080   8.5141   8.6881

     occupation numbers 
     1.0000   1.0000   1.0000   1.0000   1.0000   1.0000   1.0000   1.0000
     1.0000   1.0000   1.0000   1.0000   1.0000   1.0000   1.0000   1.0000
     1.0000   1.0000   1.0000   1.0000   1.0000   1.0000   1.0000   1.0000
     1.0000   1.0000   1.0000   1.0000   1.0000   1.0000   1.0000   1.0000
     1.0000   1.0000   1.0000   1.0000   1.0000   1.0000   1.0000   1.0000
     1.0000   1.0000   1.0000   1.0000   1.0000   1.0000   1.0000   1.0000
     1.0000   1.0000   1.0000   1.0000   1.0000   1.0000   1.0000   1.0000
     1.0000   1.0000   1.0000   1.0000   1.0000   1.0000   1.0000   1.0000
     1.0000   1.0000   1.0000   1.0000   1.0000   1.0000   1.0000   1.0000
     1.0000   1.0000   1.0000   1.0000   1.0000   1.0000   1.0000   1.0000
     1.0000   1.0000   1.0000   1.0000   1.0000   1.0000   1.0000   1.0000
     1.0000   1.0000   1.0000   1.0000   1.0000   1.0000   1.0000   1.0000
     1.0000   1.0000   1.0000   1.0000   1.0000   1.0000   1.0000   1.0000
     1.0000   1.0000   1.0000   1.0000   1.0000   1.0000   1.0000   1.0000
     1.0000   1.0000   1.0000   1.0000   1.0000   1.0000   1.0000   1.0000
     1.0000   1.0000   1.0000   1.0000   1.0000   1.0000   1.0000   1.0000
     1.0000   1.0000   1.0000   1.0000   1.0000   1.0000   1.0000   1.0000
     1.0000   1.0000   1.0000   1.0000   1.0000   1.0000   1.0000   1.0000
     1.0000   1.0000   1.0000   1.0000   1.0000   1.0000   1.0000   1.0000
     1.0000   1.0000   1.0000   1.0000   1.0000   1.0000   1.0000   1.0000
     1.0000   0.9999   0.9999   0.9999   0.9998   0.9998   0.9998   0.9997
     0.9997   0.9996   0.9994   0.9989   0.9985   0.9984   0.9982   0.9981
     0.9974   0.9963   0.9945   0.9941   0.9926   0.9919   0.9905   0.9898
     0.9894   0.9869   0.9839   0.9836   0.9817   0.9797   0.9739   0.9600
     0.9476   0.9403   0.9390   0.9063   0.9028   0.8887   0.8866   0.8559
     0.8416   0.8337   0.8328   0.8252   0.8193   0.8170   0.7863   0.7357
     0.7184   0.7120   0.7086   0.6738   0.6718   0.6587   0.6538   0.6496
     0.6451   0.6392   0.6323   0.6285   0.6218   0.6164   0.6118   0.6003
     0.5881   0.5852   0.5781   0.5670   0.4951   0.4665   0.1380   0.0557
     0.0510   0.0154   0.0057   0.0039   0.0013   0.0001   0.0000   0.0000
     0.0000   0.0000   0.0000   0.0000   0.0000   0.0000   0.0000   0.0000
     0.0000   0.0000   0.0000   0.0000   0.0000   0.0000   0.0000   0.0000
     0.0000   0.0000   0.0000   0.0000   0.0000   0.0000   0.0000

          k = 0.0000 0.2500 0.0000 ( 65257 PWs)   bands (ev):

   -92.3421 -92.2882 -92.1961 -92.1467 -92.0904 -92.0486 -92.0310 -91.9065
   -55.6952 -55.6745 -55.5540 -55.5432 -55.5352 -55.5300 -55.4926 -55.4657
   -55.4491 -55.4477 -55.4396 -55.3980 -55.3779 -55.3421 -55.3221 -55.2900
   -55.2820 -55.2373 -55.2346 -55.2343 -55.2258 -55.1806 -55.1618 -55.0734
   -30.9289 -30.9098 -30.8180 -30.7693 -30.7453 -30.6825 -30.4778 -30.4445
   -29.4928 -29.4494 -29.4254 -29.3158 -22.2557 -14.6901 -14.6622 -14.5801
   -14.4451 -14.3283 -14.1566 -14.0131 -13.8335 -13.8033 -13.7827 -13.7789
   -13.7534 -13.6948 -13.6896 -13.6736 -13.6571 -13.6226 -13.4968 -13.4592
   -13.2974 -13.2799 -13.2274 -13.1925 -13.1489 -13.1076 -13.0717 -12.9955
   -12.9631 -12.9382 -12.8761 -12.8040 -12.7958 -12.7594 -12.7415 -12.6794
   -12.6345 -12.6077 -12.5861 -12.5595 -12.5438 -12.5323 -12.5166 -12.4695
   -12.4595 -12.4495 -12.4151 -12.3591 -12.2317 -12.1646 -12.0555 -11.9007
   -11.7780 -11.7105 -11.4727 -11.4293 -11.4020 -11.3737 -11.3569 -11.3095
   -11.2982 -11.2759 -11.2415 -11.1397 -11.0866 -11.0759  -5.8995  -3.1613
    -3.1543  -2.4521  -2.2297  -2.0923  -1.9101  -1.8666  -1.7024  -1.4842
    -1.3978  -1.3847  -1.3276  -1.2253  -1.2109  -1.1772  -1.1508  -1.1074
    -0.9092  -0.7803  -0.7682  -0.6930  -0.6813  -0.5771  -0.5466  -0.4918
    -0.4667  -0.4231  -0.3608  -0.3355  -0.3018  -0.2731  -0.2559  -0.2211
    -0.1496  -0.0961  -0.0336   0.0780   0.0979   0.1367   0.2597   0.2956
     0.3464   0.4026   0.4490   0.4787   0.5106   0.5694   0.8659   0.9530
     0.9868   1.0677   1.1094   1.1354   1.2586   1.2779   1.3713   1.3979
     1.4291   1.5430   1.6313   1.6573   1.6814   1.6963   1.7262   1.7887
     1.8131   1.8412   1.8897   1.9193   1.9493   2.0312   2.0643   2.0933
     2.1508   2.2042   2.2342   2.2628   2.2953   2.3186   2.4101   2.5492
     2.6140   2.6290   2.7132   2.7554   2.7939   2.8005   2.8659   2.9098
     2.9867   3.0245   3.0332   3.0434   3.0756   3.2213   3.2422   3.2749
     3.2966   3.3135   3.3226   3.3304   3.3380   3.3685   3.3703   3.3868
     3.3920   3.4034   3.4201   3.4309   3.4411   3.4636   3.4746   3.4794
     3.5151   3.5319   3.5912   3.9498   3.9689   4.2307   4.6009   4.7508
     4.9029   5.0862   5.4070   5.5067   5.8433   5.9363   6.1581   6.2893
     6.3335   6.4527   6.5237   6.7548   6.8733   7.0593   7.2430   7.5480
     7.6541   7.7146   7.7918   7.8616   7.8956   7.9637   8.0785   8.2144
     8.2943   8.3497   8.5415   8.5907   8.6458   8.6713   8.9485

     occupation numbers 
     1.0000   1.0000   1.0000   1.0000   1.0000   1.0000   1.0000   1.0000
     1.0000   1.0000   1.0000   1.0000   1.0000   1.0000   1.0000   1.0000
     1.0000   1.0000   1.0000   1.0000   1.0000   1.0000   1.0000   1.0000
     1.0000   1.0000   1.0000   1.0000   1.0000   1.0000   1.0000   1.0000
     1.0000   1.0000   1.0000   1.0000   1.0000   1.0000   1.0000   1.0000
     1.0000   1.0000   1.0000   1.0000   1.0000   1.0000   1.0000   1.0000
     1.0000   1.0000   1.0000   1.0000   1.0000   1.0000   1.0000   1.0000
     1.0000   1.0000   1.0000   1.0000   1.0000   1.0000   1.0000   1.0000
     1.0000   1.0000   1.0000   1.0000   1.0000   1.0000   1.0000   1.0000
     1.0000   1.0000   1.0000   1.0000   1.0000   1.0000   1.0000   1.0000
     1.0000   1.0000   1.0000   1.0000   1.0000   1.0000   1.0000   1.0000
     1.0000   1.0000   1.0000   1.0000   1.0000   1.0000   1.0000   1.0000
     1.0000   1.0000   1.0000   1.0000   1.0000   1.0000   1.0000   1.0000
     1.0000   1.0000   1.0000   1.0000   1.0000   1.0000   1.0000   1.0000
     1.0000   1.0000   1.0000   1.0000   1.0000   1.0000   1.0000   1.0000
     1.0000   1.0000   1.0000   1.0000   1.0000   1.0000   1.0000   1.0000
     1.0000   1.0000   1.0000   1.0000   1.0000   1.0000   1.0000   1.0000
     1.0000   1.0000   1.0000   1.0000   1.0000   1.0000   1.0000   1.0000
     1.0000   1.0000   1.0000   1.0000   1.0000   1.0000   1.0000   1.0000
     1.0000   1.0000   1.0000   1.0000   1.0000   1.0000   1.0000   1.0000
     1.0000   0.9999   0.9999   0.9999   0.9998   0.9998   0.9997   0.9997
     0.9996   0.9993   0.9988   0.9987   0.9985   0.9984   0.9982   0.9976
     0.9973   0.9969   0.9961   0.9956   0.9950   0.9929   0.9919   0.9909
     0.9886   0.9860   0.9843   0.9826   0.9804   0.9787   0.9707   0.9540
     0.9440   0.9414   0.9253   0.9161   0.9069   0.9053   0.8878   0.8749
     0.8498   0.8364   0.8331   0.8293   0.8169   0.7541   0.7442   0.7283
     0.7175   0.7090   0.7044   0.7003   0.6964   0.6804   0.6794   0.6706
     0.6678   0.6617   0.6526   0.6466   0.6409   0.6284   0.6222   0.6195
     0.5991   0.5895   0.5549   0.3467   0.3363   0.2085   0.0867   0.0566
     0.0352   0.0187   0.0053   0.0034   0.0007   0.0004   0.0001   0.0001
     0.0000   0.0000   0.0000   0.0000   0.0000   0.0000   0.0000   0.0000
     0.0000   0.0000   0.0000   0.0000   0.0000   0.0000   0.0000   0.0000
     0.0000   0.0000   0.0000   0.0000   0.0000   0.0000   0.0000

          k = 0.0000-0.5000 0.0000 ( 65180 PWs)   bands (ev):

   -92.3421 -92.2882 -92.1961 -92.1467 -92.0904 -92.0486 -92.0310 -91.9065
   -55.6952 -55.6745 -55.5540 -55.5432 -55.5352 -55.5300 -55.4926 -55.4657
   -55.4491 -55.4477 -55.4396 -55.3980 -55.3779 -55.3421 -55.3221 -55.2900
   -55.2820 -55.2373 -55.2346 -55.2343 -55.2258 -55.1806 -55.1618 -55.0734
   -30.9287 -30.9097 -30.8176 -30.7695 -30.7458 -30.6826 -30.4768 -30.4455
   -29.4921 -29.4491 -29.4261 -29.3161 -22.2557 -14.6568 -14.6084 -14.5571
   -14.4312 -14.3437 -14.2061 -14.0606 -13.9364 -13.8034 -13.7794 -13.7463
   -13.6967 -13.6845 -13.6381 -13.6190 -13.5746 -13.5535 -13.5296 -13.4932
   -13.4637 -13.4308 -13.2305 -13.1732 -13.1574 -13.1041 -13.0816 -13.0112
   -13.0034 -12.9534 -12.9360 -12.8707 -12.7887 -12.7591 -12.7284 -12.7258
   -12.6209 -12.6081 -12.5811 -12.5341 -12.5327 -12.5258 -12.4697 -12.4536
   -12.3933 -12.3656 -12.3562 -12.3031 -12.1666 -12.0927 -11.9761 -11.9547
   -11.8842 -11.8474 -11.4262 -11.4242 -11.3972 -11.3594 -11.3253 -11.3144
   -11.2712 -11.2673 -11.2228 -11.1613 -11.1473 -11.1329  -5.8995  -3.1614
    -3.1543  -2.2368  -2.1786  -2.0262  -1.9540  -1.6729  -1.5912  -1.4618
    -1.3241  -1.2866  -1.2678  -1.1898  -1.1584  -1.0769  -1.0416  -0.9646
    -0.9241  -0.8844  -0.8577  -0.8019  -0.7649  -0.7168  -0.6821  -0.6483
    -0.6142  -0.5039  -0.4587  -0.4262  -0.4245  -0.3384  -0.3063  -0.2833
    -0.2386  -0.1501  -0.0816   0.0054   0.0311   0.1409   0.1695   0.3244
     0.3546   0.3885   0.4229   0.5386   0.6180   0.7468   0.8124   0.8202
     0.9505   0.9946   1.0672   1.2313   1.3296   1.3632   1.4010   1.4086
     1.4392   1.4633   1.4997   1.5151   1.5284   1.6379   1.6938   1.7230
     1.7473   2.0126   2.0421   2.0616   2.1414   2.1722   2.2132   2.2313
     2.2619   2.2722   2.2782   2.3062   2.3549   2.3743   2.4004   2.4195
     2.4479   2.5027   2.5858   2.6213   2.7829   2.9574   2.9686   2.9789
     3.0108   3.0244   3.0373   3.0401   3.0645   3.0937   3.1015   3.1548
     3.1750   3.2519   3.2642   3.3354   3.3376   3.3655   3.3682   3.3852
     3.3883   3.3919   3.3986   3.4016   3.4136   3.4337   3.4350   3.5001
     3.5055   3.5214   3.5764   4.4645   4.4726   4.5382   4.5838   5.0125
     5.0763   5.2443   5.3090   5.5341   5.7215   5.8109   5.8703   6.0495
     6.2466   6.3422   6.3922   6.3944   7.0262   7.1016   7.1407   7.4005
     7.5384   7.6225   7.8692   8.0550   8.0891   8.1249   8.2064   8.2282
     8.5212   8.5562   8.6420   8.7187   8.7653   8.8535   8.9734

     occupation numbers 
     1.0000   1.0000   1.0000   1.0000   1.0000   1.0000   1.0000   1.0000
     1.0000   1.0000   1.0000   1.0000   1.0000   1.0000   1.0000   1.0000
     1.0000   1.0000   1.0000   1.0000   1.0000   1.0000   1.0000   1.0000
     1.0000   1.0000   1.0000   1.0000   1.0000   1.0000   1.0000   1.0000
     1.0000   1.0000   1.0000   1.0000   1.0000   1.0000   1.0000   1.0000
     1.0000   1.0000   1.0000   1.0000   1.0000   1.0000   1.0000   1.0000
     1.0000   1.0000   1.0000   1.0000   1.0000   1.0000   1.0000   1.0000
     1.0000   1.0000   1.0000   1.0000   1.0000   1.0000   1.0000   1.0000
     1.0000   1.0000   1.0000   1.0000   1.0000   1.0000   1.0000   1.0000
     1.0000   1.0000   1.0000   1.0000   1.0000   1.0000   1.0000   1.0000
     1.0000   1.0000   1.0000   1.0000   1.0000   1.0000   1.0000   1.0000
     1.0000   1.0000   1.0000   1.0000   1.0000   1.0000   1.0000   1.0000
     1.0000   1.0000   1.0000   1.0000   1.0000   1.0000   1.0000   1.0000
     1.0000   1.0000   1.0000   1.0000   1.0000   1.0000   1.0000   1.0000
     1.0000   1.0000   1.0000   1.0000   1.0000   1.0000   1.0000   1.0000
     1.0000   1.0000   1.0000   1.0000   1.0000   1.0000   1.0000   1.0000
     1.0000   1.0000   1.0000   1.0000   1.0000   1.0000   1.0000   1.0000
     1.0000   1.0000   1.0000   1.0000   1.0000   1.0000   1.0000   1.0000
     1.0000   1.0000   1.0000   1.0000   1.0000   1.0000   1.0000   1.0000
     1.0000   1.0000   1.0000   1.0000   1.0000   1.0000   1.0000   1.0000
     1.0000   1.0000   0.9999   0.9999   0.9998   0.9997   0.9997   0.9996
     0.9996   0.9995   0.9994   0.9994   0.9993   0.9988   0.9984   0.9982
     0.9980   0.9935   0.9926   0.9920   0.9890   0.9876   0.9855   0.9845
     0.9827   0.9820   0.9816   0.9796   0.9758   0.9741   0.9717   0.9698
     0.9668   0.9603   0.9486   0.9428   0.9096   0.8598   0.8560   0.8525
     0.8413   0.8364   0.8316   0.8306   0.8213   0.8097   0.8066   0.7841
     0.7752   0.7396   0.7336   0.6977   0.6966   0.6820   0.6805   0.6715
     0.6698   0.6679   0.6642   0.6626   0.6561   0.6450   0.6443   0.6077
     0.6046   0.5955   0.5636   0.1233   0.1209   0.1024   0.0908   0.0243
     0.0194   0.0103   0.0079   0.0030   0.0012   0.0008   0.0006   0.0002
     0.0001   0.0000   0.0000   0.0000   0.0000   0.0000   0.0000   0.0000
     0.0000   0.0000   0.0000   0.0000   0.0000   0.0000   0.0000   0.0000
     0.0000   0.0000   0.0000   0.0000   0.0000   0.0000   0.0000

          k = 0.2500 0.2500 0.0000 ( 65198 PWs)   bands (ev):

   -92.3421 -92.2882 -92.1961 -92.1467 -92.0904 -92.0486 -92.0310 -91.9065
   -55.6952 -55.6745 -55.5540 -55.5432 -55.5352 -55.5300 -55.4926 -55.4657
   -55.4491 -55.4477 -55.4396 -55.3980 -55.3779 -55.3421 -55.3221 -55.2900
   -55.2820 -55.2373 -55.2346 -55.2343 -55.2258 -55.1806 -55.1618 -55.0734
   -30.9271 -30.9115 -30.8179 -30.7689 -30.7452 -30.6829 -30.4779 -30.4446
   -29.4918 -29.4504 -29.4250 -29.3162 -22.2557 -14.6619 -14.6263 -14.5524
   -14.4348 -14.3204 -14.1958 -14.1184 -13.9180 -13.7795 -13.7570 -13.7461
   -13.7115 -13.6807 -13.6582 -13.6339 -13.6010 -13.5871 -13.4895 -13.4737
   -13.3137 -13.2999 -13.2688 -13.2497 -13.2061 -13.1603 -13.1123 -13.0774
   -12.9955 -12.9643 -12.8830 -12.7970 -12.7677 -12.7497 -12.7070 -12.6773
   -12.6681 -12.6170 -12.5998 -12.5918 -12.5564 -12.5409 -12.4581 -12.4178
   -12.3978 -12.3886 -12.3664 -12.3522 -12.1815 -12.1041 -12.0867 -11.9299
   -11.8099 -11.7544 -11.4449 -11.4128 -11.4024 -11.3953 -11.3325 -11.2980
   -11.2912 -11.2556 -11.2484 -11.1561 -11.1148 -11.0973  -5.8995  -3.1612
    -3.1545  -2.3139  -2.1040  -1.9866  -1.8928  -1.7708  -1.7056  -1.5092
    -1.3630  -1.3430  -1.3144  -1.2199  -1.1871  -1.0937  -1.0664  -1.0163
    -0.8844  -0.8367  -0.7642  -0.7188  -0.6748  -0.6507  -0.6255  -0.5842
    -0.5678  -0.4782  -0.4286  -0.3644  -0.3158  -0.2867  -0.2345  -0.2237
    -0.1603  -0.1083  -0.0527  -0.0192   0.0659   0.1194   0.1465   0.1879
     0.2408   0.3129   0.3497   0.3737   0.4427   0.4770   0.7590   0.9077
     0.9441   0.9983   1.0384   1.0809   1.1391   1.2095   1.2453   1.5197
     1.5913   1.6658   1.6916   1.7359   1.7702   1.8067   1.8437   1.8608
     1.8898   1.9287   1.9382   1.9560   1.9960   2.0335   2.0768   2.1283
     2.1598   2.1785   2.2001   2.2431   2.2902   2.3161   2.4504   2.5244
     2.5643   2.5900   2.6451   2.7135   2.7466   2.7849   2.8101   2.8181
     2.9297   2.9697   3.0300   3.0578   3.0733   3.2321   3.2495   3.2556
     3.2715   3.2858   3.2990   3.3116   3.3187   3.3286   3.3425   3.3544
     3.3732   3.3792   3.3907   3.4108   3.4252   3.4353   3.4658   3.7676
     3.8577   3.8971   3.9629   3.9738   4.2029   4.3091   4.6393   4.7989
     4.9738   5.1326   5.3290   5.5592   5.9142   5.9683   6.0150   6.1204
     6.1969   6.2418   6.3415   6.4212   6.9066   7.0134   7.1154   7.2283
     7.7103   7.7868   7.8585   7.8989   8.0192   8.1319   8.2172   8.3150
     8.3678   8.4527   8.5299   8.6856   8.7205   8.7792   8.9617

     occupation numbers 
     1.0000   1.0000   1.0000   1.0000   1.0000   1.0000   1.0000   1.0000
     1.0000   1.0000   1.0000   1.0000   1.0000   1.0000   1.0000   1.0000
     1.0000   1.0000   1.0000   1.0000   1.0000   1.0000   1.0000   1.0000
     1.0000   1.0000   1.0000   1.0000   1.0000   1.0000   1.0000   1.0000
     1.0000   1.0000   1.0000   1.0000   1.0000   1.0000   1.0000   1.0000
     1.0000   1.0000   1.0000   1.0000   1.0000   1.0000   1.0000   1.0000
     1.0000   1.0000   1.0000   1.0000   1.0000   1.0000   1.0000   1.0000
     1.0000   1.0000   1.0000   1.0000   1.0000   1.0000   1.0000   1.0000
     1.0000   1.0000   1.0000   1.0000   1.0000   1.0000   1.0000   1.0000
     1.0000   1.0000   1.0000   1.0000   1.0000   1.0000   1.0000   1.0000
     1.0000   1.0000   1.0000   1.0000   1.0000   1.0000   1.0000   1.0000
     1.0000   1.0000   1.0000   1.0000   1.0000   1.0000   1.0000   1.0000
     1.0000   1.0000   1.0000   1.0000   1.0000   1.0000   1.0000   1.0000
     1.0000   1.0000   1.0000   1.0000   1.0000   1.0000   1.0000   1.0000
     1.0000   1.0000   1.0000   1.0000   1.0000   1.0000   1.0000   1.0000
     1.0000   1.0000   1.0000   1.0000   1.0000   1.0000   1.0000   1.0000
     1.0000   1.0000   1.0000   1.0000   1.0000   1.0000   1.0000   1.0000
     1.0000   1.0000   1.0000   1.0000   1.0000   1.0000   1.0000   1.0000
     1.0000   1.0000   1.0000   1.0000   1.0000   1.0000   1.0000   1.0000
     1.0000   1.0000   1.0000   1.0000   1.0000   1.0000   1.0000   1.0000
     1.0000   1.0000   1.0000   0.9999   0.9999   0.9999   0.9999   0.9993
     0.9991   0.9986   0.9985   0.9981   0.9978   0.9973   0.9969   0.9966
     0.9961   0.9954   0.9952   0.9949   0.9939   0.9929   0.9915   0.9896
     0.9882   0.9873   0.9862   0.9838   0.9808   0.9789   0.9665   0.9575
     0.9518   0.9479   0.9386   0.9253   0.9181   0.9091   0.9029   0.9008
     0.8687   0.8556   0.8343   0.8238   0.8178   0.7490   0.7407   0.7378
     0.7300   0.7229   0.7163   0.7100   0.7064   0.7013   0.6940   0.6878
     0.6779   0.6747   0.6685   0.6576   0.6497   0.6441   0.6272   0.4508
     0.3983   0.3760   0.3395   0.3336   0.2206   0.1767   0.0781   0.0489
     0.0278   0.0157   0.0073   0.0027   0.0005   0.0003   0.0003   0.0001
     0.0001   0.0001   0.0000   0.0000   0.0000   0.0000   0.0000   0.0000
     0.0000   0.0000   0.0000   0.0000   0.0000   0.0000   0.0000   0.0000
     0.0000   0.0000   0.0000   0.0000   0.0000   0.0000   0.0000

          k = 0.2500-0.5000 0.0000 ( 65138 PWs)   bands (ev):

   -92.3421 -92.2882 -92.1961 -92.1467 -92.0904 -92.0486 -92.0310 -91.9065
   -55.6952 -55.6745 -55.5540 -55.5432 -55.5352 -55.5300 -55.4926 -55.4657
   -55.4491 -55.4477 -55.4396 -55.3980 -55.3779 -55.3421 -55.3221 -55.2900
   -55.2820 -55.2373 -55.2346 -55.2343 -55.2258 -55.1806 -55.1618 -55.0734
   -30.9269 -30.9114 -30.8175 -30.7691 -30.7457 -30.6830 -30.4769 -30.4456
   -29.4912 -29.4501 -29.4257 -29.3165 -22.2557 -14.6263 -14.5814 -14.5138
   -14.3999 -14.3682 -14.2466 -14.1626 -14.0328 -13.7793 -13.7212 -13.6748
   -13.6431 -13.6230 -13.6073 -13.5907 -13.5589 -13.5417 -13.5100 -13.4688
   -13.4504 -13.4187 -13.3140 -13.2659 -13.2237 -13.1867 -13.1349 -13.1169
   -13.0533 -13.0207 -12.8584 -12.7945 -12.7815 -12.7294 -12.7017 -12.6797
   -12.6406 -12.6214 -12.5951 -12.5645 -12.5319 -12.5279 -12.4677 -12.4568
   -12.3982 -12.3743 -12.3069 -12.2756 -12.1733 -12.0759 -11.9737 -11.9333
   -11.8738 -11.8493 -11.4202 -11.4084 -11.3975 -11.3705 -11.3388 -11.3108
   -11.2692 -11.2416 -11.2193 -11.1743 -11.1483 -11.1369  -5.8995  -3.1614
    -3.1544  -2.0951  -2.0310  -1.9002  -1.8230  -1.6935  -1.6114  -1.4863
    -1.3356  -1.2819  -1.2596  -1.1975  -1.1843  -1.0877  -1.0205  -0.9346
    -0.8867  -0.8773  -0.8130  -0.7721  -0.7367  -0.6894  -0.6521  -0.6172
    -0.5772  -0.5666  -0.5209  -0.4926  -0.4508  -0.4204  -0.3526  -0.2517
    -0.2159  -0.1351  -0.0699  -0.0210   0.0200   0.0411   0.0972   0.2537
     0.2628   0.3669   0.3982   0.4106   0.4554   0.4906   0.5213   0.5596
     0.6304   0.8965   0.9960   1.0332   1.0994   1.3837   1.4003   1.4931
     1.5177   1.6883   1.7207   1.7623   1.7881   1.8038   1.8248   1.8848
     1.9310   1.9673   2.0358   2.1348   2.1646   2.1881   2.2011   2.2348
     2.2529   2.2570   2.2987   2.3127   2.3344   2.3552   2.3800   2.4109
     2.4397   2.5015   2.5414   2.6206   2.7543   2.9108   2.9247   2.9437
     2.9699   2.9961   3.0206   3.0332   3.0469   3.0562   3.0692   3.0898
     3.1810   3.2305   3.2506   3.2534   3.2687   3.2892   3.3029   3.3219
     3.3295   3.3612   3.3718   3.3878   3.3954   3.4034   3.4154   3.9203
     3.9456   4.0991   4.1509   4.4694   4.5248   4.5422   4.6544   5.0687
     5.1035   5.2892   5.3463   5.4999   5.6438   5.7899   5.8145   5.9417
     6.0720   6.1183   6.3531   6.4240   6.5738   6.6395   7.1681   7.3756
     7.4823   7.6394   7.9572   8.0669   8.1768   8.2128   8.3521   8.4254
     8.5233   8.5965   8.6759   8.7967   8.8694   8.9279   8.9631

     occupation numbers 
     1.0000   1.0000   1.0000   1.0000   1.0000   1.0000   1.0000   1.0000
     1.0000   1.0000   1.0000   1.0000   1.0000   1.0000   1.0000   1.0000
     1.0000   1.0000   1.0000   1.0000   1.0000   1.0000   1.0000   1.0000
     1.0000   1.0000   1.0000   1.0000   1.0000   1.0000   1.0000   1.0000
     1.0000   1.0000   1.0000   1.0000   1.0000   1.0000   1.0000   1.0000
     1.0000   1.0000   1.0000   1.0000   1.0000   1.0000   1.0000   1.0000
     1.0000   1.0000   1.0000   1.0000   1.0000   1.0000   1.0000   1.0000
     1.0000   1.0000   1.0000   1.0000   1.0000   1.0000   1.0000   1.0000
     1.0000   1.0000   1.0000   1.0000   1.0000   1.0000   1.0000   1.0000
     1.0000   1.0000   1.0000   1.0000   1.0000   1.0000   1.0000   1.0000
     1.0000   1.0000   1.0000   1.0000   1.0000   1.0000   1.0000   1.0000
     1.0000   1.0000   1.0000   1.0000   1.0000   1.0000   1.0000   1.0000
     1.0000   1.0000   1.0000   1.0000   1.0000   1.0000   1.0000   1.0000
     1.0000   1.0000   1.0000   1.0000   1.0000   1.0000   1.0000   1.0000
     1.0000   1.0000   1.0000   1.0000   1.0000   1.0000   1.0000   1.0000
     1.0000   1.0000   1.0000   1.0000   1.0000   1.0000   1.0000   1.0000
     1.0000   1.0000   1.0000   1.0000   1.0000   1.0000   1.0000   1.0000
     1.0000   1.0000   1.0000   1.0000   1.0000   1.0000   1.0000   1.0000
     1.0000   1.0000   1.0000   1.0000   1.0000   1.0000   1.0000   1.0000
     1.0000   1.0000   1.0000   1.0000   1.0000   1.0000   1.0000   1.0000
     1.0000   1.0000   1.0000   1.0000   0.9999   0.9997   0.9997   0.9994
     0.9994   0.9985   0.9982   0.9978   0.9976   0.9974   0.9971   0.9962
     0.9954   0.9946   0.9928   0.9893   0.9880   0.9868   0.9862   0.9843
     0.9832   0.9830   0.9802   0.9791   0.9775   0.9758   0.9736   0.9707
     0.9677   0.9605   0.9551   0.9429   0.9163   0.8746   0.8703   0.8642
     0.8556   0.8465   0.8378   0.8331   0.8280   0.8245   0.8194   0.8113
     0.7725   0.7498   0.7402   0.7388   0.7314   0.7213   0.7144   0.7047
     0.7008   0.6842   0.6787   0.6701   0.6660   0.6617   0.6551   0.3630
     0.3490   0.2689   0.2441   0.1218   0.1060   0.1013   0.0748   0.0199
     0.0175   0.0086   0.0068   0.0035   0.0018   0.0009   0.0008   0.0004
     0.0002   0.0002   0.0000   0.0000   0.0000   0.0000   0.0000   0.0000
     0.0000   0.0000   0.0000   0.0000   0.0000   0.0000   0.0000   0.0000
     0.0000   0.0000   0.0000   0.0000   0.0000   0.0000   0.0000

          k =-0.5000-0.5000 0.0000 ( 65132 PWs)   bands (ev):

   -92.3421 -92.2882 -92.1961 -92.1467 -92.0904 -92.0486 -92.0310 -91.9065
   -55.6952 -55.6745 -55.5540 -55.5432 -55.5352 -55.5300 -55.4926 -55.4657
   -55.4491 -55.4477 -55.4396 -55.3980 -55.3779 -55.3421 -55.3221 -55.2900
   -55.2820 -55.2373 -55.2346 -55.2343 -55.2258 -55.1806 -55.1618 -55.0734
   -30.9247 -30.9137 -30.8175 -30.7688 -30.7456 -30.6834 -30.4770 -30.4457
   -29.4902 -29.4511 -29.4253 -29.3170 -22.2557 -14.5798 -14.5541 -14.4364
   -14.4256 -14.3353 -14.2933 -14.2662 -14.1320 -13.7792 -13.6327 -13.6221
   -13.5860 -13.5702 -13.5504 -13.5394 -13.5057 -13.4984 -13.4869 -13.4769
   -13.4630 -13.3838 -13.3760 -13.3543 -13.3155 -13.3135 -13.2118 -13.1997
   -13.1013 -13.0759 -12.8091 -12.7776 -12.7101 -12.7025 -12.6787 -12.6717
   -12.6364 -12.6334 -12.6251 -12.6056 -12.5379 -12.5160 -12.4733 -12.4447
   -12.4076 -12.3915 -12.2568 -12.2491 -12.1897 -12.0599 -11.9702 -11.9095
   -11.8637 -11.8533 -11.4167 -11.4046 -11.3868 -11.3701 -11.3353 -11.3170
   -11.2835 -11.2220 -11.2019 -11.1963 -11.1460 -11.1427  -5.8995  -3.1614
    -3.1546  -1.8714  -1.7949  -1.7875  -1.7150  -1.6747  -1.5963  -1.5283
    -1.4032  -1.2858  -1.2562  -1.2157  -1.1593  -1.0877  -1.0740  -1.0018
    -0.9602  -0.8444  -0.8161  -0.7677  -0.7359  -0.6719  -0.6277  -0.6086
    -0.5973  -0.5444  -0.4969  -0.4841  -0.3701  -0.3121  -0.2662  -0.2170
    -0.1932  -0.1802  -0.1448  -0.1058  -0.0686  -0.0579   0.0290   0.0991
     0.1448   0.1672   0.2423   0.2969   0.3007   0.3653   0.3881   0.3985
     0.4047   0.8633   0.9217   0.9796   0.9995   1.4108   1.4268   1.4565
     1.4944   1.7709   1.7896   1.7962   1.8352   1.9698   2.0662   2.0921
     2.1282   2.1476   2.1637   2.1761   2.2080   2.2143   2.2317   2.2348
     2.2939   2.3031   2.3261   2.3312   2.3553   2.3653   2.4115   2.4334
     2.4496   2.4856   2.5086   2.5845   2.6510   2.9219   2.9544   2.9736
     2.9938   3.0011   3.0229   3.0292   3.0382   3.0555   3.0639   3.0770
     3.0858   3.1113   3.1182   3.1820   3.1867   3.2064   3.2210   3.2318
     3.2521   3.2581   3.2666   3.3672   3.3734   3.3988   3.4096   4.3371
     4.3796   4.3910   4.4284   4.6748   4.7452   4.7757   5.0137   5.1361
     5.1598   5.2212   5.3403   5.4028   5.4718   5.5601   5.5631   5.7539
[...]
     0.0000   0.0000   0.0000   0.0000   0.0000   0.0000   0.0000   0.0000
     0.0000   0.0000   0.0000   0.0000   0.0000   0.0000   0.0000

          k =-0.5000 0.0000 0.0000 ( 65180 PWs)   bands (ev):

   -92.3421 -92.2882 -92.1961 -92.1467 -92.0904 -92.0486 -92.0310 -91.9065
   -55.6952 -55.6745 -55.5540 -55.5432 -55.5352 -55.5300 -55.4926 -55.4657
   -55.4491 -55.4477 -55.4396 -55.3980 -55.3779 -55.3421 -55.3221 -55.2900
   -55.2820 -55.2373 -55.2346 -55.2343 -55.2258 -55.1806 -55.1618 -55.0734
   -30.9251 -30.9139 -30.8183 -30.7683 -30.7447 -30.6831 -30.4789 -30.4438
   -29.4914 -29.4517 -29.4240 -29.3163 -22.2557 -14.6612 -14.6108 -14.5494
   -14.4463 -14.3356 -14.1931 -14.0496 -13.9176 -13.7830 -13.7787 -13.7756
   -13.7539 -13.6981 -13.6420 -13.6075 -13.5598 -13.5589 -13.5429 -13.4884
   -13.4841 -13.3834 -13.2019 -13.1781 -13.1422 -13.1343 -13.0888 -13.0132
   -12.9931 -12.9212 -12.9117 -12.8975 -12.8092 -12.7064 -12.7014 -12.6907
   -12.6777 -12.6636 -12.6193 -12.6064 -12.5910 -12.5698 -12.4274 -12.3760
   -12.3225 -12.3099 -12.2916 -12.2824 -12.1927 -12.1697 -12.0356 -11.9800
   -11.8608 -11.8150 -11.4238 -11.4026 -11.3957 -11.3806 -11.3627 -11.3214
   -11.2587 -11.2416 -11.2095 -11.1631 -11.1538 -11.1382  -5.8995  -3.1611
    -3.1547  -2.2272  -2.1885  -2.0239  -1.9851  -1.6727  -1.5969  -1.4482
    -1.3308  -1.2914  -1.2462  -1.1974  -1.1721  -1.0507  -1.0052  -0.9913
    -0.9081  -0.8731  -0.8591  -0.8256  -0.7694  -0.6998  -0.6701  -0.6438
    -0.5499  -0.4997  -0.4507  -0.4188  -0.3977  -0.3683  -0.3200  -0.2956
    -0.2567  -0.1605  -0.0932  -0.0241   0.0364   0.1946   0.2286   0.2969
     0.3250   0.3911   0.4063   0.5371   0.5728   0.6070   0.7954   0.8935
     0.9399   1.0051   1.0762   1.2054   1.2199   1.3520   1.3832   1.4356
     1.4575   1.4986   1.5143   1.5577   1.5856   1.6514   1.6932   1.7404
     1.7498   2.0462   2.0561   2.0709   2.0865   2.2085   2.2148   2.2199
     2.2354   2.2664   2.2796   2.3132   2.3443   2.3628   2.4321   2.4365
     2.4935   2.5058   2.5728   2.6673   2.7756   2.8547   2.8701   2.9514
     2.9833   3.0091   3.0312   3.0646   3.0808   3.0894   3.0949   3.1237
     3.1901   3.2364   3.2812   3.3102   3.3544   3.3595   3.3607   3.3734
     3.3864   3.3995   3.4147   3.4166   3.4382   3.4433   3.4656   3.4860
     3.4907   3.6190   3.6228   4.4003   4.4708   4.5339   4.6389   4.9750
     5.1314   5.2681   5.3178   5.4484   5.6777   5.8749   5.9288   5.9889
     6.1599   6.3832   6.3942   6.5089   6.9638   7.0698   7.1682   7.4692
     7.5341   7.6487   7.7397   7.9249   8.0458   8.0868   8.1928   8.4047
     8.4826   8.6782   8.6930   8.7247   8.7939   8.8587   8.9594

     occupation numbers 
     1.0000   1.0000   1.0000   1.0000   1.0000   1.0000   1.0000   1.0000
     1.0000   1.0000   1.0000   1.0000   1.0000   1.0000   1.0000   1.0000
     1.0000   1.0000   1.0000   1.0000   1.0000   1.0000   1.0000   1.0000
     1.0000   1.0000   1.0000   1.0000   1.0000   1.0000   1.0000   1.0000
     1.0000   1.0000   1.0000   1.0000   1.0000   1.0000   1.0000   1.0000
     1.0000   1.0000   1.0000   1.0000   1.0000   1.0000   1.0000   1.0000
     1.0000   1.0000   1.0000   1.0000   1.0000   1.0000   1.0000   1.0000
     1.0000   1.0000   1.0000   1.0000   1.0000   1.0000   1.0000   1.0000
     1.0000   1.0000   1.0000   1.0000   1.0000   1.0000   1.0000   1.0000
     1.0000   1.0000   1.0000   1.0000   1.0000   1.0000   1.0000   1.0000
     1.0000   1.0000   1.0000   1.0000   1.0000   1.0000   1.0000   1.0000
     1.0000   1.0000   1.0000   1.0000   1.0000   1.0000   1.0000   1.0000
     1.0000   1.0000   1.0000   1.0000   1.0000   1.0000   1.0000   1.0000
     1.0000   1.0000   1.0000   1.0000   1.0000   1.0000   1.0000   1.0000
     1.0000   1.0000   1.0000   1.0000   1.0000   1.0000   1.0000   1.0000
     1.0000   1.0000   1.0000   1.0000   1.0000   1.0000   1.0000   1.0000
     1.0000   1.0000   1.0000   1.0000   1.0000   1.0000   1.0000   1.0000
     1.0000   1.0000   1.0000   1.0000   1.0000   1.0000   1.0000   1.0000
     1.0000   1.0000   1.0000   1.0000   1.0000   1.0000   1.0000   1.0000
     1.0000   1.0000   1.0000   1.0000   1.0000   1.0000   1.0000   1.0000
     1.0000   1.0000   0.9999   0.9999   0.9999   0.9997   0.9997   0.9996
     0.9995   0.9994   0.9994   0.9992   0.9991   0.9987   0.9984   0.9981
     0.9980   0.9925   0.9922   0.9917   0.9912   0.9858   0.9854   0.9852
     0.9843   0.9824   0.9815   0.9791   0.9767   0.9751   0.9685   0.9680
     0.9615   0.9599   0.9506   0.9345   0.9114   0.8910   0.8866   0.8617
     0.8510   0.8420   0.8339   0.8212   0.8149   0.8115   0.8092   0.7974
     0.7684   0.7469   0.7252   0.7107   0.6879   0.6852   0.6845   0.6778
     0.6708   0.6637   0.6555   0.6545   0.6426   0.6397   0.6273   0.6158
     0.6131   0.5386   0.5363   0.1438   0.1214   0.1035   0.0782   0.0276
     0.0158   0.0093   0.0076   0.0044   0.0015   0.0006   0.0004   0.0003
     0.0001   0.0000   0.0000   0.0000   0.0000   0.0000   0.0000   0.0000
     0.0000   0.0000   0.0000   0.0000   0.0000   0.0000   0.0000   0.0000
     0.0000   0.0000   0.0000   0.0000   0.0000   0.0000   0.0000

          k =-0.2500 0.2500 0.0000 ( 65198 PWs)   bands (ev):

   -92.3421 -92.2882 -92.1961 -92.1467 -92.0904 -92.0486 -92.0310 -91.9065
   -55.6952 -55.6745 -55.5540 -55.5432 -55.5352 -55.5300 -55.4926 -55.4657
   -55.4491 -55.4477 -55.4396 -55.3980 -55.3779 -55.3421 -55.3221 -55.2900
   -55.2820 -55.2373 -55.2346 -55.2343 -55.2258 -55.1806 -55.1618 -55.0734
   -30.9271 -30.9115 -30.8179 -30.7689 -30.7452 -30.6829 -30.4779 -30.4446
   -29.4918 -29.4504 -29.4250 -29.3162 -22.2557 -14.6633 -14.6253 -14.5509
   -14.4328 -14.3271 -14.1998 -14.1104 -13.9094 -13.7796 -13.7646 -13.7345
   -13.7261 -13.6752 -13.6528 -13.6355 -13.6198 -13.5839 -13.4865 -13.4745
   -13.3225 -13.2954 -13.2662 -13.2467 -13.2082 -13.1459 -13.1043 -13.0872
   -13.0046 -12.9650 -12.8763 -12.7997 -12.7668 -12.7462 -12.6963 -12.6783
   -12.6528 -12.6295 -12.5985 -12.5896 -12.5753 -12.5485 -12.4563 -12.4238
   -12.4192 -12.3859 -12.3524 -12.3431 -12.1777 -12.0938 -12.0887 -11.9357
   -11.8086 -11.7560 -11.4441 -11.4223 -11.3954 -11.3831 -11.3422 -11.3077
   -11.2843 -11.2632 -11.2404 -11.1559 -11.1102 -11.1005  -5.8995  -3.1612
    -3.1545  -2.3123  -2.1030  -1.9823  -1.8946  -1.7751  -1.7082  -1.5068
    -1.3598  -1.3407  -1.3124  -1.2204  -1.1859  -1.0933  -1.0600  -1.0338
    -0.8898  -0.8350  -0.7674  -0.7385  -0.6782  -0.6563  -0.6158  -0.5867
    -0.5467  -0.4848  -0.4377  -0.3760  -0.3073  -0.2830  -0.2300  -0.2026
    -0.1572  -0.0989  -0.0553  -0.0139   0.0855   0.1192   0.1267   0.1752
     0.2387   0.3129   0.3502   0.3800   0.4474   0.4739   0.7403   0.9085
     0.9535   0.9893   1.0453   1.0799   1.1417   1.2138   1.2448   1.5274
     1.6423   1.6813   1.7144   1.7202   1.7638   1.7809   1.8251   1.8567
     1.8720   1.8982   1.9389   1.9519   1.9948   2.0131   2.0570   2.1409
     2.1526   2.1757   2.2027   2.2408   2.2754   2.3190   2.4395   2.5586
     2.5863   2.6269   2.6488   2.7119   2.7586   2.7872   2.8095   2.8297
     2.9304   2.9684   3.0314   3.0538   3.0762   3.2393   3.2473   3.2609
     3.2709   3.2814   3.2958   3.3020   3.3189   3.3266   3.3433   3.3527
     3.3660   3.3746   3.3803   3.4132   3.4248   3.4343   3.4675   3.7606
     3.8408   3.8998   3.9577   3.9917   4.1867   4.3176   4.6388   4.7988
     4.9712   5.1345   5.3379   5.5578   5.9238   5.9703   6.0049   6.1253
     6.1926   6.2462   6.3509   6.4024   6.9215   7.0301   7.1003   7.2027
     7.7137   7.7882   7.8634   7.9239   7.9827   8.1719   8.2127   8.2900
     8.3785   8.4378   8.5571   8.6797   8.7239   8.7786   8.9373

     occupation numbers 
     1.0000   1.0000   1.0000   1.0000   1.0000   1.0000   1.0000   1.0000
     1.0000   1.0000   1.0000   1.0000   1.0000   1.0000   1.0000   1.0000
     1.0000   1.0000   1.0000   1.0000   1.0000   1.0000   1.0000   1.0000
     1.0000   1.0000   1.0000   1.0000   1.0000   1.0000   1.0000   1.0000
     1.0000   1.0000   1.0000   1.0000   1.0000   1.0000   1.0000   1.0000
     1.0000   1.0000   1.0000   1.0000   1.0000   1.0000   1.0000   1.0000
     1.0000   1.0000   1.0000   1.0000   1.0000   1.0000   1.0000   1.0000
     1.0000   1.0000   1.0000   1.0000   1.0000   1.0000   1.0000   1.0000
     1.0000   1.0000   1.0000   1.0000   1.0000   1.0000   1.0000   1.0000
     1.0000   1.0000   1.0000   1.0000   1.0000   1.0000   1.0000   1.0000
     1.0000   1.0000   1.0000   1.0000   1.0000   1.0000   1.0000   1.0000
     1.0000   1.0000   1.0000   1.0000   1.0000   1.0000   1.0000   1.0000
     1.0000   1.0000   1.0000   1.0000   1.0000   1.0000   1.0000   1.0000
     1.0000   1.0000   1.0000   1.0000   1.0000   1.0000   1.0000   1.0000
     1.0000   1.0000   1.0000   1.0000   1.0000   1.0000   1.0000   1.0000
     1.0000   1.0000   1.0000   1.0000   1.0000   1.0000   1.0000   1.0000
     1.0000   1.0000   1.0000   1.0000   1.0000   1.0000   1.0000   1.0000
     1.0000   1.0000   1.0000   1.0000   1.0000   1.0000   1.0000   1.0000
     1.0000   1.0000   1.0000   1.0000   1.0000   1.0000   1.0000   1.0000
     1.0000   1.0000   1.0000   1.0000   1.0000   1.0000   1.0000   1.0000
     1.0000   1.0000   1.0000   0.9999   0.9999   0.9999   0.9999   0.9993
     0.9988   0.9985   0.9983   0.9982   0.9978   0.9976   0.9971   0.9967
     0.9964   0.9960   0.9952   0.9949   0.9939   0.9935   0.9922   0.9890
     0.9885   0.9875   0.9861   0.9840   0.9818   0.9787   0.9677   0.9527
     0.9485   0.9418   0.9379   0.9256   0.9153   0.9086   0.9030   0.8977
     0.8685   0.8561   0.8338   0.8254   0.8167   0.7456   0.7418   0.7352
     0.7303   0.7251   0.7180   0.7148   0.7062   0.7023   0.6937   0.6887
     0.6817   0.6771   0.6741   0.6563   0.6500   0.6447   0.6262   0.4548
     0.4081   0.3744   0.3423   0.3240   0.2278   0.1735   0.0782   0.0490
     0.0280   0.0156   0.0070   0.0027   0.0004   0.0003   0.0003   0.0001
     0.0001   0.0001   0.0000   0.0000   0.0000   0.0000   0.0000   0.0000
     0.0000   0.0000   0.0000   0.0000   0.0000   0.0000   0.0000   0.0000
     0.0000   0.0000   0.0000   0.0000   0.0000   0.0000   0.0000

          k =-0.5000 0.2500 0.0000 ( 65138 PWs)   bands (ev):

   -92.3421 -92.2882 -92.1961 -92.1467 -92.0904 -92.0486 -92.0310 -91.9065
   -55.6952 -55.6745 -55.5540 -55.5432 -55.5352 -55.5300 -55.4926 -55.4657
   -55.4491 -55.4477 -55.4396 -55.3980 -55.3779 -55.3421 -55.3221 -55.2900
   -55.2820 -55.2373 -55.2346 -55.2343 -55.2258 -55.1806 -55.1618 -55.0734
   -30.9249 -30.9138 -30.8179 -30.7685 -30.7451 -30.6833 -30.4780 -30.4447
   -29.4908 -29.4514 -29.4246 -29.3166 -22.2557 -14.6286 -14.5844 -14.5064
   -14.4112 -14.3664 -14.2393 -14.1541 -14.0300 -13.7793 -13.7151 -13.6853
   -13.6722 -13.6270 -13.6101 -13.5813 -13.5466 -13.5442 -13.5188 -13.4847
   -13.4680 -13.3712 -13.2863 -13.2393 -13.2355 -13.2237 -13.1455 -13.1194
   -13.0440 -13.0037 -12.8522 -12.8171 -12.7564 -12.7222 -12.6836 -12.6706
   -12.6648 -12.6313 -12.6149 -12.5946 -12.5865 -12.5531 -12.4310 -12.4155
   -12.3767 -12.3516 -12.2738 -12.2661 -12.1909 -12.1067 -11.9762 -11.9742
   -11.8596 -11.8288 -11.4166 -11.4039 -11.3897 -11.3781 -11.3565 -11.3262
   -11.2463 -11.2373 -11.2145 -11.1777 -11.1494 -11.1407  -5.8995  -3.1612
    -3.1547  -2.0851  -2.0429  -1.8937  -1.8520  -1.6923  -1.6157  -1.4725
    -1.3373  -1.2798  -1.2533  -1.2136  -1.1747  -1.0947  -0.9800  -0.9233
    -0.9003  -0.8748  -0.7992  -0.7693  -0.7317  -0.7132  -0.6523  -0.6250
    -0.5843  -0.5494  -0.5207  -0.4636  -0.4373  -0.3959  -0.3613  -0.2570
    -0.2305  -0.1435  -0.0859  -0.0501   0.0069   0.0901   0.1217   0.2261
     0.2597   0.3161   0.3656   0.3952   0.4708   0.4922   0.5237   0.5855
     0.6238   0.9269   0.9977   1.0366   1.0503   1.3621   1.4176   1.4941
     1.5209   1.6995   1.7362   1.7734   1.7885   1.8064   1.8239   1.8940
     1.9349   1.9748   2.0021   2.1189   2.1594   2.1864   2.1979   2.2306
     2.2638   2.2776   2.2870   2.3113   2.3352   2.3758   2.4039   2.4328
     2.4558   2.4837   2.5483   2.6640   2.7700   2.8008   2.8690   2.9100
     2.9672   3.0061   3.0140   3.0297   3.0495   3.0706   3.0878   3.1081
     3.1902   3.2326   3.2477   3.2533   3.2740   3.2971   3.3095   3.3251
     3.3371   3.3568   3.3698   3.3813   3.3886   3.3977   3.4095   3.9311
     3.9739   4.1290   4.1509   4.4118   4.4951   4.5402   4.7361   5.0429
     5.1345   5.2732   5.3562   5.4443   5.7174   5.7676   5.8191   5.8974
     6.0699   6.1337   6.2663   6.5337   6.6066   6.6661   7.1230   7.2073
     7.5834   7.6910   7.9685   8.0605   8.1850   8.1974   8.3231   8.3656
     8.5165   8.5959   8.6916   8.8222   8.8652   8.9247   8.9874

     occupation numbers 
     1.0000   1.0000   1.0000   1.0000   1.0000   1.0000   1.0000   1.0000
     1.0000   1.0000   1.0000   1.0000   1.0000   1.0000   1.0000   1.0000
     1.0000   1.0000   1.0000   1.0000   1.0000   1.0000   1.0000   1.0000
     1.0000   1.0000   1.0000   1.0000   1.0000   1.0000   1.0000   1.0000
     1.0000   1.0000   1.0000   1.0000   1.0000   1.0000   1.0000   1.0000
     1.0000   1.0000   1.0000   1.0000   1.0000   1.0000   1.0000   1.0000
     1.0000   1.0000   1.0000   1.0000   1.0000   1.0000   1.0000   1.0000
     1.0000   1.0000   1.0000   1.0000   1.0000   1.0000   1.0000   1.0000
     1.0000   1.0000   1.0000   1.0000   1.0000   1.0000   1.0000   1.0000
     1.0000   1.0000   1.0000   1.0000   1.0000   1.0000   1.0000   1.0000
     1.0000   1.0000   1.0000   1.0000   1.0000   1.0000   1.0000   1.0000
     1.0000   1.0000   1.0000   1.0000   1.0000   1.0000   1.0000   1.0000
     1.0000   1.0000   1.0000   1.0000   1.0000   1.0000   1.0000   1.0000
     1.0000   1.0000   1.0000   1.0000   1.0000   1.0000   1.0000   1.0000
     1.0000   1.0000   1.0000   1.0000   1.0000   1.0000   1.0000   1.0000
     1.0000   1.0000   1.0000   1.0000   1.0000   1.0000   1.0000   1.0000
     1.0000   1.0000   1.0000   1.0000   1.0000   1.0000   1.0000   1.0000
     1.0000   1.0000   1.0000   1.0000   1.0000   1.0000   1.0000   1.0000
     1.0000   1.0000   1.0000   1.0000   1.0000   1.0000   1.0000   1.0000
     1.0000   1.0000   1.0000   1.0000   1.0000   1.0000   1.0000   1.0000
     1.0000   1.0000   1.0000   1.0000   1.0000   0.9997   0.9996   0.9994
     0.9993   0.9984   0.9981   0.9977   0.9976   0.9974   0.9971   0.9961
     0.9953   0.9944   0.9937   0.9899   0.9882   0.9869   0.9863   0.9846
     0.9825   0.9816   0.9810   0.9793   0.9774   0.9740   0.9714   0.9684
     0.9659   0.9627   0.9542   0.9351   0.9127   0.9052   0.8869   0.8748
     0.8565   0.8430   0.8402   0.8344   0.8270   0.8189   0.8121   0.8039
     0.7684   0.7488   0.7416   0.7389   0.7288   0.7173   0.7110   0.7031
     0.6969   0.6866   0.6797   0.6736   0.6697   0.6647   0.6583   0.3569
     0.3335   0.2545   0.2441   0.1400   0.1143   0.1019   0.0592   0.0218
     0.0156   0.0092   0.0065   0.0045   0.0013   0.0010   0.0008   0.0005
     0.0002   0.0001   0.0001   0.0000   0.0000   0.0000   0.0000   0.0000
     0.0000   0.0000   0.0000   0.0000   0.0000   0.0000   0.0000   0.0000
     0.0000   0.0000   0.0000   0.0000   0.0000   0.0000   0.0000

     the Fermi energy is     3.6842 ev

!    total energy              =   -4482.97450200 Ry
     estimated scf accuracy    <          4.8E-09 Ry
     smearing contrib. (-TS)   =      -1.17233405 Ry
     internal energy E=F+TS    =   -4481.80216795 Ry

     The total energy is F=E-TS. E is the sum of the following terms:
     one-electron contribution =  -20252.65190474 Ry
     hartree contribution      =   10265.94094540 Ry
     xc contribution           =    -701.58350525 Ry
     ewald contribution        =    6492.14762186 Ry
     one-center paw contrib.   =    -285.65532522 Ry
      -> PAW hartree energy AE =      25.14985525 Ry
      -> PAW hartree energy PS =     -25.03394224 Ry
      -> PAW xc energy AE      =     -16.51556368 Ry
      -> PAW xc energy PS      =       6.87495842 Ry
      -> total E_H with PAW    =   10266.05685840 Ry
      -> total E_XC with PAW   =    -711.22411051 Ry

     convergence has been achieved in  52 iterations

     Writing all to output data dir /bsuhome/zayahcortright/scratch/pwscf.save/
 
     init_run     :      8.24s CPU      8.88s WALL (       1 calls)
     electrons    :    791.86s CPU    826.40s WALL (       1 calls)

     Called by init_run:
     wfcinit      :      6.55s CPU      6.78s WALL (       1 calls)
     wfcinit:atom :      0.06s CPU      0.08s WALL (       5 calls)
     wfcinit:wfcr :      6.22s CPU      6.36s WALL (       5 calls)
     potinit      :      0.19s CPU      0.21s WALL (       1 calls)
     hinit0       :      0.58s CPU      0.73s WALL (       1 calls)

     Called by electrons:
     c_bands      :    631.81s CPU    639.23s WALL (      52 calls)
     sum_band     :    121.31s CPU    136.75s WALL (      52 calls)
     v_of_rho     :      5.68s CPU      6.08s WALL (      53 calls)
     v_h          :      0.50s CPU      0.50s WALL (      53 calls)
     v_xc         :      5.19s CPU      5.58s WALL (      53 calls)
     newd         :     17.24s CPU     28.08s WALL (      53 calls)
     PAW_pot      :      1.75s CPU      1.79s WALL (      53 calls)
     mix_rho      :     13.70s CPU     14.08s WALL (      52 calls)

     Called by c_bands:
     init_us_2    :      7.01s CPU      7.10s WALL (     525 calls)
     init_us_2:cp :      7.01s CPU      7.10s WALL (     525 calls)
     cegterg      :    595.04s CPU    602.09s WALL (     260 calls)

     Called by sum_band:
     sum_band:wei :      0.36s CPU      0.36s WALL (      52 calls)
     sum_band:loo :    102.80s CPU    103.68s WALL (      52 calls)
     sum_band:buf :      1.53s CPU      1.58s WALL (     260 calls)
     sum_band:ini :      3.18s CPU      3.19s WALL (     260 calls)
     sum_band:cal :     22.20s CPU     22.29s WALL (     260 calls)
     sum_band:bec :      0.69s CPU      0.70s WALL (     260 calls)
     addusdens    :     16.63s CPU     31.13s WALL (      52 calls)
                                        0.00s GPU  (      52 calls)
     addusd:skk   :      0.35s CPU      1.01s WALL (     208 calls)
                                        0.00s GPU  (     208 calls)

     Called by *egterg:
     cdiaghg      :     63.57s CPU     63.87s WALL (    1417 calls)
     cegterg:over :     44.97s CPU     45.14s WALL (    1157 calls)
     cegterg:upda :     32.49s CPU     33.08s WALL (    1157 calls)
     cegterg:last :     68.34s CPU     68.62s WALL (     482 calls)
     cdiaghg:chol :      3.65s CPU      3.67s WALL (    1417 calls)
     cdiaghg:inve :      3.83s CPU      3.86s WALL (    1417 calls)
     cdiaghg:para :      8.14s CPU      8.19s WALL (    2834 calls)
     h_psi        :    324.45s CPU    327.90s WALL (    1422 calls)
     s_psi        :     43.38s CPU     43.52s WALL (    1422 calls)
     g_psi        :      1.12s CPU      1.13s WALL (    1157 calls)

     Called by h_psi:
     h_psi:calbec :     50.50s CPU     50.74s WALL (    1422 calls)
     vloc_psi     :    227.73s CPU    229.91s WALL (    1422 calls)
     add_vuspsi   :     43.32s CPU     43.52s WALL (    1422 calls)

     General routines
     calbec       :     72.68s CPU     73.03s WALL (    1682 calls)
     fft          :      3.95s CPU      4.00s WALL (     687 calls)
     ffts         :      5.13s CPU      5.17s WALL (    5632 calls)
     fftw         :    199.84s CPU    201.47s WALL (  357052 calls)
     interpolate  :      0.46s CPU      0.47s WALL (      53 calls)
 
     Parallel routines

     PAW routines
     PAW_pot      :      1.75s CPU      1.79s WALL (      53 calls)
 
     PWSCF        :  13m21.96s CPU  14m 1.84s WALL

 
   This run was terminated on:  22:23:55  18Jun2024            

=------------------------------------------------------------------------------=
   JOB DONE.
=------------------------------------------------------------------------------=
