
     Program PWSCF v.7.2 starts on 21Jun2024 at 13:33:51 

     This program is part of the open-source Quantum ESPRESSO suite
     for quantum simulation of materials; please cite
         "P. Giannozzi et al., J. Phys.:Condens. Matter 21 395502 (2009);
         "P. Giannozzi et al., J. Phys.:Condens. Matter 29 465901 (2017);
         "P. Giannozzi et al., J. Chem. Phys. 152 154105 (2020);
          URL http://www.quantum-espresso.org", 
     in publications or presentations arising from this work. More details at
     http://www.quantum-espresso.org/quote

     Parallel version (MPI & OpenMP), running on      48 processor cores
     Number of MPI processes:                48
     Threads/MPI process:                     1

     MPI processes distributed on     1 nodes
     180161 MiB available memory on the printing compute node when the environment starts
 
     Reading input from espresso.pwi
Warning: card &CELL ignored
Warning: card / ignored
Warning: card &FCP ignored
Warning: card / ignored
Warning: card &RISM ignored
Warning: card / ignored

     Current dimensions of program PWSCF are:
     Max number of different atomic species (ntypx) = 10
     Max number of k-points (npk) =  40000
     Max angular momentum in pseudopotentials (lmaxx) =  4
     file O.pbe-n-kjpaw_psl.0.1.UPF: wavefunction(s)  2P renormalized
     signal trapping enabled: kill the code with -SIGUSR1 to stop cleanly the simulation 
 
     K-points division:     npool     =       2
     R & G space division:  proc/nbgrp/npool/nimage =      24
     Subspace diagonalization in iterative solution of the eigenvalue problem:
     one sub-group per band group will be used
     scalapack distributed-memory algorithm (size of sub-group:  3*  3 procs)

 
     Parallelization info
     --------------------
     sticks:   dense  smooth     PW     G-vecs:    dense   smooth      PW
     Min         350     175     47                61430    21716    3036
     Max         351     177     48                61449    21727    3041
     Sum        8421    4205   1137              1474595   521381   72913
 
     Using Slab Decomposition
 


     bravais-lattice index     =            0
     lattice parameter (alat)  =      14.8599  a.u.
     unit-cell volume          =    8305.1283 (a.u.)^3
     number of atoms/cell      =           49
     number of atomic types    =            4
     number of electrons       =       425.00
     number of Kohn-Sham states=          256
     kinetic-energy cutoff     =      60.0000  Ry
     charge density cutoff     =     480.0000  Ry
     scf convergence threshold =      1.0E-08
     mixing beta               =       0.1500
     number of iterations used =            8  local-TF  mixing
     Exchange-correlation= PBE
                           (   1   4   3   4   0   0   0)

     celldm(1)=  14.859904  celldm(2)=   0.000000  celldm(3)=   0.000000
     celldm(4)=   0.000000  celldm(5)=   0.000000  celldm(6)=   0.000000

     crystal axes: (cart. coord. in units of alat)
               a(1) = (   1.000000   0.000000   0.000000 )  
               a(2) = (   0.000000   1.000000   0.000000 )  
               a(3) = (   0.000000   0.000000   2.531036 )  

     reciprocal axes: (cart. coord. in units 2 pi/alat)
               b(1) = (  1.000000  0.000000  0.000000 )  
               b(2) = (  0.000000  1.000000  0.000000 )  
               b(3) = (  0.000000  0.000000  0.395095 )  


     PseudoPot. # 1 for Sr read from file:
     /bsuhome/zayahcortright/q-e/pseudo/Sr_pbe_v1.uspp.F.UPF
     MD5 check sum: 6b418c05fbe9db5448babca5e47b7a5b
     Pseudo is Ultrasoft + core correction, Zval = 10.0
     Generated by new atomic code, or converted to UPF format
     Using radial grid of  883 points,  6 beta functions with: 
                l(1) =   0
                l(2) =   0
                l(3) =   1
                l(4) =   1
                l(5) =   2
                l(6) =   2
     Q(r) pseudized with  6 coefficients,  rinner =    1.400   1.400   1.400
                                                       1.400   1.400

     PseudoPot. # 2 for O  read from file:
     /bsuhome/zayahcortright/q-e/pseudo/O.pbe-n-kjpaw_psl.0.1.UPF
     MD5 check sum: 0234752ac141de4415c5fc33072bef88
     Pseudo is Projector augmented-wave + core cor, Zval =  6.0
     Generated using "atomic" code by A. Dal Corso  v.5.0.99 svn rev. 10869
     Shape of augmentation charge: BESSEL
     Using radial grid of 1095 points,  4 beta functions with: 
                l(1) =   0
                l(2) =   0
                l(3) =   1
                l(4) =   1
     Q(r) pseudized with 0 coefficients 


     PseudoPot. # 3 for Co read from file:
     /bsuhome/zayahcortright/q-e/pseudo/Co_pbe_v1.2.uspp.F.UPF
     MD5 check sum: 5f91765df6ddd3222702df6e7b74a16d
     Pseudo is Ultrasoft + core correction, Zval = 17.0
     Generated by new atomic code, or converted to UPF format
     Using radial grid of  863 points,  6 beta functions with: 
                l(1) =   0
                l(2) =   0
                l(3) =   1
                l(4) =   1
                l(5) =   2
                l(6) =   2
     Q(r) pseudized with  8 coefficients,  rinner =    1.200   1.200   1.200
                                                       1.200   1.200

     PseudoPot. # 4 for H  read from file:
     /bsuhome/zayahcortright/q-e/pseudo/H.pbe-rrkjus_psl.1.0.0.UPF
     MD5 check sum: f52b6d4d1c606e5624b1dc7b2218f220
     Pseudo is Ultrasoft, Zval =  1.0
     Generated using "atomic" code by A. Dal Corso  v.5.1
     Using radial grid of  929 points,  2 beta functions with: 
                l(1) =   0
                l(2) =   0
     Q(r) pseudized with 0 coefficients 


     atomic species   valence    mass     pseudopotential
        Sr            10.00    87.62000     Sr( 1.00)
        O              6.00    15.99900     O ( 1.00)
        Co            17.00    58.93319     Co( 1.00)
        H              1.00     1.00800     H ( 1.00)

     No symmetry found


                                    s                        frac. trans.

      isym =  1     identity                                     

 cryst.   s( 1) = (     1          0          0      )
                  (     0          1          0      )
                  (     0          0          1      )

 cart.    s( 1) = (  1.0000000  0.0000000  0.0000000 )
                  (  0.0000000  1.0000000  0.0000000 )
                  (  0.0000000  0.0000000  1.0000000 )


   Cartesian axes

     site n.     atom                  positions (alat units)
         1           Sr  tau(   1) = (   0.2508693   0.7491307   1.7574407  )
         2           O   tau(   2) = (   0.4985141   0.5014859   1.7715967  )
         3           Sr  tau(   3) = (   0.7482398   0.7454518   1.7648669  )
         4           Sr  tau(   4) = (   0.7441748   0.2558252   1.7667843  )
         5           Sr  tau(   5) = (   0.2508693   0.7491307   1.2696799  )
         6           Sr  tau(   6) = (   0.2508693   0.7491307   0.7632319  )
         7           Co  tau(   7) = (   0.4998914   0.5001086   1.0164559  )
         8           Co  tau(   8) = (   0.4936915   0.5063085   1.5135603  )
         9           O   tau(   9) = (   0.4988895   0.7610401   1.0164559  )
        10           O   tau(  10) = (   0.2389599   0.5011105   1.0164559  )
        11           O   tau(  11) = (   0.0070918   0.7374880   1.0164559  )
        12           O   tau(  12) = (   0.0088340   0.7405089   1.5135603  )
        13           O   tau(  13) = (   0.5066944   0.7415376   1.5135603  )
        14           O   tau(  14) = (   0.2584624   0.4933056   1.5135603  )
        15           O   tau(  15) = (   0.4985141   0.5014859   0.7773880  )
        16           O   tau(  16) = (   0.4985141   0.5014859   1.2555238  )
        17           Sr  tau(  17) = (   0.7482398   0.7454518   0.7706582  )
        18           Sr  tau(  18) = (   0.7482398   0.7454518   1.2622536  )
        19           Sr  tau(  19) = (   0.7441748   0.2558252   0.7725755  )
        20           Sr  tau(  20) = (   0.7441748   0.2558252   1.2603363  )
        21           O   tau(  21) = (   0.7322655   0.0078049   1.5135603  )
        22           O   tau(  22) = (   0.7558175   0.4996027   1.5135603  )
        23           O   tau(  23) = (   0.5003973   0.2441825   1.5135603  )
        24           O   tau(  24) = (   0.7527966   0.4978604   1.0164559  )
        25           O   tau(  25) = (   0.5021396   0.2472034   1.0164559  )
        26           O   tau(  26) = (   0.7517679   0.0000000   1.0164559  )
        27           O   tau(  27) = (   0.0114961   0.4948124   1.7455321  )
        28           O   tau(  28) = (   0.0048226   0.0077944   1.7715967  )
        29           Sr  tau(  29) = (   0.2545482   0.2517602   1.7648669  )
        30           O   tau(  30) = (   0.5048017   0.0015068   1.7786929  )
        31           Co  tau(  31) = (   0.0056869   0.5006215   1.0164559  )
        32           Co  tau(  32) = (   0.0065315   0.4997770   1.5135603  )
        33           Co  tau(  33) = (   0.0061999   0.0064171   1.0164559  )
        34           Co  tau(  34) = (   0.0000000   0.0126169   1.5135603  )
        35           O   tau(  35) = (   0.0114961   0.4948124   1.2815885  )
        36           O   tau(  36) = (   0.0114961   0.4948124   0.7513233  )
        37           O   tau(  37) = (   0.0051979   0.2673486   1.0164559  )
        38           O   tau(  38) = (   0.0130029   0.2478461   1.5135603  )
        39           O   tau(  39) = (   0.0048226   0.0077944   0.7773880  )
        40           O   tau(  40) = (   0.0048226   0.0077944   1.2555238  )
        41           Sr  tau(  41) = (   0.2545482   0.2517602   0.7706582  )
        42           Sr  tau(  42) = (   0.2545482   0.2517602   1.2622536  )
        43           Co  tau(  43) = (   0.4989925   0.0073160   1.5135603  )
        44           Co  tau(  44) = (   0.4998370   0.0064714   1.0164559  )
        45           O   tau(  45) = (   0.5048017   0.0015068   0.7844841  )
        46           O   tau(  46) = (   0.5048017   0.0015068   1.2484277  )
        47           O   tau(  47) = (   0.2621260   0.0059111   1.5135603  )
        48           O   tau(  48) = (   0.2591051   0.0041689   1.0164559  )
        49           H   tau(  49) = (   0.1421646   0.0000000   2.1602013  )

   Crystallographic axes

     site n.     atom                  positions (cryst. coord.)
         1           Sr  tau(   1) = (  0.2508693  0.7491307  0.6943562  )
         2           O   tau(   2) = (  0.4985141  0.5014859  0.6999492  )
         3           Sr  tau(   3) = (  0.7482398  0.7454518  0.6972903  )
         4           Sr  tau(   4) = (  0.7441748  0.2558252  0.6980478  )
         5           Sr  tau(   5) = (  0.2508693  0.7491307  0.5016443  )
         6           Sr  tau(   6) = (  0.2508693  0.7491307  0.3015492  )
         7           Co  tau(   7) = (  0.4998914  0.5001086  0.4015968  )
         8           Co  tau(   8) = (  0.4936915  0.5063085  0.5980003  )
         9           O   tau(   9) = (  0.4988895  0.7610401  0.4015968  )
        10           O   tau(  10) = (  0.2389599  0.5011105  0.4015968  )
        11           O   tau(  11) = (  0.0070918  0.7374880  0.4015968  )
        12           O   tau(  12) = (  0.0088340  0.7405089  0.5980003  )
        13           O   tau(  13) = (  0.5066944  0.7415376  0.5980003  )
        14           O   tau(  14) = (  0.2584624  0.4933056  0.5980003  )
        15           O   tau(  15) = (  0.4985141  0.5014859  0.3071422  )
        16           O   tau(  16) = (  0.4985141  0.5014859  0.4960513  )
        17           Sr  tau(  17) = (  0.7482398  0.7454518  0.3044833  )
        18           Sr  tau(  18) = (  0.7482398  0.7454518  0.4987103  )
        19           Sr  tau(  19) = (  0.7441748  0.2558252  0.3052408  )
        20           Sr  tau(  20) = (  0.7441748  0.2558252  0.4979527  )
        21           O   tau(  21) = (  0.7322655  0.0078049  0.5980003  )
        22           O   tau(  22) = (  0.7558175  0.4996027  0.5980003  )
        23           O   tau(  23) = (  0.5003973  0.2441825  0.5980003  )
        24           O   tau(  24) = (  0.7527966  0.4978604  0.4015968  )
        25           O   tau(  25) = (  0.5021396  0.2472034  0.4015968  )
        26           O   tau(  26) = (  0.7517679  0.0000000  0.4015968  )
        27           O   tau(  27) = (  0.0114961  0.4948124  0.6896512  )
        28           O   tau(  28) = (  0.0048226  0.0077944  0.6999492  )
        29           Sr  tau(  29) = (  0.2545482  0.2517602  0.6972903  )
        30           O   tau(  30) = (  0.5048017  0.0015068  0.7027529  )
        31           Co  tau(  31) = (  0.0056869  0.5006215  0.4015968  )
        32           Co  tau(  32) = (  0.0065315  0.4997770  0.5980003  )
        33           Co  tau(  33) = (  0.0061999  0.0064171  0.4015968  )
        34           Co  tau(  34) = (  0.0000000  0.0126169  0.5980003  )
        35           O   tau(  35) = (  0.0114961  0.4948124  0.5063494  )
        36           O   tau(  36) = (  0.0114961  0.4948124  0.2968442  )
        37           O   tau(  37) = (  0.0051979  0.2673486  0.4015968  )
        38           O   tau(  38) = (  0.0130029  0.2478461  0.5980003  )
        39           O   tau(  39) = (  0.0048226  0.0077944  0.3071422  )
        40           O   tau(  40) = (  0.0048226  0.0077944  0.4960513  )
        41           Sr  tau(  41) = (  0.2545482  0.2517602  0.3044833  )
        42           Sr  tau(  42) = (  0.2545482  0.2517602  0.4987103  )
        43           Co  tau(  43) = (  0.4989925  0.0073160  0.5980003  )
        44           Co  tau(  44) = (  0.4998370  0.0064714  0.4015968  )
        45           O   tau(  45) = (  0.5048017  0.0015068  0.3099459  )
        46           O   tau(  46) = (  0.5048017  0.0015068  0.4932477  )
        47           O   tau(  47) = (  0.2621260  0.0059111  0.5980003  )
        48           O   tau(  48) = (  0.2591051  0.0041689  0.4015968  )
        49           H   tau(  49) = (  0.1421646  0.0000000  0.8534850  )

     number of k points=    10  Gaussian smearing, width (Ry)=  0.0700
                       cart. coord. in units 2pi/alat
        k(    1) = (   0.0000000   0.0000000   0.0000000), wk =   0.1250000
        k(    2) = (   0.0000000   0.2500000   0.0000000), wk =   0.2500000
        k(    3) = (   0.0000000  -0.5000000   0.0000000), wk =   0.1250000
        k(    4) = (   0.2500000   0.2500000   0.0000000), wk =   0.2500000
        k(    5) = (   0.2500000  -0.5000000   0.0000000), wk =   0.2500000
        k(    6) = (  -0.5000000  -0.5000000   0.0000000), wk =   0.1250000
        k(    7) = (   0.2500000   0.0000000   0.0000000), wk =   0.2500000
        k(    8) = (  -0.5000000   0.0000000   0.0000000), wk =   0.1250000
        k(    9) = (  -0.2500000   0.2500000   0.0000000), wk =   0.2500000
        k(   10) = (  -0.5000000   0.2500000   0.0000000), wk =   0.2500000

                       cryst. coord.
        k(    1) = (   0.0000000   0.0000000   0.0000000), wk =   0.1250000
        k(    2) = (   0.0000000   0.2500000   0.0000000), wk =   0.2500000
        k(    3) = (   0.0000000  -0.5000000   0.0000000), wk =   0.1250000
        k(    4) = (   0.2500000   0.2500000   0.0000000), wk =   0.2500000
        k(    5) = (   0.2500000  -0.5000000   0.0000000), wk =   0.2500000
        k(    6) = (  -0.5000000  -0.5000000   0.0000000), wk =   0.1250000
        k(    7) = (   0.2500000   0.0000000   0.0000000), wk =   0.2500000
        k(    8) = (  -0.5000000   0.0000000   0.0000000), wk =   0.1250000
        k(    9) = (  -0.2500000   0.2500000   0.0000000), wk =   0.2500000
        k(   10) = (  -0.5000000   0.2500000   0.0000000), wk =   0.2500000

     Dense  grid:  1474595 G-vectors     FFT dimensions: ( 108, 108, 270)

     Smooth grid:   521381 G-vectors     FFT dimensions: (  75,  75, 192)

     Dynamical RAM for                 wfc:      10.61 MB

     Dynamical RAM for     wfc (w. buffer):      63.63 MB

     Dynamical RAM for           str. fact:       3.75 MB

     Dynamical RAM for           local pot:       0.00 MB

     Dynamical RAM for          nlocal pot:      24.28 MB

     Dynamical RAM for                qrad:       7.03 MB

     Dynamical RAM for          rho,v,vnew:       6.02 MB

     Dynamical RAM for               rhoin:       2.01 MB

     Dynamical RAM for            rho*nmix:      15.00 MB

     Dynamical RAM for           G-vectors:       3.68 MB

     Dynamical RAM for          h,s,v(r/c):       1.32 MB

     Dynamical RAM for          <psi|beta>:       2.29 MB

     Dynamical RAM for                 psi:      21.21 MB

     Dynamical RAM for                hpsi:      21.21 MB

     Dynamical RAM for                spsi:      21.21 MB

     Dynamical RAM for      wfcinit/wfcrot:      34.09 MB

     Dynamical RAM for           addusdens:     100.79 MB

     Estimated static dynamical RAM per process >     120.42 MB

     Estimated max dynamical RAM per process >     236.21 MB

     Estimated total dynamical RAM >      10.72 GB

     Check: negative core charge=   -0.000004

     Initial potential from superposition of free atoms

     starting charge     416.5961, renormalised to     425.0000

     negative rho (up, down):  7.826E-01 0.000E+00
     Starting wfcs are  373 randomized atomic wfcs
     Checking if some PAW data can be deallocated... 
       PAW data deallocated on   20 nodes for type:  2

     total cpu time spent up to now is        8.7 secs

     Self-consistent Calculation

     iteration #  1     ecut=    60.00 Ry     beta= 0.15
     Davidson diagonalization with overlap

---- Real-time Memory Report at c_bands before calling an iterative solver
             0 MiB given to the printing process from OS
             0 MiB allocation reported by mallinfo(arena+hblkhd)
        170500 MiB available memory on the node where the printing process lives
------------------
     ethr =  1.00E-02,  avg # of iterations =  2.0

     negative rho (up, down):  7.719E-01 0.000E+00

     total cpu time spent up to now is       23.6 secs

     total energy              =   -4404.78946610 Ry
     estimated scf accuracy    <      42.17029694 Ry

     iteration #  2     ecut=    60.00 Ry     beta= 0.15
     Davidson diagonalization with overlap

---- Real-time Memory Report at c_bands before calling an iterative solver
             0 MiB given to the printing process from OS
             0 MiB allocation reported by mallinfo(arena+hblkhd)
        170732 MiB available memory on the node where the printing process lives
------------------
     ethr =  9.92E-03,  avg # of iterations =  1.0

     negative rho (up, down):  7.532E-01 0.000E+00

     total cpu time spent up to now is       35.7 secs

     total energy              =   -4400.00650779 Ry
     estimated scf accuracy    <      26.73208972 Ry

     iteration #  3     ecut=    60.00 Ry     beta= 0.15
     Davidson diagonalization with overlap

---- Real-time Memory Report at c_bands before calling an iterative solver
             0 MiB given to the printing process from OS
             0 MiB allocation reported by mallinfo(arena+hblkhd)
        169972 MiB available memory on the node where the printing process lives
------------------
     ethr =  6.29E-03,  avg # of iterations =  2.0

     negative rho (up, down):  7.544E-01 0.000E+00

     total cpu time spent up to now is       49.4 secs

     total energy              =   -4402.39921189 Ry
     estimated scf accuracy    <      49.73769167 Ry

     iteration #  4     ecut=    60.00 Ry     beta= 0.15
     Davidson diagonalization with overlap

---- Real-time Memory Report at c_bands before calling an iterative solver
             0 MiB given to the printing process from OS
             0 MiB allocation reported by mallinfo(arena+hblkhd)
        169842 MiB available memory on the node where the printing process lives
------------------
     ethr =  6.29E-03,  avg # of iterations =  1.0

     negative rho (up, down):  7.411E-01 0.000E+00

     total cpu time spent up to now is       61.5 secs

     total energy              =   -4401.67426507 Ry
     estimated scf accuracy    <      29.73683638 Ry

     iteration #  5     ecut=    60.00 Ry     beta= 0.15
     Davidson diagonalization with overlap

---- Real-time Memory Report at c_bands before calling an iterative solver
             0 MiB given to the printing process from OS
             0 MiB allocation reported by mallinfo(arena+hblkhd)
        169827 MiB available memory on the node where the printing process lives
------------------
     ethr =  6.29E-03,  avg # of iterations =  1.0

     negative rho (up, down):  7.468E-01 0.000E+00

     total cpu time spent up to now is       74.1 secs

     total energy              =   -4399.92944824 Ry
     estimated scf accuracy    <      44.38004162 Ry

     iteration #  6     ecut=    60.00 Ry     beta= 0.15
     Davidson diagonalization with overlap

---- Real-time Memory Report at c_bands before calling an iterative solver
             0 MiB given to the printing process from OS
             0 MiB allocation reported by mallinfo(arena+hblkhd)
        169804 MiB available memory on the node where the printing process lives
------------------
     ethr =  6.29E-03,  avg # of iterations =  1.0

     negative rho (up, down):  7.421E-01 0.000E+00

     total cpu time spent up to now is       86.1 secs

     total energy              =   -4400.68067722 Ry
     estimated scf accuracy    <      11.77056374 Ry

     iteration #  7     ecut=    60.00 Ry     beta= 0.15
     Davidson diagonalization with overlap

---- Real-time Memory Report at c_bands before calling an iterative solver
             0 MiB given to the printing process from OS
             0 MiB allocation reported by mallinfo(arena+hblkhd)
        169788 MiB available memory on the node where the printing process lives
------------------
     ethr =  2.77E-03,  avg # of iterations =  1.1

     negative rho (up, down):  7.442E-01 0.000E+00

     total cpu time spent up to now is       98.2 secs

     total energy              =   -4400.79647371 Ry
     estimated scf accuracy    <       4.15123207 Ry

     iteration #  8     ecut=    60.00 Ry     beta= 0.15
     Davidson diagonalization with overlap

---- Real-time Memory Report at c_bands before calling an iterative solver
             0 MiB given to the printing process from OS
             0 MiB allocation reported by mallinfo(arena+hblkhd)
        169765 MiB available memory on the node where the printing process lives
------------------
     ethr =  9.77E-04,  avg # of iterations =  1.5

     negative rho (up, down):  7.529E-01 0.000E+00

     total cpu time spent up to now is      110.7 secs

     total energy              =   -4400.34335569 Ry
     estimated scf accuracy    <       3.71676782 Ry

     iteration #  9     ecut=    60.00 Ry     beta= 0.15
     Davidson diagonalization with overlap

---- Real-time Memory Report at c_bands before calling an iterative solver
             0 MiB given to the printing process from OS
             0 MiB allocation reported by mallinfo(arena+hblkhd)
        169748 MiB available memory on the node where the printing process lives
------------------
     ethr =  8.75E-04,  avg # of iterations =  3.0

     negative rho (up, down):  7.768E-01 0.000E+00

     total cpu time spent up to now is      124.9 secs

     total energy              =   -4399.84332516 Ry
     estimated scf accuracy    <      39.97904811 Ry

     iteration # 10     ecut=    60.00 Ry     beta= 0.15
     Davidson diagonalization with overlap

---- Real-time Memory Report at c_bands before calling an iterative solver
             0 MiB given to the printing process from OS
             0 MiB allocation reported by mallinfo(arena+hblkhd)
        169687 MiB available memory on the node where the printing process lives
------------------
     ethr =  8.75E-04,  avg # of iterations =  9.9

     negative rho (up, down):  7.785E-01 0.000E+00

     total cpu time spent up to now is      143.7 secs

     total energy              =   -4399.80148225 Ry
     estimated scf accuracy    <      11.85856595 Ry

     iteration # 11     ecut=    60.00 Ry     beta= 0.15
     Davidson diagonalization with overlap

---- Real-time Memory Report at c_bands before calling an iterative solver
             0 MiB given to the printing process from OS
             0 MiB allocation reported by mallinfo(arena+hblkhd)
        169291 MiB available memory on the node where the printing process lives
------------------
     ethr =  8.75E-04,  avg # of iterations =  1.0

     negative rho (up, down):  7.813E-01 0.000E+00

     total cpu time spent up to now is      155.6 secs

     total energy              =   -4400.12260889 Ry
     estimated scf accuracy    <       1.15283654 Ry

     iteration # 12     ecut=    60.00 Ry     beta= 0.15
     Davidson diagonalization with overlap

---- Real-time Memory Report at c_bands before calling an iterative solver
             0 MiB given to the printing process from OS
             0 MiB allocation reported by mallinfo(arena+hblkhd)
        169286 MiB available memory on the node where the printing process lives
------------------
     ethr =  2.71E-04,  avg # of iterations =  1.6

     negative rho (up, down):  7.881E-01 0.000E+00

     total cpu time spent up to now is      168.3 secs

     total energy              =   -4400.09178476 Ry
     estimated scf accuracy    <       0.78555680 Ry

     iteration # 13     ecut=    60.00 Ry     beta= 0.15
     Davidson diagonalization with overlap

---- Real-time Memory Report at c_bands before calling an iterative solver
             0 MiB given to the printing process from OS
             0 MiB allocation reported by mallinfo(arena+hblkhd)
        169303 MiB available memory on the node where the printing process lives
------------------
     ethr =  1.85E-04,  avg # of iterations =  4.7

     negative rho (up, down):  8.029E-01 0.000E+00

     total cpu time spent up to now is      183.0 secs

     total energy              =   -4400.07988263 Ry
     estimated scf accuracy    <       1.00702161 Ry

     iteration # 14     ecut=    60.00 Ry     beta= 0.15
     Davidson diagonalization with overlap

---- Real-time Memory Report at c_bands before calling an iterative solver
             0 MiB given to the printing process from OS
             0 MiB allocation reported by mallinfo(arena+hblkhd)
        169256 MiB available memory on the node where the printing process lives
------------------
     ethr =  1.85E-04,  avg # of iterations =  7.4

     negative rho (up, down):  8.017E-01 0.000E+00

     total cpu time spent up to now is      198.4 secs

     total energy              =   -4400.00770456 Ry
     estimated scf accuracy    <       2.13324718 Ry

     iteration # 15     ecut=    60.00 Ry     beta= 0.15
     Davidson diagonalization with overlap

---- Real-time Memory Report at c_bands before calling an iterative solver
             0 MiB given to the printing process from OS
             0 MiB allocation reported by mallinfo(arena+hblkhd)
        169238 MiB available memory on the node where the printing process lives
------------------
     ethr =  1.85E-04,  avg # of iterations =  2.3

     negative rho (up, down):  8.059E-01 0.000E+00

     total cpu time spent up to now is      211.6 secs

     total energy              =   -4400.04522853 Ry
     estimated scf accuracy    <       0.41055297 Ry

     iteration # 16     ecut=    60.00 Ry     beta= 0.15
     Davidson diagonalization with overlap

---- Real-time Memory Report at c_bands before calling an iterative solver
             0 MiB given to the printing process from OS
             0 MiB allocation reported by mallinfo(arena+hblkhd)
        169250 MiB available memory on the node where the printing process lives
------------------
     c_bands:  1 eigenvalues not converged
     ethr =  9.66E-05,  avg # of iterations =  6.6

     negative rho (up, down):  8.088E-01 0.000E+00

     total cpu time spent up to now is      227.5 secs

     total energy              =   -4400.02191599 Ry
     estimated scf accuracy    <       0.31993496 Ry

     iteration # 17     ecut=    60.00 Ry     beta= 0.15
     Davidson diagonalization with overlap

---- Real-time Memory Report at c_bands before calling an iterative solver
             0 MiB given to the printing process from OS
             0 MiB allocation reported by mallinfo(arena+hblkhd)
        169240 MiB available memory on the node where the printing process lives
------------------
     ethr =  7.53E-05,  avg # of iterations =  6.5

     negative rho (up, down):  8.177E-01 0.000E+00

     total cpu time spent up to now is      243.0 secs

     total energy              =   -4399.94521340 Ry
     estimated scf accuracy    <       0.30881507 Ry

     iteration # 18     ecut=    60.00 Ry     beta= 0.15
     Davidson diagonalization with overlap

---- Real-time Memory Report at c_bands before calling an iterative solver
             0 MiB given to the printing process from OS
             0 MiB allocation reported by mallinfo(arena+hblkhd)
        169236 MiB available memory on the node where the printing process lives
------------------
     c_bands:  1 eigenvalues not converged
     ethr =  7.27E-05,  avg # of iterations = 13.3

     negative rho (up, down):  8.301E-01 0.000E+00

     total cpu time spent up to now is      261.8 secs

     total energy              =   -4399.93782302 Ry
     estimated scf accuracy    <       0.21438484 Ry

     iteration # 19     ecut=    60.00 Ry     beta= 0.15
     Davidson diagonalization with overlap

---- Real-time Memory Report at c_bands before calling an iterative solver
             0 MiB given to the printing process from OS
             0 MiB allocation reported by mallinfo(arena+hblkhd)
        169199 MiB available memory on the node where the printing process lives
------------------
     ethr =  5.04E-05,  avg # of iterations =  3.8

     negative rho (up, down):  8.248E-01 0.000E+00

     total cpu time spent up to now is      275.9 secs

     total energy              =   -4399.93555684 Ry
     estimated scf accuracy    <       0.09561641 Ry

     iteration # 20     ecut=    60.00 Ry     beta= 0.15
     Davidson diagonalization with overlap

---- Real-time Memory Report at c_bands before calling an iterative solver
             0 MiB given to the printing process from OS
             0 MiB allocation reported by mallinfo(arena+hblkhd)
        169193 MiB available memory on the node where the printing process lives
------------------
     ethr =  2.25E-05,  avg # of iterations =  5.3

     negative rho (up, down):  8.215E-01 0.000E+00

     total cpu time spent up to now is      290.7 secs

     total energy              =   -4399.93039456 Ry
     estimated scf accuracy    <       0.13125857 Ry

     iteration # 21     ecut=    60.00 Ry     beta= 0.15
     Davidson diagonalization with overlap

---- Real-time Memory Report at c_bands before calling an iterative solver
             0 MiB given to the printing process from OS
             0 MiB allocation reported by mallinfo(arena+hblkhd)
        169178 MiB available memory on the node where the printing process lives
------------------
     ethr =  2.25E-05,  avg # of iterations =  2.4

     negative rho (up, down):  8.050E-01 0.000E+00

     total cpu time spent up to now is      304.4 secs

     total energy              =   -4399.91466616 Ry
     estimated scf accuracy    <       0.06854928 Ry

     iteration # 22     ecut=    60.00 Ry     beta= 0.15
     Davidson diagonalization with overlap

---- Real-time Memory Report at c_bands before calling an iterative solver
             0 MiB given to the printing process from OS
             0 MiB allocation reported by mallinfo(arena+hblkhd)
        169202 MiB available memory on the node where the printing process lives
------------------
     ethr =  1.61E-05,  avg # of iterations = 10.0

     negative rho (up, down):  8.093E-01 0.000E+00

     total cpu time spent up to now is      322.1 secs

     total energy              =   -4399.91522192 Ry
     estimated scf accuracy    <       0.03050417 Ry

     iteration # 23     ecut=    60.00 Ry     beta= 0.15
     Davidson diagonalization with overlap

---- Real-time Memory Report at c_bands before calling an iterative solver
             0 MiB given to the printing process from OS
             0 MiB allocation reported by mallinfo(arena+hblkhd)
        169170 MiB available memory on the node where the printing process lives
------------------
     ethr =  7.18E-06,  avg # of iterations =  9.5

     negative rho (up, down):  8.018E-01 0.000E+00

     total cpu time spent up to now is      338.4 secs

     total energy              =   -4399.91404550 Ry
     estimated scf accuracy    <       0.02007630 Ry

     iteration # 24     ecut=    60.00 Ry     beta= 0.15
     Davidson diagonalization with overlap

---- Real-time Memory Report at c_bands before calling an iterative solver
             0 MiB given to the printing process from OS
             0 MiB allocation reported by mallinfo(arena+hblkhd)
        169189 MiB available memory on the node where the printing process lives
------------------
     ethr =  4.72E-06,  avg # of iterations =  8.4

     negative rho (up, down):  7.940E-01 0.000E+00

     total cpu time spent up to now is      354.9 secs

     total energy              =   -4399.91320323 Ry
     estimated scf accuracy    <       0.01392114 Ry

     iteration # 25     ecut=    60.00 Ry     beta= 0.15
     Davidson diagonalization with overlap

---- Real-time Memory Report at c_bands before calling an iterative solver
             0 MiB given to the printing process from OS
             0 MiB allocation reported by mallinfo(arena+hblkhd)
        169205 MiB available memory on the node where the printing process lives
------------------
     ethr =  3.28E-06,  avg # of iterations =  7.1

     negative rho (up, down):  7.908E-01 0.000E+00

     total cpu time spent up to now is      370.6 secs

     total energy              =   -4399.91286909 Ry
     estimated scf accuracy    <       0.00990573 Ry

     iteration # 26     ecut=    60.00 Ry     beta= 0.15
     Davidson diagonalization with overlap

---- Real-time Memory Report at c_bands before calling an iterative solver
             0 MiB given to the printing process from OS
             0 MiB allocation reported by mallinfo(arena+hblkhd)
        169181 MiB available memory on the node where the printing process lives
------------------
     ethr =  2.33E-06,  avg # of iterations =  6.8

     negative rho (up, down):  7.899E-01 0.000E+00

     total cpu time spent up to now is      386.2 secs

     total energy              =   -4399.91246169 Ry
     estimated scf accuracy    <       0.00670314 Ry

     iteration # 27     ecut=    60.00 Ry     beta= 0.15
     Davidson diagonalization with overlap

---- Real-time Memory Report at c_bands before calling an iterative solver
             0 MiB given to the printing process from OS
             0 MiB allocation reported by mallinfo(arena+hblkhd)
        169164 MiB available memory on the node where the printing process lives
------------------
     c_bands:  1 eigenvalues not converged
     ethr =  1.58E-06,  avg # of iterations =  8.6

     negative rho (up, down):  8.002E-01 0.000E+00

     total cpu time spent up to now is      402.4 secs

     total energy              =   -4399.91188895 Ry
     estimated scf accuracy    <       0.00413664 Ry

     iteration # 28     ecut=    60.00 Ry     beta= 0.15
     Davidson diagonalization with overlap

---- Real-time Memory Report at c_bands before calling an iterative solver
             0 MiB given to the printing process from OS
             0 MiB allocation reported by mallinfo(arena+hblkhd)
        169156 MiB available memory on the node where the printing process lives
------------------
     ethr =  9.73E-07,  avg # of iterations = 12.8

     negative rho (up, down):  8.005E-01 0.000E+00

     total cpu time spent up to now is      423.1 secs

     total energy              =   -4399.91222852 Ry
     estimated scf accuracy    <       0.00082098 Ry

     iteration # 29     ecut=    60.00 Ry     beta= 0.15
     Davidson diagonalization with overlap

---- Real-time Memory Report at c_bands before calling an iterative solver
             0 MiB given to the printing process from OS
             0 MiB allocation reported by mallinfo(arena+hblkhd)
        168937 MiB available memory on the node where the printing process lives
------------------
     ethr =  1.93E-07,  avg # of iterations =  2.1

     negative rho (up, down):  7.978E-01 0.000E+00

     total cpu time spent up to now is      436.6 secs

     total energy              =   -4399.91208187 Ry
     estimated scf accuracy    <       0.00049716 Ry

     iteration # 30     ecut=    60.00 Ry     beta= 0.15
     Davidson diagonalization with overlap

---- Real-time Memory Report at c_bands before calling an iterative solver
             0 MiB given to the printing process from OS
             0 MiB allocation reported by mallinfo(arena+hblkhd)
        168998 MiB available memory on the node where the printing process lives
------------------
     ethr =  1.17E-07,  avg # of iterations =  6.1

     negative rho (up, down):  7.945E-01 0.000E+00

     total cpu time spent up to now is      451.7 secs

     total energy              =   -4399.91204836 Ry
     estimated scf accuracy    <       0.00021917 Ry

     iteration # 31     ecut=    60.00 Ry     beta= 0.15
     Davidson diagonalization with overlap

---- Real-time Memory Report at c_bands before calling an iterative solver
             0 MiB given to the printing process from OS
             0 MiB allocation reported by mallinfo(arena+hblkhd)
        168996 MiB available memory on the node where the printing process lives
------------------
     ethr =  5.16E-08,  avg # of iterations =  5.0

     negative rho (up, down):  7.939E-01 0.000E+00

     total cpu time spent up to now is      466.9 secs

     total energy              =   -4399.91206773 Ry
     estimated scf accuracy    <       0.00010553 Ry

     iteration # 32     ecut=    60.00 Ry     beta= 0.15
     Davidson diagonalization with overlap

---- Real-time Memory Report at c_bands before calling an iterative solver
             0 MiB given to the printing process from OS
             0 MiB allocation reported by mallinfo(arena+hblkhd)
        169017 MiB available memory on the node where the printing process lives
------------------
     ethr =  2.48E-08,  avg # of iterations =  1.9

     negative rho (up, down):  7.930E-01 0.000E+00

     total cpu time spent up to now is      480.1 secs

     total energy              =   -4399.91207656 Ry
     estimated scf accuracy    <       0.00005859 Ry

     iteration # 33     ecut=    60.00 Ry     beta= 0.15
     Davidson diagonalization with overlap

---- Real-time Memory Report at c_bands before calling an iterative solver
             0 MiB given to the printing process from OS
             0 MiB allocation reported by mallinfo(arena+hblkhd)
        169016 MiB available memory on the node where the printing process lives
------------------
     ethr =  1.38E-08,  avg # of iterations =  2.1

     negative rho (up, down):  7.925E-01 0.000E+00

     total cpu time spent up to now is      493.7 secs

     total energy              =   -4399.91208354 Ry
     estimated scf accuracy    <       0.00002838 Ry

     iteration # 34     ecut=    60.00 Ry     beta= 0.15
     Davidson diagonalization with overlap

---- Real-time Memory Report at c_bands before calling an iterative solver
             0 MiB given to the printing process from OS
             0 MiB allocation reported by mallinfo(arena+hblkhd)
        169010 MiB available memory on the node where the printing process lives
------------------
     ethr =  6.68E-09,  avg # of iterations =  2.8

     negative rho (up, down):  7.926E-01 0.000E+00

     total cpu time spent up to now is      507.4 secs

     total energy              =   -4399.91208365 Ry
     estimated scf accuracy    <       0.00001534 Ry

     iteration # 35     ecut=    60.00 Ry     beta= 0.15
     Davidson diagonalization with overlap

---- Real-time Memory Report at c_bands before calling an iterative solver
             0 MiB given to the printing process from OS
             0 MiB allocation reported by mallinfo(arena+hblkhd)
        169033 MiB available memory on the node where the printing process lives
------------------
     ethr =  3.61E-09,  avg # of iterations =  1.2

     negative rho (up, down):  7.924E-01 0.000E+00

     total cpu time spent up to now is      519.7 secs

     total energy              =   -4399.91208585 Ry
     estimated scf accuracy    <       0.00001088 Ry

     iteration # 36     ecut=    60.00 Ry     beta= 0.15
     Davidson diagonalization with overlap

---- Real-time Memory Report at c_bands before calling an iterative solver
             0 MiB given to the printing process from OS
             0 MiB allocation reported by mallinfo(arena+hblkhd)
        169036 MiB available memory on the node where the printing process lives
------------------
     ethr =  2.56E-09,  avg # of iterations =  2.8

     negative rho (up, down):  7.923E-01 0.000E+00

     total cpu time spent up to now is      533.3 secs

     total energy              =   -4399.91208552 Ry
     estimated scf accuracy    <       0.00000677 Ry

     iteration # 37     ecut=    60.00 Ry     beta= 0.15
     Davidson diagonalization with overlap

---- Real-time Memory Report at c_bands before calling an iterative solver
             0 MiB given to the printing process from OS
             0 MiB allocation reported by mallinfo(arena+hblkhd)
        169040 MiB available memory on the node where the printing process lives
------------------
     ethr =  1.59E-09,  avg # of iterations =  4.1

     negative rho (up, down):  7.924E-01 0.000E+00

     total cpu time spent up to now is      547.8 secs

     total energy              =   -4399.91208543 Ry
     estimated scf accuracy    <       0.00000304 Ry

     iteration # 38     ecut=    60.00 Ry     beta= 0.15
     Davidson diagonalization with overlap

---- Real-time Memory Report at c_bands before calling an iterative solver
             0 MiB given to the printing process from OS
             0 MiB allocation reported by mallinfo(arena+hblkhd)
        169065 MiB available memory on the node where the printing process lives
------------------
     ethr =  7.15E-10,  avg # of iterations =  2.2

     negative rho (up, down):  7.924E-01 0.000E+00

     total cpu time spent up to now is      561.3 secs

     total energy              =   -4399.91208536 Ry
     estimated scf accuracy    <       0.00000244 Ry

     iteration # 39     ecut=    60.00 Ry     beta= 0.15
     Davidson diagonalization with overlap

---- Real-time Memory Report at c_bands before calling an iterative solver
             0 MiB given to the printing process from OS
             0 MiB allocation reported by mallinfo(arena+hblkhd)
        169056 MiB available memory on the node where the printing process lives
------------------
     ethr =  5.74E-10,  avg # of iterations =  1.5

     negative rho (up, down):  7.924E-01 0.000E+00

     total cpu time spent up to now is      574.3 secs

     total energy              =   -4399.91208699 Ry
     estimated scf accuracy    <       0.00000190 Ry

     iteration # 40     ecut=    60.00 Ry     beta= 0.15
     Davidson diagonalization with overlap

---- Real-time Memory Report at c_bands before calling an iterative solver
             0 MiB given to the printing process from OS
             0 MiB allocation reported by mallinfo(arena+hblkhd)
        169063 MiB available memory on the node where the printing process lives
------------------
     ethr =  4.47E-10,  avg # of iterations =  3.5

     negative rho (up, down):  7.925E-01 0.000E+00

     total cpu time spent up to now is      588.5 secs

     total energy              =   -4399.91208727 Ry
     estimated scf accuracy    <       0.00000123 Ry

     iteration # 41     ecut=    60.00 Ry     beta= 0.15
     Davidson diagonalization with overlap

---- Real-time Memory Report at c_bands before calling an iterative solver
             0 MiB given to the printing process from OS
             0 MiB allocation reported by mallinfo(arena+hblkhd)
        169063 MiB available memory on the node where the printing process lives
------------------
     ethr =  2.89E-10,  avg # of iterations =  2.9

     negative rho (up, down):  7.925E-01 0.000E+00

     total cpu time spent up to now is      602.3 secs

     total energy              =   -4399.91208730 Ry
     estimated scf accuracy    <       0.00000084 Ry

     iteration # 42     ecut=    60.00 Ry     beta= 0.15
     Davidson diagonalization with overlap

---- Real-time Memory Report at c_bands before calling an iterative solver
             0 MiB given to the printing process from OS
             0 MiB allocation reported by mallinfo(arena+hblkhd)
        169074 MiB available memory on the node where the printing process lives
------------------
     ethr =  1.98E-10,  avg # of iterations =  2.2

     negative rho (up, down):  7.924E-01 0.000E+00

     total cpu time spent up to now is      615.9 secs

     total energy              =   -4399.91208733 Ry
     estimated scf accuracy    <       0.00000049 Ry

     iteration # 43     ecut=    60.00 Ry     beta= 0.15
     Davidson diagonalization with overlap

---- Real-time Memory Report at c_bands before calling an iterative solver
             0 MiB given to the printing process from OS
             0 MiB allocation reported by mallinfo(arena+hblkhd)
        169072 MiB available memory on the node where the printing process lives
------------------
     ethr =  1.15E-10,  avg # of iterations =  2.2

     negative rho (up, down):  7.924E-01 0.000E+00

     total cpu time spent up to now is      629.3 secs

     total energy              =   -4399.91208734 Ry
     estimated scf accuracy    <       0.00000032 Ry

     iteration # 44     ecut=    60.00 Ry     beta= 0.15
     Davidson diagonalization with overlap

---- Real-time Memory Report at c_bands before calling an iterative solver
             0 MiB given to the printing process from OS
             0 MiB allocation reported by mallinfo(arena+hblkhd)
        169072 MiB available memory on the node where the printing process lives
------------------
     ethr =  7.48E-11,  avg # of iterations =  1.9

     negative rho (up, down):  7.924E-01 0.000E+00

     total cpu time spent up to now is      642.6 secs

     total energy              =   -4399.91208732 Ry
     estimated scf accuracy    <       0.00000025 Ry

     iteration # 45     ecut=    60.00 Ry     beta= 0.15
     Davidson diagonalization with overlap

---- Real-time Memory Report at c_bands before calling an iterative solver
             0 MiB given to the printing process from OS
             0 MiB allocation reported by mallinfo(arena+hblkhd)
        169074 MiB available memory on the node where the printing process lives
------------------
     ethr =  5.96E-11,  avg # of iterations =  2.3

     negative rho (up, down):  7.924E-01 0.000E+00

     total cpu time spent up to now is      656.2 secs

     total energy              =   -4399.91208733 Ry
     estimated scf accuracy    <       0.00000014 Ry

     iteration # 46     ecut=    60.00 Ry     beta= 0.15
     Davidson diagonalization with overlap

---- Real-time Memory Report at c_bands before calling an iterative solver
             0 MiB given to the printing process from OS
             0 MiB allocation reported by mallinfo(arena+hblkhd)
        169075 MiB available memory on the node where the printing process lives
------------------
     ethr =  3.35E-11,  avg # of iterations =  1.5

     negative rho (up, down):  7.924E-01 0.000E+00

     total cpu time spent up to now is      669.0 secs

     total energy              =   -4399.91208733 Ry
     estimated scf accuracy    <       0.00000011 Ry

     iteration # 47     ecut=    60.00 Ry     beta= 0.15
     Davidson diagonalization with overlap

---- Real-time Memory Report at c_bands before calling an iterative solver
             0 MiB given to the printing process from OS
             0 MiB allocation reported by mallinfo(arena+hblkhd)
        169080 MiB available memory on the node where the printing process lives
------------------
     ethr =  2.64E-11,  avg # of iterations =  2.1

     negative rho (up, down):  7.924E-01 0.000E+00

     total cpu time spent up to now is      682.6 secs

     total energy              =   -4399.91208733 Ry
     estimated scf accuracy    <       0.00000007 Ry

     iteration # 48     ecut=    60.00 Ry     beta= 0.15
     Davidson diagonalization with overlap

---- Real-time Memory Report at c_bands before calling an iterative solver
             0 MiB given to the printing process from OS
             0 MiB allocation reported by mallinfo(arena+hblkhd)
        169087 MiB available memory on the node where the printing process lives
------------------
     ethr =  1.56E-11,  avg # of iterations =  2.0

     negative rho (up, down):  7.924E-01 0.000E+00

     total cpu time spent up to now is      696.0 secs

     total energy              =   -4399.91208734 Ry
     estimated scf accuracy    <       0.00000005 Ry

     iteration # 49     ecut=    60.00 Ry     beta= 0.15
     Davidson diagonalization with overlap

---- Real-time Memory Report at c_bands before calling an iterative solver
             0 MiB given to the printing process from OS
             0 MiB allocation reported by mallinfo(arena+hblkhd)
        169089 MiB available memory on the node where the printing process lives
------------------
     ethr =  1.16E-11,  avg # of iterations =  2.1

     negative rho (up, down):  7.924E-01 0.000E+00

     total cpu time spent up to now is      709.4 secs

     total energy              =   -4399.91208734 Ry
     estimated scf accuracy    <       0.00000004 Ry

     iteration # 50     ecut=    60.00 Ry     beta= 0.15
     Davidson diagonalization with overlap

---- Real-time Memory Report at c_bands before calling an iterative solver
             0 MiB given to the printing process from OS
             0 MiB allocation reported by mallinfo(arena+hblkhd)
        169094 MiB available memory on the node where the printing process lives
------------------
     ethr =  8.81E-12,  avg # of iterations =  2.1

     negative rho (up, down):  7.924E-01 0.000E+00

     total cpu time spent up to now is      722.9 secs

     total energy              =   -4399.91208734 Ry
     estimated scf accuracy    <       0.00000003 Ry

     iteration # 51     ecut=    60.00 Ry     beta= 0.15
     Davidson diagonalization with overlap

---- Real-time Memory Report at c_bands before calling an iterative solver
             0 MiB given to the printing process from OS
             0 MiB allocation reported by mallinfo(arena+hblkhd)
        169098 MiB available memory on the node where the printing process lives
------------------
     ethr =  5.89E-12,  avg # of iterations =  2.2

     negative rho (up, down):  7.924E-01 0.000E+00

     total cpu time spent up to now is      736.5 secs

     total energy              =   -4399.91208734 Ry
     estimated scf accuracy    <       0.00000002 Ry

     iteration # 52     ecut=    60.00 Ry     beta= 0.15
     Davidson diagonalization with overlap

---- Real-time Memory Report at c_bands before calling an iterative solver
             0 MiB given to the printing process from OS
             0 MiB allocation reported by mallinfo(arena+hblkhd)
        169104 MiB available memory on the node where the printing process lives
------------------
     ethr =  3.78E-12,  avg # of iterations =  2.9

     negative rho (up, down):  7.924E-01 0.000E+00

     total cpu time spent up to now is      750.3 secs

     total energy              =   -4399.91208734 Ry
     estimated scf accuracy    <       0.00000001 Ry

     iteration # 53     ecut=    60.00 Ry     beta= 0.15
     Davidson diagonalization with overlap

---- Real-time Memory Report at c_bands before calling an iterative solver
             0 MiB given to the printing process from OS
             0 MiB allocation reported by mallinfo(arena+hblkhd)
        169112 MiB available memory on the node where the printing process lives
------------------
     ethr =  2.54E-12,  avg # of iterations =  3.1

     negative rho (up, down):  7.924E-01 0.000E+00

     total cpu time spent up to now is      764.0 secs

     End of self-consistent calculation

          k = 0.0000 0.0000 0.0000 ( 65197 PWs)   bands (ev):

   -92.7077 -92.6535 -92.5615 -92.5134 -92.4543 -92.4139 -92.3971 -92.2716
   -56.0611 -56.0401 -55.9189 -55.9084 -55.9014 -55.8952 -55.8588 -55.8308
   -55.8158 -55.8133 -55.8036 -55.7625 -55.7436 -55.7059 -55.6878 -55.6541
   -55.6490 -55.6026 -55.5993 -55.5981 -55.5908 -55.5441 -55.5274 -55.4403
   -31.2845 -31.2647 -31.1508 -31.1236 -31.0650 -31.0361 -30.8428 -30.7248
   -29.8564 -29.8125 -29.7874 -29.6783 -15.0885 -15.0480 -14.9659 -14.8349
   -14.6473 -14.5227 -14.2277 -14.2101 -14.1785 -14.1356 -14.0911 -14.0816
   -14.0689 -14.0532 -14.0306 -14.0010 -13.9384 -13.7892 -13.6152 -13.5778
   -13.5456 -13.5189 -13.4990 -13.4489 -13.4124 -13.3288 -13.2577 -13.1650
   -13.1502 -13.1170 -13.1033 -13.0819 -13.0648 -13.0360 -13.0147 -12.9971
   -12.9743 -12.9549 -12.9441 -12.9293 -12.9148 -12.9029 -12.8205 -12.7966
   -12.7730 -12.6707 -12.6446 -12.6283 -12.3490 -12.2034 -12.0514 -11.9795
   -11.8698 -11.7955 -11.7845 -11.7616 -11.7441 -11.6803 -11.6631 -11.6283
   -11.5998 -11.4876 -11.4077 -11.4040  -2.9499  -2.7170  -2.4873  -2.3413
    -2.2775  -2.1349  -1.8284  -1.8144  -1.7937  -1.7110  -1.6915  -1.6232
    -1.6071  -1.5657  -1.5194  -1.3400  -1.1165  -1.0873  -0.9381  -0.9242
    -0.8793  -0.8619  -0.8161  -0.8001  -0.7415  -0.7153  -0.6456  -0.6318
    -0.5546  -0.4240  -0.4103  -0.3827  -0.3014  -0.2925  -0.2795  -0.2082
    -0.1369  -0.1026  -0.0415  -0.0179   0.0407   0.1257   0.1717   0.1953
     0.2037   0.4596   0.4747   0.6464   0.7140   0.7778   0.8236   0.9129
     0.9271   0.9455   1.0121   1.0396   1.0744   1.1324   1.2656   1.3215
     1.3432   1.3633   1.3721   1.4392   1.5143   1.6136   1.6268   1.6878
     1.7047   1.7453   1.7667   1.7721   1.8278   1.8801   1.8915   1.9258
     1.9614   2.0168   2.1474   2.2278   2.2748   2.2971   2.4416   2.4582
     2.5003   2.5059   2.6112   2.6487   2.6758   2.6939   2.7081   2.7667
     2.8203   2.8987   2.9316   2.9447   2.9508   3.0177   3.0213   3.0461
     3.0545   3.0629   3.0806   3.0817   3.0950   3.1002   3.1159   3.1247
     3.1308   3.1496   3.1704   3.1761   3.1875   3.2174   3.3285   3.4405
     4.1068   4.4163   4.7597   4.8663   5.0292   5.7982   5.9207   5.9794
     6.0226   6.3071   6.3544   6.4810   6.4914   6.7282   7.0053   7.0945
     7.1204   7.2861   7.3142   7.5601   7.6344   7.6586   7.6841   7.9014
     7.9452   8.0851   8.1123   8.1644   8.5595   8.6599   8.7199   8.8284

     occupation numbers 
     1.0000   1.0000   1.0000   1.0000   1.0000   1.0000   1.0000   1.0000
     1.0000   1.0000   1.0000   1.0000   1.0000   1.0000   1.0000   1.0000
     1.0000   1.0000   1.0000   1.0000   1.0000   1.0000   1.0000   1.0000
     1.0000   1.0000   1.0000   1.0000   1.0000   1.0000   1.0000   1.0000
     1.0000   1.0000   1.0000   1.0000   1.0000   1.0000   1.0000   1.0000
     1.0000   1.0000   1.0000   1.0000   1.0000   1.0000   1.0000   1.0000
     1.0000   1.0000   1.0000   1.0000   1.0000   1.0000   1.0000   1.0000
     1.0000   1.0000   1.0000   1.0000   1.0000   1.0000   1.0000   1.0000
     1.0000   1.0000   1.0000   1.0000   1.0000   1.0000   1.0000   1.0000
     1.0000   1.0000   1.0000   1.0000   1.0000   1.0000   1.0000   1.0000
     1.0000   1.0000   1.0000   1.0000   1.0000   1.0000   1.0000   1.0000
     1.0000   1.0000   1.0000   1.0000   1.0000   1.0000   1.0000   1.0000
     1.0000   1.0000   1.0000   1.0000   1.0000   1.0000   1.0000   1.0000
     1.0000   1.0000   1.0000   1.0000   1.0000   1.0000   1.0000   1.0000
     1.0000   1.0000   1.0000   1.0000   1.0000   1.0000   1.0000   1.0000
     1.0000   1.0000   1.0000   1.0000   1.0000   1.0000   1.0000   1.0000
     1.0000   1.0000   1.0000   1.0000   1.0000   1.0000   1.0000   1.0000
     1.0000   1.0000   1.0000   1.0000   1.0000   1.0000   1.0000   1.0000
     1.0000   1.0000   1.0000   1.0000   1.0000   1.0000   1.0000   1.0000
     1.0000   1.0000   1.0000   1.0000   0.9999   0.9999   0.9999   0.9998
     0.9998   0.9998   0.9997   0.9996   0.9996   0.9994   0.9989   0.9985
     0.9983   0.9982   0.9981   0.9974   0.9963   0.9944   0.9940   0.9923
     0.9918   0.9903   0.9895   0.9892   0.9866   0.9837   0.9830   0.9808
     0.9782   0.9735   0.9592   0.9476   0.9397   0.9356   0.9039   0.8997
     0.8882   0.8866   0.8537   0.8406   0.8306   0.8237   0.8182   0.7943
     0.7709   0.7342   0.7179   0.7113   0.7082   0.6732   0.6713   0.6579
     0.6533   0.6486   0.6388   0.6382   0.6308   0.6279   0.6190   0.6140
     0.6106   0.5998   0.5879   0.5846   0.5780   0.5605   0.4949   0.4290
     0.1213   0.0518   0.0163   0.0108   0.0056   0.0001   0.0001   0.0000
     0.0000   0.0000   0.0000   0.0000   0.0000   0.0000   0.0000   0.0000
     0.0000   0.0000   0.0000   0.0000   0.0000   0.0000   0.0000   0.0000
     0.0000   0.0000   0.0000   0.0000   0.0000   0.0000   0.0000   0.0000

          k = 0.0000 0.2500 0.0000 ( 65257 PWs)   bands (ev):

   -92.7077 -92.6535 -92.5615 -92.5134 -92.4543 -92.4139 -92.3971 -92.2716
   -56.0611 -56.0401 -55.9189 -55.9084 -55.9014 -55.8952 -55.8588 -55.8308
   -55.8158 -55.8133 -55.8036 -55.7625 -55.7436 -55.7059 -55.6878 -55.6541
   -55.6490 -55.6026 -55.5993 -55.5981 -55.5908 -55.5441 -55.5274 -55.4403
   -31.2844 -31.2646 -31.1505 -31.1238 -31.0654 -31.0362 -30.8425 -30.7251
   -29.8558 -29.8122 -29.7880 -29.6786 -15.0518 -15.0216 -14.9408 -14.8058
   -14.6868 -14.5140 -14.3732 -14.1935 -14.1614 -14.1398 -14.1117 -14.0538
   -14.0481 -14.0320 -14.0157 -13.9778 -13.8577 -13.8197 -13.6555 -13.6408
   -13.5873 -13.5520 -13.5103 -13.4659 -13.4296 -13.3508 -13.3153 -13.2756
   -13.2092 -13.1548 -13.1327 -13.1141 -13.0920 -13.0178 -12.9865 -12.9576
   -12.9397 -12.9107 -12.8847 -12.8748 -12.8613 -12.8123 -12.8017 -12.7811
   -12.7469 -12.6693 -12.5623 -12.4984 -12.4103 -12.2546 -12.1077 -12.0453
   -11.8352 -11.7923 -11.7646 -11.7362 -11.7196 -11.6722 -11.6609 -11.6385
   -11.6043 -11.5019 -11.4493 -11.4387  -2.8146  -2.5926  -2.4551  -2.2733
    -2.2298  -2.0656  -1.8473  -1.7616  -1.7486  -1.6921  -1.5889  -1.5732
    -1.5378  -1.5128  -1.4690  -1.2712  -1.1430  -1.1310  -1.0546  -1.0441
    -0.9398  -0.9092  -0.8534  -0.8284  -0.7859  -0.7226  -0.6968  -0.6642
    -0.6336  -0.6163  -0.5834  -0.5093  -0.4577  -0.3950  -0.2832  -0.2640
    -0.2210  -0.1039  -0.0708  -0.0041   0.0423   0.1087   0.1243   0.1505
     0.2072   0.5063   0.5949   0.6239   0.7149   0.7606   0.7789   0.9021
     0.9200   1.0122   1.0390   1.0670   1.1826   1.2725   1.2966   1.3202
     1.3389   1.3662   1.4257   1.4527   1.4790   1.5283   1.5619   1.5902
     1.6693   1.7034   1.7418   1.7952   1.8475   1.8861   1.9155   1.9459
     1.9656   2.0482   2.1812   2.2553   2.2786   2.3511   2.3971   2.4345
     2.4450   2.5071   2.5471   2.6291   2.6676   2.6820   2.7933   2.8590
     2.8899   2.9119   2.9337   2.9535   2.9604   2.9670   2.9829   3.0066
     3.0085   3.0280   3.0344   3.0427   3.0624   3.0740   3.0792   3.1007
     3.1121   3.1162   3.1511   3.1678   3.2323   3.5914   3.6491   3.8771
     4.2963   4.4146   4.6963   5.0151   5.0621   5.6274   5.7651   5.9061
     5.9687   6.0825   6.1147   6.1793   6.5982   6.8452   6.8948   7.1096
     7.3279   7.3786   7.4792   7.4952   7.6395   7.7349   7.7741   7.9478
     8.0381   8.0867   8.1637   8.2993   8.4053   8.6090   8.7642   8.8859

     occupation numbers 
     1.0000   1.0000   1.0000   1.0000   1.0000   1.0000   1.0000   1.0000
     1.0000   1.0000   1.0000   1.0000   1.0000   1.0000   1.0000   1.0000
     1.0000   1.0000   1.0000   1.0000   1.0000   1.0000   1.0000   1.0000
     1.0000   1.0000   1.0000   1.0000   1.0000   1.0000   1.0000   1.0000
     1.0000   1.0000   1.0000   1.0000   1.0000   1.0000   1.0000   1.0000
     1.0000   1.0000   1.0000   1.0000   1.0000   1.0000   1.0000   1.0000
     1.0000   1.0000   1.0000   1.0000   1.0000   1.0000   1.0000   1.0000
     1.0000   1.0000   1.0000   1.0000   1.0000   1.0000   1.0000   1.0000
     1.0000   1.0000   1.0000   1.0000   1.0000   1.0000   1.0000   1.0000
     1.0000   1.0000   1.0000   1.0000   1.0000   1.0000   1.0000   1.0000
     1.0000   1.0000   1.0000   1.0000   1.0000   1.0000   1.0000   1.0000
     1.0000   1.0000   1.0000   1.0000   1.0000   1.0000   1.0000   1.0000
     1.0000   1.0000   1.0000   1.0000   1.0000   1.0000   1.0000   1.0000
     1.0000   1.0000   1.0000   1.0000   1.0000   1.0000   1.0000   1.0000
     1.0000   1.0000   1.0000   1.0000   1.0000   1.0000   1.0000   1.0000
     1.0000   1.0000   1.0000   1.0000   1.0000   1.0000   1.0000   1.0000
     1.0000   1.0000   1.0000   1.0000   1.0000   1.0000   1.0000   1.0000
     1.0000   1.0000   1.0000   1.0000   1.0000   1.0000   1.0000   1.0000
     1.0000   1.0000   1.0000   1.0000   1.0000   1.0000   1.0000   1.0000
     1.0000   1.0000   1.0000   1.0000   0.9999   0.9999   0.9999   0.9998
     0.9998   0.9997   0.9996   0.9996   0.9992   0.9988   0.9987   0.9985
     0.9984   0.9981   0.9975   0.9972   0.9969   0.9961   0.9955   0.9949
     0.9929   0.9918   0.9904   0.9882   0.9856   0.9834   0.9815   0.9793
     0.9778   0.9705   0.9546   0.9431   0.9390   0.9249   0.9147   0.9057
     0.9031   0.8863   0.8744   0.8475   0.8336   0.8283   0.7829   0.7531
     0.7384   0.7277   0.7168   0.7068   0.7033   0.6999   0.6916   0.6791
     0.6781   0.6677   0.6642   0.6597   0.6489   0.6425   0.6396   0.6276
     0.6212   0.6189   0.5990   0.5893   0.5518   0.3434   0.3125   0.2040
     0.0736   0.0520   0.0205   0.0059   0.0048   0.0003   0.0001   0.0001
     0.0000   0.0000   0.0000   0.0000   0.0000   0.0000   0.0000   0.0000
     0.0000   0.0000   0.0000   0.0000   0.0000   0.0000   0.0000   0.0000
     0.0000   0.0000   0.0000   0.0000   0.0000   0.0000   0.0000   0.0000

          k = 0.0000-0.5000 0.0000 ( 65180 PWs)   bands (ev):

   -92.7077 -92.6535 -92.5615 -92.5134 -92.4543 -92.4139 -92.3971 -92.2716
   -56.0611 -56.0401 -55.9189 -55.9084 -55.9014 -55.8952 -55.8588 -55.8308
   -55.8158 -55.8133 -55.8036 -55.7625 -55.7437 -55.7059 -55.6878 -55.6541
   -55.6490 -55.6026 -55.5993 -55.5981 -55.5908 -55.5441 -55.5274 -55.4403
   -31.2842 -31.2645 -31.1501 -31.1240 -31.0658 -31.0364 -30.8423 -30.7254
   -29.8552 -29.8119 -29.7887 -29.6789 -15.0178 -14.9693 -14.9166 -14.7912
   -14.7045 -14.5671 -14.4174 -14.2938 -14.1644 -14.1014 -14.0561 -14.0456
   -13.9970 -13.9788 -13.9320 -13.9131 -13.8871 -13.8511 -13.8253 -13.7818
   -13.5907 -13.5336 -13.5187 -13.4632 -13.4396 -13.3656 -13.3425 -13.2897
   -13.2888 -13.2245 -13.1289 -13.1137 -13.0777 -13.0519 -12.9741 -12.9599
   -12.9354 -12.8889 -12.8716 -12.8570 -12.8118 -12.7688 -12.7256 -12.7118
   -12.6735 -12.6581 -12.5213 -12.4316 -12.3297 -12.3001 -12.2137 -12.1694
   -11.7892 -11.7869 -11.7596 -11.7221 -11.6879 -11.6769 -11.6341 -11.6301
   -11.5857 -11.5236 -11.5099 -11.4957  -2.6001  -2.5403  -2.3894  -2.3173
    -2.0368  -1.9525  -1.8254  -1.6875  -1.6515  -1.6311  -1.5512  -1.5213
    -1.4393  -1.4041  -1.3275  -1.2865  -1.2477  -1.2207  -1.1632  -1.1267
    -1.0799  -1.0446  -1.0105  -0.9765  -0.8665  -0.8214  -0.7878  -0.7865
    -0.7005  -0.6668  -0.6457  -0.5960  -0.5112  -0.4411  -0.3590  -0.3331
    -0.2259  -0.1804  -0.0366  -0.0030   0.0235   0.0848   0.1992   0.2479
     0.3846   0.4510   0.4583   0.5868   0.6297   0.7400   0.8650   0.9739
     1.0042   1.0413   1.0455   1.0891   1.1031   1.1392   1.1551   1.1656
     1.2759   1.3370   1.3661   1.3916   1.6496   1.6830   1.7000   1.7990
     1.8265   1.8540   1.8702   1.9013   1.9103   1.9251   1.9574   1.9931
     2.0222   2.0505   2.0594   2.0883   2.1434   2.2230   2.2511   2.4386
     2.5950   2.6053   2.6208   2.6571   2.6619   2.6732   2.7236   2.7374
     2.7746   2.7950   2.8305   2.8975   2.9054   2.9699   2.9924   3.0018
     3.0048   3.0238   3.0315   3.0350   3.0385   3.0447   3.0621   3.0707
     3.0829   3.1362   3.1436   3.1575   3.2115   4.1232   4.1544   4.1667
     4.2473   4.7462   4.8886   5.0234   5.1424   5.4103   5.4593   5.5864
     5.6915   5.9807   6.0307   6.0413   6.6869   6.8551   6.9509   7.2183
     7.3013   7.3198   7.4040   7.4940   7.7483   7.8062   7.8336   7.9035
     8.0917   8.1815   8.4193   8.5017   8.6608   8.7061   8.8106   8.8386

     occupation numbers 
     1.0000   1.0000   1.0000   1.0000   1.0000   1.0000   1.0000   1.0000
     1.0000   1.0000   1.0000   1.0000   1.0000   1.0000   1.0000   1.0000
     1.0000   1.0000   1.0000   1.0000   1.0000   1.0000   1.0000   1.0000
     1.0000   1.0000   1.0000   1.0000   1.0000   1.0000   1.0000   1.0000
     1.0000   1.0000   1.0000   1.0000   1.0000   1.0000   1.0000   1.0000
     1.0000   1.0000   1.0000   1.0000   1.0000   1.0000   1.0000   1.0000
     1.0000   1.0000   1.0000   1.0000   1.0000   1.0000   1.0000   1.0000
     1.0000   1.0000   1.0000   1.0000   1.0000   1.0000   1.0000   1.0000
     1.0000   1.0000   1.0000   1.0000   1.0000   1.0000   1.0000   1.0000
     1.0000   1.0000   1.0000   1.0000   1.0000   1.0000   1.0000   1.0000
     1.0000   1.0000   1.0000   1.0000   1.0000   1.0000   1.0000   1.0000
     1.0000   1.0000   1.0000   1.0000   1.0000   1.0000   1.0000   1.0000
     1.0000   1.0000   1.0000   1.0000   1.0000   1.0000   1.0000   1.0000
     1.0000   1.0000   1.0000   1.0000   1.0000   1.0000   1.0000   1.0000
     1.0000   1.0000   1.0000   1.0000   1.0000   1.0000   1.0000   1.0000
     1.0000   1.0000   1.0000   1.0000   1.0000   1.0000   1.0000   1.0000
     1.0000   1.0000   1.0000   1.0000   1.0000   1.0000   1.0000   1.0000
     1.0000   1.0000   1.0000   1.0000   1.0000   1.0000   1.0000   1.0000
     1.0000   1.0000   1.0000   1.0000   1.0000   1.0000   1.0000   1.0000
     1.0000   1.0000   1.0000   1.0000   1.0000   0.9999   0.9999   0.9998
     0.9997   0.9996   0.9996   0.9995   0.9995   0.9994   0.9993   0.9993
     0.9988   0.9984   0.9981   0.9979   0.9934   0.9925   0.9919   0.9880
     0.9867   0.9853   0.9843   0.9824   0.9818   0.9808   0.9785   0.9756
     0.9730   0.9703   0.9694   0.9663   0.9597   0.9483   0.9438   0.9047
     0.8591   0.8557   0.8504   0.8375   0.8357   0.8316   0.8120   0.8065
     0.7910   0.7821   0.7663   0.7348   0.7309   0.6984   0.6867   0.6817
     0.6801   0.6699   0.6658   0.6639   0.6620   0.6586   0.6491   0.6444
     0.6376   0.6075   0.6033   0.5953   0.5640   0.1165   0.1077   0.1043
     0.0843   0.0171   0.0099   0.0057   0.0034   0.0010   0.0007   0.0004
     0.0002   0.0000   0.0000   0.0000   0.0000   0.0000   0.0000   0.0000
     0.0000   0.0000   0.0000   0.0000   0.0000   0.0000   0.0000   0.0000
     0.0000   0.0000   0.0000   0.0000   0.0000   0.0000   0.0000   0.0000

          k = 0.2500 0.2500 0.0000 ( 65198 PWs)   bands (ev):

   -92.7077 -92.6535 -92.5615 -92.5134 -92.4543 -92.4139 -92.3971 -92.2716
   -56.0611 -56.0401 -55.9189 -55.9084 -55.9014 -55.8952 -55.8588 -55.8308
   -55.8158 -55.8133 -55.8036 -55.7625 -55.7436 -55.7059 -55.6879 -55.6541
   -55.6490 -55.6026 -55.5993 -55.5981 -55.5908 -55.5441 -55.5274 -55.4403
   -31.2827 -31.2663 -31.1504 -31.1234 -31.0653 -31.0366 -30.8426 -30.7252
   -29.8549 -29.8132 -29.7877 -29.6790 -15.0234 -14.9860 -14.9130 -14.7955
   -14.6792 -14.5539 -14.4790 -14.2762 -14.1170 -14.1045 -14.0699 -14.0399
   -14.0179 -13.9911 -13.9610 -13.9418 -13.8497 -13.8338 -13.6720 -13.6587
   -13.6293 -13.6082 -13.5662 -13.5192 -13.4736 -13.4336 -13.3286 -13.2904
   -13.2368 -13.1504 -13.1125 -13.0941 -13.0564 -13.0266 -13.0129 -12.9686
   -12.9533 -12.9334 -12.9009 -12.8657 -12.7912 -12.7667 -12.7503 -12.7207
   -12.7128 -12.6694 -12.5219 -12.4588 -12.4094 -12.2837 -12.1361 -12.0924
   -11.8075 -11.7757 -11.7650 -11.7580 -11.6952 -11.6605 -11.6538 -11.6184
   -11.6110 -11.5185 -11.4775 -11.4601  -2.6764  -2.4669  -2.3491  -2.2557
    -2.1340  -2.0688  -1.8722  -1.7267  -1.7068  -1.6787  -1.5838  -1.5480
    -1.4559  -1.4282  -1.3783  -1.2468  -1.1987  -1.1265  -1.0814  -1.0373
    -1.0134  -0.9885  -0.9467  -0.9308  -0.8405  -0.7908  -0.7267  -0.6771
    -0.6476  -0.5960  -0.5835  -0.5204  -0.4707  -0.4159  -0.3789  -0.2953
    -0.2424  -0.2134  -0.1735  -0.1184  -0.0518  -0.0087   0.0180   0.0901
     0.1326   0.3988   0.5447   0.5824   0.6362   0.6794   0.7402   0.7932
     0.8520   0.8890   1.1622   1.2307   1.3044   1.3298   1.3770   1.4100
     1.4449   1.4816   1.4995   1.5271   1.5682   1.5785   1.5942   1.6381
     1.6805   1.7173   1.7670   1.8100   1.8181   1.8513   1.8883   1.9432
     1.9730   2.0921   2.1632   2.1998   2.2277   2.2930   2.3581   2.3866
     2.4229   2.4461   2.4598   2.5738   2.6075   2.6942   2.8243   2.8686
     2.8876   2.8923   2.9085   2.9224   2.9355   2.9483   2.9559   2.9676
     2.9812   2.9916   3.0131   3.0183   3.0292   3.0494   3.0631   3.0715
     3.1032   3.4046   3.4995   3.5386   3.6039   3.6534   3.8578   3.9478
     4.2960   4.5065   4.7070   4.9698   5.1690   5.6351   5.6855   5.7376
     5.8266   5.8864   5.9902   6.1726   6.2089   6.7663   6.8979   7.0413
     7.1276   7.5496   7.5988   7.7030   7.7132   7.8658   7.9171   8.0933
     8.1589   8.1818   8.2750   8.3151   8.4315   8.4619   8.6892   8.8379

     occupation numbers 
     1.0000   1.0000   1.0000   1.0000   1.0000   1.0000   1.0000   1.0000
     1.0000   1.0000   1.0000   1.0000   1.0000   1.0000   1.0000   1.0000
     1.0000   1.0000   1.0000   1.0000   1.0000   1.0000   1.0000   1.0000
     1.0000   1.0000   1.0000   1.0000   1.0000   1.0000   1.0000   1.0000
     1.0000   1.0000   1.0000   1.0000   1.0000   1.0000   1.0000   1.0000
     1.0000   1.0000   1.0000   1.0000   1.0000   1.0000   1.0000   1.0000
     1.0000   1.0000   1.0000   1.0000   1.0000   1.0000   1.0000   1.0000
     1.0000   1.0000   1.0000   1.0000   1.0000   1.0000   1.0000   1.0000
     1.0000   1.0000   1.0000   1.0000   1.0000   1.0000   1.0000   1.0000
     1.0000   1.0000   1.0000   1.0000   1.0000   1.0000   1.0000   1.0000
     1.0000   1.0000   1.0000   1.0000   1.0000   1.0000   1.0000   1.0000
     1.0000   1.0000   1.0000   1.0000   1.0000   1.0000   1.0000   1.0000
     1.0000   1.0000   1.0000   1.0000   1.0000   1.0000   1.0000   1.0000
     1.0000   1.0000   1.0000   1.0000   1.0000   1.0000   1.0000   1.0000
     1.0000   1.0000   1.0000   1.0000   1.0000   1.0000   1.0000   1.0000
     1.0000   1.0000   1.0000   1.0000   1.0000   1.0000   1.0000   1.0000
     1.0000   1.0000   1.0000   1.0000   1.0000   1.0000   1.0000   1.0000
     1.0000   1.0000   1.0000   1.0000   1.0000   1.0000   1.0000   1.0000
     1.0000   1.0000   1.0000   1.0000   1.0000   1.0000   1.0000   1.0000
     1.0000   1.0000   1.0000   1.0000   1.0000   1.0000   0.9999   0.9999
     0.9999   0.9998   0.9993   0.9990   0.9986   0.9984   0.9980   0.9977
     0.9973   0.9968   0.9966   0.9961   0.9954   0.9951   0.9948   0.9937
     0.9925   0.9913   0.9894   0.9875   0.9871   0.9854   0.9832   0.9795
     0.9772   0.9659   0.9571   0.9519   0.9476   0.9363   0.9234   0.9171
     0.9086   0.9028   0.8992   0.8660   0.8549   0.8236   0.7691   0.7486
     0.7396   0.7373   0.7294   0.7225   0.7159   0.7095   0.7056   0.6995
     0.6925   0.6871   0.6757   0.6729   0.6670   0.6561   0.6485   0.6439
     0.6262   0.4500   0.3949   0.3727   0.3366   0.3102   0.2122   0.1756
     0.0736   0.0390   0.0197   0.0071   0.0030   0.0003   0.0002   0.0002
     0.0001   0.0001   0.0000   0.0000   0.0000   0.0000   0.0000   0.0000
     0.0000   0.0000   0.0000   0.0000   0.0000   0.0000   0.0000   0.0000
     0.0000   0.0000   0.0000   0.0000   0.0000   0.0000   0.0000   0.0000

          k = 0.2500-0.5000 0.0000 ( 65138 PWs)   bands (ev):

   -92.7077 -92.6535 -92.5615 -92.5134 -92.4543 -92.4139 -92.3971 -92.2716
   -56.0611 -56.0401 -55.9189 -55.9084 -55.9014 -55.8952 -55.8588 -55.8308
   -55.8158 -55.8133 -55.8036 -55.7625 -55.7436 -55.7059 -55.6878 -55.6541
   -55.6490 -55.6026 -55.5993 -55.5981 -55.5908 -55.5441 -55.5274 -55.4403
   -31.2825 -31.2661 -31.1500 -31.1236 -31.0657 -31.0368 -30.8424 -30.7255
   -29.8542 -29.8129 -29.7883 -29.6793 -14.9872 -14.9423 -14.8733 -14.7605
   -14.7283 -14.6074 -14.5206 -14.3911 -14.0813 -14.0322 -14.0033 -13.9822
   -13.9665 -13.9506 -13.9169 -13.9015 -13.8681 -13.8268 -13.8089 -13.7754
   -13.6735 -13.6247 -13.5837 -13.5450 -13.4953 -13.4731 -13.3861 -13.3437
   -13.2133 -13.1490 -13.1329 -13.0710 -13.0349 -13.0301 -12.9937 -12.9743
   -12.9495 -12.9187 -12.8706 -12.8529 -12.8088 -12.7837 -12.7383 -12.6809
   -12.6610 -12.6301 -12.5279 -12.4110 -12.3272 -12.2749 -12.2037 -12.1735
   -11.7831 -11.7711 -11.7601 -11.7331 -11.7016 -11.6733 -11.6319 -11.6041
   -11.5821 -11.5367 -11.5111 -11.4997  -2.4585  -2.3922  -2.2633  -2.1861
    -2.0573  -1.9724  -1.8499  -1.6989  -1.6461  -1.6235  -1.5599  -1.5468
    -1.4502  -1.3834  -1.2980  -1.2492  -1.2397  -1.1757  -1.1336  -1.0990
    -1.0521  -1.0150  -0.9802  -0.9397  -0.9290  -0.8833  -0.8543  -0.8133
    -0.7823  -0.7144  -0.6137  -0.5730  -0.4959  -0.4318  -0.3843  -0.3400
    -0.3181  -0.2696  -0.1061  -0.0958   0.0090   0.0480   0.0555   0.1017
     0.1279   0.1689   0.1945   0.2671   0.5322   0.6257   0.7052   0.7602
     1.0199   1.0471   1.1348   1.1607   1.3277   1.3608   1.4039   1.4253
     1.4427   1.4627   1.5238   1.5697   1.6060   1.6875   1.7695   1.8121
     1.8347   1.8432   1.8801   1.8945   1.8993   1.9444   1.9573   1.9738
     2.0142   2.0273   2.0507   2.0829   2.1424   2.1779   2.2571   2.3980
     2.5476   2.5642   2.5827   2.6094   2.6345   2.6607   2.6842   2.6945
     2.7198   2.7924   2.8446   2.8712   2.8878   2.9013   2.9132   2.9265
     2.9402   2.9589   2.9659   2.9966   3.0102   3.0244   3.0350   3.0437
     3.0539   3.5812   3.5989   3.7357   3.7846   4.1273   4.1709   4.1966
     4.3058   4.7638   4.9119   5.0592   5.1180   5.2980   5.4266   5.5989
     5.6177   5.7593   5.7804   6.0932   6.3951   6.4866   6.6219   6.9587
     7.4467   7.5214   7.6996   7.7722   7.8087   7.8744   8.0371   8.1109
     8.2953   8.3920   8.4262   8.5223   8.5371   8.6175   8.7085   8.7690

     occupation numbers 
     1.0000   1.0000   1.0000   1.0000   1.0000   1.0000   1.0000   1.0000
     1.0000   1.0000   1.0000   1.0000   1.0000   1.0000   1.0000   1.0000
     1.0000   1.0000   1.0000   1.0000   1.0000   1.0000   1.0000   1.0000
     1.0000   1.0000   1.0000   1.0000   1.0000   1.0000   1.0000   1.0000
     1.0000   1.0000   1.0000   1.0000   1.0000   1.0000   1.0000   1.0000
     1.0000   1.0000   1.0000   1.0000   1.0000   1.0000   1.0000   1.0000
     1.0000   1.0000   1.0000   1.0000   1.0000   1.0000   1.0000   1.0000
     1.0000   1.0000   1.0000   1.0000   1.0000   1.0000   1.0000   1.0000
     1.0000   1.0000   1.0000   1.0000   1.0000   1.0000   1.0000   1.0000
     1.0000   1.0000   1.0000   1.0000   1.0000   1.0000   1.0000   1.0000
     1.0000   1.0000   1.0000   1.0000   1.0000   1.0000   1.0000   1.0000
     1.0000   1.0000   1.0000   1.0000   1.0000   1.0000   1.0000   1.0000
     1.0000   1.0000   1.0000   1.0000   1.0000   1.0000   1.0000   1.0000
     1.0000   1.0000   1.0000   1.0000   1.0000   1.0000   1.0000   1.0000
     1.0000   1.0000   1.0000   1.0000   1.0000   1.0000   1.0000   1.0000
     1.0000   1.0000   1.0000   1.0000   1.0000   1.0000   1.0000   1.0000
     1.0000   1.0000   1.0000   1.0000   1.0000   1.0000   1.0000   1.0000
     1.0000   1.0000   1.0000   1.0000   1.0000   1.0000   1.0000   1.0000
     1.0000   1.0000   1.0000   1.0000   1.0000   1.0000   1.0000   1.0000
     1.0000   1.0000   1.0000   1.0000   1.0000   1.0000   0.9999   0.9999
     0.9997   0.9996   0.9994   0.9993   0.9985   0.9982   0.9978   0.9975
     0.9973   0.9971   0.9962   0.9953   0.9945   0.9923   0.9893   0.9874
     0.9863   0.9858   0.9837   0.9829   0.9825   0.9794   0.9785   0.9772
     0.9737   0.9725   0.9703   0.9669   0.9598   0.9550   0.9427   0.9145
     0.8743   0.8691   0.8632   0.8543   0.8456   0.8362   0.8274   0.8235
     0.8136   0.7833   0.7598   0.7474   0.7395   0.7329   0.7271   0.7204
     0.7136   0.7041   0.7005   0.6844   0.6772   0.6696   0.6639   0.6592
     0.6536   0.3490   0.3394   0.2685   0.2451   0.1153   0.1032   0.0965
     0.0716   0.0160   0.0090   0.0049   0.0038   0.0017   0.0009   0.0004
     0.0003   0.0001   0.0001   0.0000   0.0000   0.0000   0.0000   0.0000
     0.0000   0.0000   0.0000   0.0000   0.0000   0.0000   0.0000   0.0000
     0.0000   0.0000   0.0000   0.0000   0.0000   0.0000   0.0000   0.0000

          k =-0.5000-0.5000 0.0000 ( 65132 PWs)   bands (ev):

   -92.7077 -92.6535 -92.5615 -92.5134 -92.4543 -92.4139 -92.3971 -92.2716
   -56.0611 -56.0401 -55.9189 -55.9084 -55.9014 -55.8952 -55.8588 -55.8308
   -55.8158 -55.8133 -55.8036 -55.7625 -55.7436 -55.7059 -55.6878 -55.6541
   -55.6490 -55.6026 -55.5993 -55.5981 -55.5908 -55.5441 -55.5274 -55.4403
   -31.2804 -31.2682 -31.1499 -31.1232 -31.0656 -31.0371 -30.8425 -30.7256
   -29.8532 -29.8139 -29.7879 -29.6798 -14.9404 -14.9152 -14.7977 -14.7855
   -14.6937 -14.6539 -14.6254 -14.4910 -13.9933 -13.9818 -13.9464 -13.9296
   -13.9103 -13.8990 -13.8675 -13.8567 -13.8455 -13.8367 -13.8220 -13.7425
   -13.7336 -13.7121 -13.6748 -13.6701 -13.5673 -13.5622 -13.4302 -13.3883
   -13.1637 -13.1304 -13.0587 -13.0454 -13.0326 -13.0111 -12.9910 -12.9831
   -12.9771 -12.9609 -12.8705 -12.8388 -12.8077 -12.7946 -12.7567 -12.6888
   -12.6115 -12.6035 -12.5443 -12.3918 -12.3236 -12.2472 -12.1933 -12.1809
   -11.7794 -11.7674 -11.7496 -11.7327 -11.6980 -11.6797 -11.6458 -11.5843
   -11.5646 -11.5588 -11.5088 -11.5055  -2.2348  -2.1589  -2.1488  -2.0747
    -2.0372  -1.9592  -1.8914  -1.7658  -1.6493  -1.6195  -1.5803  -1.5224
    -1.4509  -1.4367  -1.3655  -1.3225  -1.2067  -1.1779  -1.1299  -1.0994
    -1.0354  -0.9900  -0.9715  -0.9592  -0.9065  -0.8601  -0.8469  -0.7329
    -0.6748  -0.6283  -0.5792  -0.5529  -0.5419  -0.5060  -0.4640  -0.4305
    -0.4187  -0.3313  -0.2668  -0.2177  -0.1954  -0.1196  -0.0678  -0.0506
     0.0044   0.0295   0.0426   0.0614   0.5023   0.5419   0.6527   0.6722
     1.0532   1.0667   1.0979   1.1380   1.4123   1.4321   1.4386   1.4768
     1.6079   1.7042   1.7301   1.7658   1.7807   1.8092   1.8171   1.8488
     1.8567   1.8695   1.8842   1.9395   1.9407   1.9698   1.9836   2.0038
     2.0160   2.0534   2.0826   2.0952   2.1266   2.1558   2.2229   2.2879
     2.5588   2.5913   2.6116   2.6305   2.6372   2.6699   2.6735   2.6929
     2.7046   2.7180   2.7341   2.7542   2.7935   2.8225   2.8323   2.8474
     2.8664   2.8810   2.8918   2.9026   2.9232   3.0051   3.0096   3.0404
     3.0500   4.0167   4.0292   4.0540   4.0667   4.3142   4.3908   4.4116
     4.6519   4.7741   4.8575   4.9858   5.0694   5.0933   5.1978   5.2952
     5.3753   5.8477   5.8939   5.9534   6.0286   6.3367   6.5283   6.5592
     7.7154   7.8299   7.8736   7.9086   7.9147   7.9728   8.0108   8.0821
     8.2587   8.2763   8.5181   8.5751   8.6050   8.6283   8.6529   8.7380

     occupation numbers 
     1.0000   1.0000   1.0000   1.0000   1.0000   1.0000   1.0000   1.0000
[...]
     0.7422   0.7314   0.7180   0.7151   0.7041   0.6989   0.6915   0.6797
     0.6774   0.6626   0.6583   0.6543   0.6471   0.6362   0.6214   0.6195
     0.6153   0.6104   0.6054   0.5995   0.5275   0.3502   0.3148   0.2052
     0.0787   0.0466   0.0221   0.0057   0.0050   0.0003   0.0001   0.0001
     0.0000   0.0000   0.0000   0.0000   0.0000   0.0000   0.0000   0.0000
     0.0000   0.0000   0.0000   0.0000   0.0000   0.0000   0.0000   0.0000
     0.0000   0.0000   0.0000   0.0000   0.0000   0.0000   0.0000   0.0000

          k =-0.5000 0.0000 0.0000 ( 65180 PWs)   bands (ev):

   -92.7077 -92.6535 -92.5615 -92.5134 -92.4543 -92.4139 -92.3971 -92.2716
   -56.0611 -56.0401 -55.9189 -55.9084 -55.9014 -55.8952 -55.8588 -55.8308
   -55.8158 -55.8133 -55.8036 -55.7625 -55.7436 -55.7059 -55.6878 -55.6541
   -55.6490 -55.6026 -55.5993 -55.5981 -55.5908 -55.5441 -55.5274 -55.4403
   -31.2808 -31.2685 -31.1506 -31.1228 -31.0649 -31.0369 -30.8430 -30.7250
   -29.8545 -29.8145 -29.7866 -29.6791 -15.0225 -14.9714 -14.9095 -14.8056
   -14.6965 -14.5533 -14.4076 -14.2743 -14.1403 -14.1343 -14.1152 -14.0587
   -13.9997 -13.9670 -13.9196 -13.9186 -13.9007 -13.8461 -13.8398 -13.7330
   -13.5618 -13.5419 -13.5019 -13.4948 -13.4538 -13.3714 -13.3256 -13.2747
   -13.2510 -13.2479 -13.1364 -13.0612 -13.0515 -13.0319 -13.0183 -13.0158
   -12.9561 -12.9475 -12.9387 -12.9196 -12.7748 -12.6768 -12.6570 -12.6470
   -12.6425 -12.6371 -12.5474 -12.5005 -12.3731 -12.3335 -12.1883 -12.1478
   -11.7867 -11.7652 -11.7585 -11.7432 -11.7253 -11.6841 -11.6214 -11.6043
   -11.5719 -11.5257 -11.5164 -11.5010  -2.5898  -2.5512  -2.3869  -2.3481
    -2.0353  -1.9604  -1.8108  -1.6941  -1.6552  -1.6085  -1.5606  -1.5356
    -1.4132  -1.3684  -1.3535  -1.2705  -1.2357  -1.2207  -1.1884  -1.1320
    -1.0628  -1.0327  -1.0059  -0.9119  -0.8623  -0.8134  -0.7809  -0.7594
    -0.7304  -0.6818  -0.6574  -0.6194  -0.5228  -0.4481  -0.3858  -0.3227
    -0.1640  -0.1189  -0.0642  -0.0364   0.0228   0.0468   0.1803   0.2151
     0.2618   0.4325   0.5313   0.5769   0.6603   0.7233   0.8503   0.8615
     0.9940   1.0213   1.0758   1.1026   1.1421   1.1529   1.1970   1.2233
     1.2881   1.3372   1.3841   1.3926   1.6876   1.6945   1.7128   1.7291
     1.8444   1.8588   1.8652   1.8806   1.9119   1.9243   1.9621   1.9898
     2.0089   2.0702   2.0803   2.1336   2.1550   2.2111   2.3259   2.4173
     2.4934   2.5072   2.5901   2.6196   2.6396   2.7095   2.7217   2.7313
     2.7599   2.7908   2.8591   2.8845   2.9217   2.9484   2.9947   2.9967
     3.0016   3.0094   3.0274   3.0360   3.0507   3.0604   3.0748   3.0829
     3.1017   3.1224   3.1268   3.2545   3.2680   4.0936   4.1176   4.1740
     4.3100   4.7839   4.8538   5.0382   5.0428   5.4899   5.5032   5.5910
     5.6368   5.9752   6.0245   6.0532   6.7230   6.7958   7.0053   7.2752
     7.3034   7.3552   7.3836   7.4696   7.5757   7.7480   7.7752   7.8833
     8.1010   8.2709   8.4954   8.5283   8.6396   8.7197   8.7549   8.8228

     occupation numbers 
     1.0000   1.0000   1.0000   1.0000   1.0000   1.0000   1.0000   1.0000
     1.0000   1.0000   1.0000   1.0000   1.0000   1.0000   1.0000   1.0000
     1.0000   1.0000   1.0000   1.0000   1.0000   1.0000   1.0000   1.0000
     1.0000   1.0000   1.0000   1.0000   1.0000   1.0000   1.0000   1.0000
     1.0000   1.0000   1.0000   1.0000   1.0000   1.0000   1.0000   1.0000
     1.0000   1.0000   1.0000   1.0000   1.0000   1.0000   1.0000   1.0000
     1.0000   1.0000   1.0000   1.0000   1.0000   1.0000   1.0000   1.0000
     1.0000   1.0000   1.0000   1.0000   1.0000   1.0000   1.0000   1.0000
     1.0000   1.0000   1.0000   1.0000   1.0000   1.0000   1.0000   1.0000
     1.0000   1.0000   1.0000   1.0000   1.0000   1.0000   1.0000   1.0000
     1.0000   1.0000   1.0000   1.0000   1.0000   1.0000   1.0000   1.0000
     1.0000   1.0000   1.0000   1.0000   1.0000   1.0000   1.0000   1.0000
     1.0000   1.0000   1.0000   1.0000   1.0000   1.0000   1.0000   1.0000
     1.0000   1.0000   1.0000   1.0000   1.0000   1.0000   1.0000   1.0000
     1.0000   1.0000   1.0000   1.0000   1.0000   1.0000   1.0000   1.0000
     1.0000   1.0000   1.0000   1.0000   1.0000   1.0000   1.0000   1.0000
     1.0000   1.0000   1.0000   1.0000   1.0000   1.0000   1.0000   1.0000
     1.0000   1.0000   1.0000   1.0000   1.0000   1.0000   1.0000   1.0000
     1.0000   1.0000   1.0000   1.0000   1.0000   1.0000   1.0000   1.0000
     1.0000   1.0000   1.0000   1.0000   1.0000   0.9999   0.9999   0.9999
     0.9997   0.9997   0.9996   0.9995   0.9994   0.9994   0.9992   0.9991
     0.9987   0.9984   0.9980   0.9979   0.9923   0.9921   0.9915   0.9909
     0.9858   0.9850   0.9846   0.9837   0.9817   0.9809   0.9781   0.9759
     0.9742   0.9683   0.9672   0.9609   0.9582   0.9502   0.9300   0.9099
     0.8901   0.8862   0.8607   0.8508   0.8438   0.8176   0.8128   0.8089
     0.7972   0.7840   0.7531   0.7410   0.7229   0.7094   0.6854   0.6844
     0.6818   0.6777   0.6680   0.6633   0.6553   0.6500   0.6420   0.6376
     0.6271   0.6153   0.6128   0.5387   0.5307   0.1253   0.1181   0.1024
     0.0708   0.0149   0.0114   0.0054   0.0053   0.0006   0.0006   0.0004
     0.0003   0.0000   0.0000   0.0000   0.0000   0.0000   0.0000   0.0000
     0.0000   0.0000   0.0000   0.0000   0.0000   0.0000   0.0000   0.0000
     0.0000   0.0000   0.0000   0.0000   0.0000   0.0000   0.0000   0.0000

          k =-0.2500 0.2500 0.0000 ( 65198 PWs)   bands (ev):

   -92.7077 -92.6535 -92.5615 -92.5134 -92.4543 -92.4139 -92.3971 -92.2716
   -56.0611 -56.0401 -55.9189 -55.9084 -55.9014 -55.8952 -55.8588 -55.8308
   -55.8158 -55.8133 -55.8036 -55.7625 -55.7436 -55.7059 -55.6879 -55.6541
   -55.6490 -55.6026 -55.5993 -55.5981 -55.5908 -55.5441 -55.5274 -55.4403
   -31.2827 -31.2663 -31.1504 -31.1234 -31.0653 -31.0366 -30.8426 -30.7252
   -29.8549 -29.8132 -29.7877 -29.6790 -15.0247 -14.9849 -14.9116 -14.7936
   -14.6857 -14.5582 -14.4709 -14.2675 -14.1243 -14.0938 -14.0832 -14.0347
   -14.0116 -13.9931 -13.9787 -13.9410 -13.8458 -13.8346 -13.6799 -13.6554
   -13.6271 -13.6052 -13.5684 -13.5056 -13.4660 -13.4425 -13.3380 -13.2901
   -13.2305 -13.1538 -13.1148 -13.0859 -13.0476 -13.0238 -13.0022 -12.9772
   -12.9463 -12.9356 -12.9232 -12.8786 -12.8066 -12.7772 -12.7546 -12.7024
   -12.6947 -12.6674 -12.5004 -12.4485 -12.4339 -12.2894 -12.1402 -12.0867
   -11.8068 -11.7852 -11.7579 -11.7459 -11.7048 -11.6702 -11.6470 -11.6259
   -11.6031 -11.5182 -11.4730 -11.4633  -2.6748  -2.4658  -2.3449  -2.2575
    -2.1382  -2.0714  -1.8698  -1.7235  -1.7045  -1.6766  -1.5844  -1.5468
    -1.4555  -1.4218  -1.3957  -1.2524  -1.1972  -1.1293  -1.1006  -1.0408
    -1.0189  -0.9787  -0.9497  -0.9097  -0.8470  -0.7998  -0.7381  -0.6685
    -0.6436  -0.5910  -0.5627  -0.5176  -0.4609  -0.4190  -0.3735  -0.2768
    -0.2415  -0.2330  -0.1867  -0.1205  -0.0535  -0.0062   0.0246   0.0923
     0.1311   0.3803   0.5470   0.5903   0.6270   0.6849   0.7411   0.7949
     0.8586   0.8871   1.1700   1.2813   1.3203   1.3533   1.3601   1.4031
     1.4197   1.4640   1.4943   1.5101   1.5360   1.5778   1.5920   1.6385
     1.6548   1.7000   1.7793   1.8010   1.8177   1.8580   1.8841   1.9233
     1.9803   2.0820   2.1913   2.2247   2.2722   2.2918   2.3568   2.3988
     2.4247   2.4469   2.4707   2.5716   2.6069   2.6971   2.8225   2.8753
     2.8841   2.8987   2.9081   2.9185   2.9317   2.9385   2.9561   2.9681
     2.9803   2.9915   3.0030   3.0130   3.0216   3.0513   3.0618   3.0706
     3.1056   3.3979   3.4810   3.5404   3.6192   3.6511   3.8435   3.9562
     4.2955   4.5038   4.7080   4.9805   5.1692   5.6369   5.6821   5.7394
     5.8251   5.8877   5.9963   6.1783   6.1986   6.7376   6.8960   7.0497
     7.1567   7.5629   7.6073   7.6667   7.7202   7.8707   7.9020   8.1089
     8.1623   8.1848   8.2487   8.3134   8.4408   8.4705   8.6972   8.8435

     occupation numbers 
     1.0000   1.0000   1.0000   1.0000   1.0000   1.0000   1.0000   1.0000
     1.0000   1.0000   1.0000   1.0000   1.0000   1.0000   1.0000   1.0000
     1.0000   1.0000   1.0000   1.0000   1.0000   1.0000   1.0000   1.0000
     1.0000   1.0000   1.0000   1.0000   1.0000   1.0000   1.0000   1.0000
     1.0000   1.0000   1.0000   1.0000   1.0000   1.0000   1.0000   1.0000
     1.0000   1.0000   1.0000   1.0000   1.0000   1.0000   1.0000   1.0000
     1.0000   1.0000   1.0000   1.0000   1.0000   1.0000   1.0000   1.0000
     1.0000   1.0000   1.0000   1.0000   1.0000   1.0000   1.0000   1.0000
     1.0000   1.0000   1.0000   1.0000   1.0000   1.0000   1.0000   1.0000
     1.0000   1.0000   1.0000   1.0000   1.0000   1.0000   1.0000   1.0000
     1.0000   1.0000   1.0000   1.0000   1.0000   1.0000   1.0000   1.0000
     1.0000   1.0000   1.0000   1.0000   1.0000   1.0000   1.0000   1.0000
     1.0000   1.0000   1.0000   1.0000   1.0000   1.0000   1.0000   1.0000
     1.0000   1.0000   1.0000   1.0000   1.0000   1.0000   1.0000   1.0000
     1.0000   1.0000   1.0000   1.0000   1.0000   1.0000   1.0000   1.0000
     1.0000   1.0000   1.0000   1.0000   1.0000   1.0000   1.0000   1.0000
     1.0000   1.0000   1.0000   1.0000   1.0000   1.0000   1.0000   1.0000
     1.0000   1.0000   1.0000   1.0000   1.0000   1.0000   1.0000   1.0000
     1.0000   1.0000   1.0000   1.0000   1.0000   1.0000   1.0000   1.0000
     1.0000   1.0000   1.0000   1.0000   1.0000   1.0000   0.9999   0.9999
     0.9999   0.9998   0.9993   0.9988   0.9985   0.9983   0.9982   0.9978
     0.9976   0.9971   0.9966   0.9964   0.9960   0.9952   0.9949   0.9937
     0.9933   0.9919   0.9889   0.9879   0.9871   0.9850   0.9835   0.9810
     0.9767   0.9670   0.9531   0.9481   0.9401   0.9366   0.9237   0.9143
     0.9081   0.9026   0.8963   0.8668   0.8551   0.8225   0.7699   0.7454
     0.7412   0.7342   0.7295   0.7244   0.7179   0.7145   0.7055   0.6993
     0.6930   0.6871   0.6810   0.6757   0.6711   0.6550   0.6493   0.6444
     0.6249   0.4539   0.4055   0.3717   0.3284   0.3115   0.2184   0.1724
     0.0737   0.0394   0.0196   0.0068   0.0030   0.0003   0.0002   0.0002
     0.0001   0.0001   0.0000   0.0000   0.0000   0.0000   0.0000   0.0000
     0.0000   0.0000   0.0000   0.0000   0.0000   0.0000   0.0000   0.0000
     0.0000   0.0000   0.0000   0.0000   0.0000   0.0000   0.0000   0.0000

          k =-0.5000 0.2500 0.0000 ( 65138 PWs)   bands (ev):

   -92.7077 -92.6535 -92.5615 -92.5134 -92.4543 -92.4139 -92.3971 -92.2716
   -56.0611 -56.0401 -55.9189 -55.9084 -55.9014 -55.8952 -55.8588 -55.8308
   -55.8158 -55.8133 -55.8036 -55.7625 -55.7436 -55.7059 -55.6878 -55.6541
   -55.6490 -55.6026 -55.5993 -55.5981 -55.5908 -55.5441 -55.5274 -55.4403
   -31.2806 -31.2684 -31.1503 -31.1230 -31.0652 -31.0370 -30.8427 -30.7253
   -29.8539 -29.8142 -29.7873 -29.6794 -14.9896 -14.9451 -14.8664 -14.7708
   -14.7270 -14.5997 -14.5127 -14.3881 -14.0749 -14.0445 -14.0323 -13.9862
   -13.9689 -13.9403 -13.9067 -13.9038 -13.8772 -13.8416 -13.8267 -13.7233
   -13.6449 -13.6004 -13.5950 -13.5826 -13.5101 -13.4756 -13.3731 -13.3289
   -13.2065 -13.1721 -13.0917 -13.0724 -13.0340 -13.0229 -13.0095 -12.9788
   -12.9570 -12.9451 -12.9350 -12.8835 -12.7843 -12.7265 -12.7131 -12.6709
   -12.6288 -12.6205 -12.5456 -12.4380 -12.3289 -12.3114 -12.1866 -12.1613
   -11.7795 -11.7666 -11.7525 -11.7408 -11.7191 -11.6889 -11.6089 -11.5998
   -11.5771 -11.5402 -11.5122 -11.5035  -2.4477  -2.4055  -2.2566  -2.2149
    -2.0545  -1.9789  -1.8351  -1.7004  -1.6436  -1.6159  -1.5770  -1.5380
    -1.4578  -1.3429  -1.2857  -1.2626  -1.2374  -1.1605  -1.1322  -1.0941
    -1.0760  -1.0151  -0.9875  -0.9473  -0.9119  -0.8833  -0.8257  -0.7994
    -0.7580  -0.7232  -0.6190  -0.5925  -0.5059  -0.4424  -0.4101  -0.3557
    -0.2682  -0.2371  -0.1352  -0.1016  -0.0392   0.0070   0.0309   0.1089
     0.1401   0.1729   0.2243   0.2612   0.5705   0.6222   0.7007   0.7171
     1.0029   1.0625   1.1350   1.1617   1.3406   1.3773   1.4142   1.4278
     1.4453   1.4632   1.5330   1.5745   1.6146   1.6424   1.7580   1.7951
     1.8338   1.8455   1.8795   1.9054   1.9190   1.9350   1.9569   1.9788
     2.0245   2.0436   2.0765   2.1001   2.1296   2.1913   2.3130   2.4110
     2.4383   2.5060   2.5461   2.6053   2.6419   2.6501   2.6865   2.7213
     2.7446   2.7864   2.8606   2.8777   2.8889   2.8978   2.9109   2.9338
     2.9485   2.9624   2.9729   2.9937   3.0074   3.0178   3.0265   3.0386
     3.0498   3.5829   3.6155   3.7707   3.7878   4.0952   4.1329   4.1903
     4.3956   4.7786   4.8711   5.0397   5.0675   5.3956   5.4251   5.5820
     5.6216   5.7394   5.7723   6.1104   6.3899   6.4824   6.6139   7.0042
     7.4619   7.5001   7.6731   7.7119   7.7936   7.8851   8.0203   8.0911
     8.2984   8.3943   8.4769   8.4894   8.5588   8.6251   8.7146   8.7413

     occupation numbers 
     1.0000   1.0000   1.0000   1.0000   1.0000   1.0000   1.0000   1.0000
     1.0000   1.0000   1.0000   1.0000   1.0000   1.0000   1.0000   1.0000
     1.0000   1.0000   1.0000   1.0000   1.0000   1.0000   1.0000   1.0000
     1.0000   1.0000   1.0000   1.0000   1.0000   1.0000   1.0000   1.0000
     1.0000   1.0000   1.0000   1.0000   1.0000   1.0000   1.0000   1.0000
     1.0000   1.0000   1.0000   1.0000   1.0000   1.0000   1.0000   1.0000
     1.0000   1.0000   1.0000   1.0000   1.0000   1.0000   1.0000   1.0000
     1.0000   1.0000   1.0000   1.0000   1.0000   1.0000   1.0000   1.0000
     1.0000   1.0000   1.0000   1.0000   1.0000   1.0000   1.0000   1.0000
     1.0000   1.0000   1.0000   1.0000   1.0000   1.0000   1.0000   1.0000
     1.0000   1.0000   1.0000   1.0000   1.0000   1.0000   1.0000   1.0000
     1.0000   1.0000   1.0000   1.0000   1.0000   1.0000   1.0000   1.0000
     1.0000   1.0000   1.0000   1.0000   1.0000   1.0000   1.0000   1.0000
     1.0000   1.0000   1.0000   1.0000   1.0000   1.0000   1.0000   1.0000
     1.0000   1.0000   1.0000   1.0000   1.0000   1.0000   1.0000   1.0000
     1.0000   1.0000   1.0000   1.0000   1.0000   1.0000   1.0000   1.0000
     1.0000   1.0000   1.0000   1.0000   1.0000   1.0000   1.0000   1.0000
     1.0000   1.0000   1.0000   1.0000   1.0000   1.0000   1.0000   1.0000
     1.0000   1.0000   1.0000   1.0000   1.0000   1.0000   1.0000   1.0000
     1.0000   1.0000   1.0000   1.0000   1.0000   1.0000   0.9999   0.9999
     0.9997   0.9996   0.9994   0.9993   0.9984   0.9980   0.9977   0.9975
     0.9973   0.9971   0.9960   0.9952   0.9943   0.9936   0.9898   0.9882
     0.9863   0.9857   0.9838   0.9822   0.9812   0.9801   0.9785   0.9768
     0.9728   0.9710   0.9676   0.9650   0.9614   0.9531   0.9326   0.9114
     0.9048   0.8866   0.8747   0.8557   0.8430   0.8400   0.8266   0.8130
     0.8036   0.7859   0.7524   0.7443   0.7389   0.7346   0.7282   0.7168
     0.7094   0.7023   0.6968   0.6860   0.6787   0.6731   0.6685   0.6619
     0.6558   0.3481   0.3304   0.2517   0.2436   0.1248   0.1137   0.0981
     0.0551   0.0152   0.0106   0.0053   0.0047   0.0010   0.0009   0.0004
     0.0003   0.0002   0.0001   0.0000   0.0000   0.0000   0.0000   0.0000
     0.0000   0.0000   0.0000   0.0000   0.0000   0.0000   0.0000   0.0000
     0.0000   0.0000   0.0000   0.0000   0.0000   0.0000   0.0000   0.0000

     the Fermi energy is     3.3199 ev

!    total energy              =   -4399.91208732 Ry
     estimated scf accuracy    <          7.3E-09 Ry
     smearing contrib. (-TS)   =      -1.14571514 Ry
     internal energy E=F+TS    =   -4398.76637218 Ry

     The total energy is F=E-TS. E is the sum of the following terms:
     one-electron contribution =  -21253.06194510 Ry
     hartree contribution      =   10754.52438827 Ry
     xc contribution           =    -686.72774635 Ry
     ewald contribution        =    7053.14416566 Ry
     one-center paw contrib.   =    -266.64523466 Ry
      -> PAW hartree energy AE =      25.18057957 Ry
      -> PAW hartree energy PS =     -25.06430837 Ry
      -> PAW xc energy AE      =     -16.51996770 Ry
      -> PAW xc energy PS      =       6.87956398 Ry
      -> total E_H with PAW    =   10754.64065947 Ry
      -> total E_XC with PAW   =    -696.36815007 Ry

     convergence has been achieved in  53 iterations

     Writing all to output data dir /bsuhome/zayahcortright/scratch/pwscf.save/
 
     init_run     :      7.68s CPU      8.30s WALL (       1 calls)
     electrons    :    742.63s CPU    755.49s WALL (       1 calls)

     Called by init_run:
     wfcinit      :      6.15s CPU      6.28s WALL (       1 calls)
     wfcinit:atom :      0.06s CPU      0.07s WALL (       5 calls)
     wfcinit:wfcr :      5.79s CPU      5.88s WALL (       5 calls)
     potinit      :      0.20s CPU      0.22s WALL (       1 calls)
     hinit0       :      0.36s CPU      0.76s WALL (       1 calls)

     Called by electrons:
     c_bands      :    583.95s CPU    588.74s WALL (      53 calls)
     sum_band     :    118.85s CPU    123.52s WALL (      53 calls)
     v_of_rho     :      5.74s CPU      6.03s WALL (      54 calls)
     v_h          :      0.51s CPU      0.51s WALL (      54 calls)
     v_xc         :      5.24s CPU      5.52s WALL (      54 calls)
     newd         :     18.05s CPU     20.75s WALL (      54 calls)
     PAW_pot      :      1.83s CPU      1.85s WALL (      54 calls)
     mix_rho      :     13.81s CPU     14.08s WALL (      53 calls)

     Called by c_bands:
     init_us_2    :      7.63s CPU      7.67s WALL (     535 calls)
     init_us_2:cp :      7.62s CPU      7.66s WALL (     535 calls)
     cegterg      :    548.97s CPU    553.59s WALL (     265 calls)

     Called by sum_band:
     sum_band:wei :      0.37s CPU      0.37s WALL (      53 calls)
     sum_band:loo :     96.09s CPU     96.76s WALL (      53 calls)
     sum_band:buf :      1.60s CPU      1.61s WALL (     265 calls)
     sum_band:ini :      3.57s CPU      3.58s WALL (     265 calls)
     sum_band:cal :     19.48s CPU     19.54s WALL (     265 calls)
     sum_band:bec :      0.59s CPU      0.60s WALL (     265 calls)
     addusdens    :     19.77s CPU     23.74s WALL (      53 calls)
                                        0.00s GPU  (      53 calls)
     addusd:skk   :      0.35s CPU      0.72s WALL (     212 calls)
                                        0.00s GPU  (     212 calls)

     Called by *egterg:
     cdiaghg      :     57.33s CPU     57.57s WALL (    1335 calls)
     cegterg:over :     39.20s CPU     39.32s WALL (    1070 calls)
     cegterg:upda :     29.00s CPU     29.33s WALL (    1070 calls)
     cegterg:last :     60.45s CPU     60.62s WALL (     482 calls)
     cdiaghg:chol :      3.23s CPU      3.25s WALL (    1335 calls)
     cdiaghg:inve :      3.44s CPU      3.45s WALL (    1335 calls)
     cdiaghg:para :      7.58s CPU      7.62s WALL (    2670 calls)
     h_psi        :    305.80s CPU    308.47s WALL (    1340 calls)
     s_psi        :     40.84s CPU     40.94s WALL (    1340 calls)
     g_psi        :      1.16s CPU      1.16s WALL (    1070 calls)

     Called by h_psi:
     h_psi:calbec :     44.53s CPU     44.66s WALL (    1340 calls)
     vloc_psi     :    217.39s CPU    219.31s WALL (    1340 calls)
     add_vuspsi   :     40.40s CPU     40.54s WALL (    1340 calls)

     General routines
     calbec       :     64.01s CPU     64.20s WALL (    1605 calls)
     fft          :      4.00s CPU      4.05s WALL (     700 calls)
     ffts         :      5.07s CPU      5.11s WALL (    5761 calls)
     fftw         :    184.32s CPU    185.67s WALL (  352708 calls)
     interpolate  :      0.44s CPU      0.45s WALL (      54 calls)
 
     Parallel routines

     PAW routines
     PAW_pot      :      1.83s CPU      1.85s WALL (      54 calls)
 
     PWSCF        :  12m32.24s CPU  12m48.42s WALL

 
   This run was terminated on:  13:46:40  21Jun2024            

=------------------------------------------------------------------------------=
   JOB DONE.
=------------------------------------------------------------------------------=
