
     Program PWSCF v.7.2 starts on 21Jun2024 at 15: 7:53 

     This program is part of the open-source Quantum ESPRESSO suite
     for quantum simulation of materials; please cite
         "P. Giannozzi et al., J. Phys.:Condens. Matter 21 395502 (2009);
         "P. Giannozzi et al., J. Phys.:Condens. Matter 29 465901 (2017);
         "P. Giannozzi et al., J. Chem. Phys. 152 154105 (2020);
          URL http://www.quantum-espresso.org", 
     in publications or presentations arising from this work. More details at
     http://www.quantum-espresso.org/quote

     Parallel version (MPI & OpenMP), running on      48 processor cores
     Number of MPI processes:                48
     Threads/MPI process:                     1

     MPI processes distributed on     1 nodes
     60565 MiB available memory on the printing compute node when the environment starts
 
     Reading input from espresso.pwi
Warning: card &CELL ignored
Warning: card / ignored
Warning: card &FCP ignored
Warning: card / ignored
Warning: card &RISM ignored
Warning: card / ignored

     Current dimensions of program PWSCF are:
     Max number of different atomic species (ntypx) = 10
     Max number of k-points (npk) =  40000
     Max angular momentum in pseudopotentials (lmaxx) =  4
     file O.pbe-n-kjpaw_psl.0.1.UPF: wavefunction(s)  2P renormalized
     signal trapping enabled: kill the code with -SIGUSR1 to stop cleanly the simulation 
 
     K-points division:     npool     =       2
     R & G space division:  proc/nbgrp/npool/nimage =      24
     Subspace diagonalization in iterative solution of the eigenvalue problem:
     one sub-group per band group will be used
     scalapack distributed-memory algorithm (size of sub-group:  3*  3 procs)

 
     Parallelization info
     --------------------
     sticks:   dense  smooth     PW     G-vecs:    dense   smooth      PW
     Min         350     175     47                61430    21716    3036
     Max         351     177     48                61449    21727    3041
     Sum        8421    4205   1137              1474595   521381   72913
 
     Using Slab Decomposition
 


     bravais-lattice index     =            0
     lattice parameter (alat)  =      14.8599  a.u.
     unit-cell volume          =    8305.1283 (a.u.)^3
     number of atoms/cell      =           49
     number of atomic types    =            3
     number of electrons       =       430.00
     number of Kohn-Sham states=          258
     kinetic-energy cutoff     =      60.0000  Ry
     charge density cutoff     =     480.0000  Ry
     scf convergence threshold =      1.0E-08
     mixing beta               =       0.1500
     number of iterations used =            8  local-TF  mixing
     Exchange-correlation= SLA  PW   PBE  PBE
                           (   1   4   3   4   0   0   0)

     celldm(1)=  14.859904  celldm(2)=   0.000000  celldm(3)=   0.000000
     celldm(4)=   0.000000  celldm(5)=   0.000000  celldm(6)=   0.000000

     crystal axes: (cart. coord. in units of alat)
               a(1) = (   1.000000   0.000000   0.000000 )  
               a(2) = (   0.000000   1.000000   0.000000 )  
               a(3) = (   0.000000   0.000000   2.531036 )  

     reciprocal axes: (cart. coord. in units 2 pi/alat)
               b(1) = (  1.000000  0.000000  0.000000 )  
               b(2) = (  0.000000  1.000000  0.000000 )  
               b(3) = (  0.000000  0.000000  0.395095 )  


     PseudoPot. # 1 for Sr read from file:
     /bsuhome/zayahcortright/q-e/pseudo/Sr_pbe_v1.uspp.F.UPF
     MD5 check sum: 6b418c05fbe9db5448babca5e47b7a5b
     Pseudo is Ultrasoft + core correction, Zval = 10.0
     Generated by new atomic code, or converted to UPF format
     Using radial grid of  883 points,  6 beta functions with: 
                l(1) =   0
                l(2) =   0
                l(3) =   1
                l(4) =   1
                l(5) =   2
                l(6) =   2
     Q(r) pseudized with  6 coefficients,  rinner =    1.400   1.400   1.400
                                                       1.400   1.400

     PseudoPot. # 2 for O  read from file:
     /bsuhome/zayahcortright/q-e/pseudo/O.pbe-n-kjpaw_psl.0.1.UPF
     MD5 check sum: 0234752ac141de4415c5fc33072bef88
     Pseudo is Projector augmented-wave + core cor, Zval =  6.0
     Generated using "atomic" code by A. Dal Corso  v.5.0.99 svn rev. 10869
     Shape of augmentation charge: BESSEL
     Using radial grid of 1095 points,  4 beta functions with: 
                l(1) =   0
                l(2) =   0
                l(3) =   1
                l(4) =   1
     Q(r) pseudized with 0 coefficients 


     PseudoPot. # 3 for Co read from file:
     /bsuhome/zayahcortright/q-e/pseudo/Co_pbe_v1.2.uspp.F.UPF
     MD5 check sum: 5f91765df6ddd3222702df6e7b74a16d
     Pseudo is Ultrasoft + core correction, Zval = 17.0
     Generated by new atomic code, or converted to UPF format
     Using radial grid of  863 points,  6 beta functions with: 
                l(1) =   0
                l(2) =   0
                l(3) =   1
                l(4) =   1
                l(5) =   2
                l(6) =   2
     Q(r) pseudized with  8 coefficients,  rinner =    1.200   1.200   1.200
                                                       1.200   1.200

     atomic species   valence    mass     pseudopotential
        Sr            10.00    87.62000     Sr( 1.00)
        O              6.00    15.99900     O ( 1.00)
        Co            17.00    58.93319     Co( 1.00)

     No symmetry found


                                    s                        frac. trans.

      isym =  1     identity                                     

 cryst.   s( 1) = (     1          0          0      )
                  (     0          1          0      )
                  (     0          0          1      )

 cart.    s( 1) = (  1.0000000  0.0000000  0.0000000 )
                  (  0.0000000  1.0000000  0.0000000 )
                  (  0.0000000  0.0000000  1.0000000 )


   Cartesian axes

     site n.     atom                  positions (alat units)
         1           Sr  tau(   1) = (   0.2508693   0.7491307   1.7574407  )
         2           O   tau(   2) = (   0.4985141   0.5014859   1.7715967  )
         3           Sr  tau(   3) = (   0.7482398   0.7454518   1.7648669  )
         4           Sr  tau(   4) = (   0.7441748   0.2558252   1.7667843  )
         5           Sr  tau(   5) = (   0.2508693   0.7491307   1.2696799  )
         6           Sr  tau(   6) = (   0.2508693   0.7491307   0.7632319  )
         7           Co  tau(   7) = (   0.4998914   0.5001086   1.0164559  )
         8           Co  tau(   8) = (   0.4936915   0.5063085   1.5135603  )
         9           O   tau(   9) = (   0.4988895   0.7610401   1.0164559  )
        10           O   tau(  10) = (   0.2389599   0.5011105   1.0164559  )
        11           O   tau(  11) = (   0.0070918   0.7374880   1.0164559  )
        12           O   tau(  12) = (   0.0088340   0.7405089   1.5135603  )
        13           O   tau(  13) = (   0.5066944   0.7415376   1.5135603  )
        14           O   tau(  14) = (   0.2584624   0.4933056   1.5135603  )
        15           O   tau(  15) = (   0.4985141   0.5014859   0.7773880  )
        16           O   tau(  16) = (   0.4985141   0.5014859   1.2555238  )
        17           Sr  tau(  17) = (   0.7482398   0.7454518   0.7706582  )
        18           Sr  tau(  18) = (   0.7482398   0.7454518   1.2622536  )
        19           Sr  tau(  19) = (   0.7441748   0.2558252   0.7725755  )
        20           Sr  tau(  20) = (   0.7441748   0.2558252   1.2603363  )
        21           O   tau(  21) = (   0.7322655   0.0078049   1.5135603  )
        22           O   tau(  22) = (   0.7558175   0.4996027   1.5135603  )
        23           O   tau(  23) = (   0.5003973   0.2441825   1.5135603  )
        24           O   tau(  24) = (   0.7527966   0.4978604   1.0164559  )
        25           O   tau(  25) = (   0.5021396   0.2472034   1.0164559  )
        26           O   tau(  26) = (   0.7517679   0.0000000   1.0164559  )
        27           O   tau(  27) = (   0.0114961   0.4948124   1.7455321  )
        28           O   tau(  28) = (   0.0048226   0.0077944   1.7715967  )
        29           Sr  tau(  29) = (   0.2545482   0.2517602   1.7648669  )
        30           O   tau(  30) = (   0.5048017   0.0015068   1.7786929  )
        31           Co  tau(  31) = (   0.0056869   0.5006215   1.0164559  )
        32           Co  tau(  32) = (   0.0065315   0.4997770   1.5135603  )
        33           Co  tau(  33) = (   0.0061999   0.0064171   1.0164559  )
        34           Co  tau(  34) = (   0.0000000   0.0126169   1.5135603  )
        35           O   tau(  35) = (   0.0114961   0.4948124   1.2815885  )
        36           O   tau(  36) = (   0.0114961   0.4948124   0.7513233  )
        37           O   tau(  37) = (   0.0051979   0.2673486   1.0164559  )
        38           O   tau(  38) = (   0.0130029   0.2478461   1.5135603  )
        39           O   tau(  39) = (   0.0048226   0.0077944   0.7773880  )
        40           O   tau(  40) = (   0.0048226   0.0077944   1.2555238  )
        41           Sr  tau(  41) = (   0.2545482   0.2517602   0.7706582  )
        42           Sr  tau(  42) = (   0.2545482   0.2517602   1.2622536  )
        43           Co  tau(  43) = (   0.4989925   0.0073160   1.5135603  )
        44           Co  tau(  44) = (   0.4998370   0.0064714   1.0164559  )
        45           O   tau(  45) = (   0.5048017   0.0015068   0.7844841  )
        46           O   tau(  46) = (   0.5048017   0.0015068   1.2484277  )
        47           O   tau(  47) = (   0.2621260   0.0059111   1.5135603  )
        48           O   tau(  48) = (   0.2591051   0.0041689   1.0164559  )
        49           O   tau(  49) = (   0.0000000   0.5686583   2.1602013  )

   Crystallographic axes

     site n.     atom                  positions (cryst. coord.)
         1           Sr  tau(   1) = (  0.2508693  0.7491307  0.6943562  )
         2           O   tau(   2) = (  0.4985141  0.5014859  0.6999492  )
         3           Sr  tau(   3) = (  0.7482398  0.7454518  0.6972903  )
         4           Sr  tau(   4) = (  0.7441748  0.2558252  0.6980478  )
         5           Sr  tau(   5) = (  0.2508693  0.7491307  0.5016443  )
         6           Sr  tau(   6) = (  0.2508693  0.7491307  0.3015492  )
         7           Co  tau(   7) = (  0.4998914  0.5001086  0.4015968  )
         8           Co  tau(   8) = (  0.4936915  0.5063085  0.5980003  )
         9           O   tau(   9) = (  0.4988895  0.7610401  0.4015968  )
        10           O   tau(  10) = (  0.2389599  0.5011105  0.4015968  )
        11           O   tau(  11) = (  0.0070918  0.7374880  0.4015968  )
        12           O   tau(  12) = (  0.0088340  0.7405089  0.5980003  )
        13           O   tau(  13) = (  0.5066944  0.7415376  0.5980003  )
        14           O   tau(  14) = (  0.2584624  0.4933056  0.5980003  )
        15           O   tau(  15) = (  0.4985141  0.5014859  0.3071422  )
        16           O   tau(  16) = (  0.4985141  0.5014859  0.4960513  )
        17           Sr  tau(  17) = (  0.7482398  0.7454518  0.3044833  )
        18           Sr  tau(  18) = (  0.7482398  0.7454518  0.4987103  )
        19           Sr  tau(  19) = (  0.7441748  0.2558252  0.3052408  )
        20           Sr  tau(  20) = (  0.7441748  0.2558252  0.4979527  )
        21           O   tau(  21) = (  0.7322655  0.0078049  0.5980003  )
        22           O   tau(  22) = (  0.7558175  0.4996027  0.5980003  )
        23           O   tau(  23) = (  0.5003973  0.2441825  0.5980003  )
        24           O   tau(  24) = (  0.7527966  0.4978604  0.4015968  )
        25           O   tau(  25) = (  0.5021396  0.2472034  0.4015968  )
        26           O   tau(  26) = (  0.7517679  0.0000000  0.4015968  )
        27           O   tau(  27) = (  0.0114961  0.4948124  0.6896512  )
        28           O   tau(  28) = (  0.0048226  0.0077944  0.6999492  )
        29           Sr  tau(  29) = (  0.2545482  0.2517602  0.6972903  )
        30           O   tau(  30) = (  0.5048017  0.0015068  0.7027529  )
        31           Co  tau(  31) = (  0.0056869  0.5006215  0.4015968  )
        32           Co  tau(  32) = (  0.0065315  0.4997770  0.5980003  )
        33           Co  tau(  33) = (  0.0061999  0.0064171  0.4015968  )
        34           Co  tau(  34) = (  0.0000000  0.0126169  0.5980003  )
        35           O   tau(  35) = (  0.0114961  0.4948124  0.5063494  )
        36           O   tau(  36) = (  0.0114961  0.4948124  0.2968442  )
        37           O   tau(  37) = (  0.0051979  0.2673486  0.4015968  )
        38           O   tau(  38) = (  0.0130029  0.2478461  0.5980003  )
        39           O   tau(  39) = (  0.0048226  0.0077944  0.3071422  )
        40           O   tau(  40) = (  0.0048226  0.0077944  0.4960513  )
        41           Sr  tau(  41) = (  0.2545482  0.2517602  0.3044833  )
        42           Sr  tau(  42) = (  0.2545482  0.2517602  0.4987103  )
        43           Co  tau(  43) = (  0.4989925  0.0073160  0.5980003  )
        44           Co  tau(  44) = (  0.4998370  0.0064714  0.4015968  )
        45           O   tau(  45) = (  0.5048017  0.0015068  0.3099459  )
        46           O   tau(  46) = (  0.5048017  0.0015068  0.4932477  )
        47           O   tau(  47) = (  0.2621260  0.0059111  0.5980003  )
        48           O   tau(  48) = (  0.2591051  0.0041689  0.4015968  )
        49           O   tau(  49) = (  0.0000000  0.5686583  0.8534850  )

     number of k points=    10  Gaussian smearing, width (Ry)=  0.0700
                       cart. coord. in units 2pi/alat
        k(    1) = (   0.0000000   0.0000000   0.0000000), wk =   0.1250000
        k(    2) = (   0.0000000   0.2500000   0.0000000), wk =   0.2500000
        k(    3) = (   0.0000000  -0.5000000   0.0000000), wk =   0.1250000
        k(    4) = (   0.2500000   0.2500000   0.0000000), wk =   0.2500000
        k(    5) = (   0.2500000  -0.5000000   0.0000000), wk =   0.2500000
        k(    6) = (  -0.5000000  -0.5000000   0.0000000), wk =   0.1250000
        k(    7) = (   0.2500000   0.0000000   0.0000000), wk =   0.2500000
        k(    8) = (  -0.5000000   0.0000000   0.0000000), wk =   0.1250000
        k(    9) = (  -0.2500000   0.2500000   0.0000000), wk =   0.2500000
        k(   10) = (  -0.5000000   0.2500000   0.0000000), wk =   0.2500000

                       cryst. coord.
        k(    1) = (   0.0000000   0.0000000   0.0000000), wk =   0.1250000
        k(    2) = (   0.0000000   0.2500000   0.0000000), wk =   0.2500000
        k(    3) = (   0.0000000  -0.5000000   0.0000000), wk =   0.1250000
        k(    4) = (   0.2500000   0.2500000   0.0000000), wk =   0.2500000
        k(    5) = (   0.2500000  -0.5000000   0.0000000), wk =   0.2500000
        k(    6) = (  -0.5000000  -0.5000000   0.0000000), wk =   0.1250000
        k(    7) = (   0.2500000   0.0000000   0.0000000), wk =   0.2500000
        k(    8) = (  -0.5000000   0.0000000   0.0000000), wk =   0.1250000
        k(    9) = (  -0.2500000   0.2500000   0.0000000), wk =   0.2500000
        k(   10) = (  -0.5000000   0.2500000   0.0000000), wk =   0.2500000

     Dense  grid:  1474595 G-vectors     FFT dimensions: ( 108, 108, 270)

     Smooth grid:   521381 G-vectors     FFT dimensions: (  75,  75, 192)

     Dynamical RAM for                 wfc:      10.69 MB

     Dynamical RAM for     wfc (w. buffer):      64.13 MB

     Dynamical RAM for           str. fact:       2.81 MB

     Dynamical RAM for           local pot:       0.00 MB

     Dynamical RAM for          nlocal pot:      24.53 MB

     Dynamical RAM for                qrad:       5.27 MB

     Dynamical RAM for          rho,v,vnew:       6.02 MB

     Dynamical RAM for               rhoin:       2.01 MB

     Dynamical RAM for            rho*nmix:      15.00 MB

     Dynamical RAM for           G-vectors:       3.68 MB

     Dynamical RAM for          h,s,v(r/c):       1.35 MB

     Dynamical RAM for          <psi|beta>:       2.33 MB

     Dynamical RAM for                 psi:      21.38 MB

     Dynamical RAM for                hpsi:      21.38 MB

     Dynamical RAM for                spsi:      21.38 MB

     Dynamical RAM for      wfcinit/wfcrot:      34.39 MB

     Dynamical RAM for           addusdens:     101.26 MB

     Estimated static dynamical RAM per process >     117.53 MB

     Estimated max dynamical RAM per process >     233.79 MB

     Estimated total dynamical RAM >      10.61 GB

     Check: negative core charge=   -0.000004

     Initial potential from superposition of free atoms

     starting charge     421.5961, renormalised to     430.0000

     negative rho (up, down):  7.826E-01 0.000E+00
     Starting wfcs are  376 randomized atomic wfcs
     Checking if some PAW data can be deallocated... 
       PAW data deallocated on   19 nodes for type:  2

     total cpu time spent up to now is        9.2 secs

     Self-consistent Calculation

     iteration #  1     ecut=    60.00 Ry     beta= 0.15
     Davidson diagonalization with overlap

---- Real-time Memory Report at c_bands before calling an iterative solver
             0 MiB given to the printing process from OS
             0 MiB allocation reported by mallinfo(arena+hblkhd)
         51474 MiB available memory on the node where the printing process lives
------------------
     ethr =  1.00E-02,  avg # of iterations =  2.0

     negative rho (up, down):  7.717E-01 0.000E+00

     total cpu time spent up to now is       24.6 secs

     total energy              =   -4445.23430964 Ry
     estimated scf accuracy    <      54.11548062 Ry

     iteration #  2     ecut=    60.00 Ry     beta= 0.15
     Davidson diagonalization with overlap

---- Real-time Memory Report at c_bands before calling an iterative solver
             0 MiB given to the printing process from OS
             0 MiB allocation reported by mallinfo(arena+hblkhd)
         51843 MiB available memory on the node where the printing process lives
------------------
     ethr =  1.00E-02,  avg # of iterations =  1.0

     negative rho (up, down):  7.589E-01 0.000E+00

     total cpu time spent up to now is       37.3 secs

     total energy              =   -4441.87107682 Ry
     estimated scf accuracy    <      28.55844958 Ry

     iteration #  3     ecut=    60.00 Ry     beta= 0.15
     Davidson diagonalization with overlap

---- Real-time Memory Report at c_bands before calling an iterative solver
             0 MiB given to the printing process from OS
             0 MiB allocation reported by mallinfo(arena+hblkhd)
         51091 MiB available memory on the node where the printing process lives
------------------
     ethr =  6.64E-03,  avg # of iterations =  1.0

     negative rho (up, down):  7.532E-01 0.000E+00

     total cpu time spent up to now is       50.0 secs

     total energy              =   -4442.62979236 Ry
     estimated scf accuracy    <      28.74886556 Ry

     iteration #  4     ecut=    60.00 Ry     beta= 0.15
     Davidson diagonalization with overlap

---- Real-time Memory Report at c_bands before calling an iterative solver
             0 MiB given to the printing process from OS
             0 MiB allocation reported by mallinfo(arena+hblkhd)
         51041 MiB available memory on the node where the printing process lives
------------------
     ethr =  6.64E-03,  avg # of iterations =  1.0

     negative rho (up, down):  7.539E-01 0.000E+00

     total cpu time spent up to now is       62.6 secs

     total energy              =   -4442.51134472 Ry
     estimated scf accuracy    <      26.65611934 Ry

     iteration #  5     ecut=    60.00 Ry     beta= 0.15
     Davidson diagonalization with overlap

---- Real-time Memory Report at c_bands before calling an iterative solver
             0 MiB given to the printing process from OS
             0 MiB allocation reported by mallinfo(arena+hblkhd)
         51018 MiB available memory on the node where the printing process lives
------------------
     ethr =  6.20E-03,  avg # of iterations =  1.0

     negative rho (up, down):  7.367E-01 0.000E+00

     total cpu time spent up to now is       75.0 secs

     total energy              =   -4441.42459317 Ry
     estimated scf accuracy    <      19.29674029 Ry

     iteration #  6     ecut=    60.00 Ry     beta= 0.15
     Davidson diagonalization with overlap

---- Real-time Memory Report at c_bands before calling an iterative solver
             0 MiB given to the printing process from OS
             0 MiB allocation reported by mallinfo(arena+hblkhd)
         50997 MiB available memory on the node where the printing process lives
------------------
     ethr =  4.49E-03,  avg # of iterations =  2.0

     negative rho (up, down):  7.369E-01 0.000E+00

     total cpu time spent up to now is       89.1 secs

     total energy              =   -4444.85188121 Ry
     estimated scf accuracy    <      71.41383902 Ry

     iteration #  7     ecut=    60.00 Ry     beta= 0.15
     Davidson diagonalization with overlap

---- Real-time Memory Report at c_bands before calling an iterative solver
             0 MiB given to the printing process from OS
             0 MiB allocation reported by mallinfo(arena+hblkhd)
         50980 MiB available memory on the node where the printing process lives
------------------
     ethr =  4.49E-03,  avg # of iterations =  1.0

     negative rho (up, down):  7.387E-01 0.000E+00

     total cpu time spent up to now is      101.8 secs

     total energy              =   -4444.88418824 Ry
     estimated scf accuracy    <      71.54751472 Ry

     iteration #  8     ecut=    60.00 Ry     beta= 0.15
     Davidson diagonalization with overlap

---- Real-time Memory Report at c_bands before calling an iterative solver
             0 MiB given to the printing process from OS
             0 MiB allocation reported by mallinfo(arena+hblkhd)
         50966 MiB available memory on the node where the printing process lives
------------------
     ethr =  4.49E-03,  avg # of iterations =  1.0

     negative rho (up, down):  7.876E-01 0.000E+00

     total cpu time spent up to now is      114.5 secs

     total energy              =   -4438.03092022 Ry
     estimated scf accuracy    <      70.25722189 Ry

     iteration #  9     ecut=    60.00 Ry     beta= 0.15
     Davidson diagonalization with overlap

---- Real-time Memory Report at c_bands before calling an iterative solver
             0 MiB given to the printing process from OS
             0 MiB allocation reported by mallinfo(arena+hblkhd)
         50946 MiB available memory on the node where the printing process lives
------------------
     ethr =  4.49E-03,  avg # of iterations =  2.0

     negative rho (up, down):  7.831E-01 0.000E+00

     total cpu time spent up to now is      128.8 secs

     total energy              =   -4442.49358553 Ry
     estimated scf accuracy    <      16.72708946 Ry

     iteration # 10     ecut=    60.00 Ry     beta= 0.15
     Davidson diagonalization with overlap

---- Real-time Memory Report at c_bands before calling an iterative solver
             0 MiB given to the printing process from OS
             0 MiB allocation reported by mallinfo(arena+hblkhd)
         50892 MiB available memory on the node where the printing process lives
------------------
     ethr =  3.89E-03,  avg # of iterations =  1.0

     negative rho (up, down):  7.687E-01 0.000E+00

     total cpu time spent up to now is      141.5 secs

     total energy              =   -4440.86206835 Ry
     estimated scf accuracy    <      12.67763591 Ry

     iteration # 11     ecut=    60.00 Ry     beta= 0.15
     Davidson diagonalization with overlap

---- Real-time Memory Report at c_bands before calling an iterative solver
             0 MiB given to the printing process from OS
             0 MiB allocation reported by mallinfo(arena+hblkhd)
         50895 MiB available memory on the node where the printing process lives
------------------
     ethr =  2.95E-03,  avg # of iterations =  1.6

     negative rho (up, down):  7.670E-01 0.000E+00

     total cpu time spent up to now is      154.8 secs

     total energy              =   -4440.95599789 Ry
     estimated scf accuracy    <      10.32634533 Ry

     iteration # 12     ecut=    60.00 Ry     beta= 0.15
     Davidson diagonalization with overlap

---- Real-time Memory Report at c_bands before calling an iterative solver
             0 MiB given to the printing process from OS
             0 MiB allocation reported by mallinfo(arena+hblkhd)
         50898 MiB available memory on the node where the printing process lives
------------------
     ethr =  2.40E-03,  avg # of iterations =  1.9

     negative rho (up, down):  7.828E-01 0.000E+00

     total cpu time spent up to now is      168.6 secs

     total energy              =   -4440.20620197 Ry
     estimated scf accuracy    <       4.26332781 Ry

     iteration # 13     ecut=    60.00 Ry     beta= 0.15
     Davidson diagonalization with overlap

---- Real-time Memory Report at c_bands before calling an iterative solver
             0 MiB given to the printing process from OS
             0 MiB allocation reported by mallinfo(arena+hblkhd)
         50900 MiB available memory on the node where the printing process lives
------------------
     ethr =  9.91E-04,  avg # of iterations =  2.8

     negative rho (up, down):  7.880E-01 0.000E+00

     total cpu time spent up to now is      183.5 secs

     total energy              =   -4440.34134088 Ry
     estimated scf accuracy    <      12.76887382 Ry

     iteration # 14     ecut=    60.00 Ry     beta= 0.15
     Davidson diagonalization with overlap

---- Real-time Memory Report at c_bands before calling an iterative solver
             0 MiB given to the printing process from OS
             0 MiB allocation reported by mallinfo(arena+hblkhd)
         50856 MiB available memory on the node where the printing process lives
------------------
     ethr =  9.91E-04,  avg # of iterations =  9.0

     negative rho (up, down):  7.931E-01 0.000E+00

     total cpu time spent up to now is      201.3 secs

     total energy              =   -4440.57462799 Ry
     estimated scf accuracy    <       5.88832014 Ry

     iteration # 15     ecut=    60.00 Ry     beta= 0.15
     Davidson diagonalization with overlap

---- Real-time Memory Report at c_bands before calling an iterative solver
             0 MiB given to the printing process from OS
             0 MiB allocation reported by mallinfo(arena+hblkhd)
         50620 MiB available memory on the node where the printing process lives
------------------
     ethr =  9.91E-04,  avg # of iterations =  1.4

     negative rho (up, down):  7.880E-01 0.000E+00

     total cpu time spent up to now is      214.3 secs

     total energy              =   -4440.38636106 Ry
     estimated scf accuracy    <       3.69058135 Ry

     iteration # 16     ecut=    60.00 Ry     beta= 0.15
     Davidson diagonalization with overlap

---- Real-time Memory Report at c_bands before calling an iterative solver
             0 MiB given to the printing process from OS
             0 MiB allocation reported by mallinfo(arena+hblkhd)
         50631 MiB available memory on the node where the printing process lives
------------------
     ethr =  8.58E-04,  avg # of iterations =  1.1

     negative rho (up, down):  7.937E-01 0.000E+00

     total cpu time spent up to now is      227.0 secs

     total energy              =   -4440.50997788 Ry
     estimated scf accuracy    <       0.90712731 Ry

     iteration # 17     ecut=    60.00 Ry     beta= 0.15
     Davidson diagonalization with overlap

---- Real-time Memory Report at c_bands before calling an iterative solver
             0 MiB given to the printing process from OS
             0 MiB allocation reported by mallinfo(arena+hblkhd)
         50639 MiB available memory on the node where the printing process lives
------------------
     ethr =  2.11E-04,  avg # of iterations = 10.5

     negative rho (up, down):  8.082E-01 0.000E+00

     total cpu time spent up to now is      244.5 secs

     total energy              =   -4440.20075081 Ry
     estimated scf accuracy    <       1.68177366 Ry

     iteration # 18     ecut=    60.00 Ry     beta= 0.15
     Davidson diagonalization with overlap

---- Real-time Memory Report at c_bands before calling an iterative solver
             0 MiB given to the printing process from OS
             0 MiB allocation reported by mallinfo(arena+hblkhd)
         50499 MiB available memory on the node where the printing process lives
------------------
     ethr =  2.11E-04,  avg # of iterations =  2.0

     negative rho (up, down):  8.090E-01 0.000E+00

     total cpu time spent up to now is      259.1 secs

     total energy              =   -4440.44345791 Ry
     estimated scf accuracy    <       6.88957423 Ry

     iteration # 19     ecut=    60.00 Ry     beta= 0.15
     Davidson diagonalization with overlap

---- Real-time Memory Report at c_bands before calling an iterative solver
             0 MiB given to the printing process from OS
             0 MiB allocation reported by mallinfo(arena+hblkhd)
         50505 MiB available memory on the node where the printing process lives
------------------
     ethr =  2.11E-04,  avg # of iterations =  1.0

     negative rho (up, down):  8.035E-01 0.000E+00

     total cpu time spent up to now is      271.7 secs

     total energy              =   -4440.38216266 Ry
     estimated scf accuracy    <       3.46130941 Ry

     iteration # 20     ecut=    60.00 Ry     beta= 0.15
     Davidson diagonalization with overlap

---- Real-time Memory Report at c_bands before calling an iterative solver
             0 MiB given to the printing process from OS
             0 MiB allocation reported by mallinfo(arena+hblkhd)
         50503 MiB available memory on the node where the printing process lives
------------------
     ethr =  2.11E-04,  avg # of iterations =  4.7

     negative rho (up, down):  8.092E-01 0.000E+00

     total cpu time spent up to now is      286.5 secs

     total energy              =   -4440.34914352 Ry
     estimated scf accuracy    <       1.56602395 Ry

     iteration # 21     ecut=    60.00 Ry     beta= 0.15
     Davidson diagonalization with overlap

---- Real-time Memory Report at c_bands before calling an iterative solver
             0 MiB given to the printing process from OS
             0 MiB allocation reported by mallinfo(arena+hblkhd)
         50531 MiB available memory on the node where the printing process lives
------------------
     c_bands:  2 eigenvalues not converged
     ethr =  2.11E-04,  avg # of iterations =  5.6

     negative rho (up, down):  8.197E-01 0.000E+00

     total cpu time spent up to now is      301.9 secs

     total energy              =   -4440.30286858 Ry
     estimated scf accuracy    <       0.65656393 Ry

     iteration # 22     ecut=    60.00 Ry     beta= 0.15
     Davidson diagonalization with overlap

---- Real-time Memory Report at c_bands before calling an iterative solver
             0 MiB given to the printing process from OS
             0 MiB allocation reported by mallinfo(arena+hblkhd)
         50511 MiB available memory on the node where the printing process lives
------------------
     ethr =  1.53E-04,  avg # of iterations =  5.8

     negative rho (up, down):  8.275E-01 0.000E+00

     total cpu time spent up to now is      317.5 secs

     total energy              =   -4440.32261368 Ry
     estimated scf accuracy    <       0.91114919 Ry

     iteration # 23     ecut=    60.00 Ry     beta= 0.15
     Davidson diagonalization with overlap

---- Real-time Memory Report at c_bands before calling an iterative solver
             0 MiB given to the printing process from OS
             0 MiB allocation reported by mallinfo(arena+hblkhd)
         50562 MiB available memory on the node where the printing process lives
------------------
     ethr =  1.53E-04,  avg # of iterations =  3.4

     negative rho (up, down):  8.235E-01 0.000E+00

     total cpu time spent up to now is      332.3 secs

     total energy              =   -4440.33912276 Ry
     estimated scf accuracy    <       0.28941130 Ry

     iteration # 24     ecut=    60.00 Ry     beta= 0.15
     Davidson diagonalization with overlap

---- Real-time Memory Report at c_bands before calling an iterative solver
             0 MiB given to the printing process from OS
             0 MiB allocation reported by mallinfo(arena+hblkhd)
         50524 MiB available memory on the node where the printing process lives
------------------
     ethr =  6.73E-05,  avg # of iterations = 10.9

     negative rho (up, down):  8.118E-01 0.000E+00

     total cpu time spent up to now is      350.0 secs

     total energy              =   -4440.32115346 Ry
     estimated scf accuracy    <       0.23763410 Ry

     iteration # 25     ecut=    60.00 Ry     beta= 0.15
     Davidson diagonalization with overlap

---- Real-time Memory Report at c_bands before calling an iterative solver
             0 MiB given to the printing process from OS
             0 MiB allocation reported by mallinfo(arena+hblkhd)
         50520 MiB available memory on the node where the printing process lives
------------------
     ethr =  5.53E-05,  avg # of iterations =  6.7

     negative rho (up, down):  8.033E-01 0.000E+00

     total cpu time spent up to now is      366.3 secs

     total energy              =   -4440.31334731 Ry
     estimated scf accuracy    <       0.11958114 Ry

     iteration # 26     ecut=    60.00 Ry     beta= 0.15
     Davidson diagonalization with overlap

---- Real-time Memory Report at c_bands before calling an iterative solver
             0 MiB given to the printing process from OS
             0 MiB allocation reported by mallinfo(arena+hblkhd)
         50527 MiB available memory on the node where the printing process lives
------------------
     ethr =  2.78E-05,  avg # of iterations =  8.2

     negative rho (up, down):  8.198E-01 0.000E+00

     total cpu time spent up to now is      383.3 secs

     total energy              =   -4440.30392395 Ry
     estimated scf accuracy    <       0.09298248 Ry

     iteration # 27     ecut=    60.00 Ry     beta= 0.15
     Davidson diagonalization with overlap

---- Real-time Memory Report at c_bands before calling an iterative solver
             0 MiB given to the printing process from OS
             0 MiB allocation reported by mallinfo(arena+hblkhd)
         50533 MiB available memory on the node where the printing process lives
------------------
     ethr =  2.16E-05,  avg # of iterations =  8.7

     negative rho (up, down):  8.051E-01 0.000E+00

     total cpu time spent up to now is      400.3 secs

     total energy              =   -4440.29951879 Ry
     estimated scf accuracy    <       0.07676873 Ry

     iteration # 28     ecut=    60.00 Ry     beta= 0.15
     Davidson diagonalization with overlap

---- Real-time Memory Report at c_bands before calling an iterative solver
             0 MiB given to the printing process from OS
             0 MiB allocation reported by mallinfo(arena+hblkhd)
         50488 MiB available memory on the node where the printing process lives
------------------
     ethr =  1.79E-05,  avg # of iterations =  1.1

     negative rho (up, down):  8.101E-01 0.000E+00

     total cpu time spent up to now is      413.1 secs

     total energy              =   -4440.30319564 Ry
     estimated scf accuracy    <       0.02469000 Ry

     iteration # 29     ecut=    60.00 Ry     beta= 0.15
     Davidson diagonalization with overlap

---- Real-time Memory Report at c_bands before calling an iterative solver
             0 MiB given to the printing process from OS
             0 MiB allocation reported by mallinfo(arena+hblkhd)
         50495 MiB available memory on the node where the printing process lives
------------------
     ethr =  5.74E-06,  avg # of iterations =  7.5

     negative rho (up, down):  8.006E-01 0.000E+00

     total cpu time spent up to now is      430.0 secs

     total energy              =   -4440.30210898 Ry
     estimated scf accuracy    <       0.01216596 Ry

     iteration # 30     ecut=    60.00 Ry     beta= 0.15
     Davidson diagonalization with overlap

---- Real-time Memory Report at c_bands before calling an iterative solver
             0 MiB given to the printing process from OS
             0 MiB allocation reported by mallinfo(arena+hblkhd)
         50464 MiB available memory on the node where the printing process lives
------------------
     ethr =  2.83E-06,  avg # of iterations =  4.0

     negative rho (up, down):  8.031E-01 0.000E+00

     total cpu time spent up to now is      444.9 secs

     total energy              =   -4440.30152670 Ry
     estimated scf accuracy    <       0.00879660 Ry

     iteration # 31     ecut=    60.00 Ry     beta= 0.15
     Davidson diagonalization with overlap

---- Real-time Memory Report at c_bands before calling an iterative solver
             0 MiB given to the printing process from OS
             0 MiB allocation reported by mallinfo(arena+hblkhd)
         50482 MiB available memory on the node where the printing process lives
------------------
     c_bands:  1 eigenvalues not converged
     c_bands:  2 eigenvalues not converged
     ethr =  2.05E-06,  avg # of iterations = 13.7

     negative rho (up, down):  7.937E-01 0.000E+00

     total cpu time spent up to now is      464.9 secs

     total energy              =   -4440.30097954 Ry
     estimated scf accuracy    <       0.00453418 Ry

     iteration # 32     ecut=    60.00 Ry     beta= 0.15
     Davidson diagonalization with overlap

---- Real-time Memory Report at c_bands before calling an iterative solver
             0 MiB given to the printing process from OS
             0 MiB allocation reported by mallinfo(arena+hblkhd)
         50371 MiB available memory on the node where the printing process lives
------------------
     c_bands:  1 eigenvalues not converged
     c_bands:  1 eigenvalues not converged
     c_bands:  2 eigenvalues not converged
     ethr =  1.05E-06,  avg # of iterations = 14.0

     negative rho (up, down):  7.935E-01 0.000E+00

     total cpu time spent up to now is      484.3 secs

     total energy              =   -4440.30083176 Ry
     estimated scf accuracy    <       0.00238169 Ry

     iteration # 33     ecut=    60.00 Ry     beta= 0.15
     Davidson diagonalization with overlap

---- Real-time Memory Report at c_bands before calling an iterative solver
             0 MiB given to the printing process from OS
             0 MiB allocation reported by mallinfo(arena+hblkhd)
         50320 MiB available memory on the node where the printing process lives
------------------
     c_bands:  1 eigenvalues not converged
     ethr =  5.54E-07,  avg # of iterations = 10.3

     negative rho (up, down):  7.964E-01 0.000E+00

     total cpu time spent up to now is      503.0 secs

     total energy              =   -4440.30092694 Ry
     estimated scf accuracy    <       0.00121136 Ry

     iteration # 34     ecut=    60.00 Ry     beta= 0.15
     Davidson diagonalization with overlap

---- Real-time Memory Report at c_bands before calling an iterative solver
             0 MiB given to the printing process from OS
             0 MiB allocation reported by mallinfo(arena+hblkhd)
         50332 MiB available memory on the node where the printing process lives
------------------
     c_bands:  1 eigenvalues not converged
     ethr =  2.82E-07,  avg # of iterations =  7.5

     negative rho (up, down):  7.985E-01 0.000E+00

     total cpu time spent up to now is      519.5 secs

     total energy              =   -4440.30093730 Ry
     estimated scf accuracy    <       0.00059635 Ry

     iteration # 35     ecut=    60.00 Ry     beta= 0.15
     Davidson diagonalization with overlap

---- Real-time Memory Report at c_bands before calling an iterative solver
             0 MiB given to the printing process from OS
             0 MiB allocation reported by mallinfo(arena+hblkhd)
         50321 MiB available memory on the node where the printing process lives
------------------
     ethr =  1.39E-07,  avg # of iterations =  4.9

     negative rho (up, down):  7.983E-01 0.000E+00

     total cpu time spent up to now is      534.7 secs

     total energy              =   -4440.30092342 Ry
     estimated scf accuracy    <       0.00029191 Ry

     iteration # 36     ecut=    60.00 Ry     beta= 0.15
     Davidson diagonalization with overlap

---- Real-time Memory Report at c_bands before calling an iterative solver
             0 MiB given to the printing process from OS
             0 MiB allocation reported by mallinfo(arena+hblkhd)
         50303 MiB available memory on the node where the printing process lives
------------------
     ethr =  6.79E-08,  avg # of iterations =  1.8

     negative rho (up, down):  7.942E-01 0.000E+00

     total cpu time spent up to now is      548.5 secs

     total energy              =   -4440.30081331 Ry
     estimated scf accuracy    <       0.00017149 Ry

     iteration # 37     ecut=    60.00 Ry     beta= 0.15
     Davidson diagonalization with overlap

---- Real-time Memory Report at c_bands before calling an iterative solver
             0 MiB given to the printing process from OS
             0 MiB allocation reported by mallinfo(arena+hblkhd)
         50377 MiB available memory on the node where the printing process lives
------------------
     ethr =  3.99E-08,  avg # of iterations =  5.5

     negative rho (up, down):  7.928E-01 0.000E+00

     total cpu time spent up to now is      564.5 secs

     total energy              =   -4440.30080414 Ry
     estimated scf accuracy    <       0.00008616 Ry

     iteration # 38     ecut=    60.00 Ry     beta= 0.15
     Davidson diagonalization with overlap

---- Real-time Memory Report at c_bands before calling an iterative solver
             0 MiB given to the printing process from OS
             0 MiB allocation reported by mallinfo(arena+hblkhd)
         50377 MiB available memory on the node where the printing process lives
------------------
     ethr =  2.00E-08,  avg # of iterations =  3.0

     negative rho (up, down):  7.923E-01 0.000E+00

     total cpu time spent up to now is      579.1 secs

     total energy              =   -4440.30080976 Ry
     estimated scf accuracy    <       0.00004651 Ry

     iteration # 39     ecut=    60.00 Ry     beta= 0.15
     Davidson diagonalization with overlap

---- Real-time Memory Report at c_bands before calling an iterative solver
             0 MiB given to the printing process from OS
             0 MiB allocation reported by mallinfo(arena+hblkhd)
         50364 MiB available memory on the node where the printing process lives
------------------
     ethr =  1.08E-08,  avg # of iterations =  2.1

     negative rho (up, down):  7.924E-01 0.000E+00

     total cpu time spent up to now is      593.5 secs

     total energy              =   -4440.30081783 Ry
     estimated scf accuracy    <       0.00001645 Ry

     iteration # 40     ecut=    60.00 Ry     beta= 0.15
     Davidson diagonalization with overlap

---- Real-time Memory Report at c_bands before calling an iterative solver
             0 MiB given to the printing process from OS
             0 MiB allocation reported by mallinfo(arena+hblkhd)
         50417 MiB available memory on the node where the printing process lives
------------------
     ethr =  3.83E-09,  avg # of iterations =  2.0

     negative rho (up, down):  7.924E-01 0.000E+00

     total cpu time spent up to now is      607.6 secs

     total energy              =   -4440.30081957 Ry
     estimated scf accuracy    <       0.00000948 Ry

     iteration # 41     ecut=    60.00 Ry     beta= 0.15
     Davidson diagonalization with overlap

---- Real-time Memory Report at c_bands before calling an iterative solver
             0 MiB given to the printing process from OS
             0 MiB allocation reported by mallinfo(arena+hblkhd)
         50399 MiB available memory on the node where the printing process lives
------------------
     ethr =  2.21E-09,  avg # of iterations =  2.0

     negative rho (up, down):  7.925E-01 0.000E+00

     total cpu time spent up to now is      621.7 secs

     total energy              =   -4440.30082033 Ry
     estimated scf accuracy    <       0.00000611 Ry

     iteration # 42     ecut=    60.00 Ry     beta= 0.15
     Davidson diagonalization with overlap

---- Real-time Memory Report at c_bands before calling an iterative solver
             0 MiB given to the printing process from OS
             0 MiB allocation reported by mallinfo(arena+hblkhd)
         50406 MiB available memory on the node where the printing process lives
------------------
     ethr =  1.42E-09,  avg # of iterations =  2.3

     negative rho (up, down):  7.925E-01 0.000E+00

     total cpu time spent up to now is      635.8 secs

     total energy              =   -4440.30082037 Ry
     estimated scf accuracy    <       0.00000504 Ry

     iteration # 43     ecut=    60.00 Ry     beta= 0.15
     Davidson diagonalization with overlap

---- Real-time Memory Report at c_bands before calling an iterative solver
             0 MiB given to the printing process from OS
             0 MiB allocation reported by mallinfo(arena+hblkhd)
         50415 MiB available memory on the node where the printing process lives
------------------
     ethr =  1.17E-09,  avg # of iterations =  1.0

     negative rho (up, down):  7.925E-01 0.000E+00

     total cpu time spent up to now is      648.4 secs

     total energy              =   -4440.30081993 Ry
     estimated scf accuracy    <       0.00000371 Ry

     iteration # 44     ecut=    60.00 Ry     beta= 0.15
     Davidson diagonalization with overlap

---- Real-time Memory Report at c_bands before calling an iterative solver
             0 MiB given to the printing process from OS
             0 MiB allocation reported by mallinfo(arena+hblkhd)
         50419 MiB available memory on the node where the printing process lives
------------------
     ethr =  8.63E-10,  avg # of iterations =  2.0

     negative rho (up, down):  7.926E-01 0.000E+00

     total cpu time spent up to now is      662.2 secs

     total energy              =   -4440.30081981 Ry
     estimated scf accuracy    <       0.00000324 Ry

     iteration # 45     ecut=    60.00 Ry     beta= 0.15
     Davidson diagonalization with overlap

---- Real-time Memory Report at c_bands before calling an iterative solver
             0 MiB given to the printing process from OS
             0 MiB allocation reported by mallinfo(arena+hblkhd)
         50418 MiB available memory on the node where the printing process lives
------------------
     ethr =  7.54E-10,  avg # of iterations =  1.0

     negative rho (up, down):  7.926E-01 0.000E+00

     total cpu time spent up to now is      674.9 secs

     total energy              =   -4440.30082001 Ry
     estimated scf accuracy    <       0.00000248 Ry

     iteration # 46     ecut=    60.00 Ry     beta= 0.15
     Davidson diagonalization with overlap

---- Real-time Memory Report at c_bands before calling an iterative solver
             0 MiB given to the printing process from OS
             0 MiB allocation reported by mallinfo(arena+hblkhd)
         50424 MiB available memory on the node where the printing process lives
------------------
     ethr =  5.78E-10,  avg # of iterations =  3.0

     negative rho (up, down):  7.926E-01 0.000E+00

     total cpu time spent up to now is      689.3 secs

     total energy              =   -4440.30081995 Ry
     estimated scf accuracy    <       0.00000131 Ry

     iteration # 47     ecut=    60.00 Ry     beta= 0.15
     Davidson diagonalization with overlap

---- Real-time Memory Report at c_bands before calling an iterative solver
             0 MiB given to the printing process from OS
             0 MiB allocation reported by mallinfo(arena+hblkhd)
         50424 MiB available memory on the node where the printing process lives
------------------
     ethr =  3.04E-10,  avg # of iterations =  2.0

     negative rho (up, down):  7.927E-01 0.000E+00

     total cpu time spent up to now is      703.4 secs

     total energy              =   -4440.30081979 Ry
     estimated scf accuracy    <       0.00000082 Ry

     iteration # 48     ecut=    60.00 Ry     beta= 0.15
     Davidson diagonalization with overlap

---- Real-time Memory Report at c_bands before calling an iterative solver
             0 MiB given to the printing process from OS
             0 MiB allocation reported by mallinfo(arena+hblkhd)
         50427 MiB available memory on the node where the printing process lives
------------------
     ethr =  1.91E-10,  avg # of iterations =  2.0

     negative rho (up, down):  7.927E-01 0.000E+00

     total cpu time spent up to now is      717.2 secs

     total energy              =   -4440.30081988 Ry
     estimated scf accuracy    <       0.00000038 Ry

     iteration # 49     ecut=    60.00 Ry     beta= 0.15
     Davidson diagonalization with overlap

---- Real-time Memory Report at c_bands before calling an iterative solver
             0 MiB given to the printing process from OS
             0 MiB allocation reported by mallinfo(arena+hblkhd)
         50427 MiB available memory on the node where the printing process lives
------------------
     ethr =  8.89E-11,  avg # of iterations =  3.0

     negative rho (up, down):  7.927E-01 0.000E+00

     total cpu time spent up to now is      731.9 secs

     total energy              =   -4440.30081990 Ry
     estimated scf accuracy    <       0.00000025 Ry

     iteration # 50     ecut=    60.00 Ry     beta= 0.15
     Davidson diagonalization with overlap

---- Real-time Memory Report at c_bands before calling an iterative solver
             0 MiB given to the printing process from OS
             0 MiB allocation reported by mallinfo(arena+hblkhd)
         50418 MiB available memory on the node where the printing process lives
------------------
     ethr =  5.70E-11,  avg # of iterations =  1.7

     negative rho (up, down):  7.926E-01 0.000E+00

     total cpu time spent up to now is      745.6 secs

     total energy              =   -4440.30081997 Ry
     estimated scf accuracy    <       0.00000020 Ry

     iteration # 51     ecut=    60.00 Ry     beta= 0.15
     Davidson diagonalization with overlap

---- Real-time Memory Report at c_bands before calling an iterative solver
             0 MiB given to the printing process from OS
             0 MiB allocation reported by mallinfo(arena+hblkhd)
         50426 MiB available memory on the node where the printing process lives
------------------
     ethr =  4.65E-11,  avg # of iterations =  2.8

     negative rho (up, down):  7.926E-01 0.000E+00

     total cpu time spent up to now is      759.8 secs

     total energy              =   -4440.30081996 Ry
     estimated scf accuracy    <       0.00000011 Ry

     iteration # 52     ecut=    60.00 Ry     beta= 0.15
     Davidson diagonalization with overlap

---- Real-time Memory Report at c_bands before calling an iterative solver
             0 MiB given to the printing process from OS
             0 MiB allocation reported by mallinfo(arena+hblkhd)
         50430 MiB available memory on the node where the printing process lives
------------------
     ethr =  2.51E-11,  avg # of iterations =  2.2

     negative rho (up, down):  7.926E-01 0.000E+00

     total cpu time spent up to now is      773.8 secs

     total energy              =   -4440.30081998 Ry
     estimated scf accuracy    <       0.00000005 Ry

     iteration # 53     ecut=    60.00 Ry     beta= 0.15
     Davidson diagonalization with overlap

---- Real-time Memory Report at c_bands before calling an iterative solver
             0 MiB given to the printing process from OS
             0 MiB allocation reported by mallinfo(arena+hblkhd)
         50430 MiB available memory on the node where the printing process lives
------------------
     ethr =  1.08E-11,  avg # of iterations =  2.0

     negative rho (up, down):  7.926E-01 0.000E+00

     total cpu time spent up to now is      788.2 secs

     total energy              =   -4440.30081997 Ry
     estimated scf accuracy    <       0.00000004 Ry

     iteration # 54     ecut=    60.00 Ry     beta= 0.15
     Davidson diagonalization with overlap

---- Real-time Memory Report at c_bands before calling an iterative solver
             0 MiB given to the printing process from OS
             0 MiB allocation reported by mallinfo(arena+hblkhd)
         50428 MiB available memory on the node where the printing process lives
------------------
     ethr =  8.53E-12,  avg # of iterations =  2.2

     negative rho (up, down):  7.926E-01 0.000E+00

     total cpu time spent up to now is      803.0 secs

     total energy              =   -4440.30081997 Ry
     estimated scf accuracy    <       0.00000002 Ry

     iteration # 55     ecut=    60.00 Ry     beta= 0.15
     Davidson diagonalization with overlap

---- Real-time Memory Report at c_bands before calling an iterative solver
             0 MiB given to the printing process from OS
             0 MiB allocation reported by mallinfo(arena+hblkhd)
         50433 MiB available memory on the node where the printing process lives
------------------
     ethr =  4.67E-12,  avg # of iterations =  2.0

     negative rho (up, down):  7.926E-01 0.000E+00

     total cpu time spent up to now is      817.5 secs

     total energy              =   -4440.30081997 Ry
     estimated scf accuracy    <       0.00000002 Ry

     iteration # 56     ecut=    60.00 Ry     beta= 0.15
     Davidson diagonalization with overlap

---- Real-time Memory Report at c_bands before calling an iterative solver
             0 MiB given to the printing process from OS
             0 MiB allocation reported by mallinfo(arena+hblkhd)
         50431 MiB available memory on the node where the printing process lives
------------------
     ethr =  4.25E-12,  avg # of iterations =  1.3

     negative rho (up, down):  7.926E-01 0.000E+00

     total cpu time spent up to now is      831.2 secs

     total energy              =   -4440.30081996 Ry
     estimated scf accuracy    <       0.00000002 Ry

     iteration # 57     ecut=    60.00 Ry     beta= 0.15
     Davidson diagonalization with overlap

---- Real-time Memory Report at c_bands before calling an iterative solver
             0 MiB given to the printing process from OS
             0 MiB allocation reported by mallinfo(arena+hblkhd)
         50436 MiB available memory on the node where the printing process lives
------------------
     ethr =  3.71E-12,  avg # of iterations =  2.5

     negative rho (up, down):  7.926E-01 0.000E+00

     total cpu time spent up to now is      845.8 secs

     total energy              =   -4440.30081996 Ry
     estimated scf accuracy    <       0.00000001 Ry

     iteration # 58     ecut=    60.00 Ry     beta= 0.15
     Davidson diagonalization with overlap

---- Real-time Memory Report at c_bands before calling an iterative solver
             0 MiB given to the printing process from OS
             0 MiB allocation reported by mallinfo(arena+hblkhd)
         50438 MiB available memory on the node where the printing process lives
------------------
     ethr =  2.86E-12,  avg # of iterations =  1.3

     negative rho (up, down):  7.926E-01 0.000E+00

     total cpu time spent up to now is      858.9 secs

     End of self-consistent calculation

          k = 0.0000 0.0000 0.0000 ( 65197 PWs)   bands (ev):

   -92.8855 -92.8357 -92.7404 -92.6921 -92.6360 -92.5922 -92.5747 -92.4539
   -56.2390 -56.2208 -56.0969 -56.0859 -56.0795 -56.0728 -56.0397 -56.0091
   -55.9936 -55.9921 -55.9866 -55.9428 -55.9226 -55.8867 -55.8675 -55.8361
   -55.8276 -55.7800 -55.7800 -55.7771 -55.7687 -55.7292 -55.7047 -55.6190
   -31.4485 -31.4286 -31.2877 -31.2007 -31.1472 -31.1294 -30.9594 -30.9210
   -30.0302 -29.9868 -29.9618 -29.8536 -15.2620 -15.2145 -15.1358 -15.0067
   -14.8047 -14.6862 -14.3976 -14.3744 -14.3484 -14.3021 -14.2550 -14.2417
   -14.2307 -14.2124 -14.1886 -14.1532 -14.1109 -13.9568 -13.7686 -13.7447
   -13.7156 -13.6755 -13.6577 -13.6066 -13.5752 -13.4911 -13.4230 -13.2944
   -13.2810 -13.2694 -13.2466 -13.2286 -13.1789 -13.1715 -13.1679 -13.1516
   -13.1238 -13.0942 -13.0716 -13.0060 -12.9967 -12.9811 -12.9247 -12.9039
   -12.8970 -12.8418 -12.7998 -12.7912 -12.5153 -12.3686 -12.1878 -12.1142
   -12.0434 -11.9933 -11.9695 -11.9586 -11.9355 -11.9180 -11.8545 -11.8374
   -11.8022 -11.7733 -11.6619 -11.5822 -11.5787  -3.1226  -2.8916  -2.6621
    -2.5125  -2.4524  -2.3104  -2.0018  -1.9865  -1.9689  -1.8788  -1.8629
    -1.7950  -1.7780  -1.7381  -1.6940  -1.5129  -1.2843  -1.2544  -1.1128
    -1.0979  -1.0495  -1.0308  -0.9837  -0.9669  -0.9158  -0.8884  -0.8130
    -0.8022  -0.7289  -0.5938  -0.5807  -0.5521  -0.4729  -0.4450  -0.3931
    -0.3680  -0.3075  -0.2598  -0.2048  -0.1845  -0.1163  -0.0439  -0.0014
     0.0243   0.0346   0.2959   0.3117   0.4877   0.5459   0.6100   0.6628
     0.7474   0.7593   0.7758   0.8445   0.8714   0.9042   0.9616   1.0914
     1.1517   1.1736   1.2027   1.2134   1.2713   1.3378   1.4540   1.4740
     1.5288   1.5344   1.5812   1.6017   1.6131   1.6656   1.7306   1.7362
     1.7737   1.8004   1.8468   1.9798   2.0676   2.1069   2.1279   2.2713
     2.2860   2.3288   2.3339   2.4439   2.4763   2.5025   2.5212   2.5280
     2.5891   2.6102   2.6350   2.6561   2.7282   2.7649   2.7694   2.7751
     2.8426   2.8580   2.8710   2.8779   2.8877   2.9006   2.9083   2.9234
     2.9301   2.9387   2.9464   2.9538   2.9738   2.9951   3.0000   3.0124
     3.0357   3.1524   3.2588   3.9337   4.2514   4.6102   4.8278   4.8629
     5.7669   5.8102   5.8365   5.9273   6.1330   6.1783   6.4321   6.4426
     6.9403   6.9957   7.0853   7.1589   7.5030   7.5426   7.5582   7.5762
     7.6177   7.8673   7.9021   8.0301   8.0675   8.1445   8.3106   8.3885
     8.7574   8.9176

     occupation numbers 
     1.0000   1.0000   1.0000   1.0000   1.0000   1.0000   1.0000   1.0000
     1.0000   1.0000   1.0000   1.0000   1.0000   1.0000   1.0000   1.0000
     1.0000   1.0000   1.0000   1.0000   1.0000   1.0000   1.0000   1.0000
     1.0000   1.0000   1.0000   1.0000   1.0000   1.0000   1.0000   1.0000
     1.0000   1.0000   1.0000   1.0000   1.0000   1.0000   1.0000   1.0000
     1.0000   1.0000   1.0000   1.0000   1.0000   1.0000   1.0000   1.0000
     1.0000   1.0000   1.0000   1.0000   1.0000   1.0000   1.0000   1.0000
     1.0000   1.0000   1.0000   1.0000   1.0000   1.0000   1.0000   1.0000
     1.0000   1.0000   1.0000   1.0000   1.0000   1.0000   1.0000   1.0000
     1.0000   1.0000   1.0000   1.0000   1.0000   1.0000   1.0000   1.0000
     1.0000   1.0000   1.0000   1.0000   1.0000   1.0000   1.0000   1.0000
     1.0000   1.0000   1.0000   1.0000   1.0000   1.0000   1.0000   1.0000
     1.0000   1.0000   1.0000   1.0000   1.0000   1.0000   1.0000   1.0000
     1.0000   1.0000   1.0000   1.0000   1.0000   1.0000   1.0000   1.0000
     1.0000   1.0000   1.0000   1.0000   1.0000   1.0000   1.0000   1.0000
     1.0000   1.0000   1.0000   1.0000   1.0000   1.0000   1.0000   1.0000
     1.0000   1.0000   1.0000   1.0000   1.0000   1.0000   1.0000   1.0000
     1.0000   1.0000   1.0000   1.0000   1.0000   1.0000   1.0000   1.0000
     1.0000   1.0000   1.0000   1.0000   1.0000   1.0000   1.0000   1.0000
     1.0000   1.0000   1.0000   1.0000   1.0000   0.9999   0.9999   0.9999
     0.9998   0.9998   0.9998   0.9997   0.9996   0.9996   0.9994   0.9988
     0.9984   0.9983   0.9980   0.9979   0.9973   0.9963   0.9939   0.9934
     0.9917   0.9915   0.9898   0.9890   0.9885   0.9859   0.9820   0.9816
     0.9790   0.9769   0.9729   0.9580   0.9449   0.9381   0.9341   0.9023
     0.8984   0.8867   0.8852   0.8504   0.8390   0.8293   0.8221   0.8195
     0.7946   0.7856   0.7747   0.7652   0.7311   0.7128   0.7105   0.7076
     0.6723   0.6640   0.6569   0.6531   0.6477   0.6406   0.6363   0.6279
     0.6241   0.6193   0.6149   0.6107   0.5992   0.5870   0.5841   0.5769
     0.5634   0.4945   0.4318   0.1202   0.0499   0.0147   0.0062   0.0053
     0.0000   0.0000   0.0000   0.0000   0.0000   0.0000   0.0000   0.0000
     0.0000   0.0000   0.0000   0.0000   0.0000   0.0000   0.0000   0.0000
     0.0000   0.0000   0.0000   0.0000   0.0000   0.0000   0.0000   0.0000
     0.0000   0.0000

          k = 0.0000 0.2500 0.0000 ( 65257 PWs)   bands (ev):

   -92.8855 -92.8357 -92.7404 -92.6921 -92.6360 -92.5922 -92.5747 -92.4539
   -56.2390 -56.2208 -56.0969 -56.0859 -56.0795 -56.0728 -56.0397 -56.0091
   -55.9936 -55.9921 -55.9866 -55.9428 -55.9226 -55.8867 -55.8675 -55.8361
   -55.8276 -55.7800 -55.7800 -55.7771 -55.7687 -55.7292 -55.7047 -55.6190
   -31.4483 -31.4285 -31.2879 -31.2009 -31.1454 -31.1312 -30.9585 -30.9218
   -30.0296 -29.9865 -29.9625 -29.8539 -15.2256 -15.1881 -15.1111 -14.9769
   -14.8490 -14.6749 -14.5441 -14.3638 -14.3232 -14.3051 -14.2776 -14.2177
   -14.2122 -14.1965 -14.1711 -14.1198 -14.0293 -13.9868 -13.8241 -13.7940
   -13.7559 -13.7184 -13.6559 -13.6290 -13.5782 -13.5168 -13.4772 -13.4044
   -13.3334 -13.3181 -13.2795 -13.2606 -13.1599 -13.1587 -13.1300 -13.1063
   -13.0739 -13.0449 -13.0388 -12.9722 -12.9522 -12.9337 -12.9022 -12.8936
   -12.8817 -12.8315 -12.7111 -12.6432 -12.5766 -12.4198 -12.2465 -12.1821
   -12.0089 -11.9933 -11.9663 -11.9383 -11.9104 -11.8938 -11.8461 -11.8350
   -11.8124 -11.7777 -11.6764 -11.6239 -11.6133  -2.9871  -2.7673  -2.6290
    -2.4463  -2.4031  -2.2407  -2.0166  -1.9373  -1.9241  -1.8586  -1.7619
    -1.7460  -1.7122  -1.6845  -1.6403  -1.4442  -1.3135  -1.3023  -1.2244
    -1.2152  -1.1123  -1.0832  -1.0238  -0.9963  -0.9594  -0.8925  -0.8648
    -0.8339  -0.8034  -0.7866  -0.7535  -0.6796  -0.6296  -0.5474  -0.4443
    -0.4109  -0.3678  -0.2697  -0.2290  -0.1619  -0.1192  -0.0582  -0.0466
    -0.0202   0.0390   0.3438   0.4312   0.4673   0.5510   0.5976   0.6198
     0.7300   0.7478   0.8458   0.8721   0.8960   1.0104   1.1106   1.1274
     1.1543   1.1766   1.1951   1.2541   1.2832   1.3109   1.3569   1.3953
     1.4288   1.5191   1.5563   1.5801   1.6362   1.6891   1.7279   1.7571
     1.7813   1.7942   1.8988   2.0177   2.0908   2.1119   2.1788   2.2248
     2.2669   2.2731   2.3359   2.3726   2.4593   2.4946   2.5130   2.6030
     2.6114   2.6371   2.6881   2.7079   2.7394   2.7649   2.7778   2.7870
     2.7915   2.8007   2.8310   2.8347   2.8508   2.8641   2.8661   2.8887
     2.8999   2.9075   2.9250   2.9360   2.9437   2.9766   2.9928   3.0521
     3.4218   3.4726   3.7022   4.1238   4.2483   4.5520   4.8809   4.9897
     5.5124   5.6586   5.8099   5.9128   5.9595   6.0584   6.0809   6.5469
     7.0296   7.1057   7.2225   7.2442   7.3452   7.4041   7.5443   7.6510
     7.7244   8.0146   8.0694   8.1631   8.2737   8.2956   8.3262   8.3897
     8.4439   8.8158

     occupation numbers 
     1.0000   1.0000   1.0000   1.0000   1.0000   1.0000   1.0000   1.0000
     1.0000   1.0000   1.0000   1.0000   1.0000   1.0000   1.0000   1.0000
     1.0000   1.0000   1.0000   1.0000   1.0000   1.0000   1.0000   1.0000
     1.0000   1.0000   1.0000   1.0000   1.0000   1.0000   1.0000   1.0000
     1.0000   1.0000   1.0000   1.0000   1.0000   1.0000   1.0000   1.0000
     1.0000   1.0000   1.0000   1.0000   1.0000   1.0000   1.0000   1.0000
     1.0000   1.0000   1.0000   1.0000   1.0000   1.0000   1.0000   1.0000
     1.0000   1.0000   1.0000   1.0000   1.0000   1.0000   1.0000   1.0000
     1.0000   1.0000   1.0000   1.0000   1.0000   1.0000   1.0000   1.0000
     1.0000   1.0000   1.0000   1.0000   1.0000   1.0000   1.0000   1.0000
     1.0000   1.0000   1.0000   1.0000   1.0000   1.0000   1.0000   1.0000
     1.0000   1.0000   1.0000   1.0000   1.0000   1.0000   1.0000   1.0000
     1.0000   1.0000   1.0000   1.0000   1.0000   1.0000   1.0000   1.0000
     1.0000   1.0000   1.0000   1.0000   1.0000   1.0000   1.0000   1.0000
     1.0000   1.0000   1.0000   1.0000   1.0000   1.0000   1.0000   1.0000
     1.0000   1.0000   1.0000   1.0000   1.0000   1.0000   1.0000   1.0000
     1.0000   1.0000   1.0000   1.0000   1.0000   1.0000   1.0000   1.0000
     1.0000   1.0000   1.0000   1.0000   1.0000   1.0000   1.0000   1.0000
     1.0000   1.0000   1.0000   1.0000   1.0000   1.0000   1.0000   1.0000
     1.0000   1.0000   1.0000   1.0000   1.0000   0.9999   0.9999   0.9999
     0.9998   0.9998   0.9997   0.9996   0.9996   0.9992   0.9987   0.9986
     0.9984   0.9983   0.9981   0.9975   0.9971   0.9967   0.9960   0.9953
     0.9945   0.9921   0.9908   0.9899   0.9874   0.9846   0.9822   0.9802
     0.9784   0.9774   0.9677   0.9527   0.9409   0.9371   0.9239   0.9136
     0.9034   0.9018   0.8847   0.8737   0.8451   0.8322   0.8253   0.7887
     0.7851   0.7738   0.7504   0.7409   0.7256   0.7128   0.7062   0.7015
     0.6992   0.6944   0.6785   0.6765   0.6679   0.6607   0.6596   0.6472
     0.6410   0.6368   0.6270   0.6208   0.6164   0.5976   0.5883   0.5537
     0.3395   0.3123   0.2032   0.0727   0.0504   0.0182   0.0049   0.0031
     0.0002   0.0001   0.0000   0.0000   0.0000   0.0000   0.0000   0.0000
     0.0000   0.0000   0.0000   0.0000   0.0000   0.0000   0.0000   0.0000
     0.0000   0.0000   0.0000   0.0000   0.0000   0.0000   0.0000   0.0000
     0.0000   0.0000

          k = 0.0000-0.5000 0.0000 ( 65180 PWs)   bands (ev):

   -92.8855 -92.8357 -92.7404 -92.6921 -92.6360 -92.5922 -92.5747 -92.4539
   -56.2390 -56.2208 -56.0969 -56.0859 -56.0795 -56.0728 -56.0397 -56.0091
   -55.9936 -55.9921 -55.9866 -55.9428 -55.9226 -55.8867 -55.8675 -55.8361
   -55.8276 -55.7800 -55.7800 -55.7771 -55.7687 -55.7292 -55.7047 -55.6190
   -31.4481 -31.4284 -31.2881 -31.2010 -31.1428 -31.1338 -30.9576 -30.9227
   -30.0289 -29.9862 -29.9631 -29.8543 -15.1889 -15.1403 -15.0869 -14.9546
   -14.8754 -14.7360 -14.5806 -14.4528 -14.3369 -14.2606 -14.2201 -14.2121
   -14.1604 -14.1484 -14.1020 -14.0695 -14.0534 -14.0139 -13.9597 -13.9381
   -13.7629 -13.7033 -13.6564 -13.6350 -13.5675 -13.5350 -13.4824 -13.4529
   -13.4261 -13.3878 -13.2803 -13.2611 -13.1463 -13.1370 -13.1104 -13.1092
   -13.0996 -13.0541 -12.9477 -12.9266 -12.9013 -12.8876 -12.8779 -12.8587
   -12.8375 -12.8244 -12.6875 -12.5593 -12.4946 -12.4244 -12.3586 -12.3221
   -11.9932 -11.9631 -11.9604 -11.9332 -11.8968 -11.8619 -11.8507 -11.8075
   -11.8038 -11.7590 -11.6984 -11.6848 -11.6707  -2.7717  -2.7142  -2.5641
    -2.4924  -2.2058  -2.1257  -1.9988  -1.8629  -1.8167  -1.8045  -1.7272
    -1.6941  -1.6138  -1.5778  -1.4976  -1.4600  -1.4227  -1.3949  -1.3331
    -1.2993  -1.2492  -1.2136  -1.1838  -1.1488  -1.0397  -0.9956  -0.9572
    -0.9535  -0.8678  -0.8377  -0.8165  -0.7688  -0.6757  -0.6082  -0.5152
    -0.4648  -0.3814  -0.3508  -0.2110  -0.1433  -0.1358  -0.0878   0.0305
     0.0944   0.2103   0.2813   0.2924   0.4161   0.4872   0.5711   0.6969
     0.8005   0.8344   0.8743   0.8909   0.9219   0.9351   0.9689   0.9866
     0.9996   1.1084   1.1691   1.2061   1.2367   1.5083   1.5214   1.5442
     1.6350   1.6600   1.6940   1.7107   1.7315   1.7553   1.7595   1.7825
     1.8278   1.8543   1.8866   1.8900   1.9195   1.9719   2.0655   2.0984
     2.2622   2.4214   2.4282   2.4510   2.4865   2.4937   2.5002   2.5390
     2.5613   2.5937   2.6107   2.6163   2.6366   2.6455   2.7211   2.7442
     2.8023   2.8057   2.8331   2.8376   2.8481   2.8519   2.8559   2.8635
     2.8698   2.8849   2.8957   2.9004   2.9615   2.9663   2.9825   3.0389
     3.9470   3.9649   4.0091   4.1047   4.5609   4.7314   4.9013   5.0216
     5.2834   5.3645   5.4878   5.6019   5.8675   5.8712   6.4064   6.6281
     6.7887   6.8941   7.1419   7.3085   7.5807   7.6523   7.7469   7.7726
     7.7834   7.9994   8.0465   8.1940   8.2093   8.3200   8.3509   8.5163
     8.6863   8.7369

     occupation numbers 
     1.0000   1.0000   1.0000   1.0000   1.0000   1.0000   1.0000   1.0000
     1.0000   1.0000   1.0000   1.0000   1.0000   1.0000   1.0000   1.0000
     1.0000   1.0000   1.0000   1.0000   1.0000   1.0000   1.0000   1.0000
     1.0000   1.0000   1.0000   1.0000   1.0000   1.0000   1.0000   1.0000
     1.0000   1.0000   1.0000   1.0000   1.0000   1.0000   1.0000   1.0000
     1.0000   1.0000   1.0000   1.0000   1.0000   1.0000   1.0000   1.0000
     1.0000   1.0000   1.0000   1.0000   1.0000   1.0000   1.0000   1.0000
     1.0000   1.0000   1.0000   1.0000   1.0000   1.0000   1.0000   1.0000
     1.0000   1.0000   1.0000   1.0000   1.0000   1.0000   1.0000   1.0000
     1.0000   1.0000   1.0000   1.0000   1.0000   1.0000   1.0000   1.0000
     1.0000   1.0000   1.0000   1.0000   1.0000   1.0000   1.0000   1.0000
     1.0000   1.0000   1.0000   1.0000   1.0000   1.0000   1.0000   1.0000
     1.0000   1.0000   1.0000   1.0000   1.0000   1.0000   1.0000   1.0000
     1.0000   1.0000   1.0000   1.0000   1.0000   1.0000   1.0000   1.0000
     1.0000   1.0000   1.0000   1.0000   1.0000   1.0000   1.0000   1.0000
     1.0000   1.0000   1.0000   1.0000   1.0000   1.0000   1.0000   1.0000
     1.0000   1.0000   1.0000   1.0000   1.0000   1.0000   1.0000   1.0000
     1.0000   1.0000   1.0000   1.0000   1.0000   1.0000   1.0000   1.0000
     1.0000   1.0000   1.0000   1.0000   1.0000   1.0000   1.0000   1.0000
     1.0000   1.0000   1.0000   1.0000   1.0000   1.0000   0.9999   0.9999
     0.9997   0.9997   0.9996   0.9996   0.9995   0.9995   0.9994   0.9993
     0.9993   0.9987   0.9983   0.9980   0.9977   0.9924   0.9920   0.9912
     0.9874   0.9862   0.9843   0.9833   0.9820   0.9803   0.9800   0.9783
     0.9746   0.9722   0.9690   0.9686   0.9654   0.9590   0.9452   0.9396
     0.9046   0.8581   0.8558   0.8479   0.8352   0.8325   0.8301   0.8152
     0.8062   0.7927   0.7854   0.7830   0.7740   0.7700   0.7345   0.7232
     0.6936   0.6918   0.6773   0.6750   0.6693   0.6673   0.6651   0.6610
     0.6576   0.6493   0.6433   0.6407   0.6063   0.6035   0.5943   0.5615
     0.1163   0.1112   0.0992   0.0767   0.0176   0.0092   0.0045   0.0026
     0.0007   0.0005   0.0002   0.0001   0.0000   0.0000   0.0000   0.0000
     0.0000   0.0000   0.0000   0.0000   0.0000   0.0000   0.0000   0.0000
     0.0000   0.0000   0.0000   0.0000   0.0000   0.0000   0.0000   0.0000
     0.0000   0.0000

          k = 0.2500 0.2500 0.0000 ( 65198 PWs)   bands (ev):

   -92.8855 -92.8357 -92.7404 -92.6921 -92.6360 -92.5922 -92.5747 -92.4539
   -56.2390 -56.2208 -56.0969 -56.0859 -56.0795 -56.0728 -56.0397 -56.0091
   -55.9936 -55.9921 -55.9866 -55.9428 -55.9226 -55.8867 -55.8675 -55.8361
   -55.8276 -55.7800 -55.7800 -55.7771 -55.7687 -55.7292 -55.7047 -55.6190
   -31.4467 -31.4301 -31.2876 -31.2013 -31.1452 -31.1311 -30.9587 -30.9220
   -30.0286 -29.9875 -29.9621 -29.8543 -15.1966 -15.1533 -15.0831 -14.9665
   -14.8414 -14.7178 -14.6497 -14.4374 -14.2864 -14.2713 -14.2357 -14.2058
   -14.1847 -14.1535 -14.1179 -14.0812 -14.0191 -13.9999 -13.8401 -13.8255
   -13.7964 -13.7765 -13.6956 -13.6843 -13.6051 -13.5996 -13.4623 -13.4202
   -13.3989 -13.3127 -13.2726 -13.2209 -13.1899 -13.1499 -13.1260 -13.1142
   -13.0884 -13.0400 -12.9868 -12.9436 -12.9201 -12.9157 -12.8862 -12.8758
   -12.8431 -12.8260 -12.6507 -12.6250 -12.5500 -12.4487 -12.2784 -12.2300
   -11.9933 -11.9811 -11.9498 -11.9387 -11.9317 -11.8690 -11.8345 -11.8279
   -11.7924 -11.7844 -11.6931 -11.6522 -11.6347  -2.8486  -2.6415  -2.5231
    -2.4263  -2.3085  -2.2439  -2.0411  -1.9015  -1.8828  -1.8467  -1.7560
    -1.7229  -1.6285  -1.6002  -1.5499  -1.4201  -1.3715  -1.2960  -1.2531
    -1.2069  -1.1847  -1.1618  -1.1190  -1.1039  -1.0124  -0.9626  -0.8908
    -0.8442  -0.8162  -0.7695  -0.7539  -0.6895  -0.6394  -0.5716  -0.5459
    -0.4503  -0.4080  -0.3736  -0.3404  -0.2849  -0.2067  -0.1732  -0.1376
    -0.0695  -0.0337   0.2322   0.3846   0.4143   0.4792   0.5163   0.5789
     0.6219   0.6913   0.7298   1.0015   1.0619   1.1358   1.1585   1.2164
     1.2392   1.2769   1.3141   1.3297   1.3572   1.4059   1.4124   1.4317
     1.4786   1.5128   1.5509   1.6132   1.6486   1.6643   1.6919   1.7278
     1.7841   1.8063   1.9361   1.9990   2.0334   2.0530   2.1278   2.1867
     2.2147   2.2504   2.2780   2.2870   2.4018   2.4406   2.5193   2.5986
     2.6078   2.6417   2.6953   2.7152   2.7188   2.7358   2.7508   2.7648
     2.7756   2.7804   2.7936   2.8070   2.8263   2.8362   2.8421   2.8551
     2.8831   2.8887   2.8966   2.9284   3.2280   3.3204   3.3777   3.4392
     3.4548   3.6908   3.7719   4.1293   4.3386   4.5590   4.8035   5.1289
     5.4991   5.5627   5.6279   5.6593   5.7214   6.0901   6.1561   6.2172
     6.8358   7.1882   7.2082   7.3744   7.4520   7.4800   7.5910   7.7581
     7.8682   7.9401   8.2022   8.2990   8.3245   8.3909   8.4539   8.4907
     8.5110   8.5708

     occupation numbers 
     1.0000   1.0000   1.0000   1.0000   1.0000   1.0000   1.0000   1.0000
     1.0000   1.0000   1.0000   1.0000   1.0000   1.0000   1.0000   1.0000
     1.0000   1.0000   1.0000   1.0000   1.0000   1.0000   1.0000   1.0000
     1.0000   1.0000   1.0000   1.0000   1.0000   1.0000   1.0000   1.0000
     1.0000   1.0000   1.0000   1.0000   1.0000   1.0000   1.0000   1.0000
     1.0000   1.0000   1.0000   1.0000   1.0000   1.0000   1.0000   1.0000
     1.0000   1.0000   1.0000   1.0000   1.0000   1.0000   1.0000   1.0000
     1.0000   1.0000   1.0000   1.0000   1.0000   1.0000   1.0000   1.0000
     1.0000   1.0000   1.0000   1.0000   1.0000   1.0000   1.0000   1.0000
     1.0000   1.0000   1.0000   1.0000   1.0000   1.0000   1.0000   1.0000
     1.0000   1.0000   1.0000   1.0000   1.0000   1.0000   1.0000   1.0000
     1.0000   1.0000   1.0000   1.0000   1.0000   1.0000   1.0000   1.0000
     1.0000   1.0000   1.0000   1.0000   1.0000   1.0000   1.0000   1.0000
     1.0000   1.0000   1.0000   1.0000   1.0000   1.0000   1.0000   1.0000
     1.0000   1.0000   1.0000   1.0000   1.0000   1.0000   1.0000   1.0000
     1.0000   1.0000   1.0000   1.0000   1.0000   1.0000   1.0000   1.0000
     1.0000   1.0000   1.0000   1.0000   1.0000   1.0000   1.0000   1.0000
     1.0000   1.0000   1.0000   1.0000   1.0000   1.0000   1.0000   1.0000
     1.0000   1.0000   1.0000   1.0000   1.0000   1.0000   1.0000   1.0000
     1.0000   1.0000   1.0000   1.0000   1.0000   1.0000   1.0000   0.9999
     0.9999   0.9999   0.9998   0.9993   0.9990   0.9986   0.9984   0.9979
     0.9977   0.9972   0.9967   0.9965   0.9960   0.9951   0.9949   0.9945
     0.9933   0.9923   0.9910   0.9884   0.9868   0.9859   0.9844   0.9822
     0.9782   0.9764   0.9635   0.9553   0.9503   0.9472   0.9342   0.9222
     0.9160   0.9075   0.9005   0.8982   0.8645   0.8516   0.8229   0.7906
     0.7867   0.7717   0.7469   0.7374   0.7357   0.7273   0.7199   0.7129
     0.7074   0.7049   0.6981   0.6911   0.6810   0.6757   0.6726   0.6656
     0.6503   0.6472   0.6428   0.6250   0.4498   0.3962   0.3638   0.3301
     0.3218   0.2080   0.1752   0.0715   0.0379   0.0178   0.0068   0.0016
     0.0002   0.0002   0.0001   0.0001   0.0001   0.0000   0.0000   0.0000
     0.0000   0.0000   0.0000   0.0000   0.0000   0.0000   0.0000   0.0000
     0.0000   0.0000   0.0000   0.0000   0.0000   0.0000   0.0000   0.0000
     0.0000   0.0000

          k = 0.2500-0.5000 0.0000 ( 65138 PWs)   bands (ev):

   -92.8855 -92.8357 -92.7404 -92.6921 -92.6360 -92.5922 -92.5747 -92.4539
   -56.2390 -56.2208 -56.0969 -56.0859 -56.0795 -56.0728 -56.0397 -56.0091
   -55.9936 -55.9921 -55.9866 -55.9428 -55.9226 -55.8867 -55.8675 -55.8361
   -55.8276 -55.7800 -55.7800 -55.7771 -55.7687 -55.7292 -55.7047 -55.6190
   -31.4465 -31.4300 -31.2878 -31.2014 -31.1426 -31.1337 -30.9578 -30.9229
   -30.0280 -29.9872 -29.9627 -29.8547 -15.1582 -15.1134 -15.0437 -14.9258
   -14.8969 -14.7776 -14.6839 -14.5523 -14.2520 -14.1952 -14.1710 -14.1467
   -14.1307 -14.1213 -14.0856 -14.0593 -14.0278 -13.9950 -13.9617 -13.9199
   -13.8438 -13.7945 -13.7166 -13.7092 -13.6425 -13.6114 -13.5174 -13.4803
   -13.3784 -13.3134 -13.2904 -13.2055 -13.1628 -13.1481 -13.1176 -13.0952
   -13.0833 -13.0679 -12.9511 -12.9381 -12.9108 -12.8954 -12.8635 -12.8468
   -12.8275 -12.7963 -12.6939 -12.5413 -12.4919 -12.4033 -12.3468 -12.3218
   -11.9933 -11.9569 -11.9447 -11.9341 -11.9070 -11.8751 -11.8472 -11.8050
   -11.7785 -11.7558 -11.7114 -11.6860 -11.6747  -2.6289  -2.5659  -2.4377
    -2.3610  -2.2264  -2.1453  -2.0231  -1.8732  -1.8152  -1.7944  -1.7342
    -1.7217  -1.6246  -1.5566  -1.4727  -1.4201  -1.4105  -1.3499  -1.3044
    -1.2726  -1.2237  -1.1857  -1.1519  -1.1136  -1.1006  -1.0559  -1.0260
    -0.9806  -0.9521  -0.8843  -0.7782  -0.7446  -0.6619  -0.5957  -0.5402
    -0.5034  -0.4872  -0.4204  -0.2716  -0.2613  -0.1339  -0.1232  -0.1147
    -0.0703  -0.0325  -0.0011   0.0310   0.0960   0.3889   0.4840   0.5369
     0.5897   0.8692   0.8811   0.9737   0.9980   1.1594   1.2007   1.2346
     1.2577   1.2697   1.2931   1.3588   1.4122   1.4452   1.5163   1.6202
     1.6503   1.6707   1.6777   1.7151   1.7293   1.7376   1.7809   1.7912
     1.8108   1.8491   1.8595   1.8798   1.9150   1.9721   2.0193   2.0980
     2.2280   2.3729   2.3911   2.4094   2.4387   2.4612   2.4875   2.5084
     2.5187   2.5388   2.5893   2.6014   2.6404   2.6482   2.7013   2.7167
     2.7294   2.7342   2.7519   2.7648   2.7843   2.7945   2.8383   2.8446
     2.8528   2.8590   2.8702   2.8778   3.3968   3.4286   3.5599   3.6141
     3.9492   4.0100   4.0183   4.1517   4.5798   4.7521   4.9210   4.9756
     5.1320   5.3117   5.5079   5.5513   5.6299   5.6695   6.3418   6.4464
     6.5102   6.7481   7.3549   7.5846   7.6536   7.6815   7.7233   7.7812
     7.8807   7.9256   8.2356   8.3266   8.4036   8.4477   8.5470   8.5585
     8.5872   8.6369

     occupation numbers 
     1.0000   1.0000   1.0000   1.0000   1.0000   1.0000   1.0000   1.0000
     1.0000   1.0000   1.0000   1.0000   1.0000   1.0000   1.0000   1.0000
     1.0000   1.0000   1.0000   1.0000   1.0000   1.0000   1.0000   1.0000
     1.0000   1.0000   1.0000   1.0000   1.0000   1.0000   1.0000   1.0000
     1.0000   1.0000   1.0000   1.0000   1.0000   1.0000   1.0000   1.0000
     1.0000   1.0000   1.0000   1.0000   1.0000   1.0000   1.0000   1.0000
     1.0000   1.0000   1.0000   1.0000   1.0000   1.0000   1.0000   1.0000
     1.0000   1.0000   1.0000   1.0000   1.0000   1.0000   1.0000   1.0000
     1.0000   1.0000   1.0000   1.0000   1.0000   1.0000   1.0000   1.0000
     1.0000   1.0000   1.0000   1.0000   1.0000   1.0000   1.0000   1.0000
     1.0000   1.0000   1.0000   1.0000   1.0000   1.0000   1.0000   1.0000
     1.0000   1.0000   1.0000   1.0000   1.0000   1.0000   1.0000   1.0000
     1.0000   1.0000   1.0000   1.0000   1.0000   1.0000   1.0000   1.0000
     1.0000   1.0000   1.0000   1.0000   1.0000   1.0000   1.0000   1.0000
     1.0000   1.0000   1.0000   1.0000   1.0000   1.0000   1.0000   1.0000
     1.0000   1.0000   1.0000   1.0000   1.0000   1.0000   1.0000   1.0000
     1.0000   1.0000   1.0000   1.0000   1.0000   1.0000   1.0000   1.0000
     1.0000   1.0000   1.0000   1.0000   1.0000   1.0000   1.0000   1.0000
     1.0000   1.0000   1.0000   1.0000   1.0000   1.0000   1.0000   1.0000
     1.0000   1.0000   1.0000   1.0000   1.0000   1.0000   1.0000   0.9999
     0.9999   0.9996   0.9996   0.9994   0.9993   0.9984   0.9980   0.9977
     0.9974   0.9973   0.9970   0.9960   0.9949   0.9942   0.9921   0.9881
     0.9867   0.9856   0.9852   0.9830   0.9821   0.9816   0.9784   0.9776
[...]
     0.6326   0.6211   0.6183   0.6145   0.6090   0.6048   0.5992   0.5264
     0.3529   0.3154   0.2025   0.0769   0.0446   0.0203   0.0050   0.0030
     0.0002   0.0001   0.0000   0.0000   0.0000   0.0000   0.0000   0.0000
     0.0000   0.0000   0.0000   0.0000   0.0000   0.0000   0.0000   0.0000
     0.0000   0.0000   0.0000   0.0000   0.0000   0.0000   0.0000   0.0000
     0.0000   0.0000

          k =-0.5000 0.0000 0.0000 ( 65180 PWs)   bands (ev):

   -92.8855 -92.8357 -92.7404 -92.6921 -92.6360 -92.5922 -92.5747 -92.4539
   -56.2390 -56.2208 -56.0969 -56.0859 -56.0795 -56.0728 -56.0397 -56.0091
   -55.9936 -55.9921 -55.9866 -55.9428 -55.9226 -55.8867 -55.8675 -55.8361
   -55.8276 -55.7800 -55.7800 -55.7771 -55.7687 -55.7292 -55.7047 -55.6190
   -31.4448 -31.4323 -31.2870 -31.2015 -31.1469 -31.1291 -30.9597 -30.9213
   -30.0282 -29.9889 -29.9610 -29.8544 -15.1951 -15.1407 -15.0798 -14.9673
   -14.8686 -14.7238 -14.5755 -14.4261 -14.3115 -14.2925 -14.2877 -14.2197
   -14.1679 -14.1373 -14.0858 -14.0712 -14.0588 -14.0129 -13.9852 -13.8849
   -13.7344 -13.6849 -13.6713 -13.6606 -13.5801 -13.5407 -13.4754 -13.4379
   -13.4139 -13.3991 -13.2258 -13.2125 -13.1889 -13.1792 -13.1596 -13.1182
   -13.0969 -13.0744 -12.9966 -12.9784 -12.8834 -12.8549 -12.8135 -12.8038
   -12.8011 -12.7951 -12.7135 -12.6032 -12.4985 -12.4732 -12.3428 -12.3002
   -11.9933 -11.9605 -11.9386 -11.9321 -11.9177 -11.8993 -11.8578 -11.7958
   -11.7779 -11.7448 -11.7005 -11.6915 -11.6759  -2.7624  -2.7243  -2.5617
    -2.5225  -2.2064  -2.1286  -1.9858  -1.8680  -1.8267  -1.7795  -1.7342
    -1.7110  -1.5867  -1.5432  -1.5253  -1.4442  -1.4095  -1.3906  -1.3625
    -1.3015  -1.2347  -1.2073  -1.1730  -1.0803  -1.0354  -0.9846  -0.9526
    -0.9324  -0.8968  -0.8522  -0.8281  -0.7890  -0.6789  -0.6201  -0.5367
    -0.4786  -0.3243  -0.2807  -0.2372  -0.1776  -0.1341  -0.1174   0.0210
     0.0515   0.0957   0.2587   0.3589   0.4068   0.5083   0.5632   0.6811
     0.6922   0.8270   0.8524   0.9073   0.9452   0.9771   0.9833   1.0334
     1.0537   1.1247   1.1722   1.2180   1.2344   1.5286   1.5403   1.5574
     1.5864   1.6803   1.6968   1.7074   1.7153   1.7486   1.7588   1.7947
     1.8176   1.8407   1.8962   1.9146   1.9653   1.9878   2.0443   2.1573
     2.2497   2.3211   2.3360   2.4169   2.4434   2.4676   2.5278   2.5460
     2.5544   2.5836   2.5921   2.6322   2.6522   2.6558   2.7032   2.7652
     2.7732   2.8185   2.8244   2.8291   2.8350   2.8540   2.8646   2.8752
     2.8864   2.9030   2.9044   2.9273   2.9463   2.9513   3.0802   3.0895
     3.8889   3.9641   4.0233   4.1431   4.6163   4.6975   4.8991   4.9217
     5.3777   5.4037   5.4852   5.5234   5.8589   5.8835   6.4187   6.6261
     6.7296   6.9494   7.1977   7.2584   7.6173   7.6321   7.6971   7.7380
     7.7998   8.0075   8.1004   8.1304   8.2585   8.3446   8.3688   8.4839
     8.6339   8.7688

     occupation numbers 
     1.0000   1.0000   1.0000   1.0000   1.0000   1.0000   1.0000   1.0000
     1.0000   1.0000   1.0000   1.0000   1.0000   1.0000   1.0000   1.0000
     1.0000   1.0000   1.0000   1.0000   1.0000   1.0000   1.0000   1.0000
     1.0000   1.0000   1.0000   1.0000   1.0000   1.0000   1.0000   1.0000
     1.0000   1.0000   1.0000   1.0000   1.0000   1.0000   1.0000   1.0000
     1.0000   1.0000   1.0000   1.0000   1.0000   1.0000   1.0000   1.0000
     1.0000   1.0000   1.0000   1.0000   1.0000   1.0000   1.0000   1.0000
     1.0000   1.0000   1.0000   1.0000   1.0000   1.0000   1.0000   1.0000
     1.0000   1.0000   1.0000   1.0000   1.0000   1.0000   1.0000   1.0000
     1.0000   1.0000   1.0000   1.0000   1.0000   1.0000   1.0000   1.0000
     1.0000   1.0000   1.0000   1.0000   1.0000   1.0000   1.0000   1.0000
     1.0000   1.0000   1.0000   1.0000   1.0000   1.0000   1.0000   1.0000
     1.0000   1.0000   1.0000   1.0000   1.0000   1.0000   1.0000   1.0000
     1.0000   1.0000   1.0000   1.0000   1.0000   1.0000   1.0000   1.0000
     1.0000   1.0000   1.0000   1.0000   1.0000   1.0000   1.0000   1.0000
     1.0000   1.0000   1.0000   1.0000   1.0000   1.0000   1.0000   1.0000
     1.0000   1.0000   1.0000   1.0000   1.0000   1.0000   1.0000   1.0000
     1.0000   1.0000   1.0000   1.0000   1.0000   1.0000   1.0000   1.0000
     1.0000   1.0000   1.0000   1.0000   1.0000   1.0000   1.0000   1.0000
     1.0000   1.0000   1.0000   1.0000   1.0000   1.0000   0.9999   0.9999
     0.9999   0.9997   0.9997   0.9995   0.9995   0.9994   0.9993   0.9991
     0.9990   0.9986   0.9983   0.9979   0.9977   0.9917   0.9913   0.9907
     0.9896   0.9851   0.9841   0.9835   0.9830   0.9808   0.9801   0.9774
     0.9755   0.9734   0.9680   0.9659   0.9598   0.9569   0.9486   0.9284
     0.9077   0.8889   0.8846   0.8595   0.8506   0.8421   0.8195   0.8123
     0.8090   0.7970   0.7934   0.7760   0.7670   0.7654   0.7432   0.7127
     0.7086   0.6851   0.6820   0.6795   0.6764   0.6661   0.6604   0.6546
     0.6485   0.6393   0.6385   0.6257   0.6149   0.6121   0.5372   0.5317
     0.1341   0.1114   0.0956   0.0688   0.0144   0.0105   0.0046   0.0041
     0.0005   0.0004   0.0003   0.0002   0.0000   0.0000   0.0000   0.0000
     0.0000   0.0000   0.0000   0.0000   0.0000   0.0000   0.0000   0.0000
     0.0000   0.0000   0.0000   0.0000   0.0000   0.0000   0.0000   0.0000
     0.0000   0.0000

          k =-0.2500 0.2500 0.0000 ( 65198 PWs)   bands (ev):

   -92.8855 -92.8357 -92.7404 -92.6921 -92.6360 -92.5922 -92.5747 -92.4539
   -56.2390 -56.2208 -56.0969 -56.0859 -56.0795 -56.0728 -56.0397 -56.0091
   -55.9936 -55.9921 -55.9866 -55.9428 -55.9226 -55.8867 -55.8675 -55.8361
   -55.8276 -55.7800 -55.7800 -55.7771 -55.7687 -55.7292 -55.7047 -55.6190
   -31.4467 -31.4301 -31.2876 -31.2013 -31.1452 -31.1311 -30.9587 -30.9220
   -30.0286 -29.9875 -29.9621 -29.8543 -15.1979 -15.1523 -15.0815 -14.9653
   -14.8471 -14.7230 -14.6416 -14.4279 -14.2928 -14.2636 -14.2473 -14.2023
   -14.1777 -14.1566 -14.1276 -14.0881 -14.0146 -14.0004 -13.8480 -13.8230
   -13.7912 -13.7725 -13.6982 -13.6751 -13.6086 -13.5955 -13.4669 -13.4222
   -13.3936 -13.3170 -13.2738 -13.2110 -13.1799 -13.1577 -13.1268 -13.1153
   -13.0979 -13.0347 -12.9935 -12.9459 -12.9431 -12.9152 -12.8757 -12.8653
   -12.8411 -12.8259 -12.6409 -12.6148 -12.5609 -12.4544 -12.2809 -12.2267
   -11.9933 -11.9803 -11.9590 -11.9321 -11.9198 -11.8785 -11.8443 -11.8208
   -11.7996 -11.7770 -11.6928 -11.6475 -11.6381  -2.8470  -2.6404  -2.5191
    -2.4276  -2.3129  -2.2467  -2.0385  -1.8987  -1.8803  -1.8447  -1.7567
    -1.7218  -1.6285  -1.5933  -1.5672  -1.4263  -1.3695  -1.2988  -1.2720
    -1.2101  -1.1919  -1.1514  -1.1230  -1.0826  -1.0185  -0.9709  -0.9003
    -0.8371  -0.8124  -0.7631  -0.7338  -0.6881  -0.6284  -0.5736  -0.5418
    -0.4337  -0.4105  -0.3897  -0.3492  -0.2885  -0.2120  -0.1731  -0.1274
    -0.0652  -0.0356   0.2118   0.3896   0.4215   0.4664   0.5243   0.5785
     0.6262   0.6971   0.7277   1.0094   1.1125   1.1525   1.1857   1.1966
     1.2335   1.2486   1.2955   1.3267   1.3383   1.3645   1.4155   1.4317
     1.4695   1.4962   1.5377   1.6256   1.6417   1.6633   1.6939   1.7262
     1.7650   1.8144   1.9245   2.0306   2.0539   2.1028   2.1232   2.1849
     2.2262   2.2531   2.2779   2.2986   2.4020   2.4387   2.5213   2.5957
     2.6090   2.6410   2.7049   2.7108   2.7253   2.7326   2.7448   2.7595
     2.7679   2.7844   2.7973   2.8059   2.8200   2.8282   2.8380   2.8462
     2.8813   2.8909   2.8962   2.9305   3.2215   3.3023   3.3792   3.4440
     3.4640   3.6754   3.7802   4.1286   4.3356   4.5612   4.8128   5.1292
     5.5005   5.5601   5.6319   5.6552   5.7221   6.1059   6.1387   6.2170
     6.8370   7.1765   7.2219   7.3755   7.4612   7.4860   7.5667   7.7684
     7.8650   7.9387   8.2017   8.3073   8.3262   8.3633   8.4575   8.4733
     8.5400   8.5794

     occupation numbers 
     1.0000   1.0000   1.0000   1.0000   1.0000   1.0000   1.0000   1.0000
     1.0000   1.0000   1.0000   1.0000   1.0000   1.0000   1.0000   1.0000
     1.0000   1.0000   1.0000   1.0000   1.0000   1.0000   1.0000   1.0000
     1.0000   1.0000   1.0000   1.0000   1.0000   1.0000   1.0000   1.0000
     1.0000   1.0000   1.0000   1.0000   1.0000   1.0000   1.0000   1.0000
     1.0000   1.0000   1.0000   1.0000   1.0000   1.0000   1.0000   1.0000
     1.0000   1.0000   1.0000   1.0000   1.0000   1.0000   1.0000   1.0000
     1.0000   1.0000   1.0000   1.0000   1.0000   1.0000   1.0000   1.0000
     1.0000   1.0000   1.0000   1.0000   1.0000   1.0000   1.0000   1.0000
     1.0000   1.0000   1.0000   1.0000   1.0000   1.0000   1.0000   1.0000
     1.0000   1.0000   1.0000   1.0000   1.0000   1.0000   1.0000   1.0000
     1.0000   1.0000   1.0000   1.0000   1.0000   1.0000   1.0000   1.0000
     1.0000   1.0000   1.0000   1.0000   1.0000   1.0000   1.0000   1.0000
     1.0000   1.0000   1.0000   1.0000   1.0000   1.0000   1.0000   1.0000
     1.0000   1.0000   1.0000   1.0000   1.0000   1.0000   1.0000   1.0000
     1.0000   1.0000   1.0000   1.0000   1.0000   1.0000   1.0000   1.0000
     1.0000   1.0000   1.0000   1.0000   1.0000   1.0000   1.0000   1.0000
     1.0000   1.0000   1.0000   1.0000   1.0000   1.0000   1.0000   1.0000
     1.0000   1.0000   1.0000   1.0000   1.0000   1.0000   1.0000   1.0000
     1.0000   1.0000   1.0000   1.0000   1.0000   1.0000   0.9999   0.9999
     0.9999   0.9999   0.9998   0.9992   0.9987   0.9984   0.9982   0.9981
     0.9977   0.9975   0.9970   0.9965   0.9963   0.9959   0.9948   0.9945
     0.9935   0.9928   0.9914   0.9879   0.9871   0.9860   0.9843   0.9823
     0.9796   0.9758   0.9648   0.9507   0.9471   0.9388   0.9350   0.9226
     0.9133   0.9068   0.9006   0.8951   0.8644   0.8522   0.8221   0.7918
     0.7861   0.7720   0.7424   0.7395   0.7325   0.7289   0.7229   0.7155
     0.7113   0.7028   0.6962   0.6917   0.6843   0.6800   0.6747   0.6703
     0.6513   0.6460   0.6431   0.6239   0.4537   0.4066   0.3630   0.3275
     0.3169   0.2146   0.1721   0.0717   0.0383   0.0176   0.0066   0.0016
     0.0002   0.0002   0.0001   0.0001   0.0001   0.0000   0.0000   0.0000
     0.0000   0.0000   0.0000   0.0000   0.0000   0.0000   0.0000   0.0000
     0.0000   0.0000   0.0000   0.0000   0.0000   0.0000   0.0000   0.0000
     0.0000   0.0000

          k =-0.5000 0.2500 0.0000 ( 65138 PWs)   bands (ev):

   -92.8855 -92.8357 -92.7404 -92.6921 -92.6360 -92.5922 -92.5747 -92.4539
   -56.2390 -56.2208 -56.0969 -56.0859 -56.0795 -56.0728 -56.0397 -56.0091
   -55.9936 -55.9921 -55.9866 -55.9428 -55.9226 -55.8867 -55.8675 -55.8361
   -55.8276 -55.7800 -55.7800 -55.7771 -55.7687 -55.7292 -55.7047 -55.6190
   -31.4446 -31.4322 -31.2872 -31.2016 -31.1451 -31.1309 -30.9589 -30.9221
   -30.0276 -29.9886 -29.9617 -29.8548 -15.1619 -15.1146 -15.0369 -14.9345
   -14.8961 -14.7711 -14.6792 -14.5460 -14.2439 -14.2122 -14.1995 -14.1554
   -14.1303 -14.1098 -14.0726 -14.0539 -14.0401 -14.0001 -13.9851 -13.8788
   -13.8149 -13.7663 -13.7576 -13.7202 -13.6430 -13.6236 -13.5122 -13.4665
   -13.3711 -13.3360 -13.2382 -13.1980 -13.1875 -13.1585 -13.1247 -13.1157
   -13.1094 -13.0341 -13.0165 -12.9439 -12.8924 -12.8809 -12.8392 -12.8296
   -12.7948 -12.7867 -12.7115 -12.5597 -12.4936 -12.4292 -12.3370 -12.3090
   -11.9933 -11.9533 -11.9405 -11.9262 -11.9142 -11.8928 -11.8626 -11.7823
   -11.7743 -11.7505 -11.7150 -11.6872 -11.6784  -2.6194  -2.5780  -2.4312
    -2.3890  -2.2263  -2.1473  -2.0099  -1.8737  -1.8142  -1.7881  -1.7500
    -1.7139  -1.6324  -1.5166  -1.4591  -1.4363  -1.4087  -1.3304  -1.3051
    -1.2646  -1.2492  -1.1885  -1.1556  -1.1197  -1.0851  -1.0560  -0.9968
    -0.9696  -0.9287  -0.8914  -0.7859  -0.7620  -0.6608  -0.6120  -0.5754
    -0.5099  -0.4389  -0.4046  -0.3026  -0.2630  -0.2011  -0.1538  -0.1053
    -0.0579  -0.0294   0.0037   0.0517   0.0905   0.4262   0.4766   0.5309
     0.5511   0.8403   0.9058   0.9750   1.0052   1.1748   1.2091   1.2469
     1.2569   1.2750   1.2923   1.3629   1.4105   1.4513   1.4884   1.6008
     1.6471   1.6704   1.6814   1.7137   1.7440   1.7609   1.7709   1.7881
     1.8130   1.8554   1.8717   1.9079   1.9329   1.9661   2.0206   2.1465
     2.2389   2.2684   2.3338   2.3701   2.4338   2.4650   2.4745   2.5126
     2.5447   2.5659   2.5909   2.6076   2.6488   2.6563   2.7049   2.7135
     2.7208   2.7428   2.7596   2.7711   2.7889   2.8001   2.8263   2.8379
     2.8472   2.8595   2.8629   2.8750   3.4117   3.4448   3.5947   3.6125
     3.8986   3.9730   4.0334   4.2263   4.6088   4.7099   4.8874   4.9358
     5.2449   5.2649   5.4874   5.5874   5.6096   5.6590   6.3287   6.4594
     6.5183   6.7470   7.3443   7.6006   7.6633   7.6829   7.7303   7.7806
     7.8382   7.9423   8.1844   8.3737   8.4148   8.4572   8.5045   8.5615
     8.5798   8.7008

     occupation numbers 
     1.0000   1.0000   1.0000   1.0000   1.0000   1.0000   1.0000   1.0000
     1.0000   1.0000   1.0000   1.0000   1.0000   1.0000   1.0000   1.0000
     1.0000   1.0000   1.0000   1.0000   1.0000   1.0000   1.0000   1.0000
     1.0000   1.0000   1.0000   1.0000   1.0000   1.0000   1.0000   1.0000
     1.0000   1.0000   1.0000   1.0000   1.0000   1.0000   1.0000   1.0000
     1.0000   1.0000   1.0000   1.0000   1.0000   1.0000   1.0000   1.0000
     1.0000   1.0000   1.0000   1.0000   1.0000   1.0000   1.0000   1.0000
     1.0000   1.0000   1.0000   1.0000   1.0000   1.0000   1.0000   1.0000
     1.0000   1.0000   1.0000   1.0000   1.0000   1.0000   1.0000   1.0000
     1.0000   1.0000   1.0000   1.0000   1.0000   1.0000   1.0000   1.0000
     1.0000   1.0000   1.0000   1.0000   1.0000   1.0000   1.0000   1.0000
     1.0000   1.0000   1.0000   1.0000   1.0000   1.0000   1.0000   1.0000
     1.0000   1.0000   1.0000   1.0000   1.0000   1.0000   1.0000   1.0000
     1.0000   1.0000   1.0000   1.0000   1.0000   1.0000   1.0000   1.0000
     1.0000   1.0000   1.0000   1.0000   1.0000   1.0000   1.0000   1.0000
     1.0000   1.0000   1.0000   1.0000   1.0000   1.0000   1.0000   1.0000
     1.0000   1.0000   1.0000   1.0000   1.0000   1.0000   1.0000   1.0000
     1.0000   1.0000   1.0000   1.0000   1.0000   1.0000   1.0000   1.0000
     1.0000   1.0000   1.0000   1.0000   1.0000   1.0000   1.0000   1.0000
     1.0000   1.0000   1.0000   1.0000   1.0000   1.0000   1.0000   0.9999
     0.9999   0.9997   0.9996   0.9994   0.9992   0.9983   0.9980   0.9976
     0.9975   0.9972   0.9970   0.9959   0.9950   0.9940   0.9930   0.9890
     0.9868   0.9856   0.9850   0.9831   0.9811   0.9799   0.9792   0.9779
     0.9759   0.9721   0.9705   0.9667   0.9638   0.9597   0.9522   0.9305
     0.9103   0.9030   0.8853   0.8745   0.8539   0.8430   0.8396   0.8254
     0.8129   0.8043   0.7939   0.7867   0.7685   0.7651   0.7424   0.7382
     0.7347   0.7239   0.7155   0.7097   0.7005   0.6947   0.6810   0.6748
     0.6698   0.6632   0.6613   0.6547   0.3450   0.3271   0.2513   0.2429
     0.1310   0.1089   0.0931   0.0539   0.0148   0.0100   0.0048   0.0039
     0.0009   0.0008   0.0002   0.0001   0.0001   0.0001   0.0000   0.0000
     0.0000   0.0000   0.0000   0.0000   0.0000   0.0000   0.0000   0.0000
     0.0000   0.0000   0.0000   0.0000   0.0000   0.0000   0.0000   0.0000
     0.0000   0.0000

     the Fermi energy is     3.1431 ev

!    total energy              =   -4440.30082000 Ry
     estimated scf accuracy    <          7.7E-09 Ry
     smearing contrib. (-TS)   =      -1.20791498 Ry
     internal energy E=F+TS    =   -4439.09290502 Ry

     The total energy is F=E-TS. E is the sum of the following terms:
     one-electron contribution =  -20888.59149993 Ry
     hartree contribution      =   10573.24446723 Ry
     xc contribution           =    -693.24409634 Ry
     ewald contribution        =    6845.68964227 Ry
     one-center paw contrib.   =    -276.19141824 Ry
      -> PAW hartree energy AE =      25.15413057 Ry
      -> PAW hartree energy PS =     -25.03810161 Ry
      -> PAW xc energy AE      =     -16.51629283 Ry
      -> PAW xc energy PS      =       6.87568163 Ry
      -> total E_H with PAW    =   10573.36049620 Ry
      -> total E_XC with PAW   =    -702.88470754 Ry

     convergence has been achieved in  58 iterations

     Writing all to output data dir /bsuhome/zayahcortright/scratch/pwscf.save/
 
     init_run     :      7.85s CPU      8.63s WALL (       1 calls)
     electrons    :    810.55s CPU    849.92s WALL (       1 calls)

     Called by init_run:
     wfcinit      :      6.35s CPU      6.58s WALL (       1 calls)
     wfcinit:atom :      0.05s CPU      0.07s WALL (       5 calls)
     wfcinit:wfcr :      6.03s CPU      6.17s WALL (       5 calls)
     potinit      :      0.21s CPU      0.24s WALL (       1 calls)
     hinit0       :      0.42s CPU      0.67s WALL (       1 calls)

     Called by electrons:
     c_bands      :    639.44s CPU    647.44s WALL (      58 calls)
     sum_band     :    128.43s CPU    145.61s WALL (      58 calls)
     v_of_rho     :      6.30s CPU      6.78s WALL (      59 calls)
     v_h          :      0.57s CPU      0.57s WALL (      59 calls)
     v_xc         :      5.73s CPU      6.21s WALL (      59 calls)
     newd         :     19.17s CPU     32.47s WALL (      59 calls)
     PAW_pot      :      1.93s CPU      1.96s WALL (      59 calls)
     mix_rho      :     14.82s CPU     15.28s WALL (      58 calls)

     Called by c_bands:
     init_us_2    :      8.12s CPU      8.21s WALL (     585 calls)
     init_us_2:cp :      8.12s CPU      8.21s WALL (     585 calls)
     cegterg      :    604.53s CPU    612.18s WALL (     290 calls)

     Called by sum_band:
     sum_band:wei :      0.42s CPU      0.42s WALL (      58 calls)
     sum_band:loo :    106.74s CPU    107.60s WALL (      58 calls)
     sum_band:buf :      1.69s CPU      1.78s WALL (     290 calls)
     sum_band:ini :      3.77s CPU      3.78s WALL (     290 calls)
     sum_band:cal :     23.04s CPU     23.12s WALL (     290 calls)
     sum_band:bec :      0.66s CPU      0.68s WALL (     290 calls)
     addusdens    :     18.35s CPU     34.58s WALL (      58 calls)
                                        0.00s GPU  (      58 calls)
     addusd:skk   :      0.36s CPU      1.17s WALL (     174 calls)
                                        0.00s GPU  (     174 calls)

     Called by *egterg:
     cdiaghg      :     59.68s CPU     59.93s WALL (    1376 calls)
     cegterg:over :     44.41s CPU     44.59s WALL (    1086 calls)
     cegterg:upda :     31.73s CPU     32.31s WALL (    1086 calls)
     cegterg:last :     64.80s CPU     65.06s WALL (     503 calls)
     cdiaghg:chol :      3.53s CPU      3.56s WALL (    1376 calls)
     cdiaghg:inve :      3.36s CPU      3.37s WALL (    1376 calls)
     cdiaghg:para :      7.79s CPU      7.83s WALL (    2752 calls)
     h_psi        :    339.12s CPU    342.81s WALL (    1381 calls)
     s_psi        :     45.81s CPU     45.96s WALL (    1381 calls)
     g_psi        :      1.24s CPU      1.25s WALL (    1086 calls)

     Called by h_psi:
     h_psi:calbec :     51.36s CPU     51.70s WALL (    1381 calls)
     vloc_psi     :    238.71s CPU    241.00s WALL (    1381 calls)
     add_vuspsi   :     45.64s CPU     45.89s WALL (    1381 calls)

     General routines
     calbec       :     74.39s CPU     74.81s WALL (    1671 calls)
     fft          :      5.11s CPU      5.17s WALL (     765 calls)
     ffts         :      5.54s CPU      5.61s WALL (    6214 calls)
     fftw         :    204.51s CPU    206.21s WALL (  387698 calls)
     interpolate  :      0.49s CPU      0.49s WALL (      59 calls)
 
     Parallel routines

     PAW routines
     PAW_pot      :      1.93s CPU      1.96s WALL (      59 calls)
 
     PWSCF        :  13m40.05s CPU  14m23.05s WALL

 
   This run was terminated on:  15:22:16  21Jun2024            

=------------------------------------------------------------------------------=
   JOB DONE.
=------------------------------------------------------------------------------=
