
     Program PWSCF v.7.2 starts on 21Jun2024 at 12:45:20 

     This program is part of the open-source Quantum ESPRESSO suite
     for quantum simulation of materials; please cite
         "P. Giannozzi et al., J. Phys.:Condens. Matter 21 395502 (2009);
         "P. Giannozzi et al., J. Phys.:Condens. Matter 29 465901 (2017);
         "P. Giannozzi et al., J. Chem. Phys. 152 154105 (2020);
          URL http://www.quantum-espresso.org", 
     in publications or presentations arising from this work. More details at
     http://www.quantum-espresso.org/quote

     Parallel version (MPI & OpenMP), running on      48 processor cores
     Number of MPI processes:                48
     Threads/MPI process:                     1

     MPI processes distributed on     1 nodes
     180170 MiB available memory on the printing compute node when the environment starts
 
     Reading input from espresso.pwi
Warning: card &CELL ignored
Warning: card / ignored
Warning: card &FCP ignored
Warning: card / ignored
Warning: card &RISM ignored
Warning: card / ignored

     Current dimensions of program PWSCF are:
     Max number of different atomic species (ntypx) = 10
     Max number of k-points (npk) =  40000
     Max angular momentum in pseudopotentials (lmaxx) =  4
     file O.pbe-n-kjpaw_psl.0.1.UPF: wavefunction(s)  2P renormalized
     signal trapping enabled: kill the code with -SIGUSR1 to stop cleanly the simulation 
 
     K-points division:     npool     =       2
     R & G space division:  proc/nbgrp/npool/nimage =      24
     Subspace diagonalization in iterative solution of the eigenvalue problem:
     one sub-group per band group will be used
     scalapack distributed-memory algorithm (size of sub-group:  3*  3 procs)

 
     Parallelization info
     --------------------
     sticks:   dense  smooth     PW     G-vecs:    dense   smooth      PW
     Min         350     175     47                61430    21716    3036
     Max         351     177     48                61449    21727    3041
     Sum        8421    4205   1137              1474595   521381   72913
 
     Using Slab Decomposition
 


     bravais-lattice index     =            0
     lattice parameter (alat)  =      14.8599  a.u.
     unit-cell volume          =    8305.1283 (a.u.)^3
     number of atoms/cell      =           49
     number of atomic types    =            4
     number of electrons       =       425.00
     number of Kohn-Sham states=          256
     kinetic-energy cutoff     =      60.0000  Ry
     charge density cutoff     =     480.0000  Ry
     scf convergence threshold =      1.0E-08
     mixing beta               =       0.1500
     number of iterations used =            8  local-TF  mixing
     Exchange-correlation= PBE
                           (   1   4   3   4   0   0   0)

     celldm(1)=  14.859904  celldm(2)=   0.000000  celldm(3)=   0.000000
     celldm(4)=   0.000000  celldm(5)=   0.000000  celldm(6)=   0.000000

     crystal axes: (cart. coord. in units of alat)
               a(1) = (   1.000000   0.000000   0.000000 )  
               a(2) = (   0.000000   1.000000   0.000000 )  
               a(3) = (   0.000000   0.000000   2.531036 )  

     reciprocal axes: (cart. coord. in units 2 pi/alat)
               b(1) = (  1.000000  0.000000  0.000000 )  
               b(2) = (  0.000000  1.000000  0.000000 )  
               b(3) = (  0.000000  0.000000  0.395095 )  


     PseudoPot. # 1 for Sr read from file:
     /bsuhome/zayahcortright/q-e/pseudo/Sr_pbe_v1.uspp.F.UPF
     MD5 check sum: 6b418c05fbe9db5448babca5e47b7a5b
     Pseudo is Ultrasoft + core correction, Zval = 10.0
     Generated by new atomic code, or converted to UPF format
     Using radial grid of  883 points,  6 beta functions with: 
                l(1) =   0
                l(2) =   0
                l(3) =   1
                l(4) =   1
                l(5) =   2
                l(6) =   2
     Q(r) pseudized with  6 coefficients,  rinner =    1.400   1.400   1.400
                                                       1.400   1.400

     PseudoPot. # 2 for O  read from file:
     /bsuhome/zayahcortright/q-e/pseudo/O.pbe-n-kjpaw_psl.0.1.UPF
     MD5 check sum: 0234752ac141de4415c5fc33072bef88
     Pseudo is Projector augmented-wave + core cor, Zval =  6.0
     Generated using "atomic" code by A. Dal Corso  v.5.0.99 svn rev. 10869
     Shape of augmentation charge: BESSEL
     Using radial grid of 1095 points,  4 beta functions with: 
                l(1) =   0
                l(2) =   0
                l(3) =   1
                l(4) =   1
     Q(r) pseudized with 0 coefficients 


     PseudoPot. # 3 for Co read from file:
     /bsuhome/zayahcortright/q-e/pseudo/Co_pbe_v1.2.uspp.F.UPF
     MD5 check sum: 5f91765df6ddd3222702df6e7b74a16d
     Pseudo is Ultrasoft + core correction, Zval = 17.0
     Generated by new atomic code, or converted to UPF format
     Using radial grid of  863 points,  6 beta functions with: 
                l(1) =   0
                l(2) =   0
                l(3) =   1
                l(4) =   1
                l(5) =   2
                l(6) =   2
     Q(r) pseudized with  8 coefficients,  rinner =    1.200   1.200   1.200
                                                       1.200   1.200

     PseudoPot. # 4 for H  read from file:
     /bsuhome/zayahcortright/q-e/pseudo/H.pbe-rrkjus_psl.1.0.0.UPF
     MD5 check sum: f52b6d4d1c606e5624b1dc7b2218f220
     Pseudo is Ultrasoft, Zval =  1.0
     Generated using "atomic" code by A. Dal Corso  v.5.1
     Using radial grid of  929 points,  2 beta functions with: 
                l(1) =   0
                l(2) =   0
     Q(r) pseudized with 0 coefficients 


     atomic species   valence    mass     pseudopotential
        Sr            10.00    87.62000     Sr( 1.00)
        O              6.00    15.99900     O ( 1.00)
        Co            17.00    58.93319     Co( 1.00)
        H              1.00     1.00800     H ( 1.00)

     No symmetry found


                                    s                        frac. trans.

      isym =  1     identity                                     

 cryst.   s( 1) = (     1          0          0      )
                  (     0          1          0      )
                  (     0          0          1      )

 cart.    s( 1) = (  1.0000000  0.0000000  0.0000000 )
                  (  0.0000000  1.0000000  0.0000000 )
                  (  0.0000000  0.0000000  1.0000000 )


   Cartesian axes

     site n.     atom                  positions (alat units)
         1           Sr  tau(   1) = (   0.2508693   0.7491307   1.7574407  )
         2           O   tau(   2) = (   0.4985141   0.5014859   1.7715967  )
         3           Sr  tau(   3) = (   0.7482398   0.7454518   1.7648669  )
         4           Sr  tau(   4) = (   0.7441748   0.2558252   1.7667843  )
         5           Sr  tau(   5) = (   0.2508693   0.7491307   1.2696799  )
         6           Sr  tau(   6) = (   0.2508693   0.7491307   0.7632319  )
         7           Co  tau(   7) = (   0.4998914   0.5001086   1.0164559  )
         8           Co  tau(   8) = (   0.4936915   0.5063085   1.5135603  )
         9           O   tau(   9) = (   0.4988895   0.7610401   1.0164559  )
        10           O   tau(  10) = (   0.2389599   0.5011105   1.0164559  )
        11           O   tau(  11) = (   0.0070918   0.7374880   1.0164559  )
        12           O   tau(  12) = (   0.0088340   0.7405089   1.5135603  )
        13           O   tau(  13) = (   0.5066944   0.7415376   1.5135603  )
        14           O   tau(  14) = (   0.2584624   0.4933056   1.5135603  )
        15           O   tau(  15) = (   0.4985141   0.5014859   0.7773880  )
        16           O   tau(  16) = (   0.4985141   0.5014859   1.2555238  )
        17           Sr  tau(  17) = (   0.7482398   0.7454518   0.7706582  )
        18           Sr  tau(  18) = (   0.7482398   0.7454518   1.2622536  )
        19           Sr  tau(  19) = (   0.7441748   0.2558252   0.7725755  )
        20           Sr  tau(  20) = (   0.7441748   0.2558252   1.2603363  )
        21           O   tau(  21) = (   0.7322655   0.0078049   1.5135603  )
        22           O   tau(  22) = (   0.7558175   0.4996027   1.5135603  )
        23           O   tau(  23) = (   0.5003973   0.2441825   1.5135603  )
        24           O   tau(  24) = (   0.7527966   0.4978604   1.0164559  )
        25           O   tau(  25) = (   0.5021396   0.2472034   1.0164559  )
        26           O   tau(  26) = (   0.7517679   0.0000000   1.0164559  )
        27           O   tau(  27) = (   0.0114961   0.4948124   1.7455321  )
        28           O   tau(  28) = (   0.0048226   0.0077944   1.7715967  )
        29           Sr  tau(  29) = (   0.2545482   0.2517602   1.7648669  )
        30           O   tau(  30) = (   0.5048017   0.0015068   1.7786929  )
        31           Co  tau(  31) = (   0.0056869   0.5006215   1.0164559  )
        32           Co  tau(  32) = (   0.0065315   0.4997770   1.5135603  )
        33           Co  tau(  33) = (   0.0061999   0.0064171   1.0164559  )
        34           Co  tau(  34) = (   0.0000000   0.0126169   1.5135603  )
        35           O   tau(  35) = (   0.0114961   0.4948124   1.2815885  )
        36           O   tau(  36) = (   0.0114961   0.4948124   0.7513233  )
        37           O   tau(  37) = (   0.0051979   0.2673486   1.0164559  )
        38           O   tau(  38) = (   0.0130029   0.2478461   1.5135603  )
        39           O   tau(  39) = (   0.0048226   0.0077944   0.7773880  )
        40           O   tau(  40) = (   0.0048226   0.0077944   1.2555238  )
        41           Sr  tau(  41) = (   0.2545482   0.2517602   0.7706582  )
        42           Sr  tau(  42) = (   0.2545482   0.2517602   1.2622536  )
        43           Co  tau(  43) = (   0.4989925   0.0073160   1.5135603  )
        44           Co  tau(  44) = (   0.4998370   0.0064714   1.0164559  )
        45           O   tau(  45) = (   0.5048017   0.0015068   0.7844841  )
        46           O   tau(  46) = (   0.5048017   0.0015068   1.2484277  )
        47           O   tau(  47) = (   0.2621260   0.0059111   1.5135603  )
        48           O   tau(  48) = (   0.2591051   0.0041689   1.0164559  )
        49           H   tau(  49) = (   0.0000000   0.5686583   2.1602013  )

   Crystallographic axes

     site n.     atom                  positions (cryst. coord.)
         1           Sr  tau(   1) = (  0.2508693  0.7491307  0.6943562  )
         2           O   tau(   2) = (  0.4985141  0.5014859  0.6999492  )
         3           Sr  tau(   3) = (  0.7482398  0.7454518  0.6972903  )
         4           Sr  tau(   4) = (  0.7441748  0.2558252  0.6980478  )
         5           Sr  tau(   5) = (  0.2508693  0.7491307  0.5016443  )
         6           Sr  tau(   6) = (  0.2508693  0.7491307  0.3015492  )
         7           Co  tau(   7) = (  0.4998914  0.5001086  0.4015968  )
         8           Co  tau(   8) = (  0.4936915  0.5063085  0.5980003  )
         9           O   tau(   9) = (  0.4988895  0.7610401  0.4015968  )
        10           O   tau(  10) = (  0.2389599  0.5011105  0.4015968  )
        11           O   tau(  11) = (  0.0070918  0.7374880  0.4015968  )
        12           O   tau(  12) = (  0.0088340  0.7405089  0.5980003  )
        13           O   tau(  13) = (  0.5066944  0.7415376  0.5980003  )
        14           O   tau(  14) = (  0.2584624  0.4933056  0.5980003  )
        15           O   tau(  15) = (  0.4985141  0.5014859  0.3071422  )
        16           O   tau(  16) = (  0.4985141  0.5014859  0.4960513  )
        17           Sr  tau(  17) = (  0.7482398  0.7454518  0.3044833  )
        18           Sr  tau(  18) = (  0.7482398  0.7454518  0.4987103  )
        19           Sr  tau(  19) = (  0.7441748  0.2558252  0.3052408  )
        20           Sr  tau(  20) = (  0.7441748  0.2558252  0.4979527  )
        21           O   tau(  21) = (  0.7322655  0.0078049  0.5980003  )
        22           O   tau(  22) = (  0.7558175  0.4996027  0.5980003  )
        23           O   tau(  23) = (  0.5003973  0.2441825  0.5980003  )
        24           O   tau(  24) = (  0.7527966  0.4978604  0.4015968  )
        25           O   tau(  25) = (  0.5021396  0.2472034  0.4015968  )
        26           O   tau(  26) = (  0.7517679  0.0000000  0.4015968  )
        27           O   tau(  27) = (  0.0114961  0.4948124  0.6896512  )
        28           O   tau(  28) = (  0.0048226  0.0077944  0.6999492  )
        29           Sr  tau(  29) = (  0.2545482  0.2517602  0.6972903  )
        30           O   tau(  30) = (  0.5048017  0.0015068  0.7027529  )
        31           Co  tau(  31) = (  0.0056869  0.5006215  0.4015968  )
        32           Co  tau(  32) = (  0.0065315  0.4997770  0.5980003  )
        33           Co  tau(  33) = (  0.0061999  0.0064171  0.4015968  )
        34           Co  tau(  34) = (  0.0000000  0.0126169  0.5980003  )
        35           O   tau(  35) = (  0.0114961  0.4948124  0.5063494  )
        36           O   tau(  36) = (  0.0114961  0.4948124  0.2968442  )
        37           O   tau(  37) = (  0.0051979  0.2673486  0.4015968  )
        38           O   tau(  38) = (  0.0130029  0.2478461  0.5980003  )
        39           O   tau(  39) = (  0.0048226  0.0077944  0.3071422  )
        40           O   tau(  40) = (  0.0048226  0.0077944  0.4960513  )
        41           Sr  tau(  41) = (  0.2545482  0.2517602  0.3044833  )
        42           Sr  tau(  42) = (  0.2545482  0.2517602  0.4987103  )
        43           Co  tau(  43) = (  0.4989925  0.0073160  0.5980003  )
        44           Co  tau(  44) = (  0.4998370  0.0064714  0.4015968  )
        45           O   tau(  45) = (  0.5048017  0.0015068  0.3099459  )
        46           O   tau(  46) = (  0.5048017  0.0015068  0.4932477  )
        47           O   tau(  47) = (  0.2621260  0.0059111  0.5980003  )
        48           O   tau(  48) = (  0.2591051  0.0041689  0.4015968  )
        49           H   tau(  49) = (  0.0000000  0.5686583  0.8534850  )

     number of k points=    10  Gaussian smearing, width (Ry)=  0.0700
                       cart. coord. in units 2pi/alat
        k(    1) = (   0.0000000   0.0000000   0.0000000), wk =   0.1250000
        k(    2) = (   0.0000000   0.2500000   0.0000000), wk =   0.2500000
        k(    3) = (   0.0000000  -0.5000000   0.0000000), wk =   0.1250000
        k(    4) = (   0.2500000   0.2500000   0.0000000), wk =   0.2500000
        k(    5) = (   0.2500000  -0.5000000   0.0000000), wk =   0.2500000
        k(    6) = (  -0.5000000  -0.5000000   0.0000000), wk =   0.1250000
        k(    7) = (   0.2500000   0.0000000   0.0000000), wk =   0.2500000
        k(    8) = (  -0.5000000   0.0000000   0.0000000), wk =   0.1250000
        k(    9) = (  -0.2500000   0.2500000   0.0000000), wk =   0.2500000
        k(   10) = (  -0.5000000   0.2500000   0.0000000), wk =   0.2500000

                       cryst. coord.
        k(    1) = (   0.0000000   0.0000000   0.0000000), wk =   0.1250000
        k(    2) = (   0.0000000   0.2500000   0.0000000), wk =   0.2500000
        k(    3) = (   0.0000000  -0.5000000   0.0000000), wk =   0.1250000
        k(    4) = (   0.2500000   0.2500000   0.0000000), wk =   0.2500000
        k(    5) = (   0.2500000  -0.5000000   0.0000000), wk =   0.2500000
        k(    6) = (  -0.5000000  -0.5000000   0.0000000), wk =   0.1250000
        k(    7) = (   0.2500000   0.0000000   0.0000000), wk =   0.2500000
        k(    8) = (  -0.5000000   0.0000000   0.0000000), wk =   0.1250000
        k(    9) = (  -0.2500000   0.2500000   0.0000000), wk =   0.2500000
        k(   10) = (  -0.5000000   0.2500000   0.0000000), wk =   0.2500000

     Dense  grid:  1474595 G-vectors     FFT dimensions: ( 108, 108, 270)

     Smooth grid:   521381 G-vectors     FFT dimensions: (  75,  75, 192)

     Dynamical RAM for                 wfc:      10.61 MB

     Dynamical RAM for     wfc (w. buffer):      63.63 MB

     Dynamical RAM for           str. fact:       3.75 MB

     Dynamical RAM for           local pot:       0.00 MB

     Dynamical RAM for          nlocal pot:      24.28 MB

     Dynamical RAM for                qrad:       7.03 MB

     Dynamical RAM for          rho,v,vnew:       6.02 MB

     Dynamical RAM for               rhoin:       2.01 MB

     Dynamical RAM for            rho*nmix:      15.00 MB

     Dynamical RAM for           G-vectors:       3.68 MB

     Dynamical RAM for          h,s,v(r/c):       1.32 MB

     Dynamical RAM for          <psi|beta>:       2.29 MB

     Dynamical RAM for                 psi:      21.21 MB

     Dynamical RAM for                hpsi:      21.21 MB

     Dynamical RAM for                spsi:      21.21 MB

     Dynamical RAM for      wfcinit/wfcrot:      34.09 MB

     Dynamical RAM for           addusdens:     100.79 MB

     Estimated static dynamical RAM per process >     120.42 MB

     Estimated max dynamical RAM per process >     236.21 MB

     Estimated total dynamical RAM >      10.72 GB

     Check: negative core charge=   -0.000004

     Initial potential from superposition of free atoms

     starting charge     416.5961, renormalised to     425.0000

     negative rho (up, down):  7.827E-01 0.000E+00
     Starting wfcs are  373 randomized atomic wfcs
     Checking if some PAW data can be deallocated... 
       PAW data deallocated on   20 nodes for type:  2

     total cpu time spent up to now is        8.7 secs

     Self-consistent Calculation

     iteration #  1     ecut=    60.00 Ry     beta= 0.15
     Davidson diagonalization with overlap

---- Real-time Memory Report at c_bands before calling an iterative solver
             0 MiB given to the printing process from OS
             0 MiB allocation reported by mallinfo(arena+hblkhd)
        170496 MiB available memory on the node where the printing process lives
------------------
     ethr =  1.00E-02,  avg # of iterations =  2.0

     negative rho (up, down):  7.717E-01 0.000E+00

     total cpu time spent up to now is       23.0 secs

     total energy              =   -4404.74074965 Ry
     estimated scf accuracy    <      42.20762821 Ry

     iteration #  2     ecut=    60.00 Ry     beta= 0.15
     Davidson diagonalization with overlap

---- Real-time Memory Report at c_bands before calling an iterative solver
             0 MiB given to the printing process from OS
             0 MiB allocation reported by mallinfo(arena+hblkhd)
        170730 MiB available memory on the node where the printing process lives
------------------
     ethr =  9.93E-03,  avg # of iterations =  1.0

     negative rho (up, down):  7.532E-01 0.000E+00

     total cpu time spent up to now is       35.2 secs

     total energy              =   -4400.04548203 Ry
     estimated scf accuracy    <      26.57661465 Ry

     iteration #  3     ecut=    60.00 Ry     beta= 0.15
     Davidson diagonalization with overlap

---- Real-time Memory Report at c_bands before calling an iterative solver
             0 MiB given to the printing process from OS
             0 MiB allocation reported by mallinfo(arena+hblkhd)
        169984 MiB available memory on the node where the printing process lives
------------------
     ethr =  6.25E-03,  avg # of iterations =  2.0

     negative rho (up, down):  7.544E-01 0.000E+00

     total cpu time spent up to now is       48.9 secs

     total energy              =   -4402.39070368 Ry
     estimated scf accuracy    <      49.04461041 Ry

     iteration #  4     ecut=    60.00 Ry     beta= 0.15
     Davidson diagonalization with overlap

---- Real-time Memory Report at c_bands before calling an iterative solver
             0 MiB given to the printing process from OS
             0 MiB allocation reported by mallinfo(arena+hblkhd)
        169854 MiB available memory on the node where the printing process lives
------------------
     ethr =  6.25E-03,  avg # of iterations =  1.0

     negative rho (up, down):  7.411E-01 0.000E+00

     total cpu time spent up to now is       61.0 secs

     total energy              =   -4401.65191057 Ry
     estimated scf accuracy    <      29.28198372 Ry

     iteration #  5     ecut=    60.00 Ry     beta= 0.15
     Davidson diagonalization with overlap

---- Real-time Memory Report at c_bands before calling an iterative solver
             0 MiB given to the printing process from OS
             0 MiB allocation reported by mallinfo(arena+hblkhd)
        169834 MiB available memory on the node where the printing process lives
------------------
     ethr =  6.25E-03,  avg # of iterations =  1.0

     negative rho (up, down):  7.471E-01 0.000E+00

     total cpu time spent up to now is       73.2 secs

     total energy              =   -4399.86907751 Ry
     estimated scf accuracy    <      43.90106264 Ry

     iteration #  6     ecut=    60.00 Ry     beta= 0.15
     Davidson diagonalization with overlap

---- Real-time Memory Report at c_bands before calling an iterative solver
             0 MiB given to the printing process from OS
             0 MiB allocation reported by mallinfo(arena+hblkhd)
        169811 MiB available memory on the node where the printing process lives
------------------
     ethr =  6.25E-03,  avg # of iterations =  1.0

     negative rho (up, down):  7.422E-01 0.000E+00

     total cpu time spent up to now is       85.6 secs

     total energy              =   -4400.64335466 Ry
     estimated scf accuracy    <      11.94492839 Ry

     iteration #  7     ecut=    60.00 Ry     beta= 0.15
     Davidson diagonalization with overlap

---- Real-time Memory Report at c_bands before calling an iterative solver
             0 MiB given to the printing process from OS
             0 MiB allocation reported by mallinfo(arena+hblkhd)
        169793 MiB available memory on the node where the printing process lives
------------------
     ethr =  2.81E-03,  avg # of iterations =  1.1

     negative rho (up, down):  7.444E-01 0.000E+00

     total cpu time spent up to now is       98.1 secs

     total energy              =   -4400.80505722 Ry
     estimated scf accuracy    <       4.15807799 Ry

     iteration #  8     ecut=    60.00 Ry     beta= 0.15
     Davidson diagonalization with overlap

---- Real-time Memory Report at c_bands before calling an iterative solver
             0 MiB given to the printing process from OS
             0 MiB allocation reported by mallinfo(arena+hblkhd)
        169775 MiB available memory on the node where the printing process lives
------------------
     ethr =  9.78E-04,  avg # of iterations =  1.6

     negative rho (up, down):  7.541E-01 0.000E+00

     total cpu time spent up to now is      111.0 secs

     total energy              =   -4400.32621159 Ry
     estimated scf accuracy    <       3.64899603 Ry

     iteration #  9     ecut=    60.00 Ry     beta= 0.15
     Davidson diagonalization with overlap

---- Real-time Memory Report at c_bands before calling an iterative solver
             0 MiB given to the printing process from OS
             0 MiB allocation reported by mallinfo(arena+hblkhd)
        169760 MiB available memory on the node where the printing process lives
------------------
     ethr =  8.59E-04,  avg # of iterations =  2.8

     negative rho (up, down):  7.762E-01 0.000E+00

     total cpu time spent up to now is      125.6 secs

     total energy              =   -4399.85731481 Ry
     estimated scf accuracy    <      45.35510595 Ry

     iteration # 10     ecut=    60.00 Ry     beta= 0.15
     Davidson diagonalization with overlap

---- Real-time Memory Report at c_bands before calling an iterative solver
             0 MiB given to the printing process from OS
             0 MiB allocation reported by mallinfo(arena+hblkhd)
        169684 MiB available memory on the node where the printing process lives
------------------
     ethr =  8.59E-04,  avg # of iterations =  9.9

     negative rho (up, down):  7.793E-01 0.000E+00

     total cpu time spent up to now is      143.7 secs

     total energy              =   -4399.74849571 Ry
     estimated scf accuracy    <      11.66044728 Ry

     iteration # 11     ecut=    60.00 Ry     beta= 0.15
     Davidson diagonalization with overlap

---- Real-time Memory Report at c_bands before calling an iterative solver
             0 MiB given to the printing process from OS
             0 MiB allocation reported by mallinfo(arena+hblkhd)
        169313 MiB available memory on the node where the printing process lives
------------------
     ethr =  8.59E-04,  avg # of iterations =  1.1

     negative rho (up, down):  7.819E-01 0.000E+00

     total cpu time spent up to now is      155.6 secs

     total energy              =   -4400.12433711 Ry
     estimated scf accuracy    <       0.98340196 Ry

     iteration # 12     ecut=    60.00 Ry     beta= 0.15
     Davidson diagonalization with overlap

---- Real-time Memory Report at c_bands before calling an iterative solver
             0 MiB given to the printing process from OS
             0 MiB allocation reported by mallinfo(arena+hblkhd)
        169320 MiB available memory on the node where the printing process lives
------------------
     ethr =  2.31E-04,  avg # of iterations =  4.3

     negative rho (up, down):  7.907E-01 0.000E+00

     total cpu time spent up to now is      169.6 secs

     total energy              =   -4400.09464899 Ry
     estimated scf accuracy    <       0.85724985 Ry

     iteration # 13     ecut=    60.00 Ry     beta= 0.15
     Davidson diagonalization with overlap

---- Real-time Memory Report at c_bands before calling an iterative solver
             0 MiB given to the printing process from OS
             0 MiB allocation reported by mallinfo(arena+hblkhd)
        169300 MiB available memory on the node where the printing process lives
------------------
     ethr =  2.02E-04,  avg # of iterations =  1.8

     negative rho (up, down):  7.990E-01 0.000E+00

     total cpu time spent up to now is      182.6 secs

     total energy              =   -4400.09080082 Ry
     estimated scf accuracy    <       1.64667144 Ry

     iteration # 14     ecut=    60.00 Ry     beta= 0.15
     Davidson diagonalization with overlap

---- Real-time Memory Report at c_bands before calling an iterative solver
             0 MiB given to the printing process from OS
             0 MiB allocation reported by mallinfo(arena+hblkhd)
        169297 MiB available memory on the node where the printing process lives
------------------
     ethr =  2.02E-04,  avg # of iterations =  4.3

     negative rho (up, down):  8.060E-01 0.000E+00

     total cpu time spent up to now is      197.0 secs

     total energy              =   -4400.01928232 Ry
     estimated scf accuracy    <       1.45441632 Ry

     iteration # 15     ecut=    60.00 Ry     beta= 0.15
     Davidson diagonalization with overlap

---- Real-time Memory Report at c_bands before calling an iterative solver
             0 MiB given to the printing process from OS
             0 MiB allocation reported by mallinfo(arena+hblkhd)
        169296 MiB available memory on the node where the printing process lives
------------------
     ethr =  2.02E-04,  avg # of iterations =  8.0

     negative rho (up, down):  8.086E-01 0.000E+00

     total cpu time spent up to now is      213.2 secs

     total energy              =   -4400.04773650 Ry
     estimated scf accuracy    <       0.36438130 Ry

     iteration # 16     ecut=    60.00 Ry     beta= 0.15
     Davidson diagonalization with overlap

---- Real-time Memory Report at c_bands before calling an iterative solver
             0 MiB given to the printing process from OS
             0 MiB allocation reported by mallinfo(arena+hblkhd)
        169286 MiB available memory on the node where the printing process lives
------------------
     ethr =  8.57E-05,  avg # of iterations =  5.1

     negative rho (up, down):  8.135E-01 0.000E+00

     total cpu time spent up to now is      228.0 secs

     total energy              =   -4400.01016296 Ry
     estimated scf accuracy    <       0.30825097 Ry

     iteration # 17     ecut=    60.00 Ry     beta= 0.15
     Davidson diagonalization with overlap

---- Real-time Memory Report at c_bands before calling an iterative solver
             0 MiB given to the printing process from OS
             0 MiB allocation reported by mallinfo(arena+hblkhd)
        169284 MiB available memory on the node where the printing process lives
------------------
     ethr =  7.25E-05,  avg # of iterations = 10.1

     negative rho (up, down):  8.176E-01 0.000E+00

     total cpu time spent up to now is      245.1 secs

     total energy              =   -4399.95027264 Ry
     estimated scf accuracy    <       0.25059527 Ry

     iteration # 18     ecut=    60.00 Ry     beta= 0.15
     Davidson diagonalization with overlap

---- Real-time Memory Report at c_bands before calling an iterative solver
             0 MiB given to the printing process from OS
             0 MiB allocation reported by mallinfo(arena+hblkhd)
        169351 MiB available memory on the node where the printing process lives
------------------
     c_bands:  1 eigenvalues not converged
     ethr =  5.90E-05,  avg # of iterations = 13.7

     negative rho (up, down):  8.193E-01 0.000E+00

     total cpu time spent up to now is      264.7 secs

     total energy              =   -4399.94884902 Ry
     estimated scf accuracy    <       0.11902047 Ry

     iteration # 19     ecut=    60.00 Ry     beta= 0.15
     Davidson diagonalization with overlap

---- Real-time Memory Report at c_bands before calling an iterative solver
             0 MiB given to the printing process from OS
             0 MiB allocation reported by mallinfo(arena+hblkhd)
        169213 MiB available memory on the node where the printing process lives
------------------
     c_bands:  1 eigenvalues not converged
     ethr =  2.80E-05,  avg # of iterations =  8.0

     negative rho (up, down):  8.206E-01 0.000E+00

     total cpu time spent up to now is      281.4 secs

     total energy              =   -4399.93574414 Ry
     estimated scf accuracy    <       0.09763981 Ry

     iteration # 20     ecut=    60.00 Ry     beta= 0.15
     Davidson diagonalization with overlap

---- Real-time Memory Report at c_bands before calling an iterative solver
             0 MiB given to the printing process from OS
             0 MiB allocation reported by mallinfo(arena+hblkhd)
        169223 MiB available memory on the node where the printing process lives
------------------
     ethr =  2.30E-05,  avg # of iterations =  6.6

     negative rho (up, down):  8.166E-01 0.000E+00

     total cpu time spent up to now is      297.1 secs

     total energy              =   -4399.92795521 Ry
     estimated scf accuracy    <       0.06942794 Ry

     iteration # 21     ecut=    60.00 Ry     beta= 0.15
     Davidson diagonalization with overlap

---- Real-time Memory Report at c_bands before calling an iterative solver
             0 MiB given to the printing process from OS
             0 MiB allocation reported by mallinfo(arena+hblkhd)
        169217 MiB available memory on the node where the printing process lives
------------------
     c_bands:  1 eigenvalues not converged
     ethr =  1.63E-05,  avg # of iterations =  8.5

     negative rho (up, down):  8.173E-01 0.000E+00

     total cpu time spent up to now is      314.0 secs

     total energy              =   -4399.92488870 Ry
     estimated scf accuracy    <       0.04709814 Ry

     iteration # 22     ecut=    60.00 Ry     beta= 0.15
     Davidson diagonalization with overlap

---- Real-time Memory Report at c_bands before calling an iterative solver
             0 MiB given to the printing process from OS
             0 MiB allocation reported by mallinfo(arena+hblkhd)
        169195 MiB available memory on the node where the printing process lives
------------------
     c_bands:  1 eigenvalues not converged
     ethr =  1.11E-05,  avg # of iterations = 12.0

     negative rho (up, down):  8.107E-01 0.000E+00

     total cpu time spent up to now is      331.8 secs

     total energy              =   -4399.92197403 Ry
     estimated scf accuracy    <       0.03450001 Ry

     iteration # 23     ecut=    60.00 Ry     beta= 0.15
     Davidson diagonalization with overlap

---- Real-time Memory Report at c_bands before calling an iterative solver
             0 MiB given to the printing process from OS
             0 MiB allocation reported by mallinfo(arena+hblkhd)
        169171 MiB available memory on the node where the printing process lives
------------------
     ethr =  8.12E-06,  avg # of iterations =  3.3

     negative rho (up, down):  8.044E-01 0.000E+00

     total cpu time spent up to now is      346.2 secs

     total energy              =   -4399.91916759 Ry
     estimated scf accuracy    <       0.02570998 Ry

     iteration # 24     ecut=    60.00 Ry     beta= 0.15
     Davidson diagonalization with overlap

---- Real-time Memory Report at c_bands before calling an iterative solver
             0 MiB given to the printing process from OS
             0 MiB allocation reported by mallinfo(arena+hblkhd)
        169190 MiB available memory on the node where the printing process lives
------------------
     ethr =  6.05E-06,  avg # of iterations = 10.9

     negative rho (up, down):  7.891E-01 0.000E+00

     total cpu time spent up to now is      364.3 secs

     total energy              =   -4399.91768212 Ry
     estimated scf accuracy    <       0.01665937 Ry

     iteration # 25     ecut=    60.00 Ry     beta= 0.15
     Davidson diagonalization with overlap

---- Real-time Memory Report at c_bands before calling an iterative solver
             0 MiB given to the printing process from OS
             0 MiB allocation reported by mallinfo(arena+hblkhd)
        169085 MiB available memory on the node where the printing process lives
------------------
     ethr =  3.92E-06,  avg # of iterations =  6.3

     negative rho (up, down):  7.893E-01 0.000E+00

     total cpu time spent up to now is      380.0 secs

     total energy              =   -4399.91750589 Ry
     estimated scf accuracy    <       0.00722291 Ry

     iteration # 26     ecut=    60.00 Ry     beta= 0.15
     Davidson diagonalization with overlap

---- Real-time Memory Report at c_bands before calling an iterative solver
             0 MiB given to the printing process from OS
             0 MiB allocation reported by mallinfo(arena+hblkhd)
        169078 MiB available memory on the node where the printing process lives
------------------
     ethr =  1.70E-06,  avg # of iterations = 10.7

     negative rho (up, down):  7.935E-01 0.000E+00

     total cpu time spent up to now is      397.8 secs

     total energy              =   -4399.91751681 Ry
     estimated scf accuracy    <       0.00344843 Ry

     iteration # 27     ecut=    60.00 Ry     beta= 0.15
     Davidson diagonalization with overlap

---- Real-time Memory Report at c_bands before calling an iterative solver
             0 MiB given to the printing process from OS
             0 MiB allocation reported by mallinfo(arena+hblkhd)
        169065 MiB available memory on the node where the printing process lives
------------------
     ethr =  8.11E-07,  avg # of iterations =  7.2

     negative rho (up, down):  7.932E-01 0.000E+00

     total cpu time spent up to now is      414.3 secs

     total energy              =   -4399.91748360 Ry
     estimated scf accuracy    <       0.00218057 Ry

     iteration # 28     ecut=    60.00 Ry     beta= 0.15
     Davidson diagonalization with overlap

---- Real-time Memory Report at c_bands before calling an iterative solver
             0 MiB given to the printing process from OS
             0 MiB allocation reported by mallinfo(arena+hblkhd)
        169164 MiB available memory on the node where the printing process lives
------------------
     ethr =  5.13E-07,  avg # of iterations =  3.6

     negative rho (up, down):  7.922E-01 0.000E+00

     total cpu time spent up to now is      428.5 secs

     total energy              =   -4399.91737549 Ry
     estimated scf accuracy    <       0.00143004 Ry

     iteration # 29     ecut=    60.00 Ry     beta= 0.15
     Davidson diagonalization with overlap

---- Real-time Memory Report at c_bands before calling an iterative solver
             0 MiB given to the printing process from OS
             0 MiB allocation reported by mallinfo(arena+hblkhd)
        169153 MiB available memory on the node where the printing process lives
------------------
     c_bands:  1 eigenvalues not converged
     c_bands:  1 eigenvalues not converged
     ethr =  3.36E-07,  avg # of iterations = 13.2

     negative rho (up, down):  7.947E-01 0.000E+00

     total cpu time spent up to now is      448.8 secs

     total energy              =   -4399.91747443 Ry
     estimated scf accuracy    <       0.00038576 Ry

     iteration # 30     ecut=    60.00 Ry     beta= 0.15
     Davidson diagonalization with overlap

---- Real-time Memory Report at c_bands before calling an iterative solver
             0 MiB given to the printing process from OS
             0 MiB allocation reported by mallinfo(arena+hblkhd)
        169084 MiB available memory on the node where the printing process lives
------------------
     ethr =  9.08E-08,  avg # of iterations =  7.7

     negative rho (up, down):  7.935E-01 0.000E+00

     total cpu time spent up to now is      465.0 secs

     total energy              =   -4399.91746570 Ry
     estimated scf accuracy    <       0.00012463 Ry

     iteration # 31     ecut=    60.00 Ry     beta= 0.15
     Davidson diagonalization with overlap

---- Real-time Memory Report at c_bands before calling an iterative solver
             0 MiB given to the printing process from OS
             0 MiB allocation reported by mallinfo(arena+hblkhd)
        169087 MiB available memory on the node where the printing process lives
------------------
     ethr =  2.93E-08,  avg # of iterations =  2.7

     negative rho (up, down):  7.926E-01 0.000E+00

     total cpu time spent up to now is      478.9 secs

     total energy              =   -4399.91745396 Ry
     estimated scf accuracy    <       0.00006489 Ry

     iteration # 32     ecut=    60.00 Ry     beta= 0.15
     Davidson diagonalization with overlap

---- Real-time Memory Report at c_bands before calling an iterative solver
             0 MiB given to the printing process from OS
             0 MiB allocation reported by mallinfo(arena+hblkhd)
        169047 MiB available memory on the node where the printing process lives
------------------
     ethr =  1.53E-08,  avg # of iterations =  2.3

     negative rho (up, down):  7.927E-01 0.000E+00

     total cpu time spent up to now is      493.0 secs

     total energy              =   -4399.91745475 Ry
     estimated scf accuracy    <       0.00003268 Ry

     iteration # 33     ecut=    60.00 Ry     beta= 0.15
     Davidson diagonalization with overlap

---- Real-time Memory Report at c_bands before calling an iterative solver
             0 MiB given to the printing process from OS
             0 MiB allocation reported by mallinfo(arena+hblkhd)
        169086 MiB available memory on the node where the printing process lives
------------------
     ethr =  7.69E-09,  avg # of iterations =  2.1

     negative rho (up, down):  7.926E-01 0.000E+00

     total cpu time spent up to now is      506.6 secs

     total energy              =   -4399.91745644 Ry
     estimated scf accuracy    <       0.00002016 Ry

     iteration # 34     ecut=    60.00 Ry     beta= 0.15
     Davidson diagonalization with overlap

---- Real-time Memory Report at c_bands before calling an iterative solver
             0 MiB given to the printing process from OS
             0 MiB allocation reported by mallinfo(arena+hblkhd)
        169072 MiB available memory on the node where the printing process lives
------------------
     ethr =  4.74E-09,  avg # of iterations =  2.1

     negative rho (up, down):  7.925E-01 0.000E+00

     total cpu time spent up to now is      520.8 secs

     total energy              =   -4399.91745880 Ry
     estimated scf accuracy    <       0.00001162 Ry

     iteration # 35     ecut=    60.00 Ry     beta= 0.15
     Davidson diagonalization with overlap

---- Real-time Memory Report at c_bands before calling an iterative solver
             0 MiB given to the printing process from OS
             0 MiB allocation reported by mallinfo(arena+hblkhd)
        169078 MiB available memory on the node where the printing process lives
------------------
     ethr =  2.73E-09,  avg # of iterations =  2.2

     negative rho (up, down):  7.925E-01 0.000E+00

     total cpu time spent up to now is      534.3 secs

     total energy              =   -4399.91746118 Ry
     estimated scf accuracy    <       0.00000479 Ry

     iteration # 36     ecut=    60.00 Ry     beta= 0.15
     Davidson diagonalization with overlap

---- Real-time Memory Report at c_bands before calling an iterative solver
             0 MiB given to the printing process from OS
             0 MiB allocation reported by mallinfo(arena+hblkhd)
        169095 MiB available memory on the node where the printing process lives
------------------
     ethr =  1.13E-09,  avg # of iterations =  2.7

     negative rho (up, down):  7.924E-01 0.000E+00

     total cpu time spent up to now is      548.1 secs

     total energy              =   -4399.91746266 Ry
     estimated scf accuracy    <       0.00000292 Ry

     iteration # 37     ecut=    60.00 Ry     beta= 0.15
     Davidson diagonalization with overlap

---- Real-time Memory Report at c_bands before calling an iterative solver
             0 MiB given to the printing process from OS
             0 MiB allocation reported by mallinfo(arena+hblkhd)
        169100 MiB available memory on the node where the printing process lives
------------------
     ethr =  6.87E-10,  avg # of iterations =  3.1

     negative rho (up, down):  7.924E-01 0.000E+00

     total cpu time spent up to now is      562.1 secs

     total energy              =   -4399.91746324 Ry
     estimated scf accuracy    <       0.00000208 Ry

     iteration # 38     ecut=    60.00 Ry     beta= 0.15
     Davidson diagonalization with overlap

---- Real-time Memory Report at c_bands before calling an iterative solver
             0 MiB given to the printing process from OS
             0 MiB allocation reported by mallinfo(arena+hblkhd)
        169106 MiB available memory on the node where the printing process lives
------------------
     ethr =  4.88E-10,  avg # of iterations =  4.0

     negative rho (up, down):  7.924E-01 0.000E+00

     total cpu time spent up to now is      576.7 secs

     total energy              =   -4399.91746344 Ry
     estimated scf accuracy    <       0.00000106 Ry

     iteration # 39     ecut=    60.00 Ry     beta= 0.15
     Davidson diagonalization with overlap

---- Real-time Memory Report at c_bands before calling an iterative solver
             0 MiB given to the printing process from OS
             0 MiB allocation reported by mallinfo(arena+hblkhd)
        169108 MiB available memory on the node where the printing process lives
------------------
     ethr =  2.50E-10,  avg # of iterations =  3.3

     negative rho (up, down):  7.924E-01 0.000E+00

     total cpu time spent up to now is      591.0 secs

     total energy              =   -4399.91746363 Ry
     estimated scf accuracy    <       0.00000050 Ry

     iteration # 40     ecut=    60.00 Ry     beta= 0.15
     Davidson diagonalization with overlap

---- Real-time Memory Report at c_bands before calling an iterative solver
             0 MiB given to the printing process from OS
             0 MiB allocation reported by mallinfo(arena+hblkhd)
        169097 MiB available memory on the node where the printing process lives
------------------
     ethr =  1.19E-10,  avg # of iterations =  2.2

     negative rho (up, down):  7.924E-01 0.000E+00

     total cpu time spent up to now is      604.6 secs

     total energy              =   -4399.91746377 Ry
     estimated scf accuracy    <       0.00000039 Ry

     iteration # 41     ecut=    60.00 Ry     beta= 0.15
     Davidson diagonalization with overlap

---- Real-time Memory Report at c_bands before calling an iterative solver
             0 MiB given to the printing process from OS
             0 MiB allocation reported by mallinfo(arena+hblkhd)
        169102 MiB available memory on the node where the printing process lives
------------------
     ethr =  9.29E-11,  avg # of iterations =  2.7

     negative rho (up, down):  7.924E-01 0.000E+00

     total cpu time spent up to now is      618.6 secs

     total energy              =   -4399.91746384 Ry
     estimated scf accuracy    <       0.00000022 Ry

     iteration # 42     ecut=    60.00 Ry     beta= 0.15
     Davidson diagonalization with overlap

---- Real-time Memory Report at c_bands before calling an iterative solver
             0 MiB given to the printing process from OS
             0 MiB allocation reported by mallinfo(arena+hblkhd)
        169104 MiB available memory on the node where the printing process lives
------------------
     ethr =  5.17E-11,  avg # of iterations =  2.8

     negative rho (up, down):  7.924E-01 0.000E+00

     total cpu time spent up to now is      632.5 secs

     total energy              =   -4399.91746387 Ry
     estimated scf accuracy    <       0.00000016 Ry

     iteration # 43     ecut=    60.00 Ry     beta= 0.15
     Davidson diagonalization with overlap

---- Real-time Memory Report at c_bands before calling an iterative solver
             0 MiB given to the printing process from OS
             0 MiB allocation reported by mallinfo(arena+hblkhd)
        169108 MiB available memory on the node where the printing process lives
------------------
     ethr =  3.83E-11,  avg # of iterations =  2.7

     negative rho (up, down):  7.924E-01 0.000E+00

     total cpu time spent up to now is      646.5 secs

     total energy              =   -4399.91746388 Ry
     estimated scf accuracy    <       0.00000007 Ry

     iteration # 44     ecut=    60.00 Ry     beta= 0.15
     Davidson diagonalization with overlap

---- Real-time Memory Report at c_bands before calling an iterative solver
             0 MiB given to the printing process from OS
             0 MiB allocation reported by mallinfo(arena+hblkhd)
        169102 MiB available memory on the node where the printing process lives
------------------
     ethr =  1.69E-11,  avg # of iterations =  2.9

     negative rho (up, down):  7.924E-01 0.000E+00

     total cpu time spent up to now is      660.5 secs

     total energy              =   -4399.91746387 Ry
     estimated scf accuracy    <       0.00000004 Ry

     iteration # 45     ecut=    60.00 Ry     beta= 0.15
     Davidson diagonalization with overlap

---- Real-time Memory Report at c_bands before calling an iterative solver
             0 MiB given to the printing process from OS
             0 MiB allocation reported by mallinfo(arena+hblkhd)
        169108 MiB available memory on the node where the printing process lives
------------------
     ethr =  8.70E-12,  avg # of iterations =  3.0

     negative rho (up, down):  7.924E-01 0.000E+00

     total cpu time spent up to now is      674.4 secs

     total energy              =   -4399.91746387 Ry
     estimated scf accuracy    <       0.00000002 Ry

     iteration # 46     ecut=    60.00 Ry     beta= 0.15
     Davidson diagonalization with overlap

---- Real-time Memory Report at c_bands before calling an iterative solver
             0 MiB given to the printing process from OS
             0 MiB allocation reported by mallinfo(arena+hblkhd)
        169107 MiB available memory on the node where the printing process lives
------------------
     ethr =  4.67E-12,  avg # of iterations =  2.1

     negative rho (up, down):  7.924E-01 0.000E+00

     total cpu time spent up to now is      688.1 secs

     total energy              =   -4399.91746386 Ry
     estimated scf accuracy    <       0.00000001 Ry

     iteration # 47     ecut=    60.00 Ry     beta= 0.15
     Davidson diagonalization with overlap

---- Real-time Memory Report at c_bands before calling an iterative solver
             0 MiB given to the printing process from OS
             0 MiB allocation reported by mallinfo(arena+hblkhd)
        169118 MiB available memory on the node where the printing process lives
------------------
     ethr =  2.91E-12,  avg # of iterations =  2.5

     negative rho (up, down):  7.924E-01 0.000E+00

     total cpu time spent up to now is      701.7 secs

     End of self-consistent calculation

          k = 0.0000 0.0000 0.0000 ( 65197 PWs)   bands (ev):

   -92.7357 -92.6823 -92.5905 -92.5409 -92.4846 -92.4423 -92.4249 -92.3025
   -56.0891 -56.0668 -55.9474 -55.9364 -55.9291 -55.9232 -55.8873 -55.8595
   -55.8434 -55.8418 -55.8339 -55.7920 -55.7716 -55.7357 -55.7173 -55.6846
   -55.6763 -55.6305 -55.6296 -55.6275 -55.6191 -55.5775 -55.5552 -55.4680
   -31.3110 -31.2915 -31.1502 -31.0665 -31.0633 -31.0472 -30.8821 -30.8299
   -29.8835 -29.8400 -29.8148 -29.7064 -15.1162 -15.0744 -14.9920 -14.8626
   -14.6686 -14.5492 -14.2539 -14.2338 -14.2049 -14.1606 -14.1171 -14.1045
   -14.0922 -14.0751 -14.0526 -14.0186 -13.9657 -13.8145 -13.6322 -13.6027
   -13.5720 -13.5362 -13.5213 -13.4725 -13.4380 -13.3554 -13.2837 -13.1756
   -13.1438 -13.1327 -13.1086 -13.0999 -13.0907 -13.0480 -13.0364 -13.0243
   -12.9900 -12.9568 -12.9367 -12.9162 -12.9039 -12.8950 -12.8331 -12.8201
   -12.8051 -12.7550 -12.7105 -12.7013 -12.3761 -12.2298 -12.0839 -12.0107
   -11.8971 -11.8227 -11.8117 -11.7892 -11.7716 -11.7078 -11.6907 -11.6557
   -11.6268 -11.5156 -11.4353 -11.4318  -2.9769  -2.7447  -2.5153  -2.3671
    -2.3053  -2.1627  -1.8550  -1.8403  -1.8212  -1.7341  -1.7178  -1.6498
    -1.6334  -1.5924  -1.5479  -1.3674  -1.1408  -1.1111  -0.9658  -0.9515
    -0.9054  -0.8870  -0.8412  -0.8253  -0.7691  -0.7422  -0.6707  -0.6597
    -0.5820  -0.4508  -0.4378  -0.4084  -0.3278  -0.3065  -0.2746  -0.2346
    -0.1634  -0.1284  -0.0658  -0.0455   0.0144   0.0938   0.1441   0.1657
     0.1753   0.4346   0.4506   0.6226   0.6874   0.7495   0.7948   0.8869
     0.8994   0.9154   0.9864   1.0139   1.0474   1.1056   1.2383   1.2939
     1.3163   1.3402   1.3507   1.4134   1.4861   1.5922   1.6087   1.6609
     1.6767   1.7197   1.7406   1.7500   1.8030   1.8597   1.8665   1.8980
     1.9273   1.9886   2.1204   2.2041   2.2490   2.2643   2.4111   2.4251
     2.4747   2.4777   2.5862   2.6215   2.6492   2.6674   2.6790   2.7386
     2.7972   2.8717   2.9079   2.9160   2.9227   2.9906   3.0041   3.0183
     3.0261   3.0346   3.0454   3.0543   3.0678   3.0743   3.0849   3.0935
     3.1010   3.1214   3.1426   3.1477   3.1599   3.1809   3.3006   3.4108
     4.0726   4.3901   4.7361   4.8575   5.0013   5.8615   5.9404   5.9697
     6.0528   6.2806   6.3264   6.4662   6.4759   6.7458   6.9897   7.0837
     7.1461   7.2128   7.2845   7.5890   7.6362   7.6555   7.7447   7.8837
     8.0193   8.0928   8.1270   8.1931   8.3788   8.6678   8.7405   8.8557

     occupation numbers 
     1.0000   1.0000   1.0000   1.0000   1.0000   1.0000   1.0000   1.0000
     1.0000   1.0000   1.0000   1.0000   1.0000   1.0000   1.0000   1.0000
     1.0000   1.0000   1.0000   1.0000   1.0000   1.0000   1.0000   1.0000
     1.0000   1.0000   1.0000   1.0000   1.0000   1.0000   1.0000   1.0000
     1.0000   1.0000   1.0000   1.0000   1.0000   1.0000   1.0000   1.0000
     1.0000   1.0000   1.0000   1.0000   1.0000   1.0000   1.0000   1.0000
     1.0000   1.0000   1.0000   1.0000   1.0000   1.0000   1.0000   1.0000
     1.0000   1.0000   1.0000   1.0000   1.0000   1.0000   1.0000   1.0000
     1.0000   1.0000   1.0000   1.0000   1.0000   1.0000   1.0000   1.0000
     1.0000   1.0000   1.0000   1.0000   1.0000   1.0000   1.0000   1.0000
     1.0000   1.0000   1.0000   1.0000   1.0000   1.0000   1.0000   1.0000
     1.0000   1.0000   1.0000   1.0000   1.0000   1.0000   1.0000   1.0000
     1.0000   1.0000   1.0000   1.0000   1.0000   1.0000   1.0000   1.0000
     1.0000   1.0000   1.0000   1.0000   1.0000   1.0000   1.0000   1.0000
     1.0000   1.0000   1.0000   1.0000   1.0000   1.0000   1.0000   1.0000
     1.0000   1.0000   1.0000   1.0000   1.0000   1.0000   1.0000   1.0000
     1.0000   1.0000   1.0000   1.0000   1.0000   1.0000   1.0000   1.0000
     1.0000   1.0000   1.0000   1.0000   1.0000   1.0000   1.0000   1.0000
     1.0000   1.0000   1.0000   1.0000   1.0000   1.0000   1.0000   1.0000
     1.0000   1.0000   1.0000   1.0000   0.9999   0.9999   0.9999   0.9998
     0.9998   0.9998   0.9997   0.9996   0.9996   0.9994   0.9989   0.9985
     0.9983   0.9981   0.9980   0.9974   0.9963   0.9942   0.9938   0.9923
     0.9918   0.9902   0.9894   0.9890   0.9865   0.9833   0.9828   0.9808
     0.9786   0.9735   0.9590   0.9469   0.9393   0.9365   0.9045   0.9009
     0.8875   0.8866   0.8526   0.8402   0.8300   0.8231   0.8186   0.7943
     0.7687   0.7336   0.7157   0.7116   0.7082   0.6727   0.6654   0.6577
     0.6535   0.6487   0.6428   0.6378   0.6303   0.6267   0.6207   0.6158
     0.6116   0.5999   0.5877   0.5848   0.5777   0.5654   0.4948   0.4299
     0.1232   0.0515   0.0160   0.0100   0.0056   0.0001   0.0000   0.0000
     0.0000   0.0000   0.0000   0.0000   0.0000   0.0000   0.0000   0.0000
     0.0000   0.0000   0.0000   0.0000   0.0000   0.0000   0.0000   0.0000
     0.0000   0.0000   0.0000   0.0000   0.0000   0.0000   0.0000   0.0000

          k = 0.0000 0.2500 0.0000 ( 65257 PWs)   bands (ev):

   -92.7357 -92.6823 -92.5905 -92.5409 -92.4846 -92.4423 -92.4249 -92.3025
   -56.0891 -56.0668 -55.9475 -55.9364 -55.9291 -55.9233 -55.8873 -55.8595
   -55.8434 -55.8418 -55.8339 -55.7920 -55.7717 -55.7357 -55.7173 -55.6846
   -55.6763 -55.6305 -55.6296 -55.6275 -55.6191 -55.5775 -55.5552 -55.4680
   -31.3108 -31.2914 -31.1504 -31.0648 -31.0635 -31.0489 -30.8815 -30.8306
   -29.8828 -29.8397 -29.8154 -29.7067 -15.0795 -15.0481 -14.9673 -14.8329
   -14.7106 -14.5379 -14.4003 -14.2201 -14.1846 -14.1645 -14.1366 -14.0778
   -14.0724 -14.0570 -14.0361 -13.9925 -13.8849 -13.8448 -13.6818 -13.6581
   -13.6130 -13.5764 -13.5237 -13.4896 -13.4499 -13.3767 -13.3412 -13.2907
   -13.2215 -13.1810 -13.1420 -13.1245 -13.0792 -13.0237 -12.9996 -12.9707
   -12.9561 -12.9350 -12.9006 -12.8635 -12.8484 -12.8333 -12.8140 -12.8066
   -12.7904 -12.7443 -12.6159 -12.5454 -12.4375 -12.2810 -12.1422 -12.0786
   -11.8626 -11.8195 -11.7919 -11.7637 -11.7471 -11.6996 -11.6884 -11.6659
   -11.6314 -11.5300 -11.4770 -11.4664  -2.8415  -2.6204  -2.4827  -2.3000
    -2.2567  -2.0934  -1.8719  -1.7894  -1.7763  -1.7140  -1.6156  -1.6004
    -1.5662  -1.5395  -1.4955  -1.2987  -1.1685  -1.1573  -1.0796  -1.0705
    -0.9665  -0.9366  -0.8795  -0.8530  -0.8130  -0.7480  -0.7221  -0.6894
    -0.6606  -0.6436  -0.6096  -0.5366  -0.4848  -0.4103  -0.3058  -0.2759
    -0.2391  -0.1292  -0.0936  -0.0302   0.0194   0.0747   0.0931   0.1228
     0.1800   0.4811   0.5701   0.6040   0.6871   0.7322   0.7513   0.8727
     0.8907   0.9862   1.0126   1.0405   1.1551   1.2493   1.2701   1.2957
     1.3156   1.3387   1.3989   1.4264   1.4540   1.5015   1.5353   1.5665
     1.6518   1.6875   1.7127   1.7721   1.8228   1.8555   1.8857   1.9151
     1.9338   2.0259   2.1588   2.2287   2.2481   2.3240   2.3676   2.4073
     2.4124   2.4794   2.5195   2.6020   2.6413   2.6611   2.7673   2.8337
     2.8570   2.8848   2.9104   2.9236   2.9328   2.9389   2.9474   2.9784
     2.9824   2.9979   3.0092   3.0122   3.0344   3.0454   3.0544   3.0726
     3.0833   3.0908   3.1238   3.1404   3.1997   3.5622   3.6161   3.8485
     4.2588   4.3850   4.6836   5.0070   5.0297   5.6161   5.7813   5.9325
     6.0300   6.0647   6.1028   6.1555   6.5827   6.8989   6.9508   7.0976
     7.2498   7.3102   7.4582   7.4754   7.6211   7.7661   7.9198   7.9504
     8.0418   8.1301   8.1536   8.2359   8.3828   8.4999   8.7676   8.9096

     occupation numbers 
     1.0000   1.0000   1.0000   1.0000   1.0000   1.0000   1.0000   1.0000
     1.0000   1.0000   1.0000   1.0000   1.0000   1.0000   1.0000   1.0000
     1.0000   1.0000   1.0000   1.0000   1.0000   1.0000   1.0000   1.0000
     1.0000   1.0000   1.0000   1.0000   1.0000   1.0000   1.0000   1.0000
     1.0000   1.0000   1.0000   1.0000   1.0000   1.0000   1.0000   1.0000
     1.0000   1.0000   1.0000   1.0000   1.0000   1.0000   1.0000   1.0000
     1.0000   1.0000   1.0000   1.0000   1.0000   1.0000   1.0000   1.0000
     1.0000   1.0000   1.0000   1.0000   1.0000   1.0000   1.0000   1.0000
     1.0000   1.0000   1.0000   1.0000   1.0000   1.0000   1.0000   1.0000
     1.0000   1.0000   1.0000   1.0000   1.0000   1.0000   1.0000   1.0000
     1.0000   1.0000   1.0000   1.0000   1.0000   1.0000   1.0000   1.0000
     1.0000   1.0000   1.0000   1.0000   1.0000   1.0000   1.0000   1.0000
     1.0000   1.0000   1.0000   1.0000   1.0000   1.0000   1.0000   1.0000
     1.0000   1.0000   1.0000   1.0000   1.0000   1.0000   1.0000   1.0000
     1.0000   1.0000   1.0000   1.0000   1.0000   1.0000   1.0000   1.0000
     1.0000   1.0000   1.0000   1.0000   1.0000   1.0000   1.0000   1.0000
     1.0000   1.0000   1.0000   1.0000   1.0000   1.0000   1.0000   1.0000
     1.0000   1.0000   1.0000   1.0000   1.0000   1.0000   1.0000   1.0000
     1.0000   1.0000   1.0000   1.0000   1.0000   1.0000   1.0000   1.0000
     1.0000   1.0000   1.0000   1.0000   0.9999   0.9999   0.9999   0.9998
     0.9998   0.9997   0.9996   0.9996   0.9992   0.9988   0.9987   0.9985
     0.9983   0.9981   0.9975   0.9972   0.9968   0.9961   0.9955   0.9948
     0.9926   0.9914   0.9905   0.9880   0.9854   0.9835   0.9816   0.9795
     0.9781   0.9699   0.9538   0.9428   0.9394   0.9247   0.9150   0.9055
     0.9042   0.8862   0.8743   0.8472   0.8330   0.8255   0.7820   0.7518
     0.7408   0.7272   0.7145   0.7078   0.7030   0.6999   0.6955   0.6792
     0.6771   0.6688   0.6627   0.6610   0.6489   0.6428   0.6378   0.6276
     0.6216   0.6174   0.5985   0.5890   0.5544   0.3440   0.3151   0.2042
     0.0755   0.0523   0.0194   0.0054   0.0049   0.0003   0.0001   0.0000
     0.0000   0.0000   0.0000   0.0000   0.0000   0.0000   0.0000   0.0000
     0.0000   0.0000   0.0000   0.0000   0.0000   0.0000   0.0000   0.0000
     0.0000   0.0000   0.0000   0.0000   0.0000   0.0000   0.0000   0.0000

          k = 0.0000-0.5000 0.0000 ( 65180 PWs)   bands (ev):

   -92.7357 -92.6823 -92.5905 -92.5409 -92.4846 -92.4423 -92.4249 -92.3025
   -56.0891 -56.0668 -55.9474 -55.9364 -55.9291 -55.9232 -55.8873 -55.8595
   -55.8434 -55.8418 -55.8339 -55.7920 -55.7717 -55.7357 -55.7173 -55.6846
   -55.6763 -55.6305 -55.6296 -55.6275 -55.6191 -55.5775 -55.5552 -55.4680
   -31.3106 -31.2912 -31.1506 -31.0636 -31.0627 -31.0511 -30.8809 -30.8312
   -29.8822 -29.8394 -29.8160 -29.7070 -15.0449 -14.9964 -14.9443 -14.8150
   -14.7314 -14.5927 -14.4425 -14.3161 -14.1919 -14.1235 -14.0774 -14.0721
   -14.0207 -14.0056 -13.9598 -13.9317 -13.9134 -13.8748 -13.8325 -13.8085
   -13.6181 -13.5590 -13.5276 -13.4909 -13.4486 -13.3924 -13.3649 -13.3163
   -13.3090 -13.2511 -13.1428 -13.1255 -13.0445 -13.0373 -13.0023 -12.9865
   -12.9624 -12.9155 -12.8620 -12.8400 -12.8156 -12.7982 -12.7687 -12.7504
   -12.7389 -12.6855 -12.5484 -12.4653 -12.3559 -12.3236 -12.2542 -12.2162
   -11.8164 -11.8141 -11.7870 -11.7497 -11.7152 -11.7042 -11.6611 -11.6574
   -11.6129 -11.5517 -11.5379 -11.5236  -2.6262  -2.5682  -2.4172  -2.3450
    -2.0609  -1.9802  -1.8524  -1.7154  -1.6724  -1.6583  -1.5802  -1.5480
    -1.4673  -1.4316  -1.3529  -1.3138  -1.2754  -1.2481  -1.1893  -1.1537
    -1.1052  -1.0692  -1.0378  -1.0036  -0.8935  -0.8489  -0.8134  -0.8103
    -0.7247  -0.6933  -0.6720  -0.6257  -0.5337  -0.4677  -0.3773  -0.3382
    -0.2465  -0.2128  -0.0650  -0.0145   0.0020   0.0473   0.1609   0.2268
     0.3568   0.4253   0.4341   0.5609   0.6157   0.6980   0.8398   0.9433
     0.9768   1.0162   1.0269   1.0591   1.0770   1.1120   1.1285   1.1409
     1.2500   1.3096   1.3447   1.3714   1.6400   1.6563   1.6781   1.7648
     1.7952   1.8310   1.8452   1.8748   1.8887   1.8914   1.9212   1.9697
     1.9939   2.0236   2.0320   2.0610   2.1151   2.2028   2.2319   2.4004
     2.5662   2.5705   2.5936   2.6340   2.6417   2.6471   2.6884   2.7089
     2.7628   2.7796   2.7838   2.8703   2.8820   2.9476   2.9486   2.9782
     2.9804   2.9948   2.9979   3.0026   3.0097   3.0171   3.0347   3.0430
     3.0508   3.1088   3.1141   3.1302   3.1879   4.0857   4.0951   4.1452
     4.2431   4.6981   4.8698   4.9982   5.1547   5.3957   5.4387   5.5565
     5.7234   5.9990   6.0100   6.1088   6.7620   6.8348   6.9379   7.2020
     7.2952   7.3789   7.4420   7.4743   7.6675   7.7234   7.8782   7.8937
     8.1704   8.2230   8.2455   8.4622   8.6337   8.7624   8.7964   8.8111

     occupation numbers 
     1.0000   1.0000   1.0000   1.0000   1.0000   1.0000   1.0000   1.0000
     1.0000   1.0000   1.0000   1.0000   1.0000   1.0000   1.0000   1.0000
     1.0000   1.0000   1.0000   1.0000   1.0000   1.0000   1.0000   1.0000
     1.0000   1.0000   1.0000   1.0000   1.0000   1.0000   1.0000   1.0000
     1.0000   1.0000   1.0000   1.0000   1.0000   1.0000   1.0000   1.0000
     1.0000   1.0000   1.0000   1.0000   1.0000   1.0000   1.0000   1.0000
     1.0000   1.0000   1.0000   1.0000   1.0000   1.0000   1.0000   1.0000
     1.0000   1.0000   1.0000   1.0000   1.0000   1.0000   1.0000   1.0000
     1.0000   1.0000   1.0000   1.0000   1.0000   1.0000   1.0000   1.0000
     1.0000   1.0000   1.0000   1.0000   1.0000   1.0000   1.0000   1.0000
     1.0000   1.0000   1.0000   1.0000   1.0000   1.0000   1.0000   1.0000
     1.0000   1.0000   1.0000   1.0000   1.0000   1.0000   1.0000   1.0000
     1.0000   1.0000   1.0000   1.0000   1.0000   1.0000   1.0000   1.0000
     1.0000   1.0000   1.0000   1.0000   1.0000   1.0000   1.0000   1.0000
     1.0000   1.0000   1.0000   1.0000   1.0000   1.0000   1.0000   1.0000
     1.0000   1.0000   1.0000   1.0000   1.0000   1.0000   1.0000   1.0000
     1.0000   1.0000   1.0000   1.0000   1.0000   1.0000   1.0000   1.0000
     1.0000   1.0000   1.0000   1.0000   1.0000   1.0000   1.0000   1.0000
     1.0000   1.0000   1.0000   1.0000   1.0000   1.0000   1.0000   1.0000
     1.0000   1.0000   1.0000   1.0000   1.0000   0.9999   0.9999   0.9998
     0.9997   0.9996   0.9996   0.9995   0.9995   0.9994   0.9993   0.9993
     0.9988   0.9984   0.9981   0.9978   0.9929   0.9924   0.9917   0.9883
     0.9869   0.9850   0.9841   0.9823   0.9814   0.9812   0.9791   0.9752
     0.9730   0.9702   0.9693   0.9662   0.9597   0.9471   0.9422   0.9072
     0.8594   0.8579   0.8501   0.8357   0.8328   0.8308   0.8149   0.8066
     0.7839   0.7765   0.7747   0.7343   0.7286   0.6954   0.6949   0.6793
     0.6781   0.6704   0.6688   0.6662   0.6624   0.6583   0.6487   0.6441
     0.6398   0.6071   0.6041   0.5949   0.5613   0.1192   0.1165   0.1026
     0.0789   0.0184   0.0096   0.0056   0.0028   0.0009   0.0007   0.0004
     0.0002   0.0000   0.0000   0.0000   0.0000   0.0000   0.0000   0.0000
     0.0000   0.0000   0.0000   0.0000   0.0000   0.0000   0.0000   0.0000
     0.0000   0.0000   0.0000   0.0000   0.0000   0.0000   0.0000   0.0000

          k = 0.2500 0.2500 0.0000 ( 65198 PWs)   bands (ev):

   -92.7357 -92.6823 -92.5905 -92.5409 -92.4846 -92.4423 -92.4249 -92.3025
   -56.0891 -56.0668 -55.9474 -55.9364 -55.9291 -55.9232 -55.8873 -55.8595
   -55.8434 -55.8418 -55.8339 -55.7920 -55.7716 -55.7357 -55.7173 -55.6846
   -55.6763 -55.6305 -55.6296 -55.6275 -55.6191 -55.5775 -55.5552 -55.4680
   -31.3091 -31.2931 -31.1501 -31.0647 -31.0639 -31.0488 -30.8817 -30.8307
   -29.8819 -29.8407 -29.8150 -29.7071 -15.0510 -15.0128 -14.9395 -14.8225
   -14.7025 -14.5794 -14.5056 -14.2990 -14.1428 -14.1299 -14.0950 -14.0647
   -14.0437 -14.0156 -13.9819 -13.9536 -13.8759 -13.8586 -13.6979 -13.6841
   -13.6543 -13.6345 -13.5688 -13.5449 -13.4851 -13.4598 -13.3501 -13.3100
   -13.2632 -13.1753 -13.1351 -13.0835 -13.0525 -13.0404 -13.0142 -12.9804
   -12.9615 -12.9471 -12.8968 -12.8554 -12.8299 -12.7926 -12.7766 -12.7531
   -12.7476 -12.7373 -12.5553 -12.4859 -12.4495 -12.3100 -12.1740 -12.1269
   -11.8348 -11.8031 -11.7923 -11.7852 -11.7226 -11.6878 -11.6813 -11.6459
   -11.6380 -11.5465 -11.5053 -11.4878  -2.7031  -2.4946  -2.3769  -2.2812
    -2.1616  -2.0966  -1.8967  -1.7542  -1.7347  -1.7017  -1.6098  -1.5765
    -1.4829  -1.4552  -1.4049  -1.2741  -1.2262  -1.1516  -1.1079  -1.0622
    -1.0393  -1.0153  -0.9734  -0.9577  -0.8670  -0.8174  -0.7490  -0.7019
    -0.6737  -0.6237  -0.6113  -0.5468  -0.4954  -0.4327  -0.4045  -0.3132
    -0.2669  -0.2358  -0.1988  -0.1433  -0.0743  -0.0329  -0.0059   0.0613
     0.1002   0.3737   0.5234   0.5568   0.6146   0.6536   0.7066   0.7570
     0.8263   0.8660   1.1391   1.2047   1.2788   1.3029   1.3549   1.3829
     1.4198   1.4567   1.4734   1.5016   1.5448   1.5547   1.5709   1.6167
     1.6518   1.6921   1.7450   1.7794   1.7980   1.8218   1.8616   1.9136
     1.9377   2.0662   2.1380   2.1748   2.1997   2.2641   2.3275   2.3586
     2.3958   2.4200   2.4301   2.5440   2.5852   2.6692   2.7806   2.8412
     2.8623   2.8649   2.8831   2.8985   2.9119   2.9210   2.9276   2.9398
     2.9528   2.9680   2.9827   2.9895   3.0015   3.0261   3.0348   3.0439
     3.0751   3.3761   3.4673   3.5224   3.5794   3.5935   3.8353   3.9191
     4.2647   4.4741   4.6905   4.9412   5.1579   5.6153   5.6737   5.7514
     5.8042   5.8649   6.0964   6.1603   6.2019   6.7866   6.8824   7.0722
     7.2188   7.5298   7.5797   7.6222   7.6861   7.8441   7.9476   8.1000
     8.2062   8.2404   8.2938   8.3401   8.3759   8.4262   8.5785   8.8495

     occupation numbers 
     1.0000   1.0000   1.0000   1.0000   1.0000   1.0000   1.0000   1.0000
     1.0000   1.0000   1.0000   1.0000   1.0000   1.0000   1.0000   1.0000
     1.0000   1.0000   1.0000   1.0000   1.0000   1.0000   1.0000   1.0000
     1.0000   1.0000   1.0000   1.0000   1.0000   1.0000   1.0000   1.0000
     1.0000   1.0000   1.0000   1.0000   1.0000   1.0000   1.0000   1.0000
     1.0000   1.0000   1.0000   1.0000   1.0000   1.0000   1.0000   1.0000
     1.0000   1.0000   1.0000   1.0000   1.0000   1.0000   1.0000   1.0000
     1.0000   1.0000   1.0000   1.0000   1.0000   1.0000   1.0000   1.0000
     1.0000   1.0000   1.0000   1.0000   1.0000   1.0000   1.0000   1.0000
     1.0000   1.0000   1.0000   1.0000   1.0000   1.0000   1.0000   1.0000
     1.0000   1.0000   1.0000   1.0000   1.0000   1.0000   1.0000   1.0000
     1.0000   1.0000   1.0000   1.0000   1.0000   1.0000   1.0000   1.0000
     1.0000   1.0000   1.0000   1.0000   1.0000   1.0000   1.0000   1.0000
     1.0000   1.0000   1.0000   1.0000   1.0000   1.0000   1.0000   1.0000
     1.0000   1.0000   1.0000   1.0000   1.0000   1.0000   1.0000   1.0000
     1.0000   1.0000   1.0000   1.0000   1.0000   1.0000   1.0000   1.0000
     1.0000   1.0000   1.0000   1.0000   1.0000   1.0000   1.0000   1.0000
     1.0000   1.0000   1.0000   1.0000   1.0000   1.0000   1.0000   1.0000
     1.0000   1.0000   1.0000   1.0000   1.0000   1.0000   1.0000   1.0000
     1.0000   1.0000   1.0000   1.0000   1.0000   1.0000   0.9999   0.9999
     0.9999   0.9998   0.9993   0.9990   0.9986   0.9984   0.9980   0.9977
     0.9973   0.9968   0.9965   0.9961   0.9953   0.9951   0.9947   0.9936
     0.9926   0.9912   0.9892   0.9876   0.9867   0.9855   0.9832   0.9796
     0.9778   0.9656   0.9567   0.9514   0.9476   0.9365   0.9239   0.9171
     0.9083   0.9023   0.8996   0.8666   0.8530   0.8224   0.7761   0.7483
     0.7382   0.7369   0.7281   0.7204   0.7137   0.7091   0.7057   0.6994
     0.6927   0.6847   0.6769   0.6732   0.6668   0.6535   0.6486   0.6436
     0.6262   0.4502   0.3972   0.3660   0.3347   0.3271   0.2099   0.1758
     0.0743   0.0396   0.0189   0.0072   0.0028   0.0003   0.0002   0.0001
     0.0001   0.0001   0.0000   0.0000   0.0000   0.0000   0.0000   0.0000
     0.0000   0.0000   0.0000   0.0000   0.0000   0.0000   0.0000   0.0000
     0.0000   0.0000   0.0000   0.0000   0.0000   0.0000   0.0000   0.0000

          k = 0.2500-0.5000 0.0000 ( 65138 PWs)   bands (ev):

   -92.7357 -92.6823 -92.5905 -92.5409 -92.4846 -92.4423 -92.4249 -92.3025
   -56.0891 -56.0668 -55.9474 -55.9364 -55.9291 -55.9232 -55.8873 -55.8595
   -55.8434 -55.8418 -55.8339 -55.7920 -55.7717 -55.7357 -55.7173 -55.6846
   -55.6763 -55.6305 -55.6296 -55.6275 -55.6191 -55.5775 -55.5552 -55.4680
   -31.3089 -31.2929 -31.1503 -31.0640 -31.0625 -31.0510 -30.8810 -30.8314
   -29.8812 -29.8404 -29.8156 -29.7075 -15.0144 -14.9695 -14.9012 -14.7848
   -14.7544 -14.6338 -14.5450 -14.4143 -14.1079 -14.0559 -14.0282 -14.0067
   -13.9901 -13.9779 -13.9438 -13.9204 -13.8905 -13.8533 -13.8263 -13.7932
   -13.7004 -13.6516 -13.5867 -13.5726 -13.5058 -13.4939 -13.4052 -13.3696
   -13.2402 -13.1756 -13.1532 -13.0675 -13.0311 -13.0166 -12.9961 -12.9942
   -12.9760 -12.9454 -12.8661 -12.8481 -12.8219 -12.8057 -12.7732 -12.7596
   -12.6891 -12.6577 -12.5551 -12.4468 -12.3534 -12.3019 -12.2433 -12.2169
   -11.8104 -11.7983 -11.7876 -11.7604 -11.7287 -11.7006 -11.6588 -11.6318
   -11.6093 -11.5648 -11.5390 -11.5277  -2.4840  -2.4203  -2.2910  -2.2138
    -2.0816  -2.0001  -1.8768  -1.7261  -1.6696  -1.6489  -1.5876  -1.5748
    -1.4780  -1.4104  -1.3256  -1.2751  -1.2657  -1.2031  -1.1599  -1.1263
    -1.0781  -1.0406  -1.0066  -0.9672  -0.9554  -0.9102  -0.8812  -0.8370
    -0.8082  -0.7400  -0.6360  -0.6021  -0.5201  -0.4547  -0.4027  -0.3635
    -0.3452  -0.2859  -0.1314  -0.1231  -0.0039   0.0166   0.0259   0.0710
     0.1046   0.1371   0.1703   0.2406   0.5183   0.6111   0.6637   0.7223
     1.0033   1.0177   1.1113   1.1360   1.3022   1.3397   1.3766   1.4009
     1.4148   1.4370   1.5002   1.5516   1.5845   1.6552   1.7520   1.7841
     1.8052   1.8173   1.8502   1.8699   1.8718   1.9157   1.9284   1.9481
     1.9833   1.9963   2.0236   2.0547   2.1141   2.1577   2.2336   2.3687
     2.5198   2.5363   2.5540   2.5832   2.6053   2.6346   2.6565   2.6660
     2.6865   2.7792   2.7906   2.8496   2.8625   2.8750   2.8792   2.8993
     2.9123   2.9314   2.9423   2.9777   2.9874   2.9978   3.0051   3.0155
     3.0248   3.5366   3.5730   3.7078   3.7606   4.0863   4.1461   4.1526
     4.2932   4.7186   4.8906   5.0321   5.1162   5.2710   5.4102   5.5832
     5.6511   5.7377   5.7597   6.2229   6.3813   6.4743   6.6316   7.1246
     7.4276   7.5452   7.5957   7.6803   7.7884   7.8512   8.0133   8.2229
     8.3356   8.3697   8.4120   8.5146   8.5280   8.5607   8.6827   8.7443

     occupation numbers 
     1.0000   1.0000   1.0000   1.0000   1.0000   1.0000   1.0000   1.0000
     1.0000   1.0000   1.0000   1.0000   1.0000   1.0000   1.0000   1.0000
     1.0000   1.0000   1.0000   1.0000   1.0000   1.0000   1.0000   1.0000
     1.0000   1.0000   1.0000   1.0000   1.0000   1.0000   1.0000   1.0000
     1.0000   1.0000   1.0000   1.0000   1.0000   1.0000   1.0000   1.0000
     1.0000   1.0000   1.0000   1.0000   1.0000   1.0000   1.0000   1.0000
     1.0000   1.0000   1.0000   1.0000   1.0000   1.0000   1.0000   1.0000
     1.0000   1.0000   1.0000   1.0000   1.0000   1.0000   1.0000   1.0000
     1.0000   1.0000   1.0000   1.0000   1.0000   1.0000   1.0000   1.0000
     1.0000   1.0000   1.0000   1.0000   1.0000   1.0000   1.0000   1.0000
     1.0000   1.0000   1.0000   1.0000   1.0000   1.0000   1.0000   1.0000
     1.0000   1.0000   1.0000   1.0000   1.0000   1.0000   1.0000   1.0000
     1.0000   1.0000   1.0000   1.0000   1.0000   1.0000   1.0000   1.0000
     1.0000   1.0000   1.0000   1.0000   1.0000   1.0000   1.0000   1.0000
     1.0000   1.0000   1.0000   1.0000   1.0000   1.0000   1.0000   1.0000
     1.0000   1.0000   1.0000   1.0000   1.0000   1.0000   1.0000   1.0000
     1.0000   1.0000   1.0000   1.0000   1.0000   1.0000   1.0000   1.0000
     1.0000   1.0000   1.0000   1.0000   1.0000   1.0000   1.0000   1.0000
     1.0000   1.0000   1.0000   1.0000   1.0000   1.0000   1.0000   1.0000
     1.0000   1.0000   1.0000   1.0000   1.0000   1.0000   1.0000   0.9999
     0.9997   0.9996   0.9994   0.9993   0.9984   0.9981   0.9978   0.9975
     0.9973   0.9971   0.9961   0.9951   0.9944   0.9925   0.9889   0.9874
     0.9864   0.9857   0.9839   0.9826   0.9825   0.9795   0.9785   0.9770
     0.9740   0.9728   0.9702   0.9669   0.9598   0.9539   0.9420   0.9148
     0.8742   0.8690   0.8634   0.8536   0.8460   0.8355   0.8273   0.8236
     0.8156   0.7768   0.7717   0.7443   0.7381   0.7321   0.7300   0.7200
     0.7135   0.7038   0.6981   0.6796   0.6744   0.6688   0.6648   0.6592
     0.6542   0.3581   0.3382   0.2684   0.2432   0.1191   0.1023   0.1006
     0.0685   0.0171   0.0088   0.0049   0.0034   0.0016   0.0008   0.0003
     0.0002   0.0001   0.0001   0.0000   0.0000   0.0000   0.0000   0.0000
     0.0000   0.0000   0.0000   0.0000   0.0000   0.0000   0.0000   0.0000
     0.0000   0.0000   0.0000   0.0000   0.0000   0.0000   0.0000   0.0000

          k =-0.5000-0.5000 0.0000 ( 65132 PWs)   bands (ev):

   -92.7357 -92.6823 -92.5905 -92.5409 -92.4846 -92.4423 -92.4249 -92.3025
   -56.0891 -56.0668 -55.9474 -55.9364 -55.9291 -55.9232 -55.8873 -55.8595
   -55.8434 -55.8418 -55.8339 -55.7920 -55.7717 -55.7357 -55.7173 -55.6846
   -55.6763 -55.6305 -55.6296 -55.6275 -55.6191 -55.5775 -55.5552 -55.4680
   -31.3068 -31.2951 -31.1499 -31.0644 -31.0623 -31.0508 -30.8812 -30.8315
   -29.8802 -29.8414 -29.8152 -29.7079 -14.9680 -14.9423 -14.8248 -14.8127
   -14.7182 -14.6819 -14.6472 -14.5146 -14.0193 -14.0071 -13.9729 -13.9544
   -13.9373 -13.9185 -13.8940 -13.8849 -13.8709 -13.8585 -13.8423 -13.7680
   -13.7609 -13.7290 -13.6967 -13.6754 -13.5915 -13.5594 -13.4488 -13.4182
   -13.1908 -13.1505 -13.0841 -13.0592 -13.0275 -13.0181 -13.0090 -12.9935
   -12.9797 -12.9605 -12.8631 -12.8392 -12.8212 -12.8192 -12.7869 -12.7792
   -12.6390 -12.6311 -12.5714 -12.4294 -12.3497 -12.2780 -12.2331 -12.2189
   -11.8070 -11.7946 -11.7766 -11.7600 -11.7249 -11.7071 -11.6729 -11.6123
   -11.5918 -11.5869 -11.5367 -11.5334  -2.2584  -2.1843  -2.1769  -2.1038
    -2.0646  -1.9864  -1.9186  -1.7918  -1.6762  -1.6469  -1.6034  -1.5506
    -1.4780  -1.4642  -1.3930  -1.3506  -1.2329  -1.2029  -1.1549  -1.1271
    -1.0628  -1.0165  -0.9984  -0.9861  -0.9308  -0.8875  -0.8698  -0.7591
    -0.7018  -0.6562  -0.6063  -0.5777  -0.5614  -0.5308  -0.4919  -0.4507
    -0.4441  -0.3580  -0.2909  -0.2455  -0.2203  -0.1460  -0.0876  -0.0825
    -0.0204   0.0116   0.0196   0.0332   0.4916   0.5296   0.6110   0.6290
     1.0288   1.0417   1.0788   1.1175   1.3883   1.4063   1.4131   1.4573
     1.5820   1.6770   1.7040   1.7399   1.7627   1.7799   1.7907   1.8229
     1.8329   1.8456   1.8568   1.9109   1.9150   1.9414   1.9505   1.9730
     1.9874   2.0266   2.0531   2.0668   2.0981   2.1290   2.1970   2.2643
     2.5333   2.5614   2.5768   2.6028   2.6105   2.6364   2.6454   2.6647
     2.6738   2.6930   2.7144   2.7260   2.7814   2.7920   2.8001   2.8162
     2.8300   2.8515   2.8676   2.8704   2.8948   2.9845   2.9918   3.0091
     3.0227   3.9635   4.0056   4.0155   4.0476   4.2836   4.3572   4.3838
     4.6239   4.7462   4.8290   4.9585   5.0466   5.0550   5.1748   5.2664
     5.4377   5.8406   5.8778   5.9323   6.0289   6.4952   6.5627   6.6221
     7.5654   7.8790   7.8975   7.9253   7.9397   7.9521   7.9972   8.0616
     8.2442   8.3399   8.5435   8.5597   8.5918   8.5944   8.6307   8.6587

     occupation numbers 
     1.0000   1.0000   1.0000   1.0000   1.0000   1.0000   1.0000   1.0000
     1.0000   1.0000   1.0000   1.0000   1.0000   1.0000   1.0000   1.0000
     1.0000   1.0000   1.0000   1.0000   1.0000   1.0000   1.0000   1.0000
     1.0000   1.0000   1.0000   1.0000   1.0000   1.0000   1.0000   1.0000
     1.0000   1.0000   1.0000   1.0000   1.0000   1.0000   1.0000   1.0000
     1.0000   1.0000   1.0000   1.0000   1.0000   1.0000   1.0000   1.0000
     1.0000   1.0000   1.0000   1.0000   1.0000   1.0000   1.0000   1.0000
     1.0000   1.0000   1.0000   1.0000   1.0000   1.0000   1.0000   1.0000
     1.0000   1.0000   1.0000   1.0000   1.0000   1.0000   1.0000   1.0000
     1.0000   1.0000   1.0000   1.0000   1.0000   1.0000   1.0000   1.0000
     1.0000   1.0000   1.0000   1.0000   1.0000   1.0000   1.0000   1.0000
     1.0000   1.0000   1.0000   1.0000   1.0000   1.0000   1.0000   1.0000
     1.0000   1.0000   1.0000   1.0000   1.0000   1.0000   1.0000   1.0000
     1.0000   1.0000   1.0000   1.0000   1.0000   1.0000   1.0000   1.0000
     1.0000   1.0000   1.0000   1.0000   1.0000   1.0000   1.0000   1.0000
     1.0000   1.0000   1.0000   1.0000   1.0000   1.0000   1.0000   1.0000
     1.0000   1.0000   1.0000   1.0000   1.0000   1.0000   1.0000   1.0000
     1.0000   1.0000   1.0000   1.0000   1.0000   1.0000   1.0000   1.0000
     1.0000   1.0000   1.0000   1.0000   1.0000   1.0000   1.0000   1.0000
     1.0000   1.0000   1.0000   1.0000   1.0000   1.0000   1.0000   1.0000
     0.9996   0.9996   0.9995   0.9994   0.9976   0.9974   0.9974   0.9968
     0.9944   0.9918   0.9908   0.9894   0.9884   0.9876   0.9871   0.9854
     0.9849   0.9841   0.9835   0.9798   0.9795   0.9775   0.9768   0.9749
     0.9736   0.9699   0.9671   0.9655   0.9619   0.9579   0.9480   0.9365
     0.8700   0.8610   0.8558   0.8469   0.8442   0.8348   0.8314   0.8242
     0.8206   0.8130   0.8044   0.7996   0.7758   0.7710   0.7674   0.7600
     0.7536   0.7434   0.7356   0.7343   0.7223   0.6760   0.6720   0.6627
     0.6553   0.1593   0.1446   0.1413   0.1309   0.0704   0.0568   0.0525
     0.0240   0.0154   0.0112   0.0067   0.0046   0.0044   0.0026   0.0017
     0.0007   0.0001   0.0001   0.0000   0.0000   0.0000   0.0000   0.0000
     0.0000   0.0000   0.0000   0.0000   0.0000   0.0000   0.0000   0.0000
     0.0000   0.0000   0.0000   0.0000   0.0000   0.0000   0.0000   0.0000

          k = 0.2500 0.0000 0.0000 ( 65257 PWs)   bands (ev):

   -92.7357 -92.6823 -92.5905 -92.5409 -92.4846 -92.4423 -92.4249 -92.3025
   -56.0891 -56.0668 -55.9475 -55.9364 -55.9291 -55.9232 -55.8873 -55.8595
   -55.8434 -55.8418 -55.8339 -55.7920 -55.7716 -55.7357 -55.7173 -55.6846
   -55.6763 -55.6305 -55.6296 -55.6275 -55.6191 -55.5775 -55.5552 -55.4680
   -31.3093 -31.2932 -31.1499 -31.0664 -31.0637 -31.0471 -30.8823 -30.8301
   -29.8825 -29.8410 -29.8144 -29.7068 -15.0832 -15.0436 -14.9725 -14.8260
   -14.7191 -14.5271 -14.3907 -14.2109 -14.1941 -14.1640 -14.1321 -14.1079
   -14.0771 -14.0586 -14.0356 -13.9972 -13.8762 -13.8444 -13.6939 -13.6290
   -13.6119 -13.5458 -13.5265 -13.5148 -13.4614 -13.3799 -13.3459 -13.2737
   -13.2084 -13.1911 -13.0996 -13.0926 -13.0770 -13.0601 -13.0437 -13.0074
   -12.9705 -12.9509 -12.9085 -12.8932 -12.8536 -12.8150 -12.8036 -12.7656
   -12.7162 -12.7059 -12.6597 -12.5790 -12.4396 -12.2819 -12.1397 -12.0771
   -11.8619 -11.8098 -11.7926 -11.7794 -11.7526 -11.7022 -11.6789 -11.6708
   -11.6202 -11.5314 -11.4753 -11.4694  -2.8410  -2.6194  -2.4894  -2.3164
    -2.2527  -2.0830  -1.8727  -1.7988  -1.7541  -1.7157  -1.6183  -1.6046
    -1.5689  -1.5502  -1.4813  -1.3015  -1.1907  -1.1520  -1.0561  -1.0424
    -0.9644  -0.9380  -0.8867  -0.8465  -0.7942  -0.7623  -0.7146  -0.6897
    -0.6716  -0.6164  -0.6036  -0.5109  -0.5007  -0.4308  -0.3339  -0.2739
    -0.1716  -0.1527  -0.0896  -0.0563   0.0058   0.0246   0.0717   0.1311
     0.1781   0.4622   0.5924   0.6281   0.7090   0.7309   0.7682   0.7843
[...]
     0.7444   0.7311   0.7154   0.7139   0.7037   0.6988   0.6912   0.6794
     0.6775   0.6631   0.6573   0.6536   0.6468   0.6346   0.6219   0.6193
     0.6152   0.6096   0.6054   0.5996   0.5282   0.3575   0.3176   0.2032
     0.0797   0.0463   0.0217   0.0055   0.0047   0.0003   0.0001   0.0000
     0.0000   0.0000   0.0000   0.0000   0.0000   0.0000   0.0000   0.0000
     0.0000   0.0000   0.0000   0.0000   0.0000   0.0000   0.0000   0.0000
     0.0000   0.0000   0.0000   0.0000   0.0000   0.0000   0.0000   0.0000

          k =-0.5000 0.0000 0.0000 ( 65180 PWs)   bands (ev):

   -92.7357 -92.6823 -92.5905 -92.5409 -92.4846 -92.4423 -92.4249 -92.3025
   -56.0891 -56.0668 -55.9475 -55.9364 -55.9291 -55.9232 -55.8873 -55.8595
   -55.8434 -55.8418 -55.8339 -55.7920 -55.7716 -55.7357 -55.7173 -55.6846
   -55.6763 -55.6305 -55.6296 -55.6275 -55.6191 -55.5775 -55.5552 -55.4680
   -31.3072 -31.2954 -31.1495 -31.0662 -31.0641 -31.0470 -30.8825 -30.8302
   -29.8814 -29.8421 -29.8140 -29.7072 -15.0501 -14.9983 -14.9371 -14.8276
   -14.7245 -14.5799 -14.4368 -14.2905 -14.1667 -14.1557 -14.1427 -14.0825
   -14.0268 -13.9950 -13.9445 -13.9348 -13.9217 -13.8718 -13.8537 -13.7571
   -13.5897 -13.5508 -13.5280 -13.5207 -13.4607 -13.3983 -13.3599 -13.3013
   -13.2776 -13.2760 -13.0878 -13.0842 -13.0755 -13.0507 -13.0427 -12.9980
   -12.9795 -12.9593 -12.9088 -12.8929 -12.7986 -12.7698 -12.7144 -12.7044
   -12.6741 -12.6648 -12.5745 -12.5053 -12.3701 -12.3596 -12.2379 -12.1975
   -11.8138 -11.7924 -11.7856 -11.7710 -11.7528 -11.7115 -11.6489 -11.6312
   -11.5985 -11.5539 -11.5447 -11.5289  -2.6167  -2.5782  -2.4147  -2.3756
    -2.0614  -1.9842  -1.8392  -1.7212  -1.6807  -1.6340  -1.5878  -1.5633
    -1.4405  -1.3960  -1.3800  -1.2978  -1.2628  -1.2469  -1.2158  -1.1572
    -1.0892  -1.0605  -1.0297  -0.9370  -0.8895  -0.8396  -0.8077  -0.7870
    -0.7537  -0.7076  -0.6836  -0.6459  -0.5402  -0.4787  -0.4010  -0.3426
    -0.1914  -0.1460  -0.0920  -0.0479  -0.0004   0.0217   0.1551   0.1903
     0.2296   0.4049   0.5043   0.5510   0.6365   0.6924   0.8209   0.8322
     0.9661   0.9953   1.0502   1.0820   1.1162   1.1259   1.1740   1.1967
     1.2645   1.3118   1.3581   1.3710   1.6634   1.6715   1.6863   1.7163
     1.8200   1.8339   1.8406   1.8508   1.8854   1.8968   1.9307   1.9596
     1.9780   2.0424   2.0520   2.1079   2.1247   2.1861   2.2929   2.3874
     2.4661   2.4805   2.5628   2.5916   2.6078   2.6774   2.6969   2.7030
     2.7352   2.7943   2.8046   2.8549   2.8998   2.9189   2.9660   2.9705
     2.9756   2.9824   2.9982   3.0107   3.0226   3.0328   3.0500   3.0518
     3.0748   3.0943   3.0991   3.2262   3.2379   4.0277   4.0996   4.1610
     4.2730   4.7579   4.8290   5.0151   5.0394   5.4684   5.4839   5.5867
     5.6192   5.9990   6.0167   6.1016   6.7630   6.7782   6.9913   7.2594
     7.2918   7.3613   7.4230   7.5671   7.6013   7.7478   7.8574   7.8780
     8.1212   8.2057   8.3276   8.4854   8.6018   8.7261   8.7387   8.8333

     occupation numbers 
     1.0000   1.0000   1.0000   1.0000   1.0000   1.0000   1.0000   1.0000
     1.0000   1.0000   1.0000   1.0000   1.0000   1.0000   1.0000   1.0000
     1.0000   1.0000   1.0000   1.0000   1.0000   1.0000   1.0000   1.0000
     1.0000   1.0000   1.0000   1.0000   1.0000   1.0000   1.0000   1.0000
     1.0000   1.0000   1.0000   1.0000   1.0000   1.0000   1.0000   1.0000
     1.0000   1.0000   1.0000   1.0000   1.0000   1.0000   1.0000   1.0000
     1.0000   1.0000   1.0000   1.0000   1.0000   1.0000   1.0000   1.0000
     1.0000   1.0000   1.0000   1.0000   1.0000   1.0000   1.0000   1.0000
     1.0000   1.0000   1.0000   1.0000   1.0000   1.0000   1.0000   1.0000
     1.0000   1.0000   1.0000   1.0000   1.0000   1.0000   1.0000   1.0000
     1.0000   1.0000   1.0000   1.0000   1.0000   1.0000   1.0000   1.0000
     1.0000   1.0000   1.0000   1.0000   1.0000   1.0000   1.0000   1.0000
     1.0000   1.0000   1.0000   1.0000   1.0000   1.0000   1.0000   1.0000
     1.0000   1.0000   1.0000   1.0000   1.0000   1.0000   1.0000   1.0000
     1.0000   1.0000   1.0000   1.0000   1.0000   1.0000   1.0000   1.0000
     1.0000   1.0000   1.0000   1.0000   1.0000   1.0000   1.0000   1.0000
     1.0000   1.0000   1.0000   1.0000   1.0000   1.0000   1.0000   1.0000
     1.0000   1.0000   1.0000   1.0000   1.0000   1.0000   1.0000   1.0000
     1.0000   1.0000   1.0000   1.0000   1.0000   1.0000   1.0000   1.0000
     1.0000   1.0000   1.0000   1.0000   1.0000   0.9999   0.9999   0.9999
     0.9997   0.9997   0.9996   0.9995   0.9994   0.9994   0.9992   0.9991
     0.9987   0.9984   0.9980   0.9978   0.9922   0.9919   0.9914   0.9903
     0.9856   0.9848   0.9844   0.9838   0.9816   0.9808   0.9784   0.9761
     0.9745   0.9682   0.9672   0.9606   0.9585   0.9497   0.9310   0.9104
     0.8899   0.8859   0.8605   0.8508   0.8451   0.8192   0.8115   0.8090
     0.7958   0.7700   0.7653   0.7418   0.7198   0.7101   0.6858   0.6834
     0.6807   0.6771   0.6686   0.6618   0.6553   0.6497   0.6403   0.6393
     0.6264   0.6154   0.6127   0.5388   0.5319   0.1373   0.1152   0.0984
     0.0726   0.0147   0.0112   0.0053   0.0047   0.0006   0.0006   0.0003
     0.0003   0.0000   0.0000   0.0000   0.0000   0.0000   0.0000   0.0000
     0.0000   0.0000   0.0000   0.0000   0.0000   0.0000   0.0000   0.0000
     0.0000   0.0000   0.0000   0.0000   0.0000   0.0000   0.0000   0.0000

          k =-0.2500 0.2500 0.0000 ( 65198 PWs)   bands (ev):

   -92.7357 -92.6823 -92.5905 -92.5409 -92.4846 -92.4423 -92.4249 -92.3025
   -56.0891 -56.0668 -55.9474 -55.9364 -55.9291 -55.9232 -55.8873 -55.8595
   -55.8434 -55.8418 -55.8339 -55.7920 -55.7716 -55.7357 -55.7173 -55.6846
   -55.6763 -55.6305 -55.6296 -55.6275 -55.6191 -55.5775 -55.5552 -55.4680
   -31.3091 -31.2931 -31.1501 -31.0647 -31.0639 -31.0488 -30.8817 -30.8307
   -29.8819 -29.8407 -29.8150 -29.7071 -15.0523 -15.0117 -14.9379 -14.8210
   -14.7086 -14.5843 -14.4975 -14.2898 -14.1500 -14.1206 -14.1070 -14.0610
   -14.0361 -14.0176 -13.9965 -13.9567 -13.8719 -13.8590 -13.7064 -13.6804
   -13.6505 -13.6308 -13.5739 -13.5319 -13.4763 -13.4681 -13.3555 -13.3124
   -13.2569 -13.1795 -13.1365 -13.0733 -13.0443 -13.0401 -13.0196 -12.9849
   -12.9611 -12.9469 -12.9077 -12.8566 -12.8299 -12.8045 -12.7882 -12.7543
   -12.7357 -12.7248 -12.5438 -12.4757 -12.4616 -12.3157 -12.1764 -12.1236
   -11.8340 -11.8124 -11.7855 -11.7732 -11.7322 -11.6976 -11.6744 -11.6530
   -11.6305 -11.5463 -11.5006 -11.4912  -2.7015  -2.4936  -2.3728  -2.2828
    -2.1660  -2.0993  -1.8942  -1.7512  -1.7322  -1.6997  -1.6105  -1.5754
    -1.4829  -1.4483  -1.4223  -1.2801  -1.2242  -1.1544  -1.1273  -1.0658
    -1.0458  -1.0053  -0.9766  -0.9364  -0.8733  -0.8262  -0.7590  -0.6942
    -0.6700  -0.6187  -0.5901  -0.5448  -0.4849  -0.4354  -0.3995  -0.2954
    -0.2678  -0.2537  -0.2095  -0.1466  -0.0767  -0.0337   0.0033   0.0649
     0.0984   0.3541   0.5270   0.5650   0.6042   0.6600   0.7057   0.7607
     0.8326   0.8638   1.1466   1.2558   1.2947   1.3299   1.3358   1.3763
     1.3927   1.4384   1.4697   1.4830   1.5096   1.5552   1.5697   1.6111
     1.6332   1.6765   1.7553   1.7738   1.7963   1.8246   1.8600   1.8963
     1.9432   2.0557   2.1685   2.1971   2.2443   2.2629   2.3253   2.3704
     2.3980   2.4202   2.4420   2.5447   2.5834   2.6713   2.7788   2.8503
     2.8586   2.8704   2.8807   2.8912   2.9054   2.9155   2.9304   2.9418
     2.9527   2.9647   2.9747   2.9849   2.9924   3.0261   3.0355   3.0431
     3.0770   3.3695   3.4499   3.5235   3.5835   3.6031   3.8201   3.9273
     4.2642   4.4714   4.6923   4.9505   5.1581   5.6163   5.6715   5.7561
     5.8012   5.8657   6.1059   6.1521   6.2008   6.7653   6.8817   7.0767
     7.2425   7.5430   7.5873   7.6400   7.6480   7.8598   7.9295   8.1092
     8.1854   8.2349   8.2851   8.3239   8.3985   8.4304   8.5774   8.8601

     occupation numbers 
     1.0000   1.0000   1.0000   1.0000   1.0000   1.0000   1.0000   1.0000
     1.0000   1.0000   1.0000   1.0000   1.0000   1.0000   1.0000   1.0000
     1.0000   1.0000   1.0000   1.0000   1.0000   1.0000   1.0000   1.0000
     1.0000   1.0000   1.0000   1.0000   1.0000   1.0000   1.0000   1.0000
     1.0000   1.0000   1.0000   1.0000   1.0000   1.0000   1.0000   1.0000
     1.0000   1.0000   1.0000   1.0000   1.0000   1.0000   1.0000   1.0000
     1.0000   1.0000   1.0000   1.0000   1.0000   1.0000   1.0000   1.0000
     1.0000   1.0000   1.0000   1.0000   1.0000   1.0000   1.0000   1.0000
     1.0000   1.0000   1.0000   1.0000   1.0000   1.0000   1.0000   1.0000
     1.0000   1.0000   1.0000   1.0000   1.0000   1.0000   1.0000   1.0000
     1.0000   1.0000   1.0000   1.0000   1.0000   1.0000   1.0000   1.0000
     1.0000   1.0000   1.0000   1.0000   1.0000   1.0000   1.0000   1.0000
     1.0000   1.0000   1.0000   1.0000   1.0000   1.0000   1.0000   1.0000
     1.0000   1.0000   1.0000   1.0000   1.0000   1.0000   1.0000   1.0000
     1.0000   1.0000   1.0000   1.0000   1.0000   1.0000   1.0000   1.0000
     1.0000   1.0000   1.0000   1.0000   1.0000   1.0000   1.0000   1.0000
     1.0000   1.0000   1.0000   1.0000   1.0000   1.0000   1.0000   1.0000
     1.0000   1.0000   1.0000   1.0000   1.0000   1.0000   1.0000   1.0000
     1.0000   1.0000   1.0000   1.0000   1.0000   1.0000   1.0000   1.0000
     1.0000   1.0000   1.0000   1.0000   1.0000   1.0000   0.9999   0.9999
     0.9999   0.9998   0.9993   0.9988   0.9985   0.9982   0.9982   0.9978
     0.9976   0.9970   0.9966   0.9964   0.9959   0.9950   0.9947   0.9937
     0.9931   0.9918   0.9887   0.9879   0.9868   0.9853   0.9833   0.9809
     0.9774   0.9668   0.9523   0.9480   0.9401   0.9367   0.9244   0.9144
     0.9078   0.9022   0.8965   0.8664   0.8536   0.8216   0.7769   0.7440
     0.7400   0.7343   0.7292   0.7241   0.7170   0.7119   0.7043   0.6984
     0.6927   0.6865   0.6812   0.6757   0.6717   0.6534   0.6483   0.6441
     0.6251   0.4541   0.4072   0.3654   0.3325   0.3220   0.2164   0.1727
     0.0744   0.0399   0.0188   0.0069   0.0028   0.0003   0.0002   0.0001
     0.0001   0.0001   0.0000   0.0000   0.0000   0.0000   0.0000   0.0000
     0.0000   0.0000   0.0000   0.0000   0.0000   0.0000   0.0000   0.0000
     0.0000   0.0000   0.0000   0.0000   0.0000   0.0000   0.0000   0.0000

          k =-0.5000 0.2500 0.0000 ( 65138 PWs)   bands (ev):

   -92.7357 -92.6823 -92.5905 -92.5409 -92.4846 -92.4423 -92.4249 -92.3025
   -56.0891 -56.0668 -55.9474 -55.9364 -55.9291 -55.9232 -55.8873 -55.8595
   -55.8434 -55.8418 -55.8339 -55.7920 -55.7716 -55.7357 -55.7173 -55.6846
   -55.6763 -55.6305 -55.6296 -55.6275 -55.6191 -55.5775 -55.5552 -55.4680
   -31.3070 -31.2952 -31.1497 -31.0645 -31.0642 -31.0487 -30.8819 -30.8309
   -29.8808 -29.8418 -29.8146 -29.7075 -15.0173 -14.9719 -14.8942 -14.7939
   -14.7531 -14.6268 -14.5400 -14.4084 -14.1006 -14.0698 -14.0581 -14.0140
   -13.9913 -13.9676 -13.9305 -13.9193 -13.9010 -13.8596 -13.8498 -13.7471
   -13.6720 -13.6227 -13.6164 -13.5962 -13.5119 -13.5018 -13.4011 -13.3526
   -13.2335 -13.1976 -13.1009 -13.0606 -13.0493 -13.0345 -13.0201 -12.9880
   -12.9730 -12.9489 -12.9297 -12.8541 -12.8070 -12.7966 -12.7467 -12.7397
   -12.6561 -12.6482 -12.5727 -12.4637 -12.3551 -12.3268 -12.2325 -12.2064
   -11.8067 -11.7940 -11.7797 -11.7679 -11.7465 -11.7163 -11.6358 -11.6275
   -11.6040 -11.5684 -11.5403 -11.5314  -2.4742  -2.4323  -2.2844  -2.2424
    -2.0812  -2.0031  -1.8634  -1.7271  -1.6685  -1.6421  -1.6037  -1.5662
    -1.4854  -1.3701  -1.3130  -1.2899  -1.2631  -1.1867  -1.1588  -1.1201
    -1.1030  -1.0423  -1.0118  -0.9738  -0.9391  -0.9102  -0.8518  -0.8253
    -0.7842  -0.7478  -0.6429  -0.6190  -0.5228  -0.4703  -0.4345  -0.3731
    -0.2965  -0.2642  -0.1602  -0.1271  -0.0635  -0.0198   0.0214   0.0834
     0.1102   0.1424   0.1968   0.2347   0.5546   0.6059   0.6612   0.6783
     0.9773   1.0403   1.1129   1.1416   1.3160   1.3508   1.3885   1.4009
     1.4186   1.4360   1.5060   1.5517   1.5902   1.6248   1.7319   1.7791
     1.8080   1.8178   1.8470   1.8810   1.8960   1.9051   1.9260   1.9515
     1.9922   2.0156   2.0478   2.0728   2.1020   2.1632   2.2829   2.3817
     2.4118   2.4789   2.5178   2.5792   2.6073   2.6222   2.6612   2.6936
     2.7159   2.7863   2.8026   2.8563   2.8585   2.8652   2.8871   2.9064
     2.9182   2.9362   2.9468   2.9701   2.9829   2.9925   3.0025   3.0082
     3.0205   3.5571   3.5831   3.7419   3.7596   4.0343   4.1084   4.1736
     4.3625   4.7524   4.8465   5.0177   5.0512   5.3810   5.4000   5.5612
     5.6304   5.7152   5.7753   6.2111   6.3736   6.4831   6.6604   7.0947
     7.4446   7.5401   7.6379   7.6924   7.7732   7.8633   7.9966   8.1552
     8.3286   8.4108   8.4331   8.4998   8.5492   8.5740   8.6402   8.7257

     occupation numbers 
     1.0000   1.0000   1.0000   1.0000   1.0000   1.0000   1.0000   1.0000
     1.0000   1.0000   1.0000   1.0000   1.0000   1.0000   1.0000   1.0000
     1.0000   1.0000   1.0000   1.0000   1.0000   1.0000   1.0000   1.0000
     1.0000   1.0000   1.0000   1.0000   1.0000   1.0000   1.0000   1.0000
     1.0000   1.0000   1.0000   1.0000   1.0000   1.0000   1.0000   1.0000
     1.0000   1.0000   1.0000   1.0000   1.0000   1.0000   1.0000   1.0000
     1.0000   1.0000   1.0000   1.0000   1.0000   1.0000   1.0000   1.0000
     1.0000   1.0000   1.0000   1.0000   1.0000   1.0000   1.0000   1.0000
     1.0000   1.0000   1.0000   1.0000   1.0000   1.0000   1.0000   1.0000
     1.0000   1.0000   1.0000   1.0000   1.0000   1.0000   1.0000   1.0000
     1.0000   1.0000   1.0000   1.0000   1.0000   1.0000   1.0000   1.0000
     1.0000   1.0000   1.0000   1.0000   1.0000   1.0000   1.0000   1.0000
     1.0000   1.0000   1.0000   1.0000   1.0000   1.0000   1.0000   1.0000
     1.0000   1.0000   1.0000   1.0000   1.0000   1.0000   1.0000   1.0000
     1.0000   1.0000   1.0000   1.0000   1.0000   1.0000   1.0000   1.0000
     1.0000   1.0000   1.0000   1.0000   1.0000   1.0000   1.0000   1.0000
     1.0000   1.0000   1.0000   1.0000   1.0000   1.0000   1.0000   1.0000
     1.0000   1.0000   1.0000   1.0000   1.0000   1.0000   1.0000   1.0000
     1.0000   1.0000   1.0000   1.0000   1.0000   1.0000   1.0000   1.0000
     1.0000   1.0000   1.0000   1.0000   1.0000   1.0000   1.0000   0.9999
     0.9997   0.9996   0.9994   0.9993   0.9983   0.9980   0.9976   0.9975
     0.9973   0.9971   0.9960   0.9951   0.9942   0.9933   0.9897   0.9877
     0.9862   0.9857   0.9840   0.9819   0.9809   0.9803   0.9787   0.9767
     0.9732   0.9710   0.9677   0.9649   0.9614   0.9531   0.9330   0.9117
     0.9044   0.8863   0.8748   0.8550   0.8453   0.8400   0.8255   0.8128
     0.8038   0.7736   0.7662   0.7411   0.7401   0.7368   0.7261   0.7164
     0.7105   0.7013   0.6958   0.6836   0.6768   0.6717   0.6663   0.6632
     0.6565   0.3468   0.3327   0.2520   0.2437   0.1351   0.1127   0.0952
     0.0559   0.0150   0.0105   0.0052   0.0045   0.0010   0.0009   0.0004
     0.0003   0.0002   0.0001   0.0000   0.0000   0.0000   0.0000   0.0000
     0.0000   0.0000   0.0000   0.0000   0.0000   0.0000   0.0000   0.0000
     0.0000   0.0000   0.0000   0.0000   0.0000   0.0000   0.0000   0.0000

     the Fermi energy is     3.2918 ev

!    total energy              =   -4399.91746386 Ry
     estimated scf accuracy    <          3.9E-09 Ry
     smearing contrib. (-TS)   =      -1.14676931 Ry
     internal energy E=F+TS    =   -4398.77069455 Ry

     The total energy is F=E-TS. E is the sum of the following terms:
     one-electron contribution =  -21252.12786652 Ry
     hartree contribution      =   10753.65069882 Ry
     xc contribution           =    -686.72496843 Ry
     ewald contribution        =    7053.07663493 Ry
     one-center paw contrib.   =    -266.64519335 Ry
      -> PAW hartree energy AE =      25.16853197 Ry
      -> PAW hartree energy PS =     -25.05237125 Ry
      -> PAW xc energy AE      =     -16.51829164 Ry
      -> PAW xc energy PS      =       6.87779461 Ry
      -> total E_H with PAW    =   10753.76685954 Ry
      -> total E_XC with PAW   =    -696.36546546 Ry

     convergence has been achieved in  47 iterations

     Writing all to output data dir /bsuhome/zayahcortright/scratch/pwscf.save/
 
     init_run     :      7.60s CPU      8.05s WALL (       1 calls)
     electrons    :    680.75s CPU    693.17s WALL (       1 calls)

     Called by init_run:
     wfcinit      :      6.04s CPU      6.16s WALL (       1 calls)
     wfcinit:atom :      0.06s CPU      0.07s WALL (       5 calls)
     wfcinit:wfcr :      5.69s CPU      5.76s WALL (       5 calls)
     potinit      :      0.21s CPU      0.23s WALL (       1 calls)
     hinit0       :      0.47s CPU      0.72s WALL (       1 calls)

     Called by electrons:
     c_bands      :    538.54s CPU    543.60s WALL (      47 calls)
     sum_band     :    106.19s CPU    110.49s WALL (      47 calls)
     v_of_rho     :      5.18s CPU      5.43s WALL (      48 calls)
     v_h          :      0.45s CPU      0.45s WALL (      48 calls)
     v_xc         :      4.73s CPU      4.98s WALL (      48 calls)
     newd         :     16.09s CPU     18.46s WALL (      48 calls)
     PAW_pot      :      1.81s CPU      1.83s WALL (      48 calls)
     mix_rho      :     12.64s CPU     12.95s WALL (      47 calls)

     Called by c_bands:
     init_us_2    :      6.67s CPU      6.74s WALL (     475 calls)
     init_us_2:cp :      6.67s CPU      6.74s WALL (     475 calls)
     cegterg      :    509.39s CPU    514.27s WALL (     235 calls)

     Called by sum_band:
     sum_band:wei :      0.32s CPU      0.33s WALL (      47 calls)
     sum_band:loo :     87.38s CPU     88.14s WALL (      47 calls)
     sum_band:buf :      1.53s CPU      1.55s WALL (     235 calls)
     sum_band:ini :      3.12s CPU      3.13s WALL (     235 calls)
     sum_band:cal :     17.80s CPU     17.86s WALL (     235 calls)
     sum_band:bec :      0.54s CPU      0.54s WALL (     235 calls)
     addusdens    :     17.76s CPU     21.28s WALL (      47 calls)
                                        0.00s GPU  (      47 calls)
     addusd:skk   :      0.34s CPU      0.67s WALL (     188 calls)
                                        0.00s GPU  (     188 calls)

     Called by *egterg:
     cdiaghg      :     55.45s CPU     55.66s WALL (    1342 calls)
     cegterg:over :     36.23s CPU     36.40s WALL (    1107 calls)
     cegterg:upda :     27.63s CPU     27.99s WALL (    1107 calls)
     cegterg:last :     56.12s CPU     56.36s WALL (     432 calls)
     cdiaghg:chol :      3.26s CPU      3.27s WALL (    1342 calls)
     cdiaghg:inve :      3.40s CPU      3.41s WALL (    1342 calls)
     cdiaghg:para :      7.03s CPU      7.06s WALL (    2684 calls)
     h_psi        :    280.92s CPU    283.73s WALL (    1347 calls)
     s_psi        :     38.38s CPU     38.50s WALL (    1347 calls)
     g_psi        :      1.14s CPU      1.15s WALL (    1107 calls)

     Called by h_psi:
     h_psi:calbec :     41.38s CPU     41.52s WALL (    1347 calls)
     vloc_psi     :    198.10s CPU    200.22s WALL (    1347 calls)
     add_vuspsi   :     38.40s CPU     38.55s WALL (    1347 calls)

     General routines
     calbec       :     59.18s CPU     59.37s WALL (    1582 calls)
     fft          :      3.34s CPU      3.39s WALL (     622 calls)
     ffts         :      4.43s CPU      4.48s WALL (    5001 calls)
     fftw         :    165.08s CPU    166.67s WALL (  314854 calls)
     interpolate  :      0.40s CPU      0.40s WALL (      48 calls)
 
     Parallel routines

     PAW routines
     PAW_pot      :      1.81s CPU      1.83s WALL (      48 calls)
 
     PWSCF        :  11m30.05s CPU  11m45.80s WALL

 
   This run was terminated on:  12:57: 6  21Jun2024            

=------------------------------------------------------------------------------=
   JOB DONE.
=------------------------------------------------------------------------------=
