
     Program PWSCF v.7.2 starts on 21Jun2024 at 18:13: 2 

     This program is part of the open-source Quantum ESPRESSO suite
     for quantum simulation of materials; please cite
         "P. Giannozzi et al., J. Phys.:Condens. Matter 21 395502 (2009);
         "P. Giannozzi et al., J. Phys.:Condens. Matter 29 465901 (2017);
         "P. Giannozzi et al., J. Chem. Phys. 152 154105 (2020);
          URL http://www.quantum-espresso.org", 
     in publications or presentations arising from this work. More details at
     http://www.quantum-espresso.org/quote

     Parallel version (MPI & OpenMP), running on      48 processor cores
     Number of MPI processes:                48
     Threads/MPI process:                     1

     MPI processes distributed on     1 nodes
     180159 MiB available memory on the printing compute node when the environment starts
 
     Reading input from espresso.pwi
Warning: card &CELL ignored
Warning: card / ignored
Warning: card &FCP ignored
Warning: card / ignored
Warning: card &RISM ignored
Warning: card / ignored

     Current dimensions of program PWSCF are:
     Max number of different atomic species (ntypx) = 10
     Max number of k-points (npk) =  40000
     Max angular momentum in pseudopotentials (lmaxx) =  4
     file O.pbe-n-kjpaw_psl.0.1.UPF: wavefunction(s)  2P renormalized
     signal trapping enabled: kill the code with -SIGUSR1 to stop cleanly the simulation 
 
     K-points division:     npool     =       2
     R & G space division:  proc/nbgrp/npool/nimage =      24
     Subspace diagonalization in iterative solution of the eigenvalue problem:
     one sub-group per band group will be used
     scalapack distributed-memory algorithm (size of sub-group:  3*  3 procs)

 
     Parallelization info
     --------------------
     sticks:   dense  smooth     PW     G-vecs:    dense   smooth      PW
     Min         350     175     47                61430    21716    3036
     Max         351     177     48                61449    21727    3041
     Sum        8421    4205   1137              1474595   521381   72913
 
     Using Slab Decomposition
 


     bravais-lattice index     =            0
     lattice parameter (alat)  =      14.8599  a.u.
     unit-cell volume          =    8305.1283 (a.u.)^3
     number of atoms/cell      =           49
     number of atomic types    =            4
     number of electrons       =       425.00
     number of Kohn-Sham states=          256
     kinetic-energy cutoff     =      60.0000  Ry
     charge density cutoff     =     480.0000  Ry
     scf convergence threshold =      1.0E-08
     mixing beta               =       0.1500
     number of iterations used =            8  local-TF  mixing
     Exchange-correlation= PBE
                           (   1   4   3   4   0   0   0)

     celldm(1)=  14.859904  celldm(2)=   0.000000  celldm(3)=   0.000000
     celldm(4)=   0.000000  celldm(5)=   0.000000  celldm(6)=   0.000000

     crystal axes: (cart. coord. in units of alat)
               a(1) = (   1.000000   0.000000   0.000000 )  
               a(2) = (   0.000000   1.000000   0.000000 )  
               a(3) = (   0.000000   0.000000   2.531036 )  

     reciprocal axes: (cart. coord. in units 2 pi/alat)
               b(1) = (  1.000000  0.000000  0.000000 )  
               b(2) = (  0.000000  1.000000  0.000000 )  
               b(3) = (  0.000000  0.000000  0.395095 )  


     PseudoPot. # 1 for Sr read from file:
     /bsuhome/zayahcortright/q-e/pseudo/Sr_pbe_v1.uspp.F.UPF
     MD5 check sum: 6b418c05fbe9db5448babca5e47b7a5b
     Pseudo is Ultrasoft + core correction, Zval = 10.0
     Generated by new atomic code, or converted to UPF format
     Using radial grid of  883 points,  6 beta functions with: 
                l(1) =   0
                l(2) =   0
                l(3) =   1
                l(4) =   1
                l(5) =   2
                l(6) =   2
     Q(r) pseudized with  6 coefficients,  rinner =    1.400   1.400   1.400
                                                       1.400   1.400

     PseudoPot. # 2 for O  read from file:
     /bsuhome/zayahcortright/q-e/pseudo/O.pbe-n-kjpaw_psl.0.1.UPF
     MD5 check sum: 0234752ac141de4415c5fc33072bef88
     Pseudo is Projector augmented-wave + core cor, Zval =  6.0
     Generated using "atomic" code by A. Dal Corso  v.5.0.99 svn rev. 10869
     Shape of augmentation charge: BESSEL
     Using radial grid of 1095 points,  4 beta functions with: 
                l(1) =   0
                l(2) =   0
                l(3) =   1
                l(4) =   1
     Q(r) pseudized with 0 coefficients 


     PseudoPot. # 3 for Co read from file:
     /bsuhome/zayahcortright/q-e/pseudo/Co_pbe_v1.2.uspp.F.UPF
     MD5 check sum: 5f91765df6ddd3222702df6e7b74a16d
     Pseudo is Ultrasoft + core correction, Zval = 17.0
     Generated by new atomic code, or converted to UPF format
     Using radial grid of  863 points,  6 beta functions with: 
                l(1) =   0
                l(2) =   0
                l(3) =   1
                l(4) =   1
                l(5) =   2
                l(6) =   2
     Q(r) pseudized with  8 coefficients,  rinner =    1.200   1.200   1.200
                                                       1.200   1.200

     PseudoPot. # 4 for H  read from file:
     /bsuhome/zayahcortright/q-e/pseudo/H.pbe-rrkjus_psl.1.0.0.UPF
     MD5 check sum: f52b6d4d1c606e5624b1dc7b2218f220
     Pseudo is Ultrasoft, Zval =  1.0
     Generated using "atomic" code by A. Dal Corso  v.5.1
     Using radial grid of  929 points,  2 beta functions with: 
                l(1) =   0
                l(2) =   0
     Q(r) pseudized with 0 coefficients 


     atomic species   valence    mass     pseudopotential
        Sr            10.00    87.62000     Sr( 1.00)
        O              6.00    15.99900     O ( 1.00)
        Co            17.00    58.93319     Co( 1.00)
        H              1.00     1.00800     H ( 1.00)

     No symmetry found


                                    s                        frac. trans.

      isym =  1     identity                                     

 cryst.   s( 1) = (     1          0          0      )
                  (     0          1          0      )
                  (     0          0          1      )

 cart.    s( 1) = (  1.0000000  0.0000000  0.0000000 )
                  (  0.0000000  1.0000000  0.0000000 )
                  (  0.0000000  0.0000000  1.0000000 )


   Cartesian axes

     site n.     atom                  positions (alat units)
         1           Sr  tau(   1) = (   0.2508693   0.7491307   1.7574407  )
         2           O   tau(   2) = (   0.4985141   0.5014859   1.7715967  )
         3           Sr  tau(   3) = (   0.7482398   0.7454518   1.7648669  )
         4           Sr  tau(   4) = (   0.7441748   0.2558252   1.7667843  )
         5           Sr  tau(   5) = (   0.2508693   0.7491307   1.2696799  )
         6           Sr  tau(   6) = (   0.2508693   0.7491307   0.7632319  )
         7           Co  tau(   7) = (   0.4998914   0.5001086   1.0164559  )
         8           Co  tau(   8) = (   0.4936915   0.5063085   1.5135603  )
         9           O   tau(   9) = (   0.4988895   0.7610401   1.0164559  )
        10           O   tau(  10) = (   0.2389599   0.5011105   1.0164559  )
        11           O   tau(  11) = (   0.0070918   0.7374880   1.0164559  )
        12           O   tau(  12) = (   0.0088340   0.7405089   1.5135603  )
        13           O   tau(  13) = (   0.5066944   0.7415376   1.5135603  )
        14           O   tau(  14) = (   0.2584624   0.4933056   1.5135603  )
        15           O   tau(  15) = (   0.4985141   0.5014859   0.7773880  )
        16           O   tau(  16) = (   0.4985141   0.5014859   1.2555238  )
        17           Sr  tau(  17) = (   0.7482398   0.7454518   0.7706582  )
        18           Sr  tau(  18) = (   0.7482398   0.7454518   1.2622536  )
        19           Sr  tau(  19) = (   0.7441748   0.2558252   0.7725755  )
        20           Sr  tau(  20) = (   0.7441748   0.2558252   1.2603363  )
        21           O   tau(  21) = (   0.7322655   0.0078049   1.5135603  )
        22           O   tau(  22) = (   0.7558175   0.4996027   1.5135603  )
        23           O   tau(  23) = (   0.5003973   0.2441825   1.5135603  )
        24           O   tau(  24) = (   0.7527966   0.4978604   1.0164559  )
        25           O   tau(  25) = (   0.5021396   0.2472034   1.0164559  )
        26           O   tau(  26) = (   0.7517679   0.0000000   1.0164559  )
        27           O   tau(  27) = (   0.0114961   0.4948124   1.7455321  )
        28           O   tau(  28) = (   0.0048226   0.0077944   1.7715967  )
        29           Sr  tau(  29) = (   0.2545482   0.2517602   1.7648669  )
        30           O   tau(  30) = (   0.5048017   0.0015068   1.7786929  )
        31           Co  tau(  31) = (   0.0056869   0.5006215   1.0164559  )
        32           Co  tau(  32) = (   0.0065315   0.4997770   1.5135603  )
        33           Co  tau(  33) = (   0.0061999   0.0064171   1.0164559  )
        34           Co  tau(  34) = (   0.0000000   0.0126169   1.5135603  )
        35           O   tau(  35) = (   0.0114961   0.4948124   1.2815885  )
        36           O   tau(  36) = (   0.0114961   0.4948124   0.7513233  )
        37           O   tau(  37) = (   0.0051979   0.2673486   1.0164559  )
        38           O   tau(  38) = (   0.0130029   0.2478461   1.5135603  )
        39           O   tau(  39) = (   0.0048226   0.0077944   0.7773880  )
        40           O   tau(  40) = (   0.0048226   0.0077944   1.2555238  )
        41           Sr  tau(  41) = (   0.2545482   0.2517602   0.7706582  )
        42           Sr  tau(  42) = (   0.2545482   0.2517602   1.2622536  )
        43           Co  tau(  43) = (   0.4989925   0.0073160   1.5135603  )
        44           Co  tau(  44) = (   0.4998370   0.0064714   1.0164559  )
        45           O   tau(  45) = (   0.5048017   0.0015068   0.7844841  )
        46           O   tau(  46) = (   0.5048017   0.0015068   1.2484277  )
        47           O   tau(  47) = (   0.2621260   0.0059111   1.5135603  )
        48           O   tau(  48) = (   0.2591051   0.0041689   1.0164559  )
        49           H   tau(  49) = (   0.4264937   0.9951520   2.1602013  )

   Crystallographic axes

     site n.     atom                  positions (cryst. coord.)
         1           Sr  tau(   1) = (  0.2508693  0.7491307  0.6943562  )
         2           O   tau(   2) = (  0.4985141  0.5014859  0.6999492  )
         3           Sr  tau(   3) = (  0.7482398  0.7454518  0.6972903  )
         4           Sr  tau(   4) = (  0.7441748  0.2558252  0.6980478  )
         5           Sr  tau(   5) = (  0.2508693  0.7491307  0.5016443  )
         6           Sr  tau(   6) = (  0.2508693  0.7491307  0.3015492  )
         7           Co  tau(   7) = (  0.4998914  0.5001086  0.4015968  )
         8           Co  tau(   8) = (  0.4936915  0.5063085  0.5980003  )
         9           O   tau(   9) = (  0.4988895  0.7610401  0.4015968  )
        10           O   tau(  10) = (  0.2389599  0.5011105  0.4015968  )
        11           O   tau(  11) = (  0.0070918  0.7374880  0.4015968  )
        12           O   tau(  12) = (  0.0088340  0.7405089  0.5980003  )
        13           O   tau(  13) = (  0.5066944  0.7415376  0.5980003  )
        14           O   tau(  14) = (  0.2584624  0.4933056  0.5980003  )
        15           O   tau(  15) = (  0.4985141  0.5014859  0.3071422  )
        16           O   tau(  16) = (  0.4985141  0.5014859  0.4960513  )
        17           Sr  tau(  17) = (  0.7482398  0.7454518  0.3044833  )
        18           Sr  tau(  18) = (  0.7482398  0.7454518  0.4987103  )
        19           Sr  tau(  19) = (  0.7441748  0.2558252  0.3052408  )
        20           Sr  tau(  20) = (  0.7441748  0.2558252  0.4979527  )
        21           O   tau(  21) = (  0.7322655  0.0078049  0.5980003  )
        22           O   tau(  22) = (  0.7558175  0.4996027  0.5980003  )
        23           O   tau(  23) = (  0.5003973  0.2441825  0.5980003  )
        24           O   tau(  24) = (  0.7527966  0.4978604  0.4015968  )
        25           O   tau(  25) = (  0.5021396  0.2472034  0.4015968  )
        26           O   tau(  26) = (  0.7517679  0.0000000  0.4015968  )
        27           O   tau(  27) = (  0.0114961  0.4948124  0.6896512  )
        28           O   tau(  28) = (  0.0048226  0.0077944  0.6999492  )
        29           Sr  tau(  29) = (  0.2545482  0.2517602  0.6972903  )
        30           O   tau(  30) = (  0.5048017  0.0015068  0.7027529  )
        31           Co  tau(  31) = (  0.0056869  0.5006215  0.4015968  )
        32           Co  tau(  32) = (  0.0065315  0.4997770  0.5980003  )
        33           Co  tau(  33) = (  0.0061999  0.0064171  0.4015968  )
        34           Co  tau(  34) = (  0.0000000  0.0126169  0.5980003  )
        35           O   tau(  35) = (  0.0114961  0.4948124  0.5063494  )
        36           O   tau(  36) = (  0.0114961  0.4948124  0.2968442  )
        37           O   tau(  37) = (  0.0051979  0.2673486  0.4015968  )
        38           O   tau(  38) = (  0.0130029  0.2478461  0.5980003  )
        39           O   tau(  39) = (  0.0048226  0.0077944  0.3071422  )
        40           O   tau(  40) = (  0.0048226  0.0077944  0.4960513  )
        41           Sr  tau(  41) = (  0.2545482  0.2517602  0.3044833  )
        42           Sr  tau(  42) = (  0.2545482  0.2517602  0.4987103  )
        43           Co  tau(  43) = (  0.4989925  0.0073160  0.5980003  )
        44           Co  tau(  44) = (  0.4998370  0.0064714  0.4015968  )
        45           O   tau(  45) = (  0.5048017  0.0015068  0.3099459  )
        46           O   tau(  46) = (  0.5048017  0.0015068  0.4932477  )
        47           O   tau(  47) = (  0.2621260  0.0059111  0.5980003  )
        48           O   tau(  48) = (  0.2591051  0.0041689  0.4015968  )
        49           H   tau(  49) = (  0.4264937  0.9951520  0.8534850  )

     number of k points=    10  Gaussian smearing, width (Ry)=  0.0700
                       cart. coord. in units 2pi/alat
        k(    1) = (   0.0000000   0.0000000   0.0000000), wk =   0.1250000
        k(    2) = (   0.0000000   0.2500000   0.0000000), wk =   0.2500000
        k(    3) = (   0.0000000  -0.5000000   0.0000000), wk =   0.1250000
        k(    4) = (   0.2500000   0.2500000   0.0000000), wk =   0.2500000
        k(    5) = (   0.2500000  -0.5000000   0.0000000), wk =   0.2500000
        k(    6) = (  -0.5000000  -0.5000000   0.0000000), wk =   0.1250000
        k(    7) = (   0.2500000   0.0000000   0.0000000), wk =   0.2500000
        k(    8) = (  -0.5000000   0.0000000   0.0000000), wk =   0.1250000
        k(    9) = (  -0.2500000   0.2500000   0.0000000), wk =   0.2500000
        k(   10) = (  -0.5000000   0.2500000   0.0000000), wk =   0.2500000

                       cryst. coord.
        k(    1) = (   0.0000000   0.0000000   0.0000000), wk =   0.1250000
        k(    2) = (   0.0000000   0.2500000   0.0000000), wk =   0.2500000
        k(    3) = (   0.0000000  -0.5000000   0.0000000), wk =   0.1250000
        k(    4) = (   0.2500000   0.2500000   0.0000000), wk =   0.2500000
        k(    5) = (   0.2500000  -0.5000000   0.0000000), wk =   0.2500000
        k(    6) = (  -0.5000000  -0.5000000   0.0000000), wk =   0.1250000
        k(    7) = (   0.2500000   0.0000000   0.0000000), wk =   0.2500000
        k(    8) = (  -0.5000000   0.0000000   0.0000000), wk =   0.1250000
        k(    9) = (  -0.2500000   0.2500000   0.0000000), wk =   0.2500000
        k(   10) = (  -0.5000000   0.2500000   0.0000000), wk =   0.2500000

     Dense  grid:  1474595 G-vectors     FFT dimensions: ( 108, 108, 270)

     Smooth grid:   521381 G-vectors     FFT dimensions: (  75,  75, 192)

     Dynamical RAM for                 wfc:      10.61 MB

     Dynamical RAM for     wfc (w. buffer):      63.63 MB

     Dynamical RAM for           str. fact:       3.75 MB

     Dynamical RAM for           local pot:       0.00 MB

     Dynamical RAM for          nlocal pot:      24.28 MB

     Dynamical RAM for                qrad:       7.03 MB

     Dynamical RAM for          rho,v,vnew:       6.02 MB

     Dynamical RAM for               rhoin:       2.01 MB

     Dynamical RAM for            rho*nmix:      15.00 MB

     Dynamical RAM for           G-vectors:       3.68 MB

     Dynamical RAM for          h,s,v(r/c):       1.32 MB

     Dynamical RAM for          <psi|beta>:       2.29 MB

     Dynamical RAM for                 psi:      21.21 MB

     Dynamical RAM for                hpsi:      21.21 MB

     Dynamical RAM for                spsi:      21.21 MB

     Dynamical RAM for      wfcinit/wfcrot:      34.09 MB

     Dynamical RAM for           addusdens:     100.79 MB

     Estimated static dynamical RAM per process >     120.42 MB

     Estimated max dynamical RAM per process >     236.21 MB

     Estimated total dynamical RAM >      10.72 GB

     Check: negative core charge=   -0.000004

     Initial potential from superposition of free atoms

     starting charge     416.5961, renormalised to     425.0000

     negative rho (up, down):  7.827E-01 0.000E+00
     Starting wfcs are  373 randomized atomic wfcs
     Checking if some PAW data can be deallocated... 
       PAW data deallocated on   20 nodes for type:  2

     total cpu time spent up to now is        8.9 secs

     Self-consistent Calculation

     iteration #  1     ecut=    60.00 Ry     beta= 0.15
     Davidson diagonalization with overlap

---- Real-time Memory Report at c_bands before calling an iterative solver
             0 MiB given to the printing process from OS
             0 MiB allocation reported by mallinfo(arena+hblkhd)
        170493 MiB available memory on the node where the printing process lives
------------------
     ethr =  1.00E-02,  avg # of iterations =  2.0

     negative rho (up, down):  7.717E-01 0.000E+00

     total cpu time spent up to now is       23.2 secs

     total energy              =   -4404.75148343 Ry
     estimated scf accuracy    <      42.15757386 Ry

     iteration #  2     ecut=    60.00 Ry     beta= 0.15
     Davidson diagonalization with overlap

---- Real-time Memory Report at c_bands before calling an iterative solver
             0 MiB given to the printing process from OS
             0 MiB allocation reported by mallinfo(arena+hblkhd)
        170693 MiB available memory on the node where the printing process lives
------------------
     ethr =  9.92E-03,  avg # of iterations =  1.0

     negative rho (up, down):  7.531E-01 0.000E+00

     total cpu time spent up to now is       35.3 secs

     total energy              =   -4400.03099278 Ry
     estimated scf accuracy    <      26.57185003 Ry

     iteration #  3     ecut=    60.00 Ry     beta= 0.15
     Davidson diagonalization with overlap

---- Real-time Memory Report at c_bands before calling an iterative solver
             0 MiB given to the printing process from OS
             0 MiB allocation reported by mallinfo(arena+hblkhd)
        169898 MiB available memory on the node where the printing process lives
------------------
     ethr =  6.25E-03,  avg # of iterations =  2.0

     negative rho (up, down):  7.544E-01 0.000E+00

     total cpu time spent up to now is       48.9 secs

     total energy              =   -4402.40111773 Ry
     estimated scf accuracy    <      49.36761499 Ry

     iteration #  4     ecut=    60.00 Ry     beta= 0.15
     Davidson diagonalization with overlap

---- Real-time Memory Report at c_bands before calling an iterative solver
             0 MiB given to the printing process from OS
             0 MiB allocation reported by mallinfo(arena+hblkhd)
        169817 MiB available memory on the node where the printing process lives
------------------
     ethr =  6.25E-03,  avg # of iterations =  1.0

     negative rho (up, down):  7.410E-01 0.000E+00

     total cpu time spent up to now is       61.1 secs

     total energy              =   -4401.67866538 Ry
     estimated scf accuracy    <      29.65811168 Ry

     iteration #  5     ecut=    60.00 Ry     beta= 0.15
     Davidson diagonalization with overlap

---- Real-time Memory Report at c_bands before calling an iterative solver
             0 MiB given to the printing process from OS
             0 MiB allocation reported by mallinfo(arena+hblkhd)
        169799 MiB available memory on the node where the printing process lives
------------------
     ethr =  6.25E-03,  avg # of iterations =  1.0

     negative rho (up, down):  7.467E-01 0.000E+00

     total cpu time spent up to now is       73.1 secs

     total energy              =   -4399.99167121 Ry
     estimated scf accuracy    <      44.66452587 Ry

     iteration #  6     ecut=    60.00 Ry     beta= 0.15
     Davidson diagonalization with overlap

---- Real-time Memory Report at c_bands before calling an iterative solver
             0 MiB given to the printing process from OS
             0 MiB allocation reported by mallinfo(arena+hblkhd)
        169786 MiB available memory on the node where the printing process lives
------------------
     ethr =  6.25E-03,  avg # of iterations =  1.0

     negative rho (up, down):  7.421E-01 0.000E+00

     total cpu time spent up to now is       85.2 secs

     total energy              =   -4400.68955556 Ry
     estimated scf accuracy    <      11.70190049 Ry

     iteration #  7     ecut=    60.00 Ry     beta= 0.15
     Davidson diagonalization with overlap

---- Real-time Memory Report at c_bands before calling an iterative solver
             0 MiB given to the printing process from OS
             0 MiB allocation reported by mallinfo(arena+hblkhd)
        169771 MiB available memory on the node where the printing process lives
------------------
     ethr =  2.75E-03,  avg # of iterations =  1.1

     negative rho (up, down):  7.444E-01 0.000E+00

     total cpu time spent up to now is       97.3 secs

     total energy              =   -4400.77785876 Ry
     estimated scf accuracy    <       4.39151890 Ry

     iteration #  8     ecut=    60.00 Ry     beta= 0.15
     Davidson diagonalization with overlap

---- Real-time Memory Report at c_bands before calling an iterative solver
             0 MiB given to the printing process from OS
             0 MiB allocation reported by mallinfo(arena+hblkhd)
        169754 MiB available memory on the node where the printing process lives
------------------
     ethr =  1.03E-03,  avg # of iterations =  1.5

     negative rho (up, down):  7.527E-01 0.000E+00

     total cpu time spent up to now is      109.9 secs

     total energy              =   -4400.41194311 Ry
     estimated scf accuracy    <       4.16913988 Ry

     iteration #  9     ecut=    60.00 Ry     beta= 0.15
     Davidson diagonalization with overlap

---- Real-time Memory Report at c_bands before calling an iterative solver
             0 MiB given to the printing process from OS
             0 MiB allocation reported by mallinfo(arena+hblkhd)
        169723 MiB available memory on the node where the printing process lives
------------------
     ethr =  9.81E-04,  avg # of iterations =  2.5

     negative rho (up, down):  7.768E-01 0.000E+00

     total cpu time spent up to now is      123.9 secs

     total energy              =   -4399.94787195 Ry
     estimated scf accuracy    <      35.00950029 Ry

     iteration # 10     ecut=    60.00 Ry     beta= 0.15
     Davidson diagonalization with overlap

---- Real-time Memory Report at c_bands before calling an iterative solver
             0 MiB given to the printing process from OS
             0 MiB allocation reported by mallinfo(arena+hblkhd)
        169651 MiB available memory on the node where the printing process lives
------------------
     ethr =  9.81E-04,  avg # of iterations =  9.7

     negative rho (up, down):  7.794E-01 0.000E+00

     total cpu time spent up to now is      142.1 secs

     total energy              =   -4399.78281429 Ry
     estimated scf accuracy    <      11.74129055 Ry

     iteration # 11     ecut=    60.00 Ry     beta= 0.15
     Davidson diagonalization with overlap

---- Real-time Memory Report at c_bands before calling an iterative solver
             0 MiB given to the printing process from OS
             0 MiB allocation reported by mallinfo(arena+hblkhd)
        169291 MiB available memory on the node where the printing process lives
------------------
     ethr =  9.81E-04,  avg # of iterations =  1.1

     negative rho (up, down):  7.813E-01 0.000E+00

     total cpu time spent up to now is      154.1 secs

     total energy              =   -4400.12783747 Ry
     estimated scf accuracy    <       0.95123671 Ry

     iteration # 12     ecut=    60.00 Ry     beta= 0.15
     Davidson diagonalization with overlap

---- Real-time Memory Report at c_bands before calling an iterative solver
             0 MiB given to the printing process from OS
             0 MiB allocation reported by mallinfo(arena+hblkhd)
        169276 MiB available memory on the node where the printing process lives
------------------
     ethr =  2.24E-04,  avg # of iterations =  4.5

     negative rho (up, down):  7.941E-01 0.000E+00

     total cpu time spent up to now is      169.1 secs

     total energy              =   -4400.04508294 Ry
     estimated scf accuracy    <       0.78957233 Ry

     iteration # 13     ecut=    60.00 Ry     beta= 0.15
     Davidson diagonalization with overlap

---- Real-time Memory Report at c_bands before calling an iterative solver
             0 MiB given to the printing process from OS
             0 MiB allocation reported by mallinfo(arena+hblkhd)
        169217 MiB available memory on the node where the printing process lives
------------------
     ethr =  1.86E-04,  avg # of iterations =  5.3

     negative rho (up, down):  7.998E-01 0.000E+00

     total cpu time spent up to now is      184.4 secs

     total energy              =   -4400.07100650 Ry
     estimated scf accuracy    <       1.33299722 Ry

     iteration # 14     ecut=    60.00 Ry     beta= 0.15
     Davidson diagonalization with overlap

---- Real-time Memory Report at c_bands before calling an iterative solver
             0 MiB given to the printing process from OS
             0 MiB allocation reported by mallinfo(arena+hblkhd)
        169205 MiB available memory on the node where the printing process lives
------------------
     ethr =  1.86E-04,  avg # of iterations =  6.9

     negative rho (up, down):  8.054E-01 0.000E+00

     total cpu time spent up to now is      200.2 secs

     total energy              =   -4400.01446897 Ry
     estimated scf accuracy    <       1.32338522 Ry

     iteration # 15     ecut=    60.00 Ry     beta= 0.15
     Davidson diagonalization with overlap

---- Real-time Memory Report at c_bands before calling an iterative solver
             0 MiB given to the printing process from OS
             0 MiB allocation reported by mallinfo(arena+hblkhd)
        169216 MiB available memory on the node where the printing process lives
------------------
     c_bands:  1 eigenvalues not converged
     ethr =  1.86E-04,  avg # of iterations =  6.4

     negative rho (up, down):  8.064E-01 0.000E+00

     total cpu time spent up to now is      216.3 secs

     total energy              =   -4400.03569974 Ry
     estimated scf accuracy    <       0.52733299 Ry

     iteration # 16     ecut=    60.00 Ry     beta= 0.15
     Davidson diagonalization with overlap

---- Real-time Memory Report at c_bands before calling an iterative solver
             0 MiB given to the printing process from OS
             0 MiB allocation reported by mallinfo(arena+hblkhd)
        169220 MiB available memory on the node where the printing process lives
------------------
     ethr =  1.24E-04,  avg # of iterations =  1.3

     negative rho (up, down):  8.091E-01 0.000E+00

     total cpu time spent up to now is      229.1 secs

     total energy              =   -4399.99076586 Ry
     estimated scf accuracy    <       0.31648774 Ry

     iteration # 17     ecut=    60.00 Ry     beta= 0.15
     Davidson diagonalization with overlap

---- Real-time Memory Report at c_bands before calling an iterative solver
             0 MiB given to the printing process from OS
             0 MiB allocation reported by mallinfo(arena+hblkhd)
        169233 MiB available memory on the node where the printing process lives
------------------
     ethr =  7.45E-05,  avg # of iterations =  6.6

     negative rho (up, down):  8.140E-01 0.000E+00

     total cpu time spent up to now is      245.3 secs

     total energy              =   -4399.95502593 Ry
     estimated scf accuracy    <       0.83941374 Ry

     iteration # 18     ecut=    60.00 Ry     beta= 0.15
     Davidson diagonalization with overlap

---- Real-time Memory Report at c_bands before calling an iterative solver
             0 MiB given to the printing process from OS
             0 MiB allocation reported by mallinfo(arena+hblkhd)
        169203 MiB available memory on the node where the printing process lives
------------------
     c_bands:  1 eigenvalues not converged
     ethr =  7.45E-05,  avg # of iterations =  9.5

     negative rho (up, down):  8.254E-01 0.000E+00

     total cpu time spent up to now is      263.1 secs

     total energy              =   -4399.93700512 Ry
     estimated scf accuracy    <       0.21256433 Ry

     iteration # 19     ecut=    60.00 Ry     beta= 0.15
     Davidson diagonalization with overlap

---- Real-time Memory Report at c_bands before calling an iterative solver
             0 MiB given to the printing process from OS
             0 MiB allocation reported by mallinfo(arena+hblkhd)
        169175 MiB available memory on the node where the printing process lives
------------------
     ethr =  5.00E-05,  avg # of iterations =  8.3

     negative rho (up, down):  8.276E-01 0.000E+00

     total cpu time spent up to now is      280.8 secs

     total energy              =   -4399.93262207 Ry
     estimated scf accuracy    <       0.11191969 Ry

     iteration # 20     ecut=    60.00 Ry     beta= 0.15
     Davidson diagonalization with overlap

---- Real-time Memory Report at c_bands before calling an iterative solver
             0 MiB given to the printing process from OS
             0 MiB allocation reported by mallinfo(arena+hblkhd)
        169199 MiB available memory on the node where the printing process lives
------------------
     ethr =  2.63E-05,  avg # of iterations =  5.3

     negative rho (up, down):  8.278E-01 0.000E+00

     total cpu time spent up to now is      296.6 secs

     total energy              =   -4399.92387043 Ry
     estimated scf accuracy    <       0.08189124 Ry

     iteration # 21     ecut=    60.00 Ry     beta= 0.15
     Davidson diagonalization with overlap

---- Real-time Memory Report at c_bands before calling an iterative solver
             0 MiB given to the printing process from OS
             0 MiB allocation reported by mallinfo(arena+hblkhd)
        169211 MiB available memory on the node where the printing process lives
------------------
     ethr =  1.93E-05,  avg # of iterations =  8.1

     negative rho (up, down):  8.071E-01 0.000E+00

     total cpu time spent up to now is      313.6 secs

     total energy              =   -4399.92004138 Ry
     estimated scf accuracy    <       0.05843931 Ry

     iteration # 22     ecut=    60.00 Ry     beta= 0.15
     Davidson diagonalization with overlap

---- Real-time Memory Report at c_bands before calling an iterative solver
             0 MiB given to the printing process from OS
             0 MiB allocation reported by mallinfo(arena+hblkhd)
        169212 MiB available memory on the node where the printing process lives
------------------
     ethr =  1.38E-05,  avg # of iterations =  2.0

     negative rho (up, down):  7.993E-01 0.000E+00

     total cpu time spent up to now is      327.6 secs

     total energy              =   -4399.91052545 Ry
     estimated scf accuracy    <       0.04424916 Ry

     iteration # 23     ecut=    60.00 Ry     beta= 0.15
     Davidson diagonalization with overlap

---- Real-time Memory Report at c_bands before calling an iterative solver
             0 MiB given to the printing process from OS
             0 MiB allocation reported by mallinfo(arena+hblkhd)
        169199 MiB available memory on the node where the printing process lives
------------------
     ethr =  1.04E-05,  avg # of iterations = 10.1

     negative rho (up, down):  8.035E-01 0.000E+00

     total cpu time spent up to now is      346.1 secs

     total energy              =   -4399.91143240 Ry
     estimated scf accuracy    <       0.01795195 Ry

     iteration # 24     ecut=    60.00 Ry     beta= 0.15
     Davidson diagonalization with overlap

---- Real-time Memory Report at c_bands before calling an iterative solver
             0 MiB given to the printing process from OS
             0 MiB allocation reported by mallinfo(arena+hblkhd)
        169137 MiB available memory on the node where the printing process lives
------------------
     ethr =  4.22E-06,  avg # of iterations =  8.3

     negative rho (up, down):  7.991E-01 0.000E+00

     total cpu time spent up to now is      362.3 secs

     total energy              =   -4399.91111810 Ry
     estimated scf accuracy    <       0.01316761 Ry

     iteration # 25     ecut=    60.00 Ry     beta= 0.15
     Davidson diagonalization with overlap

---- Real-time Memory Report at c_bands before calling an iterative solver
             0 MiB given to the printing process from OS
             0 MiB allocation reported by mallinfo(arena+hblkhd)
        169154 MiB available memory on the node where the printing process lives
------------------
     ethr =  3.10E-06,  avg # of iterations =  1.5

     negative rho (up, down):  7.918E-01 0.000E+00

     total cpu time spent up to now is      375.3 secs

     total energy              =   -4399.90937542 Ry
     estimated scf accuracy    <       0.01122289 Ry

     iteration # 26     ecut=    60.00 Ry     beta= 0.15
     Davidson diagonalization with overlap

---- Real-time Memory Report at c_bands before calling an iterative solver
             0 MiB given to the printing process from OS
             0 MiB allocation reported by mallinfo(arena+hblkhd)
        169162 MiB available memory on the node where the printing process lives
------------------
     c_bands:  1 eigenvalues not converged
     ethr =  2.64E-06,  avg # of iterations =  9.1

     negative rho (up, down):  7.942E-01 0.000E+00

     total cpu time spent up to now is      392.3 secs

     total energy              =   -4399.90885076 Ry
     estimated scf accuracy    <       0.00616293 Ry

     iteration # 27     ecut=    60.00 Ry     beta= 0.15
     Davidson diagonalization with overlap

---- Real-time Memory Report at c_bands before calling an iterative solver
             0 MiB given to the printing process from OS
             0 MiB allocation reported by mallinfo(arena+hblkhd)
        169144 MiB available memory on the node where the printing process lives
------------------
     ethr =  1.45E-06,  avg # of iterations = 13.2

     negative rho (up, down):  7.958E-01 0.000E+00

     total cpu time spent up to now is      412.0 secs

     total energy              =   -4399.90903734 Ry
     estimated scf accuracy    <       0.00253405 Ry

     iteration # 28     ecut=    60.00 Ry     beta= 0.15
     Davidson diagonalization with overlap

---- Real-time Memory Report at c_bands before calling an iterative solver
             0 MiB given to the printing process from OS
             0 MiB allocation reported by mallinfo(arena+hblkhd)
        169079 MiB available memory on the node where the printing process lives
------------------
     c_bands:  1 eigenvalues not converged
     ethr =  5.96E-07,  avg # of iterations = 10.3

     negative rho (up, down):  7.978E-01 0.000E+00

     total cpu time spent up to now is      429.6 secs

     total energy              =   -4399.90916096 Ry
     estimated scf accuracy    <       0.00091428 Ry

     iteration # 29     ecut=    60.00 Ry     beta= 0.15
     Davidson diagonalization with overlap

---- Real-time Memory Report at c_bands before calling an iterative solver
             0 MiB given to the printing process from OS
             0 MiB allocation reported by mallinfo(arena+hblkhd)
        169019 MiB available memory on the node where the printing process lives
------------------
     c_bands:  1 eigenvalues not converged
     ethr =  2.15E-07,  avg # of iterations = 11.6

     negative rho (up, down):  7.981E-01 0.000E+00

     total cpu time spent up to now is      446.8 secs

     total energy              =   -4399.90905597 Ry
     estimated scf accuracy    <       0.00059671 Ry

     iteration # 30     ecut=    60.00 Ry     beta= 0.15
     Davidson diagonalization with overlap

---- Real-time Memory Report at c_bands before calling an iterative solver
             0 MiB given to the printing process from OS
             0 MiB allocation reported by mallinfo(arena+hblkhd)
        169077 MiB available memory on the node where the printing process lives
------------------
     ethr =  1.40E-07,  avg # of iterations =  7.6

     negative rho (up, down):  7.957E-01 0.000E+00

     total cpu time spent up to now is      463.0 secs

     total energy              =   -4399.90893292 Ry
     estimated scf accuracy    <       0.00032215 Ry

     iteration # 31     ecut=    60.00 Ry     beta= 0.15
     Davidson diagonalization with overlap

---- Real-time Memory Report at c_bands before calling an iterative solver
             0 MiB given to the printing process from OS
             0 MiB allocation reported by mallinfo(arena+hblkhd)
        169127 MiB available memory on the node where the printing process lives
------------------
     ethr =  7.58E-08,  avg # of iterations =  4.5

     negative rho (up, down):  7.936E-01 0.000E+00

     total cpu time spent up to now is      478.6 secs

     total energy              =   -4399.90893998 Ry
     estimated scf accuracy    <       0.00007746 Ry

     iteration # 32     ecut=    60.00 Ry     beta= 0.15
     Davidson diagonalization with overlap

---- Real-time Memory Report at c_bands before calling an iterative solver
             0 MiB given to the printing process from OS
             0 MiB allocation reported by mallinfo(arena+hblkhd)
        169097 MiB available memory on the node where the printing process lives
------------------
     ethr =  1.82E-08,  avg # of iterations =  3.4

     negative rho (up, down):  7.932E-01 0.000E+00

     total cpu time spent up to now is      492.9 secs

     total energy              =   -4399.90894655 Ry
     estimated scf accuracy    <       0.00004811 Ry

     iteration # 33     ecut=    60.00 Ry     beta= 0.15
     Davidson diagonalization with overlap

---- Real-time Memory Report at c_bands before calling an iterative solver
             0 MiB given to the printing process from OS
             0 MiB allocation reported by mallinfo(arena+hblkhd)
        169106 MiB available memory on the node where the printing process lives
------------------
     ethr =  1.13E-08,  avg # of iterations =  1.9

     negative rho (up, down):  7.929E-01 0.000E+00

     total cpu time spent up to now is      506.3 secs

     total energy              =   -4399.90894993 Ry
     estimated scf accuracy    <       0.00002970 Ry

     iteration # 34     ecut=    60.00 Ry     beta= 0.15
     Davidson diagonalization with overlap

---- Real-time Memory Report at c_bands before calling an iterative solver
             0 MiB given to the printing process from OS
             0 MiB allocation reported by mallinfo(arena+hblkhd)
        169109 MiB available memory on the node where the printing process lives
------------------
     ethr =  6.99E-09,  avg # of iterations =  2.1

     negative rho (up, down):  7.926E-01 0.000E+00

     total cpu time spent up to now is      519.8 secs

     total energy              =   -4399.90895582 Ry
     estimated scf accuracy    <       0.00001755 Ry

     iteration # 35     ecut=    60.00 Ry     beta= 0.15
     Davidson diagonalization with overlap

---- Real-time Memory Report at c_bands before calling an iterative solver
             0 MiB given to the printing process from OS
             0 MiB allocation reported by mallinfo(arena+hblkhd)
        169108 MiB available memory on the node where the printing process lives
------------------
     ethr =  4.13E-09,  avg # of iterations =  2.6

     negative rho (up, down):  7.923E-01 0.000E+00

     total cpu time spent up to now is      533.6 secs

     total energy              =   -4399.90896121 Ry
     estimated scf accuracy    <       0.00000730 Ry

     iteration # 36     ecut=    60.00 Ry     beta= 0.15
     Davidson diagonalization with overlap

---- Real-time Memory Report at c_bands before calling an iterative solver
             0 MiB given to the printing process from OS
             0 MiB allocation reported by mallinfo(arena+hblkhd)
        169111 MiB available memory on the node where the printing process lives
------------------
     ethr =  1.72E-09,  avg # of iterations =  3.3

     negative rho (up, down):  7.923E-01 0.000E+00

     total cpu time spent up to now is      548.9 secs

     total energy              =   -4399.90896212 Ry
     estimated scf accuracy    <       0.00000345 Ry

     iteration # 37     ecut=    60.00 Ry     beta= 0.15
     Davidson diagonalization with overlap

---- Real-time Memory Report at c_bands before calling an iterative solver
             0 MiB given to the printing process from OS
             0 MiB allocation reported by mallinfo(arena+hblkhd)
        169099 MiB available memory on the node where the printing process lives
------------------
     ethr =  8.12E-10,  avg # of iterations =  2.2

     negative rho (up, down):  7.923E-01 0.000E+00

     total cpu time spent up to now is      563.0 secs

     total energy              =   -4399.90896232 Ry
     estimated scf accuracy    <       0.00000315 Ry

     iteration # 38     ecut=    60.00 Ry     beta= 0.15
     Davidson diagonalization with overlap

---- Real-time Memory Report at c_bands before calling an iterative solver
             0 MiB given to the printing process from OS
             0 MiB allocation reported by mallinfo(arena+hblkhd)
        169126 MiB available memory on the node where the printing process lives
------------------
     ethr =  7.41E-10,  avg # of iterations =  2.2

     negative rho (up, down):  7.923E-01 0.000E+00

     total cpu time spent up to now is      577.0 secs

     total energy              =   -4399.90896211 Ry
     estimated scf accuracy    <       0.00000212 Ry

     iteration # 39     ecut=    60.00 Ry     beta= 0.15
     Davidson diagonalization with overlap

---- Real-time Memory Report at c_bands before calling an iterative solver
             0 MiB given to the printing process from OS
             0 MiB allocation reported by mallinfo(arena+hblkhd)
        169142 MiB available memory on the node where the printing process lives
------------------
     ethr =  4.99E-10,  avg # of iterations =  2.9

     negative rho (up, down):  7.923E-01 0.000E+00

     total cpu time spent up to now is      591.4 secs

     total energy              =   -4399.90896220 Ry
     estimated scf accuracy    <       0.00000138 Ry

     iteration # 40     ecut=    60.00 Ry     beta= 0.15
     Davidson diagonalization with overlap

---- Real-time Memory Report at c_bands before calling an iterative solver
             0 MiB given to the printing process from OS
             0 MiB allocation reported by mallinfo(arena+hblkhd)
        169144 MiB available memory on the node where the printing process lives
------------------
     ethr =  3.24E-10,  avg # of iterations =  1.2

     negative rho (up, down):  7.924E-01 0.000E+00

     total cpu time spent up to now is      604.2 secs

     total energy              =   -4399.90896217 Ry
     estimated scf accuracy    <       0.00000128 Ry

     iteration # 41     ecut=    60.00 Ry     beta= 0.15
     Davidson diagonalization with overlap

---- Real-time Memory Report at c_bands before calling an iterative solver
             0 MiB given to the printing process from OS
             0 MiB allocation reported by mallinfo(arena+hblkhd)
        169151 MiB available memory on the node where the printing process lives
------------------
     ethr =  3.01E-10,  avg # of iterations =  2.2

     negative rho (up, down):  7.924E-01 0.000E+00

     total cpu time spent up to now is      618.2 secs

     total energy              =   -4399.90896212 Ry
     estimated scf accuracy    <       0.00000098 Ry

     iteration # 42     ecut=    60.00 Ry     beta= 0.15
     Davidson diagonalization with overlap

---- Real-time Memory Report at c_bands before calling an iterative solver
             0 MiB given to the printing process from OS
             0 MiB allocation reported by mallinfo(arena+hblkhd)
        169152 MiB available memory on the node where the printing process lives
------------------
     ethr =  2.30E-10,  avg # of iterations =  2.7

     negative rho (up, down):  7.924E-01 0.000E+00

     total cpu time spent up to now is      632.4 secs

     total energy              =   -4399.90896219 Ry
     estimated scf accuracy    <       0.00000063 Ry

     iteration # 43     ecut=    60.00 Ry     beta= 0.15
     Davidson diagonalization with overlap

---- Real-time Memory Report at c_bands before calling an iterative solver
             0 MiB given to the printing process from OS
             0 MiB allocation reported by mallinfo(arena+hblkhd)
        169154 MiB available memory on the node where the printing process lives
------------------
     ethr =  1.47E-10,  avg # of iterations =  2.4

     negative rho (up, down):  7.924E-01 0.000E+00

     total cpu time spent up to now is      646.4 secs

     total energy              =   -4399.90896217 Ry
     estimated scf accuracy    <       0.00000042 Ry

     iteration # 44     ecut=    60.00 Ry     beta= 0.15
     Davidson diagonalization with overlap

---- Real-time Memory Report at c_bands before calling an iterative solver
             0 MiB given to the printing process from OS
             0 MiB allocation reported by mallinfo(arena+hblkhd)
        169156 MiB available memory on the node where the printing process lives
------------------
     ethr =  9.86E-11,  avg # of iterations =  3.2

     negative rho (up, down):  7.924E-01 0.000E+00

     total cpu time spent up to now is      660.8 secs

     total energy              =   -4399.90896218 Ry
     estimated scf accuracy    <       0.00000024 Ry

     iteration # 45     ecut=    60.00 Ry     beta= 0.15
     Davidson diagonalization with overlap

---- Real-time Memory Report at c_bands before calling an iterative solver
             0 MiB given to the printing process from OS
             0 MiB allocation reported by mallinfo(arena+hblkhd)
        169159 MiB available memory on the node where the printing process lives
------------------
     ethr =  5.73E-11,  avg # of iterations =  2.3

     negative rho (up, down):  7.924E-01 0.000E+00

     total cpu time spent up to now is      674.5 secs

     total energy              =   -4399.90896248 Ry
     estimated scf accuracy    <       0.00000016 Ry

     iteration # 46     ecut=    60.00 Ry     beta= 0.15
     Davidson diagonalization with overlap

---- Real-time Memory Report at c_bands before calling an iterative solver
             0 MiB given to the printing process from OS
             0 MiB allocation reported by mallinfo(arena+hblkhd)
        169163 MiB available memory on the node where the printing process lives
------------------
     ethr =  3.66E-11,  avg # of iterations =  3.8

     negative rho (up, down):  7.924E-01 0.000E+00

     total cpu time spent up to now is      688.7 secs

     total energy              =   -4399.90896263 Ry
     estimated scf accuracy    <       0.00000007 Ry

     iteration # 47     ecut=    60.00 Ry     beta= 0.15
     Davidson diagonalization with overlap

---- Real-time Memory Report at c_bands before calling an iterative solver
             0 MiB given to the printing process from OS
             0 MiB allocation reported by mallinfo(arena+hblkhd)
        169164 MiB available memory on the node where the printing process lives
------------------
     ethr =  1.67E-11,  avg # of iterations =  4.2

     negative rho (up, down):  7.924E-01 0.000E+00

     total cpu time spent up to now is      703.1 secs

     total energy              =   -4399.90896266 Ry
     estimated scf accuracy    <       0.00000004 Ry

     iteration # 48     ecut=    60.00 Ry     beta= 0.15
     Davidson diagonalization with overlap

---- Real-time Memory Report at c_bands before calling an iterative solver
             0 MiB given to the printing process from OS
             0 MiB allocation reported by mallinfo(arena+hblkhd)
        169125 MiB available memory on the node where the printing process lives
------------------
     ethr =  8.37E-12,  avg # of iterations =  3.9

     negative rho (up, down):  7.924E-01 0.000E+00

     total cpu time spent up to now is      717.4 secs

     total energy              =   -4399.90896266 Ry
     estimated scf accuracy    <       0.00000002 Ry

     iteration # 49     ecut=    60.00 Ry     beta= 0.15
     Davidson diagonalization with overlap

---- Real-time Memory Report at c_bands before calling an iterative solver
             0 MiB given to the printing process from OS
             0 MiB allocation reported by mallinfo(arena+hblkhd)
        169110 MiB available memory on the node where the printing process lives
------------------
     ethr =  5.22E-12,  avg # of iterations =  2.2

     negative rho (up, down):  7.924E-01 0.000E+00

     total cpu time spent up to now is      731.0 secs

     total energy              =   -4399.90896267 Ry
     estimated scf accuracy    <       0.00000002 Ry

     iteration # 50     ecut=    60.00 Ry     beta= 0.15
     Davidson diagonalization with overlap

---- Real-time Memory Report at c_bands before calling an iterative solver
             0 MiB given to the printing process from OS
             0 MiB allocation reported by mallinfo(arena+hblkhd)
        169121 MiB available memory on the node where the printing process lives
------------------
     ethr =  3.81E-12,  avg # of iterations =  2.2

     negative rho (up, down):  7.924E-01 0.000E+00

     total cpu time spent up to now is      744.6 secs

     End of self-consistent calculation

          k = 0.0000 0.0000 0.0000 ( 65197 PWs)   bands (ev):

   -92.6924 -92.6360 -92.5457 -92.4915 -92.4394 -92.3984 -92.3811 -92.2580
   -56.0457 -56.0224 -55.9033 -55.8930 -55.8804 -55.8798 -55.8411 -55.8151
   -55.7995 -55.7979 -55.7873 -55.7473 -55.7258 -55.6906 -55.6719 -55.6395
   -55.6229 -55.5868 -55.5839 -55.5838 -55.5753 -55.5329 -55.5115 -55.4254
   -31.2693 -31.2496 -31.1259 -31.1083 -31.0401 -31.0211 -30.8657 -30.7512
   -29.8417 -29.7979 -29.7727 -29.6636 -15.0732 -15.0351 -14.9514 -14.8204
   -14.6348 -14.5098 -14.2133 -14.1966 -14.1634 -14.1207 -14.0776 -14.0686
   -14.0558 -14.0398 -14.0167 -13.9852 -13.9236 -13.7741 -13.6034 -13.5632
   -13.5306 -13.5068 -13.4846 -13.4345 -13.3976 -13.3138 -13.2425 -13.1477
   -13.1284 -13.1019 -13.0884 -13.0669 -13.0498 -13.0265 -12.9995 -12.9855
   -12.9580 -12.9344 -12.9256 -12.9136 -12.8991 -12.8881 -12.8206 -12.8055
   -12.7745 -12.6930 -12.6552 -12.6535 -12.3340 -12.1883 -12.0485 -11.9803
   -11.8552 -11.7808 -11.7698 -11.7472 -11.7296 -11.6656 -11.6484 -11.6136
   -11.5850 -11.4732 -11.3929 -11.3894  -2.9351  -2.7018  -2.4724  -2.3263
    -2.2624  -2.1195  -1.8129  -1.7991  -1.7783  -1.6958  -1.6768  -1.6084
    -1.5922  -1.5505  -1.5063  -1.3253  -1.1029  -1.0729  -0.9227  -0.9091
    -0.8653  -0.8474  -0.8015  -0.7858  -0.7266  -0.7002  -0.6303  -0.6176
    -0.5393  -0.4083  -0.3946  -0.3681  -0.2900  -0.2854  -0.2641  -0.1957
    -0.1226  -0.0835  -0.0285  -0.0021   0.0543   0.1348   0.1869   0.2062
     0.2171   0.4735   0.4886   0.6582   0.7287   0.7933   0.8329   0.9264
     0.9415   0.9560   1.0272   1.0542   1.0884   1.1476   1.2807   1.3356
     1.3566   1.3740   1.3860   1.4540   1.5300   1.6286   1.6392   1.7049
     1.7219   1.7615   1.7795   1.7852   1.8424   1.8954   1.9015   1.9411
     1.9708   2.0300   2.1611   2.2438   2.2893   2.3018   2.4597   2.4711
     2.5150   2.5212   2.6265   2.6628   2.6874   2.7070   2.7210   2.7814
     2.8259   2.9259   2.9461   2.9590   2.9665   3.0347   3.0396   3.0612
     3.0695   3.0775   3.0939   3.0977   3.1091   3.1149   3.1291   3.1371
     3.1447   3.1648   3.1863   3.1913   3.2038   3.2634   3.3457   3.4450
     4.1151   4.4459   4.7837   4.8717   5.0425   5.7556   5.9507   6.0106
     6.0210   6.3224   6.3698   6.4911   6.5006   6.7233   7.0153   7.0985
     7.1048   7.1679   7.3217   7.5710   7.6688   7.6873   7.7230   7.9464
     7.9655   8.0906   8.1227   8.1393   8.4160   8.6337   8.6845   8.8241

     occupation numbers 
     1.0000   1.0000   1.0000   1.0000   1.0000   1.0000   1.0000   1.0000
     1.0000   1.0000   1.0000   1.0000   1.0000   1.0000   1.0000   1.0000
     1.0000   1.0000   1.0000   1.0000   1.0000   1.0000   1.0000   1.0000
     1.0000   1.0000   1.0000   1.0000   1.0000   1.0000   1.0000   1.0000
     1.0000   1.0000   1.0000   1.0000   1.0000   1.0000   1.0000   1.0000
     1.0000   1.0000   1.0000   1.0000   1.0000   1.0000   1.0000   1.0000
     1.0000   1.0000   1.0000   1.0000   1.0000   1.0000   1.0000   1.0000
     1.0000   1.0000   1.0000   1.0000   1.0000   1.0000   1.0000   1.0000
     1.0000   1.0000   1.0000   1.0000   1.0000   1.0000   1.0000   1.0000
     1.0000   1.0000   1.0000   1.0000   1.0000   1.0000   1.0000   1.0000
     1.0000   1.0000   1.0000   1.0000   1.0000   1.0000   1.0000   1.0000
     1.0000   1.0000   1.0000   1.0000   1.0000   1.0000   1.0000   1.0000
     1.0000   1.0000   1.0000   1.0000   1.0000   1.0000   1.0000   1.0000
     1.0000   1.0000   1.0000   1.0000   1.0000   1.0000   1.0000   1.0000
     1.0000   1.0000   1.0000   1.0000   1.0000   1.0000   1.0000   1.0000
     1.0000   1.0000   1.0000   1.0000   1.0000   1.0000   1.0000   1.0000
     1.0000   1.0000   1.0000   1.0000   1.0000   1.0000   1.0000   1.0000
     1.0000   1.0000   1.0000   1.0000   1.0000   1.0000   1.0000   1.0000
     1.0000   1.0000   1.0000   1.0000   1.0000   1.0000   1.0000   1.0000
     1.0000   1.0000   1.0000   1.0000   0.9999   0.9999   0.9999   0.9998
     0.9998   0.9998   0.9997   0.9996   0.9996   0.9994   0.9989   0.9985
     0.9984   0.9982   0.9981   0.9974   0.9963   0.9944   0.9941   0.9923
     0.9917   0.9903   0.9896   0.9893   0.9867   0.9838   0.9834   0.9808
     0.9786   0.9737   0.9594   0.9475   0.9398   0.9376   0.9033   0.9003
     0.8884   0.8867   0.8538   0.8411   0.8320   0.8246   0.8192   0.7947
     0.7754   0.7284   0.7184   0.7119   0.7081   0.6724   0.6698   0.6581
     0.6536   0.6492   0.6401   0.6380   0.6316   0.6283   0.6203   0.6158
     0.6115   0.6000   0.5877   0.5848   0.5775   0.5426   0.4939   0.4354
     0.1235   0.0496   0.0158   0.0113   0.0056   0.0002   0.0001   0.0000
     0.0000   0.0000   0.0000   0.0000   0.0000   0.0000   0.0000   0.0000
     0.0000   0.0000   0.0000   0.0000   0.0000   0.0000   0.0000   0.0000
     0.0000   0.0000   0.0000   0.0000   0.0000   0.0000   0.0000   0.0000

          k = 0.0000 0.2500 0.0000 ( 65257 PWs)   bands (ev):

   -92.6924 -92.6360 -92.5457 -92.4915 -92.4394 -92.3984 -92.3811 -92.2580
   -56.0457 -56.0224 -55.9033 -55.8930 -55.8804 -55.8798 -55.8411 -55.8151
   -55.7995 -55.7979 -55.7873 -55.7473 -55.7258 -55.6906 -55.6719 -55.6395
   -55.6229 -55.5868 -55.5839 -55.5838 -55.5753 -55.5329 -55.5115 -55.4254
   -31.2691 -31.2495 -31.1256 -31.1085 -31.0404 -31.0213 -30.8654 -30.7515
   -29.8411 -29.7976 -29.7733 -29.6639 -15.0363 -15.0089 -14.9263 -14.7914
   -14.6740 -14.5011 -14.3589 -14.1788 -14.1484 -14.1247 -14.0970 -14.0404
   -14.0340 -14.0184 -14.0022 -13.9642 -13.8434 -13.8048 -13.6409 -13.6280
   -13.5723 -13.5382 -13.4985 -13.4506 -13.4140 -13.3356 -13.3000 -13.2582
   -13.2025 -13.1398 -13.1154 -13.0990 -13.0777 -13.0000 -12.9708 -12.9436
   -12.9250 -12.8957 -12.8734 -12.8605 -12.8481 -12.8128 -12.7885 -12.7748
   -12.7557 -12.6929 -12.5707 -12.5111 -12.3953 -12.2396 -12.1045 -12.0467
   -11.8207 -11.7776 -11.7500 -11.7217 -11.7049 -11.6576 -11.6462 -11.6238
   -11.5896 -11.4875 -11.4346 -11.4239  -2.7999  -2.5775  -2.4403  -2.2581
    -2.2146  -2.0504  -1.8320  -1.7461  -1.7331  -1.6772  -1.5737  -1.5584
    -1.5244  -1.4980  -1.4544  -1.2565  -1.1283  -1.1163  -1.0409  -1.0294
    -0.9250  -0.8940  -0.8386  -0.8139  -0.7708  -0.7083  -0.6823  -0.6497
    -0.6183  -0.6014  -0.5685  -0.4935  -0.4431  -0.3858  -0.2688  -0.2524
    -0.2064  -0.0867  -0.0540   0.0083   0.0575   0.1137   0.1349   0.1656
     0.2238   0.5199   0.6086   0.6397   0.7267   0.7707   0.7904   0.9153
     0.9334   1.0263   1.0532   1.0816   1.1965   1.2852   1.3110   1.3339
     1.3505   1.3809   1.4410   1.4668   1.4943   1.5434   1.5758   1.6049
     1.6838   1.7161   1.7580   1.8077   1.8630   1.9069   1.9305   1.9513
     1.9782   2.0592   2.1975   2.2679   2.2855   2.3659   2.4146   2.4477
     2.4599   2.5199   2.5622   2.6445   2.6792   2.6970   2.8036   2.8746
     2.9087   2.9289   2.9493   2.9680   2.9751   2.9823   3.0008   3.0215
     3.0238   3.0432   3.0481   3.0580   3.0765   3.0912   3.0977   3.1169
     3.1265   3.1312   3.1668   3.1844   3.2459   3.6224   3.6684   3.8854
     4.2982   4.4514   4.7137   5.0284   5.0683   5.6357   5.7591   5.8938
     6.0038   6.1000   6.1182   6.1951   6.6078   6.8382   6.8906   7.1189
     7.2586   7.3399   7.4920   7.5070   7.6525   7.7393   7.8079   7.9515
     8.0519   8.0845   8.1736   8.3100   8.4173   8.4366   8.7618   8.8709

     occupation numbers 
     1.0000   1.0000   1.0000   1.0000   1.0000   1.0000   1.0000   1.0000
     1.0000   1.0000   1.0000   1.0000   1.0000   1.0000   1.0000   1.0000
     1.0000   1.0000   1.0000   1.0000   1.0000   1.0000   1.0000   1.0000
     1.0000   1.0000   1.0000   1.0000   1.0000   1.0000   1.0000   1.0000
     1.0000   1.0000   1.0000   1.0000   1.0000   1.0000   1.0000   1.0000
     1.0000   1.0000   1.0000   1.0000   1.0000   1.0000   1.0000   1.0000
     1.0000   1.0000   1.0000   1.0000   1.0000   1.0000   1.0000   1.0000
     1.0000   1.0000   1.0000   1.0000   1.0000   1.0000   1.0000   1.0000
     1.0000   1.0000   1.0000   1.0000   1.0000   1.0000   1.0000   1.0000
     1.0000   1.0000   1.0000   1.0000   1.0000   1.0000   1.0000   1.0000
     1.0000   1.0000   1.0000   1.0000   1.0000   1.0000   1.0000   1.0000
     1.0000   1.0000   1.0000   1.0000   1.0000   1.0000   1.0000   1.0000
     1.0000   1.0000   1.0000   1.0000   1.0000   1.0000   1.0000   1.0000
     1.0000   1.0000   1.0000   1.0000   1.0000   1.0000   1.0000   1.0000
     1.0000   1.0000   1.0000   1.0000   1.0000   1.0000   1.0000   1.0000
     1.0000   1.0000   1.0000   1.0000   1.0000   1.0000   1.0000   1.0000
     1.0000   1.0000   1.0000   1.0000   1.0000   1.0000   1.0000   1.0000
     1.0000   1.0000   1.0000   1.0000   1.0000   1.0000   1.0000   1.0000
     1.0000   1.0000   1.0000   1.0000   1.0000   1.0000   1.0000   1.0000
     1.0000   1.0000   1.0000   1.0000   0.9999   0.9999   0.9999   0.9998
     0.9998   0.9997   0.9996   0.9996   0.9993   0.9988   0.9987   0.9985
     0.9984   0.9981   0.9975   0.9972   0.9969   0.9961   0.9955   0.9949
     0.9929   0.9919   0.9904   0.9884   0.9856   0.9830   0.9815   0.9801
     0.9781   0.9710   0.9545   0.9435   0.9405   0.9250   0.9143   0.9063
     0.9032   0.8870   0.8746   0.8476   0.8351   0.8285   0.7852   0.7531
     0.7369   0.7270   0.7168   0.7074   0.7037   0.7000   0.6904   0.6795
     0.6782   0.6679   0.6652   0.6598   0.6497   0.6416   0.6380   0.6272
     0.6218   0.6192   0.5989   0.5887   0.5529   0.3350   0.3105   0.2071
     0.0764   0.0487   0.0204   0.0060   0.0050   0.0003   0.0002   0.0001
     0.0000   0.0000   0.0000   0.0000   0.0000   0.0000   0.0000   0.0000
     0.0000   0.0000   0.0000   0.0000   0.0000   0.0000   0.0000   0.0000
     0.0000   0.0000   0.0000   0.0000   0.0000   0.0000   0.0000   0.0000

          k = 0.0000-0.5000 0.0000 ( 65180 PWs)   bands (ev):

   -92.6924 -92.6360 -92.5457 -92.4915 -92.4394 -92.3984 -92.3811 -92.2580
   -56.0457 -56.0224 -55.9033 -55.8930 -55.8804 -55.8798 -55.8411 -55.8151
   -55.7995 -55.7979 -55.7873 -55.7473 -55.7258 -55.6906 -55.6719 -55.6395
   -55.6229 -55.5868 -55.5839 -55.5838 -55.5753 -55.5329 -55.5115 -55.4254
   -31.2689 -31.2494 -31.1252 -31.1087 -31.0408 -31.0214 -30.8651 -30.7517
   -29.8405 -29.7973 -29.7740 -29.6643 -15.0036 -14.9546 -14.9027 -14.7781
   -14.6901 -14.5530 -14.4043 -14.2807 -14.1491 -14.0870 -14.0428 -14.0303
   -13.9830 -13.9638 -13.9171 -13.9009 -13.8728 -13.8367 -13.8127 -13.7692
   -13.5752 -13.5203 -13.5073 -13.4483 -13.4189 -13.3508 -13.3297 -13.2823
   -13.2746 -13.2093 -13.1111 -13.0983 -13.0653 -13.0342 -12.9597 -12.9460
   -12.9204 -12.8741 -12.8673 -12.8428 -12.8124 -12.7624 -12.7345 -12.6998
   -12.6956 -12.6430 -12.5062 -12.4380 -12.3148 -12.3048 -12.2120 -12.1702
   -11.7745 -11.7724 -11.7450 -11.7074 -11.6732 -11.6621 -11.6194 -11.6156
   -11.5710 -11.5092 -11.4952 -11.4809  -2.5853  -2.5256  -2.3742  -2.3019
    -2.0222  -1.9366  -1.8104  -1.6720  -1.6377  -1.6155  -1.5373  -1.5066
    -1.4243  -1.3890  -1.3129  -1.2714  -1.2324  -1.2055  -1.1498  -1.1113
    -1.0657  -1.0298  -0.9954  -0.9616  -0.8514  -0.8061  -0.7736  -0.7721
    -0.6861  -0.6530  -0.6307  -0.5820  -0.4982  -0.4249  -0.3477  -0.3206
    -0.2075  -0.1643  -0.0217   0.0043   0.0394   0.0911   0.2101   0.2666
     0.3999   0.4653   0.4725   0.6022   0.6435   0.7424   0.8813   0.9881
     1.0181   1.0551   1.0598   1.0988   1.1170   1.1539   1.1689   1.1812
     1.2918   1.3525   1.3764   1.4013   1.6616   1.6985   1.7167   1.8164
     1.8354   1.8711   1.8879   1.9172   1.9286   1.9359   1.9699   2.0065
     2.0342   2.0594   2.0731   2.1029   2.1567   2.2369   2.2674   2.4492
     2.6103   2.6213   2.6366   2.6595   2.6740   2.6879   2.7344   2.7523
     2.8060   2.8273   2.8300   2.9120   2.9197   2.9843   3.0081   3.0170
     3.0183   3.0390   3.0451   3.0501   3.0522   3.0596   3.0818   3.0864
     3.1012   3.1520   3.1595   3.1742   3.2270   4.1309   4.1770   4.2138
     4.2603   4.7436   4.9048   5.0375   5.1514   5.4205   5.4710   5.6024
     5.6951   5.9764   6.0459   6.0586   6.6675   6.8648   6.9608   7.2305
     7.3080   7.3108   7.4009   7.4787   7.6693   7.7600   7.8238   7.9185
     8.0980   8.2385   8.3421   8.5070   8.6740   8.7181   8.7958   8.8255

     occupation numbers 
     1.0000   1.0000   1.0000   1.0000   1.0000   1.0000   1.0000   1.0000
     1.0000   1.0000   1.0000   1.0000   1.0000   1.0000   1.0000   1.0000
     1.0000   1.0000   1.0000   1.0000   1.0000   1.0000   1.0000   1.0000
     1.0000   1.0000   1.0000   1.0000   1.0000   1.0000   1.0000   1.0000
     1.0000   1.0000   1.0000   1.0000   1.0000   1.0000   1.0000   1.0000
     1.0000   1.0000   1.0000   1.0000   1.0000   1.0000   1.0000   1.0000
     1.0000   1.0000   1.0000   1.0000   1.0000   1.0000   1.0000   1.0000
     1.0000   1.0000   1.0000   1.0000   1.0000   1.0000   1.0000   1.0000
     1.0000   1.0000   1.0000   1.0000   1.0000   1.0000   1.0000   1.0000
     1.0000   1.0000   1.0000   1.0000   1.0000   1.0000   1.0000   1.0000
     1.0000   1.0000   1.0000   1.0000   1.0000   1.0000   1.0000   1.0000
     1.0000   1.0000   1.0000   1.0000   1.0000   1.0000   1.0000   1.0000
     1.0000   1.0000   1.0000   1.0000   1.0000   1.0000   1.0000   1.0000
     1.0000   1.0000   1.0000   1.0000   1.0000   1.0000   1.0000   1.0000
     1.0000   1.0000   1.0000   1.0000   1.0000   1.0000   1.0000   1.0000
     1.0000   1.0000   1.0000   1.0000   1.0000   1.0000   1.0000   1.0000
     1.0000   1.0000   1.0000   1.0000   1.0000   1.0000   1.0000   1.0000
     1.0000   1.0000   1.0000   1.0000   1.0000   1.0000   1.0000   1.0000
     1.0000   1.0000   1.0000   1.0000   1.0000   1.0000   1.0000   1.0000
     1.0000   1.0000   1.0000   1.0000   1.0000   0.9999   0.9999   0.9998
     0.9997   0.9996   0.9996   0.9996   0.9995   0.9994   0.9994   0.9993
     0.9988   0.9984   0.9982   0.9980   0.9935   0.9925   0.9919   0.9880
     0.9870   0.9852   0.9842   0.9824   0.9816   0.9812   0.9787   0.9758
     0.9733   0.9709   0.9696   0.9664   0.9600   0.9486   0.9436   0.9059
     0.8592   0.8555   0.8503   0.8422   0.8370   0.8319   0.8139   0.8067
     0.7841   0.7747   0.7735   0.7353   0.7315   0.6990   0.6866   0.6818
     0.6812   0.6701   0.6668   0.6641   0.6630   0.6589   0.6468   0.6442
     0.6360   0.6074   0.6031   0.5946   0.5639   0.1188   0.1057   0.0961
     0.0848   0.0183   0.0099   0.0057   0.0035   0.0010   0.0008   0.0004
     0.0002   0.0000   0.0000   0.0000   0.0000   0.0000   0.0000   0.0000
     0.0000   0.0000   0.0000   0.0000   0.0000   0.0000   0.0000   0.0000
     0.0000   0.0000   0.0000   0.0000   0.0000   0.0000   0.0000   0.0000

          k = 0.2500 0.2500 0.0000 ( 65198 PWs)   bands (ev):

   -92.6924 -92.6360 -92.5457 -92.4915 -92.4394 -92.3984 -92.3811 -92.2580
   -56.0457 -56.0224 -55.9033 -55.8930 -55.8804 -55.8798 -55.8411 -55.8151
   -55.7995 -55.7979 -55.7873 -55.7473 -55.7258 -55.6906 -55.6719 -55.6395
   -55.6229 -55.5868 -55.5839 -55.5838 -55.5753 -55.5329 -55.5115 -55.4254
   -31.2674 -31.2512 -31.1255 -31.1082 -31.0403 -31.0217 -30.8655 -30.7516
   -29.8402 -29.7986 -29.7729 -29.6644 -15.0082 -14.9731 -14.8986 -14.7810
   -14.6662 -14.5406 -14.4644 -14.2628 -14.1022 -14.0900 -14.0555 -14.0256
   -14.0038 -13.9785 -13.9480 -13.9273 -13.8352 -13.8195 -13.6569 -13.6442
   -13.6149 -13.5929 -13.5580 -13.5041 -13.4550 -13.4185 -13.3148 -13.2872
   -13.2217 -13.1351 -13.0963 -13.0751 -13.0403 -13.0115 -12.9942 -12.9527
   -12.9383 -12.9176 -12.8856 -12.8525 -12.8091 -12.7724 -12.7358 -12.7128
   -12.7058 -12.6922 -12.5246 -12.4438 -12.4159 -12.2687 -12.1338 -12.0944
   -11.7930 -11.7610 -11.7504 -11.7434 -11.6806 -11.6458 -11.6391 -11.6038
   -11.5962 -11.5040 -11.4629 -11.4453  -2.6617  -2.4517  -2.3345  -2.2406
    -2.1190  -2.0534  -1.8572  -1.7114  -1.6913  -1.6636  -1.5685  -1.5344
    -1.4411  -1.4135  -1.3634  -1.2317  -1.1842  -1.1123  -1.0668  -1.0228
    -0.9986  -0.9733  -0.9318  -0.9157  -0.8257  -0.7759  -0.7128  -0.6628
    -0.6324  -0.5808  -0.5686  -0.5056  -0.4563  -0.4046  -0.3647  -0.2826
    -0.2271  -0.1996  -0.1589  -0.1044  -0.0328   0.0065   0.0293   0.1028
     0.1391   0.4128   0.5588   0.5976   0.6508   0.6947   0.7458   0.8028
     0.8651   0.9024   1.1747   1.2444   1.3185   1.3457   1.3892   1.4249
     1.4590   1.4961   1.5139   1.5420   1.5833   1.5922   1.6091   1.6499
     1.6918   1.7312   1.7867   1.8271   1.8325   1.8686   1.9031   1.9544
     1.9832   2.1005   2.1768   2.2151   2.2423   2.3002   2.3743   2.4020
     2.4373   2.4589   2.4754   2.5840   2.6215   2.7098   2.8408   2.8876
     2.9030   2.9091   2.9234   2.9392   2.9509   2.9651   2.9734   2.9854
     2.9945   3.0071   3.0259   3.0314   3.0441   3.0644   3.0784   3.0871
     3.1180   3.4197   3.5165   3.5518   3.6183   3.6947   3.8585   3.9627
     4.3072   4.5388   4.7228   4.9813   5.1755   5.6488   5.6835   5.7504
     5.8449   5.9020   5.9782   6.1747   6.2282   6.7400   6.9045   7.0368
     7.0885   7.5614   7.6106   7.6720   7.7207   7.8762   7.9344   8.0822
     8.1600   8.2148   8.2686   8.3169   8.4445   8.4593   8.5441   8.8483

     occupation numbers 
     1.0000   1.0000   1.0000   1.0000   1.0000   1.0000   1.0000   1.0000
     1.0000   1.0000   1.0000   1.0000   1.0000   1.0000   1.0000   1.0000
     1.0000   1.0000   1.0000   1.0000   1.0000   1.0000   1.0000   1.0000
     1.0000   1.0000   1.0000   1.0000   1.0000   1.0000   1.0000   1.0000
     1.0000   1.0000   1.0000   1.0000   1.0000   1.0000   1.0000   1.0000
     1.0000   1.0000   1.0000   1.0000   1.0000   1.0000   1.0000   1.0000
     1.0000   1.0000   1.0000   1.0000   1.0000   1.0000   1.0000   1.0000
     1.0000   1.0000   1.0000   1.0000   1.0000   1.0000   1.0000   1.0000
     1.0000   1.0000   1.0000   1.0000   1.0000   1.0000   1.0000   1.0000
     1.0000   1.0000   1.0000   1.0000   1.0000   1.0000   1.0000   1.0000
     1.0000   1.0000   1.0000   1.0000   1.0000   1.0000   1.0000   1.0000
     1.0000   1.0000   1.0000   1.0000   1.0000   1.0000   1.0000   1.0000
     1.0000   1.0000   1.0000   1.0000   1.0000   1.0000   1.0000   1.0000
     1.0000   1.0000   1.0000   1.0000   1.0000   1.0000   1.0000   1.0000
     1.0000   1.0000   1.0000   1.0000   1.0000   1.0000   1.0000   1.0000
     1.0000   1.0000   1.0000   1.0000   1.0000   1.0000   1.0000   1.0000
     1.0000   1.0000   1.0000   1.0000   1.0000   1.0000   1.0000   1.0000
     1.0000   1.0000   1.0000   1.0000   1.0000   1.0000   1.0000   1.0000
     1.0000   1.0000   1.0000   1.0000   1.0000   1.0000   1.0000   1.0000
     1.0000   1.0000   1.0000   1.0000   1.0000   1.0000   0.9999   0.9999
     0.9999   0.9998   0.9993   0.9990   0.9986   0.9984   0.9981   0.9977
     0.9973   0.9968   0.9966   0.9961   0.9954   0.9952   0.9948   0.9938
     0.9927   0.9914   0.9893   0.9874   0.9872   0.9853   0.9833   0.9799
     0.9777   0.9667   0.9573   0.9519   0.9477   0.9379   0.9233   0.9171
     0.9089   0.9035   0.8992   0.8678   0.8555   0.8236   0.7687   0.7470
     0.7396   0.7366   0.7297   0.7219   0.7160   0.7088   0.7046   0.6984
     0.6937   0.6871   0.6771   0.6742   0.6674   0.6563   0.6486   0.6439
     0.6266   0.4502   0.3940   0.3740   0.3373   0.2969   0.2187   0.1758
     0.0745   0.0370   0.0197   0.0073   0.0031   0.0003   0.0002   0.0002
     0.0001   0.0001   0.0000   0.0000   0.0000   0.0000   0.0000   0.0000
     0.0000   0.0000   0.0000   0.0000   0.0000   0.0000   0.0000   0.0000
     0.0000   0.0000   0.0000   0.0000   0.0000   0.0000   0.0000   0.0000

          k = 0.2500-0.5000 0.0000 ( 65138 PWs)   bands (ev):

   -92.6924 -92.6360 -92.5457 -92.4915 -92.4394 -92.3984 -92.3811 -92.2580
   -56.0457 -56.0224 -55.9033 -55.8930 -55.8804 -55.8798 -55.8411 -55.8151
   -55.7995 -55.7979 -55.7873 -55.7473 -55.7258 -55.6906 -55.6719 -55.6395
   -55.6229 -55.5868 -55.5839 -55.5838 -55.5753 -55.5329 -55.5115 -55.4254
   -31.2672 -31.2511 -31.1251 -31.1084 -31.0407 -31.0218 -30.8652 -30.7519
   -29.8395 -29.7982 -29.7736 -29.6647 -14.9731 -14.9276 -14.8594 -14.7471
   -14.7141 -14.5932 -14.5069 -14.3778 -14.0661 -14.0182 -13.9889 -13.9680
   -13.9517 -13.9356 -13.9026 -13.8892 -13.8544 -13.8120 -13.7971 -13.7609
   -13.6582 -13.6092 -13.5757 -13.5301 -13.4754 -13.4576 -13.3695 -13.3436
   -13.1982 -13.1338 -13.1167 -13.0527 -13.0202 -13.0109 -12.9787 -12.9593
   -12.9347 -12.9038 -12.8647 -12.8418 -12.8135 -12.7795 -12.7441 -12.7054
   -12.6468 -12.6151 -12.5129 -12.4168 -12.3123 -12.2789 -12.2032 -12.1734
   -11.7684 -11.7566 -11.7455 -11.7184 -11.6869 -11.6586 -11.6173 -11.5896
   -11.5674 -11.5222 -11.4963 -11.4850  -2.4439  -2.3775  -2.2482  -2.1707
    -2.0427  -1.9571  -1.8349  -1.6838  -1.6313  -1.6083  -1.5453  -1.5322
    -1.4351  -1.3683  -1.2827  -1.2345  -1.2248  -1.1608  -1.1196  -1.0837
    -1.0372  -1.0002  -0.9652  -0.9247  -0.9142  -0.8684  -0.8396  -0.7988
    -0.7678  -0.6999  -0.6007  -0.5588  -0.4818  -0.4174  -0.3712  -0.3255
    -0.3030  -0.2545  -0.0896  -0.0789   0.0168   0.0616   0.0672   0.1124
     0.1429   0.1822   0.2101   0.2824   0.5475   0.6414   0.7083   0.7681
     1.0334   1.0604   1.1482   1.1745   1.3415   1.3732   1.4180   1.4406
     1.4568   1.4773   1.5375   1.5820   1.6197   1.6979   1.7872   1.8301
     1.8495   1.8575   1.8978   1.9116   1.9135   1.9583   1.9725   1.9928
     2.0167   2.0390   2.0646   2.0951   2.1550   2.1925   2.2710   2.4116
     2.5629   2.5769   2.5969   2.6229   2.6500   2.6694   2.6993   2.7035
     2.7290   2.8328   2.8617   2.8944   2.9031   2.9160   2.9211   2.9422
     2.9553   2.9738   2.9814   3.0118   3.0242   3.0396   3.0485   3.0565
     3.0696   3.5963   3.6121   3.7517   3.8006   4.1524   4.1882   4.2308
     4.3205   4.7626   4.9280   5.0729   5.1297   5.3144   5.4390   5.6025
     5.6241   5.7743   5.7988   6.0879   6.4034   6.4927   6.5866   6.9461
     7.4397   7.5130   7.6959   7.7156   7.8201   7.8874   8.0479   8.1179
     8.2857   8.3855   8.4156   8.5234   8.5352   8.5754   8.7196   8.7721

     occupation numbers 
     1.0000   1.0000   1.0000   1.0000   1.0000   1.0000   1.0000   1.0000
     1.0000   1.0000   1.0000   1.0000   1.0000   1.0000   1.0000   1.0000
     1.0000   1.0000   1.0000   1.0000   1.0000   1.0000   1.0000   1.0000
     1.0000   1.0000   1.0000   1.0000   1.0000   1.0000   1.0000   1.0000
     1.0000   1.0000   1.0000   1.0000   1.0000   1.0000   1.0000   1.0000
     1.0000   1.0000   1.0000   1.0000   1.0000   1.0000   1.0000   1.0000
     1.0000   1.0000   1.0000   1.0000   1.0000   1.0000   1.0000   1.0000
     1.0000   1.0000   1.0000   1.0000   1.0000   1.0000   1.0000   1.0000
     1.0000   1.0000   1.0000   1.0000   1.0000   1.0000   1.0000   1.0000
     1.0000   1.0000   1.0000   1.0000   1.0000   1.0000   1.0000   1.0000
     1.0000   1.0000   1.0000   1.0000   1.0000   1.0000   1.0000   1.0000
     1.0000   1.0000   1.0000   1.0000   1.0000   1.0000   1.0000   1.0000
     1.0000   1.0000   1.0000   1.0000   1.0000   1.0000   1.0000   1.0000
     1.0000   1.0000   1.0000   1.0000   1.0000   1.0000   1.0000   1.0000
     1.0000   1.0000   1.0000   1.0000   1.0000   1.0000   1.0000   1.0000
     1.0000   1.0000   1.0000   1.0000   1.0000   1.0000   1.0000   1.0000
     1.0000   1.0000   1.0000   1.0000   1.0000   1.0000   1.0000   1.0000
     1.0000   1.0000   1.0000   1.0000   1.0000   1.0000   1.0000   1.0000
     1.0000   1.0000   1.0000   1.0000   1.0000   1.0000   1.0000   1.0000
     1.0000   1.0000   1.0000   1.0000   1.0000   1.0000   1.0000   0.9999
     0.9997   0.9996   0.9994   0.9993   0.9985   0.9982   0.9978   0.9976
     0.9974   0.9971   0.9962   0.9954   0.9946   0.9925   0.9892   0.9873
     0.9863   0.9859   0.9836   0.9828   0.9826   0.9796   0.9785   0.9769
     0.9749   0.9729   0.9704   0.9673   0.9602   0.9552   0.9430   0.9149
     0.8743   0.8700   0.8636   0.8550   0.8456   0.8387   0.8276   0.8260
     0.8161   0.7723   0.7591   0.7437   0.7396   0.7333   0.7308   0.7204
     0.7138   0.7044   0.7005   0.6846   0.6780   0.6698   0.6650   0.6606
     0.6535   0.3493   0.3406   0.2683   0.2449   0.1126   0.1027   0.0919
     0.0718   0.0170   0.0090   0.0049   0.0039   0.0016   0.0009   0.0004
     0.0003   0.0001   0.0001   0.0000   0.0000   0.0000   0.0000   0.0000
     0.0000   0.0000   0.0000   0.0000   0.0000   0.0000   0.0000   0.0000
     0.0000   0.0000   0.0000   0.0000   0.0000   0.0000   0.0000   0.0000

          k =-0.5000-0.5000 0.0000 ( 65132 PWs)   bands (ev):

   -92.6924 -92.6360 -92.5457 -92.4915 -92.4394 -92.3984 -92.3811 -92.2580
   -56.0457 -56.0224 -55.9033 -55.8930 -55.8804 -55.8798 -55.8411 -55.8151
   -55.7995 -55.7979 -55.7873 -55.7473 -55.7258 -55.6906 -55.6719 -55.6395
   -55.6229 -55.5868 -55.5839 -55.5838 -55.5753 -55.5329 -55.5115 -55.4254
   -31.2651 -31.2532 -31.1250 -31.1080 -31.0406 -31.0222 -30.8654 -30.7520
   -29.8385 -29.7993 -29.7732 -29.6651 -14.9268 -14.9002 -14.7833 -14.7716
   -14.6803 -14.6400 -14.6114 -14.4774 -13.9790 -13.9668 -13.9320 -13.9140
   -13.8948 -13.8870 -13.8527 -13.8440 -13.8313 -13.8223 -13.8071 -13.7276
   -13.7183 -13.6969 -13.6696 -13.6556 -13.5519 -13.5422 -13.4075 -13.3967
   -13.1490 -13.1141 -13.0429 -13.0245 -13.0173 -12.9936 -12.9761 -12.9679
   -12.9596 -12.9453 -12.8529 -12.8345 -12.8157 -12.8029 -12.7531 -12.7167
   -12.5963 -12.5889 -12.5293 -12.3972 -12.3088 -12.2503 -12.1967 -12.1772
   -11.7648 -11.7528 -11.7349 -11.7180 -11.6834 -11.6652 -11.6311 -11.5698
   -11.5498 -11.5443 -11.4941 -11.4908  -2.2208  -2.1440  -2.1321  -2.0616
    -2.0225  -1.9441  -1.8764  -1.7514  -1.6339  -1.6032  -1.5660  -1.5074
    -1.4359  -1.4216  -1.3503  -1.3079  -1.1917  -1.1634  -1.1155  -1.0839
    -1.0200  -0.9753  -0.9563  -0.9442  -0.8926  -0.8448  -0.8323  -0.7182
    -0.6606  -0.6139  -0.5641  -0.5401  -0.5293  -0.4915  -0.4490  -0.4167
    -0.4035  -0.3168  -0.2504  -0.2024  -0.1799  -0.1042  -0.0527  -0.0316
     0.0202   0.0364   0.0556   0.0672   0.5161   0.5608   0.6573   0.6756
     1.0674   1.0792   1.1120   1.1501   1.4252   1.4449   1.4518   1.4886
     1.6225   1.7187   1.7453   1.7812   1.7962   1.8224   1.8307   1.8641
     1.8739   1.8894   1.8966   1.9504   1.9562   1.9822   2.0079   2.0127
     2.0325   2.0686   2.0956   2.1031   2.1391   2.1631   2.2378   2.3047
     2.5639   2.6048   2.6224   2.6461   2.6495   2.6835   2.6884   2.7055
     2.7177   2.7344   2.7573   2.7693   2.8295   2.8378   2.8511   2.8599
     2.8842   2.9012   2.9070   2.9174   2.9316   3.0198   3.0249   3.0525
     3.0621   4.0030   4.0344   4.0732   4.1476   4.3268   4.3987   4.4272
     4.6678   4.7891   4.8728   5.0024   5.0850   5.0940   5.2122   5.3188
     5.3762   5.8611   5.8948   5.9758   6.0307   6.3333   6.4906   6.5248
     7.7002   7.8091   7.8591   7.8831   7.9253   7.9861   8.0220   8.0928
     8.2703   8.2906   8.4966   8.5891   8.6150   8.6251   8.6507   8.6703

     occupation numbers 
     1.0000   1.0000   1.0000   1.0000   1.0000   1.0000   1.0000   1.0000
     1.0000   1.0000   1.0000   1.0000   1.0000   1.0000   1.0000   1.0000
     1.0000   1.0000   1.0000   1.0000   1.0000   1.0000   1.0000   1.0000
     1.0000   1.0000   1.0000   1.0000   1.0000   1.0000   1.0000   1.0000
     1.0000   1.0000   1.0000   1.0000   1.0000   1.0000   1.0000   1.0000
     1.0000   1.0000   1.0000   1.0000   1.0000   1.0000   1.0000   1.0000
     1.0000   1.0000   1.0000   1.0000   1.0000   1.0000   1.0000   1.0000
     1.0000   1.0000   1.0000   1.0000   1.0000   1.0000   1.0000   1.0000
     1.0000   1.0000   1.0000   1.0000   1.0000   1.0000   1.0000   1.0000
     1.0000   1.0000   1.0000   1.0000   1.0000   1.0000   1.0000   1.0000
     1.0000   1.0000   1.0000   1.0000   1.0000   1.0000   1.0000   1.0000
     1.0000   1.0000   1.0000   1.0000   1.0000   1.0000   1.0000   1.0000
     1.0000   1.0000   1.0000   1.0000   1.0000   1.0000   1.0000   1.0000
     1.0000   1.0000   1.0000   1.0000   1.0000   1.0000   1.0000   1.0000
     1.0000   1.0000   1.0000   1.0000   1.0000   1.0000   1.0000   1.0000
     1.0000   1.0000   1.0000   1.0000   1.0000   1.0000   1.0000   1.0000
     1.0000   1.0000   1.0000   1.0000   1.0000   1.0000   1.0000   1.0000
     1.0000   1.0000   1.0000   1.0000   1.0000   1.0000   1.0000   1.0000
     1.0000   1.0000   1.0000   1.0000   1.0000   1.0000   1.0000   1.0000
     1.0000   1.0000   1.0000   1.0000   1.0000   1.0000   1.0000   1.0000
     0.9996   0.9996   0.9995   0.9994   0.9977   0.9975   0.9974   0.9970
     0.9945   0.9918   0.9909   0.9895   0.9889   0.9877   0.9873   0.9855
     0.9850   0.9841   0.9837   0.9801   0.9797   0.9778   0.9757   0.9752
     0.9735   0.9700   0.9672   0.9664   0.9622   0.9591   0.9484   0.9371
     0.8740   0.8610   0.8551   0.8470   0.8458   0.8335   0.8317   0.8252
     0.8205   0.8139   0.8047   0.7997   0.7738   0.7701   0.7640   0.7600
[...]
     0.7441   0.7256   0.7193   0.7149   0.7050   0.6990   0.6918   0.6803
     0.6766   0.6647   0.6568   0.6542   0.6467   0.6337   0.6219   0.6194
     0.6146   0.6107   0.6051   0.5996   0.5179   0.3510   0.3208   0.2052
     0.0808   0.0435   0.0217   0.0060   0.0050   0.0003   0.0001   0.0001
     0.0000   0.0000   0.0000   0.0000   0.0000   0.0000   0.0000   0.0000
     0.0000   0.0000   0.0000   0.0000   0.0000   0.0000   0.0000   0.0000
     0.0000   0.0000   0.0000   0.0000   0.0000   0.0000   0.0000   0.0000

          k =-0.5000 0.0000 0.0000 ( 65180 PWs)   bands (ev):

   -92.6924 -92.6360 -92.5457 -92.4915 -92.4394 -92.3984 -92.3811 -92.2580
   -56.0457 -56.0224 -55.9033 -55.8930 -55.8804 -55.8798 -55.8411 -55.8151
   -55.7995 -55.7979 -55.7873 -55.7473 -55.7258 -55.6906 -55.6719 -55.6395
   -55.6229 -55.5868 -55.5839 -55.5838 -55.5753 -55.5329 -55.5115 -55.4254
   -31.2655 -31.2535 -31.1257 -31.1076 -31.0399 -31.0219 -30.8659 -30.7514
   -29.8398 -29.7999 -29.7719 -29.6644 -15.0075 -14.9579 -14.8961 -14.7915
   -14.6817 -14.5392 -14.3949 -14.2602 -14.1271 -14.1208 -14.0998 -14.0447
   -13.9846 -13.9525 -13.9081 -13.9023 -13.8874 -13.8315 -13.8253 -13.7213
   -13.5462 -13.5327 -13.4871 -13.4795 -13.4341 -13.3564 -13.3217 -13.2596
   -13.2405 -13.2358 -13.1122 -13.0460 -13.0357 -13.0152 -13.0058 -13.0021
   -12.9401 -12.9267 -12.9198 -12.9011 -12.7928 -12.7017 -12.6684 -12.6649
   -12.6317 -12.6223 -12.5323 -12.4900 -12.3597 -12.3187 -12.1916 -12.1541
   -11.7720 -11.7508 -11.7438 -11.7287 -11.7108 -11.6694 -11.6068 -11.5894
   -11.5570 -11.5113 -11.5020 -11.4862  -2.5751  -2.5363  -2.3718  -2.3330
    -2.0202  -1.9460  -1.7954  -1.6787  -1.6394  -1.5950  -1.5458  -1.5202
    -1.3980  -1.3530  -1.3390  -1.2558  -1.2205  -1.2072  -1.1732  -1.1169
    -1.0482  -1.0175  -0.9916  -0.8963  -0.8475  -0.7990  -0.7659  -0.7445
    -0.7165  -0.6667  -0.6426  -0.6037  -0.5106  -0.4342  -0.3740  -0.3096
    -0.1450  -0.1103  -0.0483  -0.0253   0.0442   0.0590   0.1943   0.2266
     0.2671   0.4484   0.5468   0.5927   0.6651   0.7383   0.8625   0.8746
     1.0124   1.0365   1.0893   1.1118   1.1538   1.1682   1.2108   1.2373
     1.3029   1.3502   1.3979   1.4045   1.6997   1.7091   1.7298   1.7466
     1.8611   1.8728   1.8832   1.8982   1.9245   1.9351   1.9716   2.0033
     2.0250   2.0852   2.0939   2.1465   2.1608   2.2269   2.3281   2.4363
     2.5051   2.5234   2.5895   2.6350   2.6596   2.7285   2.7358   2.7463
     2.7742   2.8242   2.8677   2.8907   2.9339   2.9776   3.0081   3.0121
     3.0129   3.0283   3.0388   3.0511   3.0667   3.0716   3.0949   3.1036
     3.1191   3.1378   3.1426   3.2727   3.2955   4.0662   4.1265   4.1909
     4.3794   4.7991   4.8718   5.0326   5.0639   5.4925   5.5250   5.5915
     5.6618   5.9355   6.0412   6.0666   6.7021   6.8102   7.0115   7.2902
     7.2994   7.3281   7.3988   7.4683   7.5428   7.7527   7.7869   7.8970
     8.1342   8.2435   8.4160   8.5373   8.6361   8.7088   8.7700   8.8220

     occupation numbers 
     1.0000   1.0000   1.0000   1.0000   1.0000   1.0000   1.0000   1.0000
     1.0000   1.0000   1.0000   1.0000   1.0000   1.0000   1.0000   1.0000
     1.0000   1.0000   1.0000   1.0000   1.0000   1.0000   1.0000   1.0000
     1.0000   1.0000   1.0000   1.0000   1.0000   1.0000   1.0000   1.0000
     1.0000   1.0000   1.0000   1.0000   1.0000   1.0000   1.0000   1.0000
     1.0000   1.0000   1.0000   1.0000   1.0000   1.0000   1.0000   1.0000
     1.0000   1.0000   1.0000   1.0000   1.0000   1.0000   1.0000   1.0000
     1.0000   1.0000   1.0000   1.0000   1.0000   1.0000   1.0000   1.0000
     1.0000   1.0000   1.0000   1.0000   1.0000   1.0000   1.0000   1.0000
     1.0000   1.0000   1.0000   1.0000   1.0000   1.0000   1.0000   1.0000
     1.0000   1.0000   1.0000   1.0000   1.0000   1.0000   1.0000   1.0000
     1.0000   1.0000   1.0000   1.0000   1.0000   1.0000   1.0000   1.0000
     1.0000   1.0000   1.0000   1.0000   1.0000   1.0000   1.0000   1.0000
     1.0000   1.0000   1.0000   1.0000   1.0000   1.0000   1.0000   1.0000
     1.0000   1.0000   1.0000   1.0000   1.0000   1.0000   1.0000   1.0000
     1.0000   1.0000   1.0000   1.0000   1.0000   1.0000   1.0000   1.0000
     1.0000   1.0000   1.0000   1.0000   1.0000   1.0000   1.0000   1.0000
     1.0000   1.0000   1.0000   1.0000   1.0000   1.0000   1.0000   1.0000
     1.0000   1.0000   1.0000   1.0000   1.0000   1.0000   1.0000   1.0000
     1.0000   1.0000   1.0000   1.0000   1.0000   0.9999   0.9999   0.9999
     0.9997   0.9997   0.9996   0.9995   0.9994   0.9994   0.9992   0.9991
     0.9987   0.9984   0.9980   0.9979   0.9924   0.9921   0.9914   0.9908
     0.9857   0.9851   0.9845   0.9836   0.9819   0.9812   0.9786   0.9760
     0.9742   0.9683   0.9674   0.9613   0.9594   0.9501   0.9326   0.9091
     0.8912   0.8860   0.8660   0.8508   0.8422   0.8163   0.8134   0.8092
     0.7977   0.7761   0.7563   0.7455   0.7245   0.7024   0.6866   0.6845
     0.6840   0.6758   0.6702   0.6635   0.6551   0.6524   0.6395   0.6347
     0.6260   0.6154   0.6127   0.5371   0.5237   0.1389   0.1201   0.1020
     0.0606   0.0149   0.0113   0.0059   0.0051   0.0007   0.0006   0.0004
     0.0003   0.0001   0.0000   0.0000   0.0000   0.0000   0.0000   0.0000
     0.0000   0.0000   0.0000   0.0000   0.0000   0.0000   0.0000   0.0000
     0.0000   0.0000   0.0000   0.0000   0.0000   0.0000   0.0000   0.0000

          k =-0.2500 0.2500 0.0000 ( 65198 PWs)   bands (ev):

   -92.6924 -92.6360 -92.5457 -92.4915 -92.4394 -92.3984 -92.3811 -92.2580
   -56.0457 -56.0224 -55.9033 -55.8930 -55.8804 -55.8798 -55.8411 -55.8151
   -55.7995 -55.7979 -55.7873 -55.7473 -55.7258 -55.6906 -55.6719 -55.6395
   -55.6229 -55.5868 -55.5839 -55.5838 -55.5753 -55.5329 -55.5115 -55.4254
   -31.2674 -31.2512 -31.1255 -31.1082 -31.0403 -31.0217 -30.8655 -30.7516
   -29.8402 -29.7986 -29.7729 -29.6644 -15.0096 -14.9720 -14.8971 -14.7790
   -14.6728 -14.5450 -14.4563 -14.2541 -14.1098 -14.0790 -14.0688 -14.0208
   -13.9969 -13.9793 -13.9671 -13.9264 -13.8316 -13.8201 -13.6647 -13.6407
   -13.6134 -13.5908 -13.5594 -13.4903 -13.4472 -13.4274 -13.3198 -13.2910
   -13.2154 -13.1386 -13.0985 -13.0654 -13.0323 -13.0077 -12.9858 -12.9608
   -12.9330 -12.9212 -12.9110 -12.8578 -12.8213 -12.7628 -12.7556 -12.7086
   -12.6922 -12.6821 -12.5044 -12.4370 -12.4335 -12.2744 -12.1370 -12.0899
   -11.7922 -11.7705 -11.7433 -11.7312 -11.6903 -11.6556 -11.6324 -11.6111
   -11.5883 -11.5038 -11.4581 -11.4487  -2.6601  -2.4507  -2.3302  -2.2424
    -2.1232  -2.0561  -1.8548  -1.7081  -1.6891  -1.6617  -1.5690  -1.5333
    -1.4408  -1.4071  -1.3809  -1.2373  -1.1824  -1.1152  -1.0862  -1.0265
    -1.0040  -0.9636  -0.9345  -0.8947  -0.8322  -0.7850  -0.7245  -0.6540
    -0.6284  -0.5759  -0.5476  -0.5027  -0.4470  -0.4071  -0.3593  -0.2636
    -0.2280  -0.2184  -0.1726  -0.1059  -0.0341   0.0091   0.0361   0.1042
     0.1378   0.3946   0.5600   0.6061   0.6423   0.7002   0.7458   0.8052
     0.8716   0.9006   1.1823   1.2954   1.3345   1.3667   1.3741   1.4170
     1.4353   1.4779   1.5090   1.5249   1.5509   1.5924   1.6060   1.6517
     1.6664   1.7124   1.7996   1.8173   1.8324   1.8733   1.8998   1.9370
     1.9893   2.0912   2.2062   2.2385   2.2820   2.3034   2.3711   2.4135
     2.4396   2.4619   2.4845   2.5846   2.6203   2.7105   2.8413   2.8913
     2.9033   2.9134   2.9237   2.9345   2.9488   2.9539   2.9721   2.9861
     2.9966   3.0055   3.0177   3.0274   3.0334   3.0658   3.0778   3.0860
     3.1199   3.4126   3.4960   3.5569   3.6376   3.6880   3.8431   3.9712
     4.3063   4.5383   4.7230   4.9917   5.1755   5.6510   5.6796   5.7525
     5.8430   5.9033   5.9816   6.1771   6.2221   6.7223   6.9025   7.0355
     7.1187   7.5752   7.6190   7.6690   7.6895   7.8827   7.9097   8.1124
     8.1370   8.2256   8.2705   8.3237   8.4516   8.4700   8.5174   8.8553

     occupation numbers 
     1.0000   1.0000   1.0000   1.0000   1.0000   1.0000   1.0000   1.0000
     1.0000   1.0000   1.0000   1.0000   1.0000   1.0000   1.0000   1.0000
     1.0000   1.0000   1.0000   1.0000   1.0000   1.0000   1.0000   1.0000
     1.0000   1.0000   1.0000   1.0000   1.0000   1.0000   1.0000   1.0000
     1.0000   1.0000   1.0000   1.0000   1.0000   1.0000   1.0000   1.0000
     1.0000   1.0000   1.0000   1.0000   1.0000   1.0000   1.0000   1.0000
     1.0000   1.0000   1.0000   1.0000   1.0000   1.0000   1.0000   1.0000
     1.0000   1.0000   1.0000   1.0000   1.0000   1.0000   1.0000   1.0000
     1.0000   1.0000   1.0000   1.0000   1.0000   1.0000   1.0000   1.0000
     1.0000   1.0000   1.0000   1.0000   1.0000   1.0000   1.0000   1.0000
     1.0000   1.0000   1.0000   1.0000   1.0000   1.0000   1.0000   1.0000
     1.0000   1.0000   1.0000   1.0000   1.0000   1.0000   1.0000   1.0000
     1.0000   1.0000   1.0000   1.0000   1.0000   1.0000   1.0000   1.0000
     1.0000   1.0000   1.0000   1.0000   1.0000   1.0000   1.0000   1.0000
     1.0000   1.0000   1.0000   1.0000   1.0000   1.0000   1.0000   1.0000
     1.0000   1.0000   1.0000   1.0000   1.0000   1.0000   1.0000   1.0000
     1.0000   1.0000   1.0000   1.0000   1.0000   1.0000   1.0000   1.0000
     1.0000   1.0000   1.0000   1.0000   1.0000   1.0000   1.0000   1.0000
     1.0000   1.0000   1.0000   1.0000   1.0000   1.0000   1.0000   1.0000
     1.0000   1.0000   1.0000   1.0000   1.0000   1.0000   0.9999   0.9999
     0.9999   0.9999   0.9993   0.9988   0.9985   0.9983   0.9982   0.9978
     0.9976   0.9971   0.9967   0.9964   0.9960   0.9952   0.9949   0.9938
     0.9934   0.9920   0.9887   0.9879   0.9872   0.9850   0.9835   0.9811
     0.9772   0.9677   0.9532   0.9483   0.9411   0.9373   0.9239   0.9145
     0.9083   0.9027   0.8968   0.8676   0.8559   0.8233   0.7685   0.7452
     0.7394   0.7346   0.7295   0.7242   0.7171   0.7145   0.7052   0.6980
     0.6926   0.6879   0.6815   0.6763   0.6731   0.6555   0.6490   0.6445
     0.6256   0.4544   0.4058   0.3711   0.3268   0.3003   0.2255   0.1726
     0.0747   0.0370   0.0197   0.0070   0.0031   0.0003   0.0002   0.0002
     0.0001   0.0001   0.0000   0.0000   0.0000   0.0000   0.0000   0.0000
     0.0000   0.0000   0.0000   0.0000   0.0000   0.0000   0.0000   0.0000
     0.0000   0.0000   0.0000   0.0000   0.0000   0.0000   0.0000   0.0000

          k =-0.5000 0.2500 0.0000 ( 65138 PWs)   bands (ev):

   -92.6924 -92.6360 -92.5457 -92.4915 -92.4394 -92.3984 -92.3811 -92.2580
   -56.0457 -56.0224 -55.9033 -55.8930 -55.8804 -55.8798 -55.8411 -55.8151
   -55.7995 -55.7979 -55.7873 -55.7473 -55.7258 -55.6906 -55.6719 -55.6395
   -55.6229 -55.5868 -55.5839 -55.5838 -55.5753 -55.5329 -55.5115 -55.4254
   -31.2653 -31.2533 -31.1254 -31.1078 -31.0402 -31.0220 -30.8656 -30.7517
   -29.8391 -29.7996 -29.7726 -29.6648 -14.9749 -14.9313 -14.8530 -14.7567
   -14.7120 -14.5855 -14.4999 -14.3741 -14.0607 -14.0302 -14.0178 -13.9719
   -13.9548 -13.9253 -13.8948 -13.8877 -13.8641 -13.8270 -13.8118 -13.7113
   -13.6294 -13.5915 -13.5797 -13.5687 -13.4898 -13.4606 -13.3641 -13.3237
   -13.1915 -13.1567 -13.0708 -13.0549 -13.0189 -13.0076 -12.9915 -12.9622
   -12.9434 -12.9314 -12.9217 -12.8625 -12.8031 -12.7413 -12.7120 -12.6948
   -12.6136 -12.6059 -12.5305 -12.4376 -12.3142 -12.3071 -12.1887 -12.1652
   -11.7648 -11.7520 -11.7379 -11.7261 -11.7046 -11.6742 -11.5941 -11.5852
   -11.5622 -11.5257 -11.4977 -11.4887  -2.4330  -2.3908  -2.2416  -2.1997
    -2.0394  -1.9648  -1.8198  -1.6851  -1.6287  -1.6015  -1.5618  -1.5228
    -1.4427  -1.3277  -1.2706  -1.2474  -1.2228  -1.1472  -1.1170  -1.0794
    -1.0610  -1.0003  -0.9730  -0.9323  -0.8970  -0.8683  -0.8111  -0.7844
    -0.7426  -0.7085  -0.6050  -0.5770  -0.4940  -0.4279  -0.3968  -0.3430
    -0.2543  -0.2214  -0.1215  -0.0831  -0.0270   0.0240   0.0424   0.1243
     0.1506   0.1820   0.2389   0.2762   0.5804   0.6425   0.7078   0.7225
     1.0204   1.0712   1.1494   1.1735   1.3533   1.3917   1.4278   1.4418
     1.4597   1.4777   1.5473   1.5879   1.6303   1.6544   1.7805   1.8114
     1.8455   1.8571   1.8974   1.9203   1.9336   1.9498   1.9692   1.9927
     2.0397   2.0584   2.0897   2.1109   2.1381   2.2043   2.3211   2.4278
     2.4501   2.5225   2.5615   2.6057   2.6592   2.6651   2.7006   2.7359
     2.7591   2.8296   2.8708   2.8874   2.9037   2.9118   2.9311   2.9522
     2.9632   2.9764   2.9903   3.0099   3.0218   3.0333   3.0414   3.0507
     3.0620   3.5873   3.6625   3.7817   3.8108   4.0751   4.1501   4.2049
     4.4440   4.7937   4.8881   5.0373   5.0886   5.4076   5.4402   5.6022
     5.6182   5.7603   5.7787   6.0788   6.3999   6.5001   6.5973   6.9605
     7.4372   7.5166   7.6451   7.7259   7.8052   7.8993   8.0320   8.1174
     8.2954   8.3699   8.4414   8.5178   8.5492   8.6077   8.6730   8.7529

     occupation numbers 
     1.0000   1.0000   1.0000   1.0000   1.0000   1.0000   1.0000   1.0000
     1.0000   1.0000   1.0000   1.0000   1.0000   1.0000   1.0000   1.0000
     1.0000   1.0000   1.0000   1.0000   1.0000   1.0000   1.0000   1.0000
     1.0000   1.0000   1.0000   1.0000   1.0000   1.0000   1.0000   1.0000
     1.0000   1.0000   1.0000   1.0000   1.0000   1.0000   1.0000   1.0000
     1.0000   1.0000   1.0000   1.0000   1.0000   1.0000   1.0000   1.0000
     1.0000   1.0000   1.0000   1.0000   1.0000   1.0000   1.0000   1.0000
     1.0000   1.0000   1.0000   1.0000   1.0000   1.0000   1.0000   1.0000
     1.0000   1.0000   1.0000   1.0000   1.0000   1.0000   1.0000   1.0000
     1.0000   1.0000   1.0000   1.0000   1.0000   1.0000   1.0000   1.0000
     1.0000   1.0000   1.0000   1.0000   1.0000   1.0000   1.0000   1.0000
     1.0000   1.0000   1.0000   1.0000   1.0000   1.0000   1.0000   1.0000
     1.0000   1.0000   1.0000   1.0000   1.0000   1.0000   1.0000   1.0000
     1.0000   1.0000   1.0000   1.0000   1.0000   1.0000   1.0000   1.0000
     1.0000   1.0000   1.0000   1.0000   1.0000   1.0000   1.0000   1.0000
     1.0000   1.0000   1.0000   1.0000   1.0000   1.0000   1.0000   1.0000
     1.0000   1.0000   1.0000   1.0000   1.0000   1.0000   1.0000   1.0000
     1.0000   1.0000   1.0000   1.0000   1.0000   1.0000   1.0000   1.0000
     1.0000   1.0000   1.0000   1.0000   1.0000   1.0000   1.0000   1.0000
     1.0000   1.0000   1.0000   1.0000   1.0000   1.0000   1.0000   0.9999
     0.9997   0.9996   0.9994   0.9993   0.9984   0.9981   0.9977   0.9975
     0.9973   0.9971   0.9960   0.9953   0.9943   0.9937   0.9895   0.9882
     0.9865   0.9859   0.9836   0.9822   0.9813   0.9802   0.9788   0.9769
     0.9728   0.9710   0.9678   0.9655   0.9623   0.9535   0.9340   0.9111
     0.9057   0.8863   0.8748   0.8607   0.8423   0.8402   0.8271   0.8133
     0.8039   0.7737   0.7549   0.7471   0.7393   0.7354   0.7259   0.7153
     0.7098   0.7030   0.6958   0.6856   0.6793   0.6732   0.6688   0.6638
     0.6576   0.3542   0.3136   0.2538   0.2401   0.1360   0.1132   0.0983
     0.0499   0.0152   0.0106   0.0058   0.0046   0.0010   0.0009   0.0004
     0.0003   0.0002   0.0001   0.0000   0.0000   0.0000   0.0000   0.0000
     0.0000   0.0000   0.0000   0.0000   0.0000   0.0000   0.0000   0.0000
     0.0000   0.0000   0.0000   0.0000   0.0000   0.0000   0.0000   0.0000

     the Fermi energy is     3.3355 ev

!    total energy              =   -4399.90896266 Ry
     estimated scf accuracy    <          7.5E-09 Ry
     smearing contrib. (-TS)   =      -1.14454245 Ry
     internal energy E=F+TS    =   -4398.76442020 Ry

     The total energy is F=E-TS. E is the sum of the following terms:
     one-electron contribution =  -21253.60514199 Ry
     hartree contribution      =   10755.00674463 Ry
     xc contribution           =    -686.72774420 Ry
     ewald contribution        =    7053.20709661 Ry
     one-center paw contrib.   =    -266.64537525 Ry
      -> PAW hartree energy AE =      25.17322763 Ry
      -> PAW hartree energy PS =     -25.05702949 Ry
      -> PAW xc energy AE      =     -16.51892536 Ry
      -> PAW xc energy PS      =       6.87847151 Ry
      -> total E_H with PAW    =   10755.12294277 Ry
      -> total E_XC with PAW   =    -696.36819805 Ry

     convergence has been achieved in  50 iterations

     Writing all to output data dir /bsuhome/zayahcortright/scratch/pwscf.save/
 
     init_run     :      7.76s CPU      8.20s WALL (       1 calls)
     electrons    :    723.41s CPU    735.89s WALL (       1 calls)

     Called by init_run:
     wfcinit      :      5.66s CPU      5.78s WALL (       1 calls)
     wfcinit:atom :      0.05s CPU      0.06s WALL (       5 calls)
     wfcinit:wfcr :      5.35s CPU      5.42s WALL (       5 calls)
     potinit      :      0.16s CPU      0.18s WALL (       1 calls)
     hinit0       :      0.56s CPU      0.78s WALL (       1 calls)

     Called by electrons:
     c_bands      :    571.01s CPU    575.83s WALL (      50 calls)
     sum_band     :    114.31s CPU    118.72s WALL (      50 calls)
     v_of_rho     :      5.57s CPU      5.84s WALL (      51 calls)
     v_h          :      0.47s CPU      0.47s WALL (      51 calls)
     v_xc         :      5.10s CPU      5.37s WALL (      51 calls)
     newd         :     17.10s CPU     19.68s WALL (      51 calls)
     PAW_pot      :      1.66s CPU      1.69s WALL (      51 calls)
     mix_rho      :     13.37s CPU     13.63s WALL (      50 calls)

     Called by c_bands:
     init_us_2    :      6.77s CPU      6.82s WALL (     505 calls)
     init_us_2:cp :      6.77s CPU      6.82s WALL (     505 calls)
     cegterg      :    541.61s CPU    546.23s WALL (     250 calls)

     Called by sum_band:
     sum_band:wei :      0.35s CPU      0.36s WALL (      50 calls)
     sum_band:loo :     94.04s CPU     94.72s WALL (      50 calls)
     sum_band:buf :      1.51s CPU      1.52s WALL (     250 calls)
     sum_band:ini :      3.11s CPU      3.12s WALL (     250 calls)
     sum_band:cal :     18.84s CPU     18.89s WALL (     250 calls)
     sum_band:bec :      0.61s CPU      0.61s WALL (     250 calls)
     addusdens    :     18.66s CPU     22.36s WALL (      50 calls)
                                        0.00s GPU  (      50 calls)
     addusd:skk   :      0.34s CPU      0.69s WALL (     200 calls)
                                        0.00s GPU  (     200 calls)

     Called by *egterg:
     cdiaghg      :     57.81s CPU     58.03s WALL (    1399 calls)
     cegterg:over :     41.31s CPU     41.44s WALL (    1149 calls)
     cegterg:upda :     29.05s CPU     29.38s WALL (    1149 calls)
     cegterg:last :     59.20s CPU     59.37s WALL (     459 calls)
     cdiaghg:chol :      3.31s CPU      3.33s WALL (    1399 calls)
     cdiaghg:inve :      3.49s CPU      3.51s WALL (    1399 calls)
     cdiaghg:para :      7.42s CPU      7.46s WALL (    2798 calls)
     h_psi        :    298.95s CPU    301.67s WALL (    1404 calls)
     s_psi        :     38.49s CPU     38.60s WALL (    1404 calls)
     g_psi        :      1.16s CPU      1.17s WALL (    1149 calls)

     Called by h_psi:
     h_psi:calbec :     43.86s CPU     44.01s WALL (    1404 calls)
     vloc_psi     :    213.48s CPU    215.52s WALL (    1404 calls)
     add_vuspsi   :     38.55s CPU     38.68s WALL (    1404 calls)

     General routines
     calbec       :     62.70s CPU     62.89s WALL (    1654 calls)
     fft          :      3.87s CPU      3.92s WALL (     661 calls)
     ffts         :      4.98s CPU      5.03s WALL (    5350 calls)
     fftw         :    185.73s CPU    187.22s WALL (  334418 calls)
     interpolate  :      0.42s CPU      0.43s WALL (      51 calls)
 
     Parallel routines

     PAW routines
     PAW_pot      :      1.66s CPU      1.69s WALL (      51 calls)
 
     PWSCF        :  12m12.95s CPU  12m28.84s WALL

 
   This run was terminated on:  18:25:31  21Jun2024            

=------------------------------------------------------------------------------=
   JOB DONE.
=------------------------------------------------------------------------------=
