
     Program PWSCF v.7.2 starts on 19Jun2024 at  0:42:47 

     This program is part of the open-source Quantum ESPRESSO suite
     for quantum simulation of materials; please cite
         "P. Giannozzi et al., J. Phys.:Condens. Matter 21 395502 (2009);
         "P. Giannozzi et al., J. Phys.:Condens. Matter 29 465901 (2017);
         "P. Giannozzi et al., J. Chem. Phys. 152 154105 (2020);
          URL http://www.quantum-espresso.org", 
     in publications or presentations arising from this work. More details at
     http://www.quantum-espresso.org/quote

     Parallel version (MPI & OpenMP), running on      48 processor cores
     Number of MPI processes:                48
     Threads/MPI process:                     1

     MPI processes distributed on     1 nodes
     16420 MiB available memory on the printing compute node when the environment starts
 
     Reading input from espresso.pwi
Warning: card &CELL ignored
Warning: card / ignored
Warning: card &FCP ignored
Warning: card / ignored
Warning: card &RISM ignored
Warning: card / ignored

     Current dimensions of program PWSCF are:
     Max number of different atomic species (ntypx) = 10
     Max number of k-points (npk) =  40000
     Max angular momentum in pseudopotentials (lmaxx) =  4
     file O.pbe-n-kjpaw_psl.0.1.UPF: wavefunction(s)  2P renormalized
     signal trapping enabled: kill the code with -SIGUSR1 to stop cleanly the simulation 
 
     K-points division:     npool     =       2
     R & G space division:  proc/nbgrp/npool/nimage =      24
     Subspace diagonalization in iterative solution of the eigenvalue problem:
     one sub-group per band group will be used
     scalapack distributed-memory algorithm (size of sub-group:  3*  3 procs)

 
     Parallelization info
     --------------------
     sticks:   dense  smooth     PW     G-vecs:    dense   smooth      PW
     Min         350     175     47                61430    21716    3036
     Max         351     177     48                61449    21727    3041
     Sum        8421    4205   1137              1474595   521381   72913
 
     Using Slab Decomposition
 


     bravais-lattice index     =            0
     lattice parameter (alat)  =      14.8599  a.u.
     unit-cell volume          =    8305.1283 (a.u.)^3
     number of atoms/cell      =           51
     number of atomic types    =            4
     number of electrons       =       437.00
     number of Kohn-Sham states=          263
     kinetic-energy cutoff     =      60.0000  Ry
     charge density cutoff     =     480.0000  Ry
     scf convergence threshold =      1.0E-08
     mixing beta               =       0.1500
     number of iterations used =            8  local-TF  mixing
     Exchange-correlation= PBE
                           (   1   4   3   4   0   0   0)

     celldm(1)=  14.859904  celldm(2)=   0.000000  celldm(3)=   0.000000
     celldm(4)=   0.000000  celldm(5)=   0.000000  celldm(6)=   0.000000

     crystal axes: (cart. coord. in units of alat)
               a(1) = (   1.000000   0.000000   0.000000 )  
               a(2) = (   0.000000   1.000000   0.000000 )  
               a(3) = (   0.000000   0.000000   2.531036 )  

     reciprocal axes: (cart. coord. in units 2 pi/alat)
               b(1) = (  1.000000  0.000000  0.000000 )  
               b(2) = (  0.000000  1.000000  0.000000 )  
               b(3) = (  0.000000  0.000000  0.395095 )  


     PseudoPot. # 1 for Sr read from file:
     /bsuhome/zayahcortright/q-e/pseudo/Sr_pbe_v1.uspp.F.UPF
     MD5 check sum: 6b418c05fbe9db5448babca5e47b7a5b
     Pseudo is Ultrasoft + core correction, Zval = 10.0
     Generated by new atomic code, or converted to UPF format
     Using radial grid of  883 points,  6 beta functions with: 
                l(1) =   0
                l(2) =   0
                l(3) =   1
                l(4) =   1
                l(5) =   2
                l(6) =   2
     Q(r) pseudized with  6 coefficients,  rinner =    1.400   1.400   1.400
                                                       1.400   1.400

     PseudoPot. # 2 for O  read from file:
     /bsuhome/zayahcortright/q-e/pseudo/O.pbe-n-kjpaw_psl.0.1.UPF
     MD5 check sum: 0234752ac141de4415c5fc33072bef88
     Pseudo is Projector augmented-wave + core cor, Zval =  6.0
     Generated using "atomic" code by A. Dal Corso  v.5.0.99 svn rev. 10869
     Shape of augmentation charge: BESSEL
     Using radial grid of 1095 points,  4 beta functions with: 
                l(1) =   0
                l(2) =   0
                l(3) =   1
                l(4) =   1
     Q(r) pseudized with 0 coefficients 


     PseudoPot. # 3 for Co read from file:
     /bsuhome/zayahcortright/q-e/pseudo/Co_pbe_v1.2.uspp.F.UPF
     MD5 check sum: 5f91765df6ddd3222702df6e7b74a16d
     Pseudo is Ultrasoft + core correction, Zval = 17.0
     Generated by new atomic code, or converted to UPF format
     Using radial grid of  863 points,  6 beta functions with: 
                l(1) =   0
                l(2) =   0
                l(3) =   1
                l(4) =   1
                l(5) =   2
                l(6) =   2
     Q(r) pseudized with  8 coefficients,  rinner =    1.200   1.200   1.200
                                                       1.200   1.200

     PseudoPot. # 4 for H  read from file:
     /bsuhome/zayahcortright/q-e/pseudo/H.pbe-rrkjus_psl.1.0.0.UPF
     MD5 check sum: f52b6d4d1c606e5624b1dc7b2218f220
     Pseudo is Ultrasoft, Zval =  1.0
     Generated using "atomic" code by A. Dal Corso  v.5.1
     Using radial grid of  929 points,  2 beta functions with: 
                l(1) =   0
                l(2) =   0
     Q(r) pseudized with 0 coefficients 


     atomic species   valence    mass     pseudopotential
        Sr            10.00    87.62000     Sr( 1.00)
        O              6.00    15.99900     O ( 1.00)
        Co            17.00    58.93319     Co( 1.00)
        H              1.00     1.00800     H ( 1.00)

     No symmetry found


                                    s                        frac. trans.

      isym =  1     identity                                     

 cryst.   s( 1) = (     1          0          0      )
                  (     0          1          0      )
                  (     0          0          1      )

 cart.    s( 1) = (  1.0000000  0.0000000  0.0000000 )
                  (  0.0000000  1.0000000  0.0000000 )
                  (  0.0000000  0.0000000  1.0000000 )


   Cartesian axes

     site n.     atom                  positions (alat units)
         1           Sr  tau(   1) = (   0.2508693   0.7491307   1.7574407  )
         2           O   tau(   2) = (   0.4985141   0.5014859   1.7715967  )
         3           Sr  tau(   3) = (   0.7482398   0.7454518   1.7648669  )
         4           Sr  tau(   4) = (   0.7441748   0.2558252   1.7667843  )
         5           Sr  tau(   5) = (   0.2508693   0.7491307   1.2696799  )
         6           Sr  tau(   6) = (   0.2508693   0.7491307   0.7632319  )
         7           Co  tau(   7) = (   0.4998914   0.5001086   1.0164559  )
         8           Co  tau(   8) = (   0.4936915   0.5063085   1.5135603  )
         9           O   tau(   9) = (   0.4988895   0.7610401   1.0164559  )
        10           O   tau(  10) = (   0.2389599   0.5011105   1.0164559  )
        11           O   tau(  11) = (   0.0070918   0.7374880   1.0164559  )
        12           O   tau(  12) = (   0.0088340   0.7405089   1.5135603  )
        13           O   tau(  13) = (   0.5066944   0.7415376   1.5135603  )
        14           O   tau(  14) = (   0.2584624   0.4933056   1.5135603  )
        15           O   tau(  15) = (   0.4985141   0.5014859   0.7773880  )
        16           O   tau(  16) = (   0.4985141   0.5014859   1.2555238  )
        17           Sr  tau(  17) = (   0.7482398   0.7454518   0.7706582  )
        18           Sr  tau(  18) = (   0.7482398   0.7454518   1.2622536  )
        19           Sr  tau(  19) = (   0.7441748   0.2558252   0.7725755  )
        20           Sr  tau(  20) = (   0.7441748   0.2558252   1.2603363  )
        21           O   tau(  21) = (   0.7322655   0.0078049   1.5135603  )
        22           O   tau(  22) = (   0.7558175   0.4996027   1.5135603  )
        23           O   tau(  23) = (   0.5003973   0.2441825   1.5135603  )
        24           O   tau(  24) = (   0.7527966   0.4978604   1.0164559  )
        25           O   tau(  25) = (   0.5021396   0.2472034   1.0164559  )
        26           O   tau(  26) = (   0.7517679   0.0000000   1.0164559  )
        27           O   tau(  27) = (   0.0114961   0.4948124   1.7455321  )
        28           O   tau(  28) = (   0.0048226   0.0077944   1.7715967  )
        29           Sr  tau(  29) = (   0.2545482   0.2517602   1.7648669  )
        30           O   tau(  30) = (   0.5048017   0.0015068   1.7786929  )
        31           Co  tau(  31) = (   0.0056869   0.5006215   1.0164559  )
        32           Co  tau(  32) = (   0.0065315   0.4997770   1.5135603  )
        33           Co  tau(  33) = (   0.0061999   0.0064171   1.0164559  )
        34           Co  tau(  34) = (   0.0000000   0.0126169   1.5135603  )
        35           O   tau(  35) = (   0.0114961   0.4948124   1.2815885  )
        36           O   tau(  36) = (   0.0114961   0.4948124   0.7513233  )
        37           O   tau(  37) = (   0.0051979   0.2673486   1.0164559  )
        38           O   tau(  38) = (   0.0130029   0.2478461   1.5135603  )
        39           O   tau(  39) = (   0.0048226   0.0077944   0.7773880  )
        40           O   tau(  40) = (   0.0048226   0.0077944   1.2555238  )
        41           Sr  tau(  41) = (   0.2545482   0.2517602   0.7706582  )
        42           Sr  tau(  42) = (   0.2545482   0.2517602   1.2622536  )
        43           Co  tau(  43) = (   0.4989925   0.0073160   1.5135603  )
        44           Co  tau(  44) = (   0.4998370   0.0064714   1.0164559  )
        45           O   tau(  45) = (   0.5048017   0.0015068   0.7844841  )
        46           O   tau(  46) = (   0.5048017   0.0015068   1.2484277  )
        47           O   tau(  47) = (   0.2621260   0.0059111   1.5135603  )
        48           O   tau(  48) = (   0.2591051   0.0041689   1.0164559  )
        49           O   tau(  49) = (   0.4264937   0.9951520   2.1602013  )
        50           O   tau(  50) = (   0.4264937   0.9951520   2.3186489  )
        51           H   tau(  51) = (   0.4264937   0.9951520   2.4431567  )

   Crystallographic axes

     site n.     atom                  positions (cryst. coord.)
         1           Sr  tau(   1) = (  0.2508693  0.7491307  0.6943562  )
         2           O   tau(   2) = (  0.4985141  0.5014859  0.6999492  )
         3           Sr  tau(   3) = (  0.7482398  0.7454518  0.6972903  )
         4           Sr  tau(   4) = (  0.7441748  0.2558252  0.6980478  )
         5           Sr  tau(   5) = (  0.2508693  0.7491307  0.5016443  )
         6           Sr  tau(   6) = (  0.2508693  0.7491307  0.3015492  )
         7           Co  tau(   7) = (  0.4998914  0.5001086  0.4015968  )
         8           Co  tau(   8) = (  0.4936915  0.5063085  0.5980003  )
         9           O   tau(   9) = (  0.4988895  0.7610401  0.4015968  )
        10           O   tau(  10) = (  0.2389599  0.5011105  0.4015968  )
        11           O   tau(  11) = (  0.0070918  0.7374880  0.4015968  )
        12           O   tau(  12) = (  0.0088340  0.7405089  0.5980003  )
        13           O   tau(  13) = (  0.5066944  0.7415376  0.5980003  )
        14           O   tau(  14) = (  0.2584624  0.4933056  0.5980003  )
        15           O   tau(  15) = (  0.4985141  0.5014859  0.3071422  )
        16           O   tau(  16) = (  0.4985141  0.5014859  0.4960513  )
        17           Sr  tau(  17) = (  0.7482398  0.7454518  0.3044833  )
        18           Sr  tau(  18) = (  0.7482398  0.7454518  0.4987103  )
        19           Sr  tau(  19) = (  0.7441748  0.2558252  0.3052408  )
        20           Sr  tau(  20) = (  0.7441748  0.2558252  0.4979527  )
        21           O   tau(  21) = (  0.7322655  0.0078049  0.5980003  )
        22           O   tau(  22) = (  0.7558175  0.4996027  0.5980003  )
        23           O   tau(  23) = (  0.5003973  0.2441825  0.5980003  )
        24           O   tau(  24) = (  0.7527966  0.4978604  0.4015968  )
        25           O   tau(  25) = (  0.5021396  0.2472034  0.4015968  )
        26           O   tau(  26) = (  0.7517679  0.0000000  0.4015968  )
        27           O   tau(  27) = (  0.0114961  0.4948124  0.6896512  )
        28           O   tau(  28) = (  0.0048226  0.0077944  0.6999492  )
        29           Sr  tau(  29) = (  0.2545482  0.2517602  0.6972903  )
        30           O   tau(  30) = (  0.5048017  0.0015068  0.7027529  )
        31           Co  tau(  31) = (  0.0056869  0.5006215  0.4015968  )
        32           Co  tau(  32) = (  0.0065315  0.4997770  0.5980003  )
        33           Co  tau(  33) = (  0.0061999  0.0064171  0.4015968  )
        34           Co  tau(  34) = (  0.0000000  0.0126169  0.5980003  )
        35           O   tau(  35) = (  0.0114961  0.4948124  0.5063494  )
        36           O   tau(  36) = (  0.0114961  0.4948124  0.2968442  )
        37           O   tau(  37) = (  0.0051979  0.2673486  0.4015968  )
        38           O   tau(  38) = (  0.0130029  0.2478461  0.5980003  )
        39           O   tau(  39) = (  0.0048226  0.0077944  0.3071422  )
        40           O   tau(  40) = (  0.0048226  0.0077944  0.4960513  )
        41           Sr  tau(  41) = (  0.2545482  0.2517602  0.3044833  )
        42           Sr  tau(  42) = (  0.2545482  0.2517602  0.4987103  )
        43           Co  tau(  43) = (  0.4989925  0.0073160  0.5980003  )
        44           Co  tau(  44) = (  0.4998370  0.0064714  0.4015968  )
        45           O   tau(  45) = (  0.5048017  0.0015068  0.3099459  )
        46           O   tau(  46) = (  0.5048017  0.0015068  0.4932477  )
        47           O   tau(  47) = (  0.2621260  0.0059111  0.5980003  )
        48           O   tau(  48) = (  0.2591051  0.0041689  0.4015968  )
        49           O   tau(  49) = (  0.4264937  0.9951520  0.8534850  )
        50           O   tau(  50) = (  0.4264937  0.9951520  0.9160869  )
        51           H   tau(  51) = (  0.4264937  0.9951520  0.9652793  )

     number of k points=    10  Gaussian smearing, width (Ry)=  0.0700
                       cart. coord. in units 2pi/alat
        k(    1) = (   0.0000000   0.0000000   0.0000000), wk =   0.1250000
        k(    2) = (   0.0000000   0.2500000   0.0000000), wk =   0.2500000
        k(    3) = (   0.0000000  -0.5000000   0.0000000), wk =   0.1250000
        k(    4) = (   0.2500000   0.2500000   0.0000000), wk =   0.2500000
        k(    5) = (   0.2500000  -0.5000000   0.0000000), wk =   0.2500000
        k(    6) = (  -0.5000000  -0.5000000   0.0000000), wk =   0.1250000
        k(    7) = (   0.2500000   0.0000000   0.0000000), wk =   0.2500000
        k(    8) = (  -0.5000000   0.0000000   0.0000000), wk =   0.1250000
        k(    9) = (  -0.2500000   0.2500000   0.0000000), wk =   0.2500000
        k(   10) = (  -0.5000000   0.2500000   0.0000000), wk =   0.2500000

                       cryst. coord.
        k(    1) = (   0.0000000   0.0000000   0.0000000), wk =   0.1250000
        k(    2) = (   0.0000000   0.2500000   0.0000000), wk =   0.2500000
        k(    3) = (   0.0000000  -0.5000000   0.0000000), wk =   0.1250000
        k(    4) = (   0.2500000   0.2500000   0.0000000), wk =   0.2500000
        k(    5) = (   0.2500000  -0.5000000   0.0000000), wk =   0.2500000
        k(    6) = (  -0.5000000  -0.5000000   0.0000000), wk =   0.1250000
        k(    7) = (   0.2500000   0.0000000   0.0000000), wk =   0.2500000
        k(    8) = (  -0.5000000   0.0000000   0.0000000), wk =   0.1250000
        k(    9) = (  -0.2500000   0.2500000   0.0000000), wk =   0.2500000
        k(   10) = (  -0.5000000   0.2500000   0.0000000), wk =   0.2500000

     Dense  grid:  1474595 G-vectors     FFT dimensions: ( 108, 108, 270)

     Smooth grid:   521381 G-vectors     FFT dimensions: (  75,  75, 192)

     Dynamical RAM for                 wfc:      10.90 MB

     Dynamical RAM for     wfc (w. buffer):      65.37 MB

     Dynamical RAM for           str. fact:       3.75 MB

     Dynamical RAM for           local pot:       0.00 MB

     Dynamical RAM for          nlocal pot:      24.94 MB

     Dynamical RAM for                qrad:       7.03 MB

     Dynamical RAM for          rho,v,vnew:       6.02 MB

     Dynamical RAM for               rhoin:       2.01 MB

     Dynamical RAM for            rho*nmix:      15.00 MB

     Dynamical RAM for           G-vectors:       3.68 MB

     Dynamical RAM for          h,s,v(r/c):       1.40 MB

     Dynamical RAM for          <psi|beta>:       2.42 MB

     Dynamical RAM for                 psi:      21.79 MB

     Dynamical RAM for                hpsi:      21.79 MB

     Dynamical RAM for                spsi:      21.79 MB

     Dynamical RAM for      wfcinit/wfcrot:      34.89 MB

     Dynamical RAM for           addusdens:     101.73 MB

     Estimated static dynamical RAM per process >     122.82 MB

     Estimated max dynamical RAM per process >     239.55 MB

     Estimated total dynamical RAM >      10.88 GB

     Check: negative core charge=   -0.000004

     Initial potential from superposition of free atoms

     starting charge     428.5961, renormalised to     437.0000

     negative rho (up, down):  7.814E-01 0.000E+00
     Starting wfcs are  381 randomized atomic wfcs
     Checking if some PAW data can be deallocated... 
       PAW data deallocated on   18 nodes for type:  2

     total cpu time spent up to now is        9.0 secs

     Self-consistent Calculation

     iteration #  1     ecut=    60.00 Ry     beta= 0.15
     Davidson diagonalization with overlap

---- Real-time Memory Report at c_bands before calling an iterative solver
             0 MiB given to the printing process from OS
             0 MiB allocation reported by mallinfo(arena+hblkhd)
          6888 MiB available memory on the node where the printing process lives
------------------
     ethr =  1.00E-02,  avg # of iterations =  2.0

     negative rho (up, down):  7.715E-01 0.000E+00

     total cpu time spent up to now is       24.9 secs

     total energy              =   -4489.28673111 Ry
     estimated scf accuracy    <      49.76454023 Ry

     iteration #  2     ecut=    60.00 Ry     beta= 0.15
     Davidson diagonalization with overlap

---- Real-time Memory Report at c_bands before calling an iterative solver
             0 MiB given to the printing process from OS
             0 MiB allocation reported by mallinfo(arena+hblkhd)
          7182 MiB available memory on the node where the printing process lives
------------------
     ethr =  1.00E-02,  avg # of iterations =  1.0

     negative rho (up, down):  7.613E-01 0.000E+00

     total cpu time spent up to now is       37.9 secs

     total energy              =   -4486.81335143 Ry
     estimated scf accuracy    <      35.32699062 Ry

     iteration #  3     ecut=    60.00 Ry     beta= 0.15
     Davidson diagonalization with overlap

---- Real-time Memory Report at c_bands before calling an iterative solver
             0 MiB given to the printing process from OS
             0 MiB allocation reported by mallinfo(arena+hblkhd)
          6409 MiB available memory on the node where the printing process lives
------------------
     ethr =  8.08E-03,  avg # of iterations =  1.0

     negative rho (up, down):  7.563E-01 0.000E+00

     total cpu time spent up to now is       50.9 secs

     total energy              =   -4486.77530721 Ry
     estimated scf accuracy    <      35.43148646 Ry

     iteration #  4     ecut=    60.00 Ry     beta= 0.15
     Davidson diagonalization with overlap

---- Real-time Memory Report at c_bands before calling an iterative solver
             0 MiB given to the printing process from OS
             0 MiB allocation reported by mallinfo(arena+hblkhd)
          6387 MiB available memory on the node where the printing process lives
------------------
     ethr =  8.08E-03,  avg # of iterations =  1.0

     negative rho (up, down):  7.576E-01 0.000E+00

     total cpu time spent up to now is       63.9 secs

     total energy              =   -4486.55798494 Ry
     estimated scf accuracy    <      34.16727870 Ry

     iteration #  5     ecut=    60.00 Ry     beta= 0.15
     Davidson diagonalization with overlap

---- Real-time Memory Report at c_bands before calling an iterative solver
             0 MiB given to the printing process from OS
             0 MiB allocation reported by mallinfo(arena+hblkhd)
          6372 MiB available memory on the node where the printing process lives
------------------
     ethr =  7.82E-03,  avg # of iterations =  1.0

     negative rho (up, down):  7.334E-01 0.000E+00

     total cpu time spent up to now is       77.0 secs

     total energy              =   -4482.39833877 Ry
     estimated scf accuracy    <      22.36520915 Ry

     iteration #  6     ecut=    60.00 Ry     beta= 0.15
     Davidson diagonalization with overlap

---- Real-time Memory Report at c_bands before calling an iterative solver
             0 MiB given to the printing process from OS
             0 MiB allocation reported by mallinfo(arena+hblkhd)
          6349 MiB available memory on the node where the printing process lives
------------------
     ethr =  5.12E-03,  avg # of iterations =  2.0

     negative rho (up, down):  7.493E-01 0.000E+00

     total cpu time spent up to now is       91.4 secs

     total energy              =   -4483.33582693 Ry
     estimated scf accuracy    <      32.20526488 Ry

     iteration #  7     ecut=    60.00 Ry     beta= 0.15
     Davidson diagonalization with overlap

---- Real-time Memory Report at c_bands before calling an iterative solver
             0 MiB given to the printing process from OS
             0 MiB allocation reported by mallinfo(arena+hblkhd)
          6323 MiB available memory on the node where the printing process lives
------------------
     ethr =  5.12E-03,  avg # of iterations =  1.0

     negative rho (up, down):  7.543E-01 0.000E+00

     total cpu time spent up to now is      104.2 secs

     total energy              =   -4483.70415124 Ry
     estimated scf accuracy    <      30.75321731 Ry

     iteration #  8     ecut=    60.00 Ry     beta= 0.15
     Davidson diagonalization with overlap

---- Real-time Memory Report at c_bands before calling an iterative solver
             0 MiB given to the printing process from OS
             0 MiB allocation reported by mallinfo(arena+hblkhd)
          6299 MiB available memory on the node where the printing process lives
------------------
     ethr =  5.12E-03,  avg # of iterations =  1.0

     negative rho (up, down):  7.521E-01 0.000E+00

     total cpu time spent up to now is      117.1 secs

     total energy              =   -4483.86292710 Ry
     estimated scf accuracy    <       6.64556975 Ry

     iteration #  9     ecut=    60.00 Ry     beta= 0.15
     Davidson diagonalization with overlap

---- Real-time Memory Report at c_bands before calling an iterative solver
             0 MiB given to the printing process from OS
             0 MiB allocation reported by mallinfo(arena+hblkhd)
          6286 MiB available memory on the node where the printing process lives
------------------
     ethr =  1.52E-03,  avg # of iterations =  3.5

     negative rho (up, down):  7.668E-01 0.000E+00

     total cpu time spent up to now is      131.8 secs

     total energy              =   -4483.76475927 Ry
     estimated scf accuracy    <       4.01866542 Ry

     iteration # 10     ecut=    60.00 Ry     beta= 0.15
     Davidson diagonalization with overlap

---- Real-time Memory Report at c_bands before calling an iterative solver
             0 MiB given to the printing process from OS
             0 MiB allocation reported by mallinfo(arena+hblkhd)
          6245 MiB available memory on the node where the printing process lives
------------------
     ethr =  9.20E-04,  avg # of iterations = 10.7

     negative rho (up, down):  7.900E-01 0.000E+00

     total cpu time spent up to now is      150.6 secs

     total energy              =   -4483.47667465 Ry
     estimated scf accuracy    <       4.33781111 Ry

     iteration # 11     ecut=    60.00 Ry     beta= 0.15
     Davidson diagonalization with overlap

---- Real-time Memory Report at c_bands before calling an iterative solver
             0 MiB given to the printing process from OS
             0 MiB allocation reported by mallinfo(arena+hblkhd)
          5889 MiB available memory on the node where the printing process lives
------------------
     ethr =  9.20E-04,  avg # of iterations =  5.9

     negative rho (up, down):  7.943E-01 0.000E+00

     total cpu time spent up to now is      167.2 secs

     total energy              =   -4483.21133779 Ry
     estimated scf accuracy    <       3.75455987 Ry

     iteration # 12     ecut=    60.00 Ry     beta= 0.15
     Davidson diagonalization with overlap

---- Real-time Memory Report at c_bands before calling an iterative solver
             0 MiB given to the printing process from OS
             0 MiB allocation reported by mallinfo(arena+hblkhd)
          5824 MiB available memory on the node where the printing process lives
------------------
     ethr =  8.59E-04,  avg # of iterations =  4.6

     negative rho (up, down):  8.032E-01 0.000E+00

     total cpu time spent up to now is      182.6 secs

     total energy              =   -4483.22154962 Ry
     estimated scf accuracy    <       1.92113641 Ry

     iteration # 13     ecut=    60.00 Ry     beta= 0.15
     Davidson diagonalization with overlap

---- Real-time Memory Report at c_bands before calling an iterative solver
             0 MiB given to the printing process from OS
             0 MiB allocation reported by mallinfo(arena+hblkhd)
          5818 MiB available memory on the node where the printing process lives
------------------
     ethr =  4.40E-04,  avg # of iterations =  5.5

     negative rho (up, down):  8.047E-01 0.000E+00

     total cpu time spent up to now is      199.4 secs

     total energy              =   -4483.25329764 Ry
     estimated scf accuracy    <       0.97148822 Ry

     iteration # 14     ecut=    60.00 Ry     beta= 0.15
     Davidson diagonalization with overlap

---- Real-time Memory Report at c_bands before calling an iterative solver
             0 MiB given to the printing process from OS
             0 MiB allocation reported by mallinfo(arena+hblkhd)
          5821 MiB available memory on the node where the printing process lives
------------------
     ethr =  2.22E-04,  avg # of iterations = 10.5

     negative rho (up, down):  8.166E-01 0.000E+00

     total cpu time spent up to now is      218.9 secs

     total energy              =   -4483.09185417 Ry
     estimated scf accuracy    <       0.69741985 Ry

     iteration # 15     ecut=    60.00 Ry     beta= 0.15
     Davidson diagonalization with overlap

---- Real-time Memory Report at c_bands before calling an iterative solver
             0 MiB given to the printing process from OS
             0 MiB allocation reported by mallinfo(arena+hblkhd)
          5778 MiB available memory on the node where the printing process lives
------------------
     ethr =  1.60E-04,  avg # of iterations =  4.7

     negative rho (up, down):  8.189E-01 0.000E+00

     total cpu time spent up to now is      235.0 secs

     total energy              =   -4483.14161793 Ry
     estimated scf accuracy    <       3.28748755 Ry

     iteration # 16     ecut=    60.00 Ry     beta= 0.15
     Davidson diagonalization with overlap

---- Real-time Memory Report at c_bands before calling an iterative solver
             0 MiB given to the printing process from OS
             0 MiB allocation reported by mallinfo(arena+hblkhd)
          5791 MiB available memory on the node where the printing process lives
------------------
     ethr =  1.60E-04,  avg # of iterations =  2.5

     negative rho (up, down):  8.173E-01 0.000E+00

     total cpu time spent up to now is      250.1 secs

     total energy              =   -4483.09622055 Ry
     estimated scf accuracy    <       1.55060745 Ry

     iteration # 17     ecut=    60.00 Ry     beta= 0.15
     Davidson diagonalization with overlap

---- Real-time Memory Report at c_bands before calling an iterative solver
             0 MiB given to the printing process from OS
             0 MiB allocation reported by mallinfo(arena+hblkhd)
          5802 MiB available memory on the node where the printing process lives
------------------
     ethr =  1.60E-04,  avg # of iterations =  3.7

     negative rho (up, down):  8.198E-01 0.000E+00

     total cpu time spent up to now is      265.4 secs

     total energy              =   -4483.05073919 Ry
     estimated scf accuracy    <       0.62805799 Ry

     iteration # 18     ecut=    60.00 Ry     beta= 0.15
     Davidson diagonalization with overlap

---- Real-time Memory Report at c_bands before calling an iterative solver
             0 MiB given to the printing process from OS
             0 MiB allocation reported by mallinfo(arena+hblkhd)
          5814 MiB available memory on the node where the printing process lives
------------------
     ethr =  1.44E-04,  avg # of iterations =  8.5

     negative rho (up, down):  8.206E-01 0.000E+00

     total cpu time spent up to now is      283.5 secs

     total energy              =   -4483.02493915 Ry
     estimated scf accuracy    <       1.18244096 Ry

     iteration # 19     ecut=    60.00 Ry     beta= 0.15
     Davidson diagonalization with overlap

---- Real-time Memory Report at c_bands before calling an iterative solver
             0 MiB given to the printing process from OS
             0 MiB allocation reported by mallinfo(arena+hblkhd)
          5797 MiB available memory on the node where the printing process lives
------------------
     ethr =  1.44E-04,  avg # of iterations =  5.2

     negative rho (up, down):  8.267E-01 0.000E+00

     total cpu time spent up to now is      300.0 secs

     total energy              =   -4483.00698534 Ry
     estimated scf accuracy    <       0.40349884 Ry

     iteration # 20     ecut=    60.00 Ry     beta= 0.15
     Davidson diagonalization with overlap

---- Real-time Memory Report at c_bands before calling an iterative solver
             0 MiB given to the printing process from OS
             0 MiB allocation reported by mallinfo(arena+hblkhd)
          5791 MiB available memory on the node where the printing process lives
------------------
     ethr =  9.23E-05,  avg # of iterations =  9.7

     negative rho (up, down):  8.291E-01 0.000E+00

     total cpu time spent up to now is      318.5 secs

     total energy              =   -4482.96287630 Ry
     estimated scf accuracy    <       0.50630707 Ry

     iteration # 21     ecut=    60.00 Ry     beta= 0.15
     Davidson diagonalization with overlap

---- Real-time Memory Report at c_bands before calling an iterative solver
             0 MiB given to the printing process from OS
             0 MiB allocation reported by mallinfo(arena+hblkhd)
          5794 MiB available memory on the node where the printing process lives
------------------
     ethr =  9.23E-05,  avg # of iterations =  5.9

     negative rho (up, down):  8.388E-01 0.000E+00

     total cpu time spent up to now is      334.9 secs

     total energy              =   -4482.97368810 Ry
     estimated scf accuracy    <       0.06440492 Ry

     iteration # 22     ecut=    60.00 Ry     beta= 0.15
     Davidson diagonalization with overlap

---- Real-time Memory Report at c_bands before calling an iterative solver
             0 MiB given to the printing process from OS
             0 MiB allocation reported by mallinfo(arena+hblkhd)
          5822 MiB available memory on the node where the printing process lives
------------------
     ethr =  1.47E-05,  avg # of iterations = 11.9

     negative rho (up, down):  8.422E-01 0.000E+00

     total cpu time spent up to now is      355.1 secs

     total energy              =   -4482.97363900 Ry
     estimated scf accuracy    <       0.04012891 Ry

     iteration # 23     ecut=    60.00 Ry     beta= 0.15
     Davidson diagonalization with overlap

---- Real-time Memory Report at c_bands before calling an iterative solver
             0 MiB given to the printing process from OS
             0 MiB allocation reported by mallinfo(arena+hblkhd)
          5631 MiB available memory on the node where the printing process lives
------------------
     ethr =  9.18E-06,  avg # of iterations =  1.8

     negative rho (up, down):  8.189E-01 0.000E+00

     total cpu time spent up to now is      369.4 secs

     total energy              =   -4482.96729983 Ry
     estimated scf accuracy    <       0.02829160 Ry

     iteration # 24     ecut=    60.00 Ry     beta= 0.15
     Davidson diagonalization with overlap

---- Real-time Memory Report at c_bands before calling an iterative solver
             0 MiB given to the printing process from OS
             0 MiB allocation reported by mallinfo(arena+hblkhd)
          5649 MiB available memory on the node where the printing process lives
------------------
     c_bands:  1 eigenvalues not converged
     ethr =  6.47E-06,  avg # of iterations = 13.5

     negative rho (up, down):  8.195E-01 0.000E+00

     total cpu time spent up to now is      389.3 secs

     total energy              =   -4482.96798938 Ry
     estimated scf accuracy    <       0.01421778 Ry

     iteration # 25     ecut=    60.00 Ry     beta= 0.15
     Davidson diagonalization with overlap

---- Real-time Memory Report at c_bands before calling an iterative solver
             0 MiB given to the printing process from OS
             0 MiB allocation reported by mallinfo(arena+hblkhd)
          5620 MiB available memory on the node where the printing process lives
------------------
     ethr =  3.25E-06,  avg # of iterations =  6.0

     negative rho (up, down):  8.088E-01 0.000E+00

     total cpu time spent up to now is      405.6 secs

     total energy              =   -4482.96662322 Ry
     estimated scf accuracy    <       0.00912153 Ry

     iteration # 26     ecut=    60.00 Ry     beta= 0.15
     Davidson diagonalization with overlap

---- Real-time Memory Report at c_bands before calling an iterative solver
             0 MiB given to the printing process from OS
             0 MiB allocation reported by mallinfo(arena+hblkhd)
          5629 MiB available memory on the node where the printing process lives
------------------
     ethr =  2.09E-06,  avg # of iterations =  8.9

     negative rho (up, down):  7.964E-01 0.000E+00

     total cpu time spent up to now is      423.4 secs

     total energy              =   -4482.96583483 Ry
     estimated scf accuracy    <       0.00515719 Ry

     iteration # 27     ecut=    60.00 Ry     beta= 0.15
     Davidson diagonalization with overlap

---- Real-time Memory Report at c_bands before calling an iterative solver
             0 MiB given to the printing process from OS
             0 MiB allocation reported by mallinfo(arena+hblkhd)
          5588 MiB available memory on the node where the printing process lives
------------------
     ethr =  1.18E-06,  avg # of iterations =  7.4

     negative rho (up, down):  7.953E-01 0.000E+00

     total cpu time spent up to now is      441.7 secs

     total energy              =   -4482.96609304 Ry
     estimated scf accuracy    <       0.00133830 Ry

     iteration # 28     ecut=    60.00 Ry     beta= 0.15
     Davidson diagonalization with overlap

---- Real-time Memory Report at c_bands before calling an iterative solver
             0 MiB given to the printing process from OS
             0 MiB allocation reported by mallinfo(arena+hblkhd)
          5555 MiB available memory on the node where the printing process lives
------------------
     ethr =  3.06E-07,  avg # of iterations =  2.8

     negative rho (up, down):  7.952E-01 0.000E+00

     total cpu time spent up to now is      456.8 secs

     total energy              =   -4482.96611856 Ry
     estimated scf accuracy    <       0.00080172 Ry

     iteration # 29     ecut=    60.00 Ry     beta= 0.15
     Davidson diagonalization with overlap

---- Real-time Memory Report at c_bands before calling an iterative solver
             0 MiB given to the printing process from OS
             0 MiB allocation reported by mallinfo(arena+hblkhd)
          5551 MiB available memory on the node where the printing process lives
------------------
     ethr =  1.83E-07,  avg # of iterations =  3.2

     negative rho (up, down):  7.938E-01 0.000E+00

     total cpu time spent up to now is      471.7 secs

     total energy              =   -4482.96609350 Ry
     estimated scf accuracy    <       0.00051110 Ry

     iteration # 30     ecut=    60.00 Ry     beta= 0.15
     Davidson diagonalization with overlap

---- Real-time Memory Report at c_bands before calling an iterative solver
             0 MiB given to the printing process from OS
             0 MiB allocation reported by mallinfo(arena+hblkhd)
          5570 MiB available memory on the node where the printing process lives
------------------
     ethr =  1.17E-07,  avg # of iterations =  7.0

     negative rho (up, down):  7.929E-01 0.000E+00

     total cpu time spent up to now is      488.9 secs

     total energy              =   -4482.96609443 Ry
     estimated scf accuracy    <       0.00025062 Ry

     iteration # 31     ecut=    60.00 Ry     beta= 0.15
     Davidson diagonalization with overlap

---- Real-time Memory Report at c_bands before calling an iterative solver
             0 MiB given to the printing process from OS
             0 MiB allocation reported by mallinfo(arena+hblkhd)
          5607 MiB available memory on the node where the printing process lives
------------------
     c_bands:  1 eigenvalues not converged
     ethr =  5.74E-08,  avg # of iterations =  7.1

     negative rho (up, down):  7.924E-01 0.000E+00

     total cpu time spent up to now is      505.9 secs

     total energy              =   -4482.96609648 Ry
     estimated scf accuracy    <       0.00014312 Ry

     iteration # 32     ecut=    60.00 Ry     beta= 0.15
     Davidson diagonalization with overlap

---- Real-time Memory Report at c_bands before calling an iterative solver
             0 MiB given to the printing process from OS
             0 MiB allocation reported by mallinfo(arena+hblkhd)
          5597 MiB available memory on the node where the printing process lives
------------------
     ethr =  3.27E-08,  avg # of iterations =  3.4

     negative rho (up, down):  7.920E-01 0.000E+00

     total cpu time spent up to now is      521.0 secs

     total energy              =   -4482.96608407 Ry
     estimated scf accuracy    <       0.00009268 Ry

     iteration # 33     ecut=    60.00 Ry     beta= 0.15
     Davidson diagonalization with overlap

---- Real-time Memory Report at c_bands before calling an iterative solver
             0 MiB given to the printing process from OS
             0 MiB allocation reported by mallinfo(arena+hblkhd)
          5535 MiB available memory on the node where the printing process lives
------------------
     ethr =  2.12E-08,  avg # of iterations =  4.5

     negative rho (up, down):  7.919E-01 0.000E+00

     total cpu time spent up to now is      537.1 secs

     total energy              =   -4482.96609123 Ry
     estimated scf accuracy    <       0.00004977 Ry

     iteration # 34     ecut=    60.00 Ry     beta= 0.15
     Davidson diagonalization with overlap

---- Real-time Memory Report at c_bands before calling an iterative solver
             0 MiB given to the printing process from OS
             0 MiB allocation reported by mallinfo(arena+hblkhd)
          5514 MiB available memory on the node where the printing process lives
------------------
     ethr =  1.14E-08,  avg # of iterations =  3.2

     negative rho (up, down):  7.919E-01 0.000E+00

     total cpu time spent up to now is      552.1 secs

     total energy              =   -4482.96609441 Ry
     estimated scf accuracy    <       0.00001739 Ry

     iteration # 35     ecut=    60.00 Ry     beta= 0.15
     Davidson diagonalization with overlap

---- Real-time Memory Report at c_bands before calling an iterative solver
             0 MiB given to the printing process from OS
             0 MiB allocation reported by mallinfo(arena+hblkhd)
          5510 MiB available memory on the node where the printing process lives
------------------
     ethr =  3.98E-09,  avg # of iterations =  3.7

     negative rho (up, down):  7.920E-01 0.000E+00

     total cpu time spent up to now is      567.6 secs

     total energy              =   -4482.96609725 Ry
     estimated scf accuracy    <       0.00001684 Ry

     iteration # 36     ecut=    60.00 Ry     beta= 0.15
     Davidson diagonalization with overlap

---- Real-time Memory Report at c_bands before calling an iterative solver
             0 MiB given to the printing process from OS
             0 MiB allocation reported by mallinfo(arena+hblkhd)
          5518 MiB available memory on the node where the printing process lives
------------------
     ethr =  3.85E-09,  avg # of iterations =  4.2

     negative rho (up, down):  7.921E-01 0.000E+00

     total cpu time spent up to now is      583.0 secs

     total energy              =   -4482.96609745 Ry
     estimated scf accuracy    <       0.00001027 Ry

     iteration # 37     ecut=    60.00 Ry     beta= 0.15
     Davidson diagonalization with overlap

---- Real-time Memory Report at c_bands before calling an iterative solver
             0 MiB given to the printing process from OS
             0 MiB allocation reported by mallinfo(arena+hblkhd)
          5517 MiB available memory on the node where the printing process lives
------------------
     ethr =  2.35E-09,  avg # of iterations =  3.5

     negative rho (up, down):  7.922E-01 0.000E+00

     total cpu time spent up to now is      598.0 secs

     total energy              =   -4482.96609739 Ry
     estimated scf accuracy    <       0.00000917 Ry

     iteration # 38     ecut=    60.00 Ry     beta= 0.15
     Davidson diagonalization with overlap

---- Real-time Memory Report at c_bands before calling an iterative solver
             0 MiB given to the printing process from OS
             0 MiB allocation reported by mallinfo(arena+hblkhd)
          5516 MiB available memory on the node where the printing process lives
------------------
     ethr =  2.10E-09,  avg # of iterations =  2.5

     negative rho (up, down):  7.923E-01 0.000E+00

     total cpu time spent up to now is      612.7 secs

     total energy              =   -4482.96609801 Ry
     estimated scf accuracy    <       0.00000649 Ry

     iteration # 39     ecut=    60.00 Ry     beta= 0.15
     Davidson diagonalization with overlap

---- Real-time Memory Report at c_bands before calling an iterative solver
             0 MiB given to the printing process from OS
             0 MiB allocation reported by mallinfo(arena+hblkhd)
          5520 MiB available memory on the node where the printing process lives
------------------
     ethr =  1.49E-09,  avg # of iterations =  3.3

     negative rho (up, down):  7.923E-01 0.000E+00

     total cpu time spent up to now is      627.7 secs

     total energy              =   -4482.96609907 Ry
     estimated scf accuracy    <       0.00000348 Ry

     iteration # 40     ecut=    60.00 Ry     beta= 0.15
     Davidson diagonalization with overlap

---- Real-time Memory Report at c_bands before calling an iterative solver
             0 MiB given to the printing process from OS
             0 MiB allocation reported by mallinfo(arena+hblkhd)
          5525 MiB available memory on the node where the printing process lives
------------------
     ethr =  7.96E-10,  avg # of iterations =  3.0

     negative rho (up, down):  7.923E-01 0.000E+00

     total cpu time spent up to now is      642.6 secs

     total energy              =   -4482.96610041 Ry
     estimated scf accuracy    <       0.00000346 Ry

     iteration # 41     ecut=    60.00 Ry     beta= 0.15
     Davidson diagonalization with overlap

---- Real-time Memory Report at c_bands before calling an iterative solver
             0 MiB given to the printing process from OS
             0 MiB allocation reported by mallinfo(arena+hblkhd)
          5528 MiB available memory on the node where the printing process lives
------------------
     ethr =  7.92E-10,  avg # of iterations =  4.5

     negative rho (up, down):  7.923E-01 0.000E+00

     total cpu time spent up to now is      658.2 secs

     total energy              =   -4482.96610092 Ry
     estimated scf accuracy    <       0.00000208 Ry

     iteration # 42     ecut=    60.00 Ry     beta= 0.15
     Davidson diagonalization with overlap

---- Real-time Memory Report at c_bands before calling an iterative solver
             0 MiB given to the printing process from OS
             0 MiB allocation reported by mallinfo(arena+hblkhd)
          5533 MiB available memory on the node where the printing process lives
------------------
     ethr =  4.76E-10,  avg # of iterations =  3.9

     negative rho (up, down):  7.923E-01 0.000E+00

     total cpu time spent up to now is      673.7 secs

     total energy              =   -4482.96610118 Ry
     estimated scf accuracy    <       0.00000158 Ry

     iteration # 43     ecut=    60.00 Ry     beta= 0.15
     Davidson diagonalization with overlap

---- Real-time Memory Report at c_bands before calling an iterative solver
             0 MiB given to the printing process from OS
             0 MiB allocation reported by mallinfo(arena+hblkhd)
          5538 MiB available memory on the node where the printing process lives
------------------
     ethr =  3.62E-10,  avg # of iterations =  4.8

     negative rho (up, down):  7.922E-01 0.000E+00

     total cpu time spent up to now is      689.4 secs

     total energy              =   -4482.96610118 Ry
     estimated scf accuracy    <       0.00000082 Ry

     iteration # 44     ecut=    60.00 Ry     beta= 0.15
     Davidson diagonalization with overlap

---- Real-time Memory Report at c_bands before calling an iterative solver
             0 MiB given to the printing process from OS
             0 MiB allocation reported by mallinfo(arena+hblkhd)
          5569 MiB available memory on the node where the printing process lives
------------------
     ethr =  1.89E-10,  avg # of iterations =  4.8

     negative rho (up, down):  7.922E-01 0.000E+00

     total cpu time spent up to now is      705.0 secs

     total energy              =   -4482.96610107 Ry
     estimated scf accuracy    <       0.00000040 Ry

     iteration # 45     ecut=    60.00 Ry     beta= 0.15
     Davidson diagonalization with overlap

---- Real-time Memory Report at c_bands before calling an iterative solver
             0 MiB given to the printing process from OS
             0 MiB allocation reported by mallinfo(arena+hblkhd)
          5581 MiB available memory on the node where the printing process lives
------------------
     ethr =  9.05E-11,  avg # of iterations =  4.1

     negative rho (up, down):  7.922E-01 0.000E+00

     total cpu time spent up to now is      720.2 secs

     total energy              =   -4482.96610112 Ry
     estimated scf accuracy    <       0.00000024 Ry

     iteration # 46     ecut=    60.00 Ry     beta= 0.15
     Davidson diagonalization with overlap

---- Real-time Memory Report at c_bands before calling an iterative solver
             0 MiB given to the printing process from OS
             0 MiB allocation reported by mallinfo(arena+hblkhd)
          5582 MiB available memory on the node where the printing process lives
------------------
     ethr =  5.38E-11,  avg # of iterations =  3.4

     negative rho (up, down):  7.923E-01 0.000E+00

     total cpu time spent up to now is      735.4 secs

     total energy              =   -4482.96610117 Ry
     estimated scf accuracy    <       0.00000014 Ry

     iteration # 47     ecut=    60.00 Ry     beta= 0.15
     Davidson diagonalization with overlap

---- Real-time Memory Report at c_bands before calling an iterative solver
             0 MiB given to the printing process from OS
             0 MiB allocation reported by mallinfo(arena+hblkhd)
          5591 MiB available memory on the node where the printing process lives
------------------
     ethr =  3.32E-11,  avg # of iterations =  4.2

     negative rho (up, down):  7.923E-01 0.000E+00

     total cpu time spent up to now is      751.1 secs

     total energy              =   -4482.96610119 Ry
     estimated scf accuracy    <       0.00000009 Ry

     iteration # 48     ecut=    60.00 Ry     beta= 0.15
     Davidson diagonalization with overlap

---- Real-time Memory Report at c_bands before calling an iterative solver
             0 MiB given to the printing process from OS
             0 MiB allocation reported by mallinfo(arena+hblkhd)
          5596 MiB available memory on the node where the printing process lives
------------------
     ethr =  2.00E-11,  avg # of iterations =  4.7

     negative rho (up, down):  7.923E-01 0.000E+00

     total cpu time spent up to now is      766.8 secs

     total energy              =   -4482.96610118 Ry
     estimated scf accuracy    <       0.00000005 Ry

     iteration # 49     ecut=    60.00 Ry     beta= 0.15
     Davidson diagonalization with overlap

---- Real-time Memory Report at c_bands before calling an iterative solver
             0 MiB given to the printing process from OS
             0 MiB allocation reported by mallinfo(arena+hblkhd)
          5587 MiB available memory on the node where the printing process lives
------------------
     ethr =  1.08E-11,  avg # of iterations =  4.8

     negative rho (up, down):  7.923E-01 0.000E+00

     total cpu time spent up to now is      782.5 secs

     total energy              =   -4482.96610117 Ry
     estimated scf accuracy    <       0.00000003 Ry

     iteration # 50     ecut=    60.00 Ry     beta= 0.15
     Davidson diagonalization with overlap

---- Real-time Memory Report at c_bands before calling an iterative solver
             0 MiB given to the printing process from OS
             0 MiB allocation reported by mallinfo(arena+hblkhd)
          5585 MiB available memory on the node where the printing process lives
------------------
     ethr =  6.73E-12,  avg # of iterations =  4.1

     negative rho (up, down):  7.923E-01 0.000E+00

     total cpu time spent up to now is      798.4 secs

     total energy              =   -4482.96610118 Ry
     estimated scf accuracy    <       0.00000001 Ry

     iteration # 51     ecut=    60.00 Ry     beta= 0.15
     Davidson diagonalization with overlap

---- Real-time Memory Report at c_bands before calling an iterative solver
             0 MiB given to the printing process from OS
             0 MiB allocation reported by mallinfo(arena+hblkhd)
          5586 MiB available memory on the node where the printing process lives
------------------
     ethr =  2.86E-12,  avg # of iterations =  2.8

     negative rho (up, down):  7.923E-01 0.000E+00

     total cpu time spent up to now is      813.4 secs

     End of self-consistent calculation

          k = 0.0000 0.0000 0.0000 ( 65197 PWs)   bands (ev):

   -92.3208 -92.2632 -92.1742 -92.1260 -92.0663 -92.0268 -92.0095 -91.8851
   -55.6740 -55.6492 -55.5322 -55.5218 -55.5129 -55.5086 -55.4689 -55.4439
   -55.4275 -55.4257 -55.4150 -55.3749 -55.3576 -55.3182 -55.3000 -55.2660
   -55.2615 -55.2157 -55.2126 -55.2123 -55.2041 -55.1593 -55.1403 -55.0524
   -30.9073 -30.8880 -30.7962 -30.7473 -30.7101 -30.6604 -30.5512 -30.4380
   -29.4728 -29.4292 -29.4036 -29.2948 -22.2419 -14.7058 -14.6714 -14.5848
   -14.4542 -14.2736 -14.1495 -13.8475 -13.8324 -13.7976 -13.7613 -13.7567
   -13.7172 -13.7078 -13.6923 -13.6771 -13.6557 -13.6234 -13.5559 -13.4088
   -13.2431 -13.1989 -13.1650 -13.1433 -13.1205 -13.0762 -13.0348 -12.9542
   -12.8817 -12.8100 -12.7834 -12.7400 -12.7302 -12.7057 -12.6906 -12.6831
   -12.6445 -12.6283 -12.6082 -12.5936 -12.5821 -12.5597 -12.5493 -12.5313
   -12.4929 -12.4780 -12.4444 -12.3759 -12.3379 -12.3328 -11.9724 -11.8275
   -11.7044 -11.6455 -11.4868 -11.4120 -11.4008 -11.3787 -11.3610 -11.2969
   -11.2797 -11.2451 -11.2163 -11.1049 -11.0241 -11.0206  -5.7800  -3.1486
    -3.1450  -2.5669  -2.3330  -2.1037  -1.9580  -1.8935  -1.7501  -1.4447
    -1.4306  -1.4087  -1.3283  -1.3090  -1.2409  -1.2252  -1.1827  -1.1382
    -0.9574  -0.7366  -0.7068  -0.5540  -0.5408  -0.4981  -0.4805  -0.4357
    -0.4203  -0.3579  -0.3317  -0.2650  -0.2515  -0.1705  -0.0446  -0.0298
    -0.0017   0.0649   0.0815   0.0957   0.1663   0.2449   0.2802   0.3368
     0.3645   0.4144   0.4970   0.5550   0.5716   0.5827   0.8359   0.8513
     1.0250   1.0954   1.1609   1.1907   1.2897   1.3070   1.3186   1.3923
     1.4202   1.4547   1.5145   1.6495   1.7037   1.7221   1.7362   1.7471
     1.8200   1.9001   1.9891   2.0012   2.0657   2.0876   2.1218   2.1425
     2.1478   2.2044   2.2528   2.2729   2.2942   2.3457   2.3968   2.5251
     2.6051   2.6551   2.6630   2.8193   2.8352   2.8809   2.8918   2.9881
     3.0306   3.0552   3.0747   3.0850   3.0916   3.1031   3.1684   3.2812
     3.3126   3.3287   3.3359   3.4021   3.4057   3.4304   3.4392   3.4459
     3.4564   3.4647   3.4771   3.4826   3.4968   3.5056   3.5136   3.5342
     3.5552   3.5605   3.5722   3.5983   3.7138   3.7568   4.4357   4.7420
     4.8304   5.1507   5.4016   5.5154   5.6614   6.2886   6.3342   6.3656
     6.6242   6.6404   6.6925   6.7408   6.9348   7.1616   7.3495   7.3658
     7.3883   7.6642   7.7860   7.9091   7.9441   7.9665   8.0026   8.0787
     8.3071   8.3452   8.3683   8.3841   8.5026   8.5593   8.6476

     occupation numbers 
     1.0000   1.0000   1.0000   1.0000   1.0000   1.0000   1.0000   1.0000
     1.0000   1.0000   1.0000   1.0000   1.0000   1.0000   1.0000   1.0000
     1.0000   1.0000   1.0000   1.0000   1.0000   1.0000   1.0000   1.0000
     1.0000   1.0000   1.0000   1.0000   1.0000   1.0000   1.0000   1.0000
     1.0000   1.0000   1.0000   1.0000   1.0000   1.0000   1.0000   1.0000
     1.0000   1.0000   1.0000   1.0000   1.0000   1.0000   1.0000   1.0000
     1.0000   1.0000   1.0000   1.0000   1.0000   1.0000   1.0000   1.0000
     1.0000   1.0000   1.0000   1.0000   1.0000   1.0000   1.0000   1.0000
     1.0000   1.0000   1.0000   1.0000   1.0000   1.0000   1.0000   1.0000
     1.0000   1.0000   1.0000   1.0000   1.0000   1.0000   1.0000   1.0000
     1.0000   1.0000   1.0000   1.0000   1.0000   1.0000   1.0000   1.0000
     1.0000   1.0000   1.0000   1.0000   1.0000   1.0000   1.0000   1.0000
     1.0000   1.0000   1.0000   1.0000   1.0000   1.0000   1.0000   1.0000
     1.0000   1.0000   1.0000   1.0000   1.0000   1.0000   1.0000   1.0000
     1.0000   1.0000   1.0000   1.0000   1.0000   1.0000   1.0000   1.0000
     1.0000   1.0000   1.0000   1.0000   1.0000   1.0000   1.0000   1.0000
     1.0000   1.0000   1.0000   1.0000   1.0000   1.0000   1.0000   1.0000
     1.0000   1.0000   1.0000   1.0000   1.0000   1.0000   1.0000   1.0000
     1.0000   1.0000   1.0000   1.0000   1.0000   1.0000   1.0000   1.0000
     1.0000   1.0000   1.0000   1.0000   1.0000   1.0000   1.0000   1.0000
     1.0000   0.9999   0.9999   0.9999   0.9998   0.9998   0.9998   0.9997
     0.9997   0.9996   0.9994   0.9989   0.9985   0.9984   0.9983   0.9982
     0.9974   0.9963   0.9946   0.9943   0.9926   0.9919   0.9907   0.9899
     0.9897   0.9871   0.9845   0.9833   0.9820   0.9783   0.9740   0.9602
     0.9489   0.9406   0.9392   0.9060   0.9019   0.8897   0.8866   0.8567
     0.8420   0.8330   0.8257   0.8217   0.8191   0.8146   0.7876   0.7358
     0.7204   0.7122   0.7086   0.6740   0.6720   0.6587   0.6539   0.6502
     0.6444   0.6398   0.6329   0.6298   0.6219   0.6169   0.6124   0.6005
     0.5885   0.5854   0.5786   0.5634   0.4953   0.4698   0.1392   0.0620
     0.0475   0.0160   0.0059   0.0036   0.0018   0.0001   0.0000   0.0000
     0.0000   0.0000   0.0000   0.0000   0.0000   0.0000   0.0000   0.0000
     0.0000   0.0000   0.0000   0.0000   0.0000   0.0000   0.0000   0.0000
     0.0000   0.0000   0.0000   0.0000   0.0000   0.0000   0.0000

          k = 0.0000 0.2500 0.0000 ( 65257 PWs)   bands (ev):

   -92.3208 -92.2632 -92.1742 -92.1260 -92.0663 -92.0268 -92.0095 -91.8851
   -55.6740 -55.6492 -55.5322 -55.5218 -55.5129 -55.5086 -55.4689 -55.4439
   -55.4275 -55.4257 -55.4150 -55.3749 -55.3576 -55.3182 -55.3000 -55.2660
   -55.2615 -55.2157 -55.2126 -55.2123 -55.2041 -55.1593 -55.1403 -55.0524
   -30.9071 -30.8879 -30.7958 -30.7475 -30.7104 -30.6606 -30.5509 -30.4383
   -29.4722 -29.4289 -29.4042 -29.2951 -22.2419 -14.6687 -14.6454 -14.5597
   -14.4251 -14.3111 -14.1403 -13.9928 -13.8130 -13.7858 -13.7637 -13.7588
   -13.7332 -13.6770 -13.6712 -13.6559 -13.6404 -13.6085 -13.4765 -13.4396
   -13.2778 -13.2663 -13.2077 -13.1744 -13.1353 -13.0916 -13.0545 -12.9732
   -12.9405 -12.9084 -12.8594 -12.7852 -12.7760 -12.7378 -12.7217 -12.6604
   -12.6131 -12.5890 -12.5650 -12.5462 -12.5372 -12.5138 -12.4952 -12.4862
   -12.4469 -12.4300 -12.4252 -12.3746 -12.2453 -12.1822 -12.0338 -11.8788
   -11.7601 -11.7121 -11.4522 -11.4088 -11.3814 -11.3529 -11.3361 -11.2890
   -11.2775 -11.2552 -11.2211 -11.1191 -11.0658 -11.0552  -5.7800  -3.1488
    -3.1450  -2.4318  -2.2086  -2.0719  -1.8895  -1.8461  -1.6811  -1.4650
    -1.3766  -1.3636  -1.3096  -1.2053  -1.1905  -1.1563  -1.1307  -1.0873
    -0.8885  -0.7612  -0.7485  -0.6743  -0.6612  -0.5568  -0.5255  -0.4716
    -0.4475  -0.4021  -0.3413  -0.3162  -0.2824  -0.2519  -0.2353  -0.2017
    -0.1287  -0.0759  -0.0247   0.0916   0.1076   0.1559   0.2779   0.3088
     0.3729   0.4233   0.4718   0.5003   0.5328   0.5910   0.8848   0.9720
     1.0019   1.0902   1.1329   1.1499   1.2806   1.2992   1.3935   1.4178
     1.4493   1.5637   1.6471   1.6794   1.6994   1.7134   1.7478   1.8088
     1.8330   1.8606   1.9103   1.9392   1.9680   2.0449   2.0755   2.1160
     2.1677   2.2239   2.2598   2.2848   2.3201   2.3458   2.4311   2.5614
     2.6314   2.6476   2.7336   2.7775   2.8163   2.8237   2.8866   2.9309
     3.0067   3.0448   3.0622   3.0871   3.1026   3.2421   3.2642   3.2962
     3.3150   3.3345   3.3436   3.3517   3.3600   3.3893   3.3911   3.4079
     3.4125   3.4252   3.4411   3.4511   3.4625   3.4853   3.4957   3.5002
     3.5356   3.5526   3.6130   3.9753   3.9866   4.2510   4.6213   4.7560
     4.9293   5.0911   5.4229   5.5653   5.7860   5.9164   6.1713   6.3251
     6.3469   6.4740   6.5423   6.7513   6.8718   7.0224   7.2988   7.4601
     7.5639   7.7386   7.8148   7.8671   7.9379   7.9868   8.0845   8.1741
     8.2335   8.3933   8.4864   8.5761   8.6041   8.6956   8.9425

     occupation numbers 
     1.0000   1.0000   1.0000   1.0000   1.0000   1.0000   1.0000   1.0000
     1.0000   1.0000   1.0000   1.0000   1.0000   1.0000   1.0000   1.0000
     1.0000   1.0000   1.0000   1.0000   1.0000   1.0000   1.0000   1.0000
     1.0000   1.0000   1.0000   1.0000   1.0000   1.0000   1.0000   1.0000
     1.0000   1.0000   1.0000   1.0000   1.0000   1.0000   1.0000   1.0000
     1.0000   1.0000   1.0000   1.0000   1.0000   1.0000   1.0000   1.0000
     1.0000   1.0000   1.0000   1.0000   1.0000   1.0000   1.0000   1.0000
     1.0000   1.0000   1.0000   1.0000   1.0000   1.0000   1.0000   1.0000
     1.0000   1.0000   1.0000   1.0000   1.0000   1.0000   1.0000   1.0000
     1.0000   1.0000   1.0000   1.0000   1.0000   1.0000   1.0000   1.0000
     1.0000   1.0000   1.0000   1.0000   1.0000   1.0000   1.0000   1.0000
     1.0000   1.0000   1.0000   1.0000   1.0000   1.0000   1.0000   1.0000
     1.0000   1.0000   1.0000   1.0000   1.0000   1.0000   1.0000   1.0000
     1.0000   1.0000   1.0000   1.0000   1.0000   1.0000   1.0000   1.0000
     1.0000   1.0000   1.0000   1.0000   1.0000   1.0000   1.0000   1.0000
     1.0000   1.0000   1.0000   1.0000   1.0000   1.0000   1.0000   1.0000
     1.0000   1.0000   1.0000   1.0000   1.0000   1.0000   1.0000   1.0000
     1.0000   1.0000   1.0000   1.0000   1.0000   1.0000   1.0000   1.0000
     1.0000   1.0000   1.0000   1.0000   1.0000   1.0000   1.0000   1.0000
     1.0000   1.0000   1.0000   1.0000   1.0000   1.0000   1.0000   1.0000
     1.0000   0.9999   0.9999   0.9999   0.9998   0.9998   0.9997   0.9997
     0.9996   0.9993   0.9989   0.9987   0.9986   0.9985   0.9982   0.9976
     0.9973   0.9969   0.9962   0.9956   0.9951   0.9932   0.9923   0.9909
     0.9888   0.9861   0.9841   0.9826   0.9802   0.9783   0.9708   0.9554
     0.9447   0.9419   0.9256   0.9160   0.9067   0.9049   0.8881   0.8750
     0.8504   0.8368   0.8304   0.8209   0.8148   0.7545   0.7440   0.7285
     0.7191   0.7093   0.7046   0.7005   0.6962   0.6808   0.6798   0.6709
     0.6684   0.6615   0.6529   0.6473   0.6411   0.6283   0.6225   0.6199
     0.5998   0.5900   0.5548   0.3445   0.3384   0.2091   0.0870   0.0594
     0.0346   0.0198   0.0054   0.0029   0.0010   0.0005   0.0001   0.0001
     0.0000   0.0000   0.0000   0.0000   0.0000   0.0000   0.0000   0.0000
     0.0000   0.0000   0.0000   0.0000   0.0000   0.0000   0.0000   0.0000
     0.0000   0.0000   0.0000   0.0000   0.0000   0.0000   0.0000

          k = 0.0000-0.5000 0.0000 ( 65180 PWs)   bands (ev):

   -92.3208 -92.2632 -92.1742 -92.1260 -92.0663 -92.0268 -92.0095 -91.8851
   -55.6740 -55.6492 -55.5322 -55.5218 -55.5129 -55.5086 -55.4689 -55.4439
   -55.4275 -55.4257 -55.4150 -55.3748 -55.3576 -55.3182 -55.3000 -55.2660
   -55.2615 -55.2157 -55.2126 -55.2123 -55.2041 -55.1593 -55.1403 -55.0524
   -30.9069 -30.8878 -30.7955 -30.7477 -30.7108 -30.6607 -30.5507 -30.4386
   -29.4716 -29.4286 -29.4049 -29.2954 -22.2419 -14.6377 -14.5885 -14.5371
   -14.4138 -14.3238 -14.1873 -14.0427 -13.9196 -13.7820 -13.7607 -13.7260
   -13.6802 -13.6630 -13.6207 -13.5988 -13.5529 -13.5400 -13.5093 -13.4739
   -13.4588 -13.4108 -13.2092 -13.1577 -13.1439 -13.0826 -13.0692 -12.9876
   -12.9777 -12.9313 -12.9141 -12.8489 -12.7732 -12.7378 -12.7156 -12.7041
   -12.6003 -12.5874 -12.5594 -12.5411 -12.5119 -12.5107 -12.4866 -12.4357
   -12.4071 -12.3813 -12.3348 -12.2814 -12.1449 -12.1109 -11.9704 -11.9540
   -11.8735 -11.8287 -11.4057 -11.4038 -11.3766 -11.3383 -11.3044 -11.2934
   -11.2508 -11.2469 -11.2027 -11.1406 -11.1265 -11.1121  -5.7799  -3.1490
    -3.1450  -2.2174  -2.1572  -2.0055  -1.9327  -1.6545  -1.5694  -1.4417
    -1.3027  -1.2699  -1.2472  -1.1684  -1.1378  -1.0561  -1.0208  -0.9457
    -0.9033  -0.8634  -0.8369  -0.7832  -0.7438  -0.6987  -0.6625  -0.6272
    -0.5938  -0.4833  -0.4376  -0.4068  -0.4056  -0.3193  -0.2863  -0.2633
    -0.2159  -0.1332  -0.0620   0.0127   0.0411   0.1503   0.2005   0.3458
     0.3633   0.4039   0.4497   0.5815   0.6262   0.7682   0.8311   0.8393
     0.9683   1.0025   1.1033   1.2471   1.3534   1.3836   1.4154   1.4246
     1.4598   1.4836   1.5204   1.5390   1.5477   1.6568   1.7153   1.7384
     1.7644   2.0206   2.0590   2.0793   2.1719   2.1987   2.2303   2.2489
     2.2825   2.2917   2.2941   2.3374   2.3725   2.3981   2.4211   2.4401
     2.4710   2.5254   2.6014   2.6274   2.8132   2.9774   2.9858   2.9995
     3.0389   3.0451   3.0552   3.0831   3.1000   3.1161   3.1224   3.1761
     3.1962   3.2719   3.2850   3.3517   3.3624   3.3859   3.3867   3.4080
     3.4114   3.4133   3.4184   3.4220   3.4348   3.4556   3.4563   3.5209
     3.5267   3.5422   3.5966   4.4844   4.5197   4.5463   4.6036   4.9638
     5.1228   5.2429   5.4663   5.5283   5.5818   5.8471   5.9637   5.9886
     6.2267   6.3853   6.3873   6.4153   7.0173   7.0582   7.1618   7.4129
     7.5683   7.5859   7.7435   8.0162   8.0765   8.0960   8.2294   8.3201
     8.4104   8.5656   8.6454   8.7356   8.7465   8.8595   8.9689

     occupation numbers 
     1.0000   1.0000   1.0000   1.0000   1.0000   1.0000   1.0000   1.0000
     1.0000   1.0000   1.0000   1.0000   1.0000   1.0000   1.0000   1.0000
     1.0000   1.0000   1.0000   1.0000   1.0000   1.0000   1.0000   1.0000
     1.0000   1.0000   1.0000   1.0000   1.0000   1.0000   1.0000   1.0000
     1.0000   1.0000   1.0000   1.0000   1.0000   1.0000   1.0000   1.0000
     1.0000   1.0000   1.0000   1.0000   1.0000   1.0000   1.0000   1.0000
     1.0000   1.0000   1.0000   1.0000   1.0000   1.0000   1.0000   1.0000
     1.0000   1.0000   1.0000   1.0000   1.0000   1.0000   1.0000   1.0000
     1.0000   1.0000   1.0000   1.0000   1.0000   1.0000   1.0000   1.0000
     1.0000   1.0000   1.0000   1.0000   1.0000   1.0000   1.0000   1.0000
     1.0000   1.0000   1.0000   1.0000   1.0000   1.0000   1.0000   1.0000
     1.0000   1.0000   1.0000   1.0000   1.0000   1.0000   1.0000   1.0000
     1.0000   1.0000   1.0000   1.0000   1.0000   1.0000   1.0000   1.0000
     1.0000   1.0000   1.0000   1.0000   1.0000   1.0000   1.0000   1.0000
     1.0000   1.0000   1.0000   1.0000   1.0000   1.0000   1.0000   1.0000
     1.0000   1.0000   1.0000   1.0000   1.0000   1.0000   1.0000   1.0000
     1.0000   1.0000   1.0000   1.0000   1.0000   1.0000   1.0000   1.0000
     1.0000   1.0000   1.0000   1.0000   1.0000   1.0000   1.0000   1.0000
     1.0000   1.0000   1.0000   1.0000   1.0000   1.0000   1.0000   1.0000
     1.0000   1.0000   1.0000   1.0000   1.0000   1.0000   1.0000   1.0000
     1.0000   1.0000   0.9999   0.9999   0.9998   0.9997   0.9997   0.9996
     0.9996   0.9995   0.9994   0.9994   0.9993   0.9988   0.9984   0.9983
     0.9980   0.9938   0.9928   0.9921   0.9886   0.9874   0.9858   0.9847
     0.9827   0.9821   0.9820   0.9789   0.9761   0.9739   0.9718   0.9699
     0.9666   0.9602   0.9495   0.9453   0.9075   0.8603   0.8575   0.8529
     0.8390   0.8367   0.8330   0.8224   0.8158   0.8094   0.8068   0.7842
     0.7754   0.7403   0.7340   0.7005   0.6949   0.6826   0.6822   0.6708
     0.6690   0.6680   0.6652   0.6633   0.6563   0.6449   0.6445   0.6082
     0.6048   0.5960   0.5644   0.1238   0.1134   0.1060   0.0912   0.0309
     0.0177   0.0112   0.0045   0.0034   0.0027   0.0007   0.0004   0.0003
     0.0001   0.0000   0.0000   0.0000   0.0000   0.0000   0.0000   0.0000
     0.0000   0.0000   0.0000   0.0000   0.0000   0.0000   0.0000   0.0000
     0.0000   0.0000   0.0000   0.0000   0.0000   0.0000   0.0000

          k = 0.2500 0.2500 0.0000 ( 65198 PWs)   bands (ev):

   -92.3208 -92.2632 -92.1742 -92.1260 -92.0663 -92.0268 -92.0095 -91.8851
   -55.6740 -55.6492 -55.5322 -55.5218 -55.5129 -55.5086 -55.4689 -55.4439
   -55.4275 -55.4257 -55.4150 -55.3749 -55.3576 -55.3182 -55.3000 -55.2660
   -55.2615 -55.2157 -55.2126 -55.2123 -55.2041 -55.1593 -55.1403 -55.0524
   -30.9054 -30.8896 -30.7957 -30.7471 -30.7103 -30.6610 -30.5511 -30.4384
   -29.4713 -29.4299 -29.4039 -29.2955 -22.2419 -14.6410 -14.6094 -14.5320
   -14.4148 -14.3028 -14.1786 -14.0980 -13.9003 -13.7610 -13.7366 -13.7259
   -13.6920 -13.6611 -13.6398 -13.6177 -13.5884 -13.5696 -13.4693 -13.4544
   -13.2929 -13.2806 -13.2497 -13.2294 -13.2005 -13.1412 -13.1040 -13.0556
   -12.9704 -12.9425 -12.8610 -12.7755 -12.7472 -12.7279 -12.6837 -12.6558
   -12.6483 -12.5978 -12.5783 -12.5725 -12.5373 -12.5202 -12.4845 -12.4474
   -12.3876 -12.3795 -12.3691 -12.3435 -12.1948 -12.0846 -12.0820 -11.9079
   -11.7895 -11.7599 -11.4244 -11.3923 -11.3818 -11.3746 -11.3121 -11.2770
   -11.2705 -11.2352 -11.2276 -11.1356 -11.0941 -11.0765  -5.7799  -3.1488
    -3.1452  -2.2938  -2.0829  -1.9662  -1.8726  -1.7502  -1.6842  -1.4903
    -1.3422  -1.3216  -1.2959  -1.2002  -1.1660  -1.0732  -1.0463  -0.9963
    -0.8634  -0.8165  -0.7454  -0.6988  -0.6559  -0.6305  -0.6048  -0.5637
    -0.5472  -0.4579  -0.4080  -0.3473  -0.2971  -0.2666  -0.2129  -0.2027
    -0.1404  -0.0905  -0.0415   0.0004   0.0804   0.1367   0.1646   0.2074
     0.2601   0.3274   0.3726   0.3931   0.4640   0.5003   0.7784   0.9219
     0.9637   1.0122   1.0594   1.1032   1.1766   1.2256   1.2637   1.5363
     1.6105   1.6850   1.7122   1.7524   1.7912   1.8252   1.8625   1.8799
     1.9085   1.9462   1.9556   1.9759   2.0125   2.0547   2.0963   2.1438
     2.1837   2.1932   2.2237   2.2627   2.3125   2.3459   2.4748   2.5405
     2.5812   2.6111   2.6627   2.7382   2.7680   2.8061   2.8301   2.8407
     2.9518   2.9874   3.0742   3.0883   3.0995   3.2533   3.2700   3.2772
     3.2927   3.3055   3.3190   3.3327   3.3401   3.3492   3.3628   3.3740
     3.3944   3.4002   3.4115   3.4315   3.4463   3.4561   3.4867   3.7892
     3.8814   3.9144   3.9814   4.0052   4.2182   4.3308   4.6617   4.8008
     5.0072   5.1387   5.3418   5.6183   5.8890   5.9363   6.0083   6.1350
     6.2201   6.2604   6.3691   6.4201   6.9188   6.9685   7.0887   7.1637
     7.7209   7.8069   7.8471   7.8920   8.0408   8.1633   8.2216   8.2587
     8.3506   8.4350   8.5359   8.6841   8.7346   8.7702   8.8513

     occupation numbers 
     1.0000   1.0000   1.0000   1.0000   1.0000   1.0000   1.0000   1.0000
     1.0000   1.0000   1.0000   1.0000   1.0000   1.0000   1.0000   1.0000
     1.0000   1.0000   1.0000   1.0000   1.0000   1.0000   1.0000   1.0000
     1.0000   1.0000   1.0000   1.0000   1.0000   1.0000   1.0000   1.0000
     1.0000   1.0000   1.0000   1.0000   1.0000   1.0000   1.0000   1.0000
     1.0000   1.0000   1.0000   1.0000   1.0000   1.0000   1.0000   1.0000
     1.0000   1.0000   1.0000   1.0000   1.0000   1.0000   1.0000   1.0000
     1.0000   1.0000   1.0000   1.0000   1.0000   1.0000   1.0000   1.0000
     1.0000   1.0000   1.0000   1.0000   1.0000   1.0000   1.0000   1.0000
     1.0000   1.0000   1.0000   1.0000   1.0000   1.0000   1.0000   1.0000
     1.0000   1.0000   1.0000   1.0000   1.0000   1.0000   1.0000   1.0000
     1.0000   1.0000   1.0000   1.0000   1.0000   1.0000   1.0000   1.0000
     1.0000   1.0000   1.0000   1.0000   1.0000   1.0000   1.0000   1.0000
     1.0000   1.0000   1.0000   1.0000   1.0000   1.0000   1.0000   1.0000
     1.0000   1.0000   1.0000   1.0000   1.0000   1.0000   1.0000   1.0000
     1.0000   1.0000   1.0000   1.0000   1.0000   1.0000   1.0000   1.0000
     1.0000   1.0000   1.0000   1.0000   1.0000   1.0000   1.0000   1.0000
     1.0000   1.0000   1.0000   1.0000   1.0000   1.0000   1.0000   1.0000
     1.0000   1.0000   1.0000   1.0000   1.0000   1.0000   1.0000   1.0000
     1.0000   1.0000   1.0000   1.0000   1.0000   1.0000   1.0000   1.0000
     1.0000   1.0000   1.0000   0.9999   0.9999   0.9999   0.9999   0.9994
     0.9991   0.9987   0.9985   0.9981   0.9978   0.9974   0.9969   0.9966
     0.9962   0.9955   0.9953   0.9949   0.9940   0.9929   0.9916   0.9898
     0.9881   0.9876   0.9861   0.9839   0.9807   0.9783   0.9662   0.9582
     0.9525   0.9480   0.9393   0.9246   0.9181   0.9092   0.9033   0.9005
     0.8685   0.8570   0.8258   0.8204   0.8160   0.7492   0.7412   0.7378
     0.7302   0.7239   0.7171   0.7102   0.7064   0.7018   0.6948   0.6889
     0.6781   0.6750   0.6690   0.6581   0.6500   0.6446   0.6275   0.4507
     0.3972   0.3784   0.3412   0.3283   0.2234   0.1767   0.0779   0.0520
     0.0267   0.0167   0.0076   0.0023   0.0006   0.0005   0.0003   0.0002
     0.0001   0.0001   0.0000   0.0000   0.0000   0.0000   0.0000   0.0000
     0.0000   0.0000   0.0000   0.0000   0.0000   0.0000   0.0000   0.0000
     0.0000   0.0000   0.0000   0.0000   0.0000   0.0000   0.0000

          k = 0.2500-0.5000 0.0000 ( 65138 PWs)   bands (ev):

   -92.3208 -92.2632 -92.1742 -92.1260 -92.0663 -92.0268 -92.0095 -91.8851
   -55.6740 -55.6492 -55.5322 -55.5218 -55.5129 -55.5086 -55.4689 -55.4439
   -55.4275 -55.4257 -55.4150 -55.3748 -55.3576 -55.3182 -55.3000 -55.2660
   -55.2615 -55.2157 -55.2126 -55.2123 -55.2041 -55.1593 -55.1403 -55.0524
   -30.9052 -30.8895 -30.7954 -30.7473 -30.7106 -30.6611 -30.5508 -30.4387
   -29.4706 -29.4296 -29.4045 -29.2958 -22.2419 -14.6073 -14.5614 -14.4940
   -14.3823 -14.3482 -14.2271 -14.1442 -14.0154 -13.7608 -13.7000 -13.6556
   -13.6240 -13.6049 -13.5874 -13.5702 -13.5389 -13.5276 -13.4910 -13.4484
   -13.4380 -13.4044 -13.2931 -13.2448 -13.2188 -13.1652 -13.1282 -13.0960
   -13.0231 -12.9989 -12.8366 -12.7728 -12.7603 -12.7132 -12.6771 -12.6599
   -12.6191 -12.6000 -12.5738 -12.5431 -12.5380 -12.5084 -12.4874 -12.4515
   -12.4166 -12.3881 -12.2853 -12.2539 -12.1516 -12.0902 -11.9517 -11.9444
   -11.8670 -11.8298 -11.3998 -11.3879 -11.3769 -11.3497 -11.3183 -11.2899
   -11.2488 -11.2209 -11.1988 -11.1536 -11.1276 -11.1162  -5.7799  -3.1490
    -3.1452  -2.0762  -2.0094  -1.8796  -1.8017  -1.6751  -1.5900  -1.4663
    -1.3147  -1.2634  -1.2400  -1.1767  -1.1632  -1.0668  -0.9999  -0.9137
    -0.8674  -0.8574  -0.7921  -0.7526  -0.7156  -0.6692  -0.6326  -0.5973
    -0.5563  -0.5464  -0.5004  -0.4721  -0.4319  -0.4008  -0.3329  -0.2350
    -0.1934  -0.1170  -0.0540  -0.0079   0.0394   0.0629   0.1071   0.2723
     0.2861   0.3761   0.4253   0.4317   0.4775   0.5063   0.5514   0.5759
     0.6501   0.9055   0.9974   1.0669   1.1411   1.3927   1.4216   1.5099
     1.5370   1.7072   1.7366   1.7827   1.8066   1.8257   1.8446   1.9032
     1.9446   1.9853   2.0594   2.1438   2.1892   2.2089   2.2194   2.2595
     2.2722   2.2759   2.3228   2.3364   2.3535   2.3746   2.4070   2.4324
     2.4631   2.5230   2.5567   2.6327   2.7809   2.9316   2.9469   2.9646
     2.9893   3.0143   3.0416   3.0689   3.0785   3.0822   3.0977   3.1164
     3.2021   3.2511   3.2703   3.2722   3.2900   3.3104   3.3242   3.3431
     3.3500   3.3791   3.3915   3.4080   3.4168   3.4244   3.4366   3.9518
     3.9589   4.1206   4.1688   4.5045   4.5491   4.5591   4.6734   5.0325
     5.1465   5.2733   5.4732   5.5261   5.6282   5.6969   5.8763   5.9746
     6.0930   6.1083   6.2858   6.4668   6.5828   6.6496   7.0723   7.2824
     7.5070   7.6203   7.9744   8.0844   8.1896   8.2107   8.3528   8.4310
     8.5187   8.5598   8.6793   8.7538   8.8471   8.8888   8.9393

     occupation numbers 
     1.0000   1.0000   1.0000   1.0000   1.0000   1.0000   1.0000   1.0000
     1.0000   1.0000   1.0000   1.0000   1.0000   1.0000   1.0000   1.0000
     1.0000   1.0000   1.0000   1.0000   1.0000   1.0000   1.0000   1.0000
     1.0000   1.0000   1.0000   1.0000   1.0000   1.0000   1.0000   1.0000
     1.0000   1.0000   1.0000   1.0000   1.0000   1.0000   1.0000   1.0000
     1.0000   1.0000   1.0000   1.0000   1.0000   1.0000   1.0000   1.0000
     1.0000   1.0000   1.0000   1.0000   1.0000   1.0000   1.0000   1.0000
     1.0000   1.0000   1.0000   1.0000   1.0000   1.0000   1.0000   1.0000
     1.0000   1.0000   1.0000   1.0000   1.0000   1.0000   1.0000   1.0000
     1.0000   1.0000   1.0000   1.0000   1.0000   1.0000   1.0000   1.0000
     1.0000   1.0000   1.0000   1.0000   1.0000   1.0000   1.0000   1.0000
     1.0000   1.0000   1.0000   1.0000   1.0000   1.0000   1.0000   1.0000
     1.0000   1.0000   1.0000   1.0000   1.0000   1.0000   1.0000   1.0000
     1.0000   1.0000   1.0000   1.0000   1.0000   1.0000   1.0000   1.0000
     1.0000   1.0000   1.0000   1.0000   1.0000   1.0000   1.0000   1.0000
     1.0000   1.0000   1.0000   1.0000   1.0000   1.0000   1.0000   1.0000
     1.0000   1.0000   1.0000   1.0000   1.0000   1.0000   1.0000   1.0000
     1.0000   1.0000   1.0000   1.0000   1.0000   1.0000   1.0000   1.0000
     1.0000   1.0000   1.0000   1.0000   1.0000   1.0000   1.0000   1.0000
     1.0000   1.0000   1.0000   1.0000   1.0000   1.0000   1.0000   1.0000
     1.0000   1.0000   1.0000   1.0000   0.9999   0.9997   0.9997   0.9994
     0.9994   0.9985   0.9983   0.9979   0.9976   0.9974   0.9971   0.9963
     0.9955   0.9947   0.9928   0.9898   0.9878   0.9869   0.9863   0.9841
     0.9834   0.9831   0.9800   0.9790   0.9777   0.9760   0.9731   0.9707
     0.9675   0.9605   0.9560   0.9445   0.9152   0.8748   0.8701   0.8645
     0.8563   0.8477   0.8380   0.8279   0.8242   0.8228   0.8167   0.8093
     0.7727   0.7502   0.7411   0.7402   0.7315   0.7214   0.7145   0.7049
     0.7013   0.6862   0.6796   0.6708   0.6661   0.6620   0.6553   0.3575
     0.3535   0.2690   0.2459   0.1178   0.1052   0.1026   0.0754   0.0244
     0.0162   0.0100   0.0043   0.0034   0.0022   0.0016   0.0006   0.0004
     0.0002   0.0002   0.0001   0.0000   0.0000   0.0000   0.0000   0.0000
     0.0000   0.0000   0.0000   0.0000   0.0000   0.0000   0.0000   0.0000
     0.0000   0.0000   0.0000   0.0000   0.0000   0.0000   0.0000

          k =-0.5000-0.5000 0.0000 ( 65132 PWs)   bands (ev):

   -92.3208 -92.2632 -92.1742 -92.1260 -92.0663 -92.0268 -92.0095 -91.8851
   -55.6740 -55.6492 -55.5322 -55.5218 -55.5129 -55.5086 -55.4689 -55.4439
   -55.4275 -55.4257 -55.4150 -55.3748 -55.3576 -55.3182 -55.3000 -55.2660
   -55.2615 -55.2157 -55.2126 -55.2123 -55.2041 -55.1593 -55.1403 -55.0524
   -30.9029 -30.8917 -30.7952 -30.7469 -30.7105 -30.6615 -30.5509 -30.4389
   -29.4696 -29.4306 -29.4041 -29.2963 -22.2419 -14.5616 -14.5337 -14.4171
   -14.4062 -14.3153 -14.2735 -14.2486 -14.1144 -13.7608 -13.6133 -13.6030
   -13.5657 -13.5493 -13.5311 -13.5241 -13.4860 -13.4789 -13.4666 -13.4587
   -13.4433 -13.3634 -13.3553 -13.3368 -13.3174 -13.2927 -13.2039 -13.1899
   -13.0632 -13.0590 -12.7881 -12.7563 -12.6870 -12.6818 -12.6562 -12.6472
   -12.6150 -12.6112 -12.6028 -12.5840 -12.5206 -12.5036 -12.4920 -12.4727
   -12.4243 -12.4017 -12.2351 -12.2275 -12.1680 -12.0709 -11.9482 -11.9157
   -11.8648 -11.8299 -11.3960 -11.3840 -11.3662 -11.3494 -11.3149 -11.2968
   -11.2624 -11.2012 -11.1811 -11.1757 -11.1253 -11.1221  -5.7799  -3.1490
    -3.1454  -1.8538  -1.7765  -1.7647  -1.6938  -1.6542  -1.5758  -1.5082
    -1.3835  -1.2649  -1.2349  -1.1975  -1.1383  -1.0668  -1.0532  -0.9811
    -0.9390  -0.8238  -0.7969  -0.7482  -0.7144  -0.6508  -0.6081  -0.5880
    -0.5770  -0.5260  -0.4759  -0.4658  -0.3504  -0.2930  -0.2462  -0.1968
    -0.1755  -0.1640  -0.1249  -0.0844  -0.0532  -0.0363   0.0495   0.1148
     0.1660   0.1856   0.2622   0.3090   0.3337   0.3829   0.3933   0.4195
     0.4290   0.8716   0.9131   1.0088   1.0587   1.4277   1.4392   1.4727
     1.5121   1.7885   1.8080   1.8150   1.8515   1.9896   2.0864   2.1121
     2.1471   2.1553   2.1864   2.1947   2.2284   2.2345   2.2474   2.2582
     2.3146   2.3225   2.3463   2.3642   2.3758   2.3931   2.4305   2.4609
     2.4670   2.5054   2.5245   2.6048   2.6713   2.9452   2.9765   2.9941
     3.0150   3.0192   3.0520   3.0541   3.0677   3.0882   3.0888   3.1037
     3.1085   3.1294   3.1401   3.2031   3.2074   3.2280   3.2421   3.2521
     3.2713   3.2772   3.2860   3.3870   3.3923   3.4200   3.4298   4.3624
     4.3904   4.4279   4.4490   4.6968   4.7660   4.7972   5.0372   5.1498
     5.1602   5.2438   5.3794   5.4104   5.4281   5.5773   5.7026   5.7465
     5.9783   6.0094   6.1199   6.2829   6.4945   6.6818   6.7145   7.1368
     7.5184   7.5233   7.6922   8.2978   8.3199   8.3979   8.4561   8.5754
     8.6057   8.7872   8.8929   8.9130   8.9351   8.9744   8.9939

     occupation numbers 
     1.0000   1.0000   1.0000   1.0000   1.0000   1.0000   1.0000   1.0000
     1.0000   1.0000   1.0000   1.0000   1.0000   1.0000   1.0000   1.0000
     1.0000   1.0000   1.0000   1.0000   1.0000   1.0000   1.0000   1.0000
     1.0000   1.0000   1.0000   1.0000   1.0000   1.0000   1.0000   1.0000
     1.0000   1.0000   1.0000   1.0000   1.0000   1.0000   1.0000   1.0000
     1.0000   1.0000   1.0000   1.0000   1.0000   1.0000   1.0000   1.0000
[...]
     0.0000   0.0000   0.0000   0.0000   0.0000   0.0000   0.0000   0.0000
     0.0000   0.0000   0.0000   0.0000   0.0000   0.0000   0.0000

          k =-0.5000 0.0000 0.0000 ( 65180 PWs)   bands (ev):

   -92.3208 -92.2632 -92.1742 -92.1260 -92.0663 -92.0268 -92.0095 -91.8851
   -55.6740 -55.6492 -55.5322 -55.5218 -55.5129 -55.5086 -55.4689 -55.4439
   -55.4275 -55.4257 -55.4150 -55.3749 -55.3576 -55.3182 -55.3000 -55.2660
   -55.2615 -55.2157 -55.2126 -55.2123 -55.2041 -55.1593 -55.1403 -55.0524
   -30.9033 -30.8920 -30.7959 -30.7465 -30.7098 -30.6612 -30.5515 -30.4383
   -29.4708 -29.4312 -29.4028 -29.2956 -22.2419 -14.6407 -14.5930 -14.5303
   -14.4273 -14.3155 -14.1730 -14.0331 -13.8993 -13.7650 -13.7603 -13.7545
   -13.7324 -13.6839 -13.6214 -13.5882 -13.5483 -13.5388 -13.5256 -13.4673
   -13.4651 -13.3674 -13.1805 -13.1717 -13.1216 -13.1129 -13.0829 -12.9918
   -12.9746 -12.8994 -12.8855 -12.8757 -12.7850 -12.6845 -12.6812 -12.6774
   -12.6584 -12.6415 -12.5915 -12.5824 -12.5694 -12.5473 -12.4689 -12.3865
   -12.3526 -12.3424 -12.2699 -12.2608 -12.1709 -12.1538 -12.0192 -11.9580
   -11.8523 -11.8176 -11.4032 -11.3822 -11.3751 -11.3601 -11.3423 -11.3010
   -11.2378 -11.2205 -11.1884 -11.1428 -11.1334 -11.1175  -5.7799  -3.1486
    -3.1454  -2.2070  -2.1679  -2.0029  -1.9639  -1.6529  -1.5785  -1.4273
    -1.3099  -1.2717  -1.2268  -1.1773  -1.1508  -1.0299  -0.9840  -0.9714
    -0.8876  -0.8520  -0.8401  -0.8045  -0.7502  -0.6800  -0.6489  -0.6247
    -0.5298  -0.4793  -0.4316  -0.3988  -0.3765  -0.3497  -0.2998  -0.2755
    -0.2377  -0.1475  -0.0694  -0.0134   0.0523   0.2184   0.2499   0.3187
     0.3349   0.4048   0.4252   0.5566   0.5912   0.6273   0.8165   0.9141
     0.9597   1.0223   1.1080   1.2290   1.2423   1.3744   1.4017   1.4538
     1.4731   1.5184   1.5339   1.5760   1.6038   1.6661   1.7129   1.7615
     1.7679   2.0654   2.0688   2.0876   2.0997   2.2247   2.2330   2.2398
     2.2607   2.2860   2.2987   2.3388   2.3685   2.3870   2.4534   2.4560
     2.5129   2.5311   2.5924   2.6882   2.7978   2.8755   2.8903   2.9760
     3.0048   3.0297   3.0905   3.0936   3.0961   3.1044   3.1153   3.1432
     3.2118   3.2587   3.2968   3.3328   3.3748   3.3804   3.3815   3.3943
     3.4071   3.4197   3.4351   3.4373   3.4598   3.4646   3.4870   3.5074
     3.5119   3.6407   3.6450   4.4259   4.4781   4.5437   4.6895   4.9693
     5.1504   5.2577   5.3497   5.5259   5.6442   5.9054   5.9250   6.0107
     6.1456   6.3793   6.4078   6.4291   6.9659   7.0674   7.2027   7.4473
     7.5426   7.6096   7.7556   7.9344   8.0069   8.1102   8.2087   8.4271
     8.4456   8.5999   8.6506   8.6864   8.7499   8.8732   8.9638

     occupation numbers 
     1.0000   1.0000   1.0000   1.0000   1.0000   1.0000   1.0000   1.0000
     1.0000   1.0000   1.0000   1.0000   1.0000   1.0000   1.0000   1.0000
     1.0000   1.0000   1.0000   1.0000   1.0000   1.0000   1.0000   1.0000
     1.0000   1.0000   1.0000   1.0000   1.0000   1.0000   1.0000   1.0000
     1.0000   1.0000   1.0000   1.0000   1.0000   1.0000   1.0000   1.0000
     1.0000   1.0000   1.0000   1.0000   1.0000   1.0000   1.0000   1.0000
     1.0000   1.0000   1.0000   1.0000   1.0000   1.0000   1.0000   1.0000
     1.0000   1.0000   1.0000   1.0000   1.0000   1.0000   1.0000   1.0000
     1.0000   1.0000   1.0000   1.0000   1.0000   1.0000   1.0000   1.0000
     1.0000   1.0000   1.0000   1.0000   1.0000   1.0000   1.0000   1.0000
     1.0000   1.0000   1.0000   1.0000   1.0000   1.0000   1.0000   1.0000
     1.0000   1.0000   1.0000   1.0000   1.0000   1.0000   1.0000   1.0000
     1.0000   1.0000   1.0000   1.0000   1.0000   1.0000   1.0000   1.0000
     1.0000   1.0000   1.0000   1.0000   1.0000   1.0000   1.0000   1.0000
     1.0000   1.0000   1.0000   1.0000   1.0000   1.0000   1.0000   1.0000
     1.0000   1.0000   1.0000   1.0000   1.0000   1.0000   1.0000   1.0000
     1.0000   1.0000   1.0000   1.0000   1.0000   1.0000   1.0000   1.0000
     1.0000   1.0000   1.0000   1.0000   1.0000   1.0000   1.0000   1.0000
     1.0000   1.0000   1.0000   1.0000   1.0000   1.0000   1.0000   1.0000
     1.0000   1.0000   1.0000   1.0000   1.0000   1.0000   1.0000   1.0000
     1.0000   1.0000   0.9999   0.9999   0.9999   0.9997   0.9997   0.9996
     0.9995   0.9994   0.9994   0.9992   0.9991   0.9988   0.9985   0.9981
     0.9980   0.9926   0.9925   0.9919   0.9915   0.9861   0.9856   0.9853
     0.9841   0.9825   0.9817   0.9788   0.9765   0.9749   0.9685   0.9683
     0.9617   0.9594   0.9509   0.9346   0.9112   0.8912   0.8870   0.8608
     0.8510   0.8423   0.8195   0.8183   0.8174   0.8141   0.8097   0.7982
     0.7684   0.7466   0.7282   0.7102   0.6885   0.6855   0.6849   0.6781
     0.6713   0.6645   0.6561   0.6550   0.6426   0.6399   0.6274   0.6159
     0.6133   0.5385   0.5360   0.1425   0.1257   0.1067   0.0720   0.0303
     0.0160   0.0106   0.0073   0.0034   0.0020   0.0005   0.0005   0.0003
     0.0001   0.0000   0.0000   0.0000   0.0000   0.0000   0.0000   0.0000
     0.0000   0.0000   0.0000   0.0000   0.0000   0.0000   0.0000   0.0000
     0.0000   0.0000   0.0000   0.0000   0.0000   0.0000   0.0000

          k =-0.2500 0.2500 0.0000 ( 65198 PWs)   bands (ev):

   -92.3208 -92.2632 -92.1742 -92.1260 -92.0663 -92.0268 -92.0095 -91.8851
   -55.6740 -55.6492 -55.5322 -55.5218 -55.5129 -55.5086 -55.4689 -55.4439
   -55.4275 -55.4257 -55.4150 -55.3749 -55.3576 -55.3182 -55.3000 -55.2660
   -55.2615 -55.2157 -55.2126 -55.2123 -55.2041 -55.1593 -55.1403 -55.0524
   -30.9054 -30.8896 -30.7957 -30.7471 -30.7103 -30.6610 -30.5511 -30.4384
   -29.4713 -29.4299 -29.4039 -29.2955 -22.2419 -14.6424 -14.6082 -14.5306
   -14.4125 -14.3096 -14.1828 -14.0898 -13.8917 -13.7611 -13.7447 -13.7139
   -13.7056 -13.6565 -13.6326 -13.6178 -13.6080 -13.5687 -13.4660 -13.4550
   -13.3016 -13.2761 -13.2494 -13.2277 -13.2007 -13.1270 -13.0952 -13.0652
   -12.9722 -12.9507 -12.8545 -12.7781 -12.7454 -12.7240 -12.6739 -12.6571
   -12.6306 -12.6074 -12.5897 -12.5702 -12.5559 -12.5237 -12.4957 -12.4329
   -12.4010 -12.3858 -12.3704 -12.3216 -12.1759 -12.1041 -12.0720 -11.9137
   -11.7916 -11.7563 -11.4236 -11.4018 -11.3747 -11.3624 -11.3218 -11.2868
   -11.2638 -11.2424 -11.2198 -11.1353 -11.0894 -11.0799  -5.7799  -3.1488
    -3.1452  -2.2921  -2.0819  -1.9619  -1.8746  -1.7544  -1.6869  -1.4880
    -1.3388  -1.3194  -1.2939  -1.2008  -1.1649  -1.0728  -1.0399  -1.0138
    -0.8690  -0.8145  -0.7484  -0.7185  -0.6598  -0.6356  -0.5953  -0.5660
    -0.5262  -0.4645  -0.4172  -0.3591  -0.2880  -0.2627  -0.2093  -0.1812
    -0.1367  -0.0821  -0.0432   0.0060   0.0987   0.1375   0.1448   0.1932
     0.2587   0.3278   0.3751   0.3984   0.4651   0.4989   0.7604   0.9225
     0.9719   1.0067   1.0617   1.1064   1.1769   1.2325   1.2612   1.5436
     1.6620   1.7010   1.7296   1.7411   1.7832   1.8017   1.8443   1.8748
     1.8922   1.9182   1.9558   1.9689   2.0160   2.0302   2.0748   2.1561
     2.1742   2.1926   2.2294   2.2593   2.2962   2.3492   2.4650   2.5697
     2.6062   2.6454   2.6695   2.7371   2.7815   2.8076   2.8298   2.8514
     2.9526   2.9862   3.0754   3.0879   3.0987   3.2595   3.2683   3.2821
     3.2928   3.3025   3.3159   3.3219   3.3393   3.3473   3.3644   3.3734
     3.3867   3.3957   3.4011   3.4332   3.4456   3.4552   3.4886   3.7821
     3.8634   3.9187   3.9929   4.0056   4.2023   4.3393   4.6606   4.8013
     5.0034   5.1417   5.3515   5.6208   5.8892   5.9307   6.0089   6.1406
     6.2168   6.2589   6.3633   6.4277   6.9232   6.9561   7.0859   7.1788
     7.7252   7.8077   7.8425   7.8960   7.9991   8.1835   8.2050   8.2934
     8.3618   8.4235   8.5328   8.6729   8.7385   8.7678   8.8588

     occupation numbers 
     1.0000   1.0000   1.0000   1.0000   1.0000   1.0000   1.0000   1.0000
     1.0000   1.0000   1.0000   1.0000   1.0000   1.0000   1.0000   1.0000
     1.0000   1.0000   1.0000   1.0000   1.0000   1.0000   1.0000   1.0000
     1.0000   1.0000   1.0000   1.0000   1.0000   1.0000   1.0000   1.0000
     1.0000   1.0000   1.0000   1.0000   1.0000   1.0000   1.0000   1.0000
     1.0000   1.0000   1.0000   1.0000   1.0000   1.0000   1.0000   1.0000
     1.0000   1.0000   1.0000   1.0000   1.0000   1.0000   1.0000   1.0000
     1.0000   1.0000   1.0000   1.0000   1.0000   1.0000   1.0000   1.0000
     1.0000   1.0000   1.0000   1.0000   1.0000   1.0000   1.0000   1.0000
     1.0000   1.0000   1.0000   1.0000   1.0000   1.0000   1.0000   1.0000
     1.0000   1.0000   1.0000   1.0000   1.0000   1.0000   1.0000   1.0000
     1.0000   1.0000   1.0000   1.0000   1.0000   1.0000   1.0000   1.0000
     1.0000   1.0000   1.0000   1.0000   1.0000   1.0000   1.0000   1.0000
     1.0000   1.0000   1.0000   1.0000   1.0000   1.0000   1.0000   1.0000
     1.0000   1.0000   1.0000   1.0000   1.0000   1.0000   1.0000   1.0000
     1.0000   1.0000   1.0000   1.0000   1.0000   1.0000   1.0000   1.0000
     1.0000   1.0000   1.0000   1.0000   1.0000   1.0000   1.0000   1.0000
     1.0000   1.0000   1.0000   1.0000   1.0000   1.0000   1.0000   1.0000
     1.0000   1.0000   1.0000   1.0000   1.0000   1.0000   1.0000   1.0000
     1.0000   1.0000   1.0000   1.0000   1.0000   1.0000   1.0000   1.0000
     1.0000   1.0000   1.0000   0.9999   0.9999   0.9999   0.9999   0.9993
     0.9988   0.9985   0.9983   0.9982   0.9978   0.9977   0.9971   0.9967
     0.9965   0.9960   0.9953   0.9950   0.9939   0.9936   0.9923   0.9893
     0.9885   0.9877   0.9858   0.9841   0.9818   0.9780   0.9673   0.9542
     0.9487   0.9423   0.9381   0.9248   0.9150   0.9088   0.9033   0.8977
     0.8683   0.8574   0.8254   0.8206   0.8163   0.7462   0.7420   0.7354
     0.7301   0.7253   0.7187   0.7157   0.7069   0.7028   0.6939   0.6892
     0.6822   0.6774   0.6745   0.6572   0.6504   0.6451   0.6265   0.4549
     0.4075   0.3759   0.3349   0.3281   0.2305   0.1734   0.0781   0.0519
     0.0270   0.0165   0.0073   0.0022   0.0006   0.0005   0.0003   0.0001
     0.0001   0.0001   0.0000   0.0000   0.0000   0.0000   0.0000   0.0000
     0.0000   0.0000   0.0000   0.0000   0.0000   0.0000   0.0000   0.0000
     0.0000   0.0000   0.0000   0.0000   0.0000   0.0000   0.0000

          k =-0.5000 0.2500 0.0000 ( 65138 PWs)   bands (ev):

   -92.3208 -92.2632 -92.1742 -92.1260 -92.0663 -92.0268 -92.0095 -91.8851
   -55.6740 -55.6492 -55.5322 -55.5218 -55.5129 -55.5086 -55.4689 -55.4439
   -55.4275 -55.4257 -55.4150 -55.3749 -55.3576 -55.3182 -55.3000 -55.2660
   -55.2615 -55.2157 -55.2126 -55.2123 -55.2041 -55.1593 -55.1403 -55.0524
   -30.9031 -30.8918 -30.7956 -30.7467 -30.7102 -30.6613 -30.5512 -30.4386
   -29.4702 -29.4309 -29.4035 -29.2959 -22.2419 -14.6084 -14.5662 -14.4873
   -14.3921 -14.3462 -14.2190 -14.1372 -14.0118 -13.7608 -13.6954 -13.6654
   -13.6524 -13.6084 -13.5933 -13.5610 -13.5346 -13.5230 -13.5023 -13.4659
   -13.4469 -13.3544 -13.2653 -13.2333 -13.2143 -13.2049 -13.1443 -13.0979
   -13.0203 -12.9768 -12.8306 -12.7954 -12.7336 -12.6990 -12.6613 -12.6481
   -12.6434 -12.6144 -12.5993 -12.5747 -12.5660 -12.5266 -12.4797 -12.4221
   -12.3855 -12.3757 -12.2522 -12.2446 -12.1692 -12.1076 -11.9705 -11.9533
   -11.8513 -11.8253 -11.3960 -11.3833 -11.3692 -11.3575 -11.3361 -11.3058
   -11.2254 -11.2164 -11.1935 -11.1572 -11.1290 -11.1200  -5.7799  -3.1488
    -3.1454  -2.0653  -2.0226  -1.8728  -1.8308  -1.6720  -1.5974  -1.4516
    -1.3164  -1.2608  -1.2331  -1.1933  -1.1534  -1.0739  -0.9593  -0.9026
    -0.8791  -0.8548  -0.7804  -0.7484  -0.7125  -0.6924  -0.6321  -0.6059
    -0.5641  -0.5287  -0.5001  -0.4437  -0.4175  -0.3753  -0.3421  -0.2389
    -0.2111  -0.1311  -0.0630  -0.0329   0.0210   0.1112   0.1429   0.2439
     0.2792   0.3353   0.3872   0.4033   0.4890   0.5140   0.5450   0.6066
     0.6438   0.9391   0.9980   1.0628   1.1035   1.3809   1.4309   1.5112
     1.5358   1.7177   1.7563   1.7929   1.8085   1.8268   1.8445   1.9132
     1.9531   1.9926   2.0169   2.1374   2.1680   2.2063   2.2189   2.2563
     2.2829   2.2941   2.3106   2.3360   2.3565   2.4016   2.4252   2.4539
     2.4770   2.5053   2.5698   2.6833   2.7918   2.8213   2.8896   2.9313
     2.9922   3.0268   3.0356   3.0691   3.0878   3.0930   3.1054   3.1291
     3.2115   3.2541   3.2665   3.2738   3.2945   3.3178   3.3307   3.3454
     3.3578   3.3772   3.3898   3.4018   3.4092   3.4190   3.4304   3.9509
     3.9996   4.1498   4.1740   4.4363   4.5060   4.5582   4.7738   5.0418
     5.1522   5.2671   5.3679   5.5263   5.7099   5.7829   5.8231   5.9498
     6.0638   6.1034   6.2705   6.4772   6.6064   6.6418   7.0818   7.2692
     7.5109   7.6107   7.9943   8.0836   8.1872   8.2216   8.3407   8.3893
     8.5014   8.5913   8.6699   8.8005   8.8303   8.9029   8.9432

     occupation numbers 
     1.0000   1.0000   1.0000   1.0000   1.0000   1.0000   1.0000   1.0000
     1.0000   1.0000   1.0000   1.0000   1.0000   1.0000   1.0000   1.0000
     1.0000   1.0000   1.0000   1.0000   1.0000   1.0000   1.0000   1.0000
     1.0000   1.0000   1.0000   1.0000   1.0000   1.0000   1.0000   1.0000
     1.0000   1.0000   1.0000   1.0000   1.0000   1.0000   1.0000   1.0000
     1.0000   1.0000   1.0000   1.0000   1.0000   1.0000   1.0000   1.0000
     1.0000   1.0000   1.0000   1.0000   1.0000   1.0000   1.0000   1.0000
     1.0000   1.0000   1.0000   1.0000   1.0000   1.0000   1.0000   1.0000
     1.0000   1.0000   1.0000   1.0000   1.0000   1.0000   1.0000   1.0000
     1.0000   1.0000   1.0000   1.0000   1.0000   1.0000   1.0000   1.0000
     1.0000   1.0000   1.0000   1.0000   1.0000   1.0000   1.0000   1.0000
     1.0000   1.0000   1.0000   1.0000   1.0000   1.0000   1.0000   1.0000
     1.0000   1.0000   1.0000   1.0000   1.0000   1.0000   1.0000   1.0000
     1.0000   1.0000   1.0000   1.0000   1.0000   1.0000   1.0000   1.0000
     1.0000   1.0000   1.0000   1.0000   1.0000   1.0000   1.0000   1.0000
     1.0000   1.0000   1.0000   1.0000   1.0000   1.0000   1.0000   1.0000
     1.0000   1.0000   1.0000   1.0000   1.0000   1.0000   1.0000   1.0000
     1.0000   1.0000   1.0000   1.0000   1.0000   1.0000   1.0000   1.0000
     1.0000   1.0000   1.0000   1.0000   1.0000   1.0000   1.0000   1.0000
     1.0000   1.0000   1.0000   1.0000   1.0000   1.0000   1.0000   1.0000
     1.0000   1.0000   1.0000   1.0000   0.9999   0.9997   0.9996   0.9994
     0.9994   0.9984   0.9981   0.9977   0.9976   0.9974   0.9971   0.9961
     0.9954   0.9945   0.9939   0.9901   0.9888   0.9870   0.9864   0.9843
     0.9827   0.9820   0.9809   0.9790   0.9774   0.9736   0.9714   0.9685
     0.9660   0.9627   0.9542   0.9355   0.9126   0.9055   0.8872   0.8749
     0.8553   0.8433   0.8402   0.8278   0.8206   0.8186   0.8137   0.8041
     0.7685   0.7488   0.7429   0.7394   0.7293   0.7177   0.7112   0.7037
     0.6973   0.6872   0.6806   0.6742   0.6702   0.6649   0.6587   0.3580
     0.3313   0.2548   0.2435   0.1390   0.1174   0.1028   0.0564   0.0236
     0.0159   0.0102   0.0068   0.0034   0.0015   0.0010   0.0008   0.0004
     0.0002   0.0002   0.0001   0.0000   0.0000   0.0000   0.0000   0.0000
     0.0000   0.0000   0.0000   0.0000   0.0000   0.0000   0.0000   0.0000
     0.0000   0.0000   0.0000   0.0000   0.0000   0.0000   0.0000

     the Fermi energy is     3.7058 ev

!    total energy              =   -4482.96610118 Ry
     estimated scf accuracy    <          9.0E-09 Ry
     smearing contrib. (-TS)   =      -1.17324765 Ry
     internal energy E=F+TS    =   -4481.79285353 Ry

     The total energy is F=E-TS. E is the sum of the following terms:
     one-electron contribution =  -20253.85744910 Ry
     hartree contribution      =   10266.84960087 Ry
     xc contribution           =    -701.57594694 Ry
     ewald contribution        =    6492.45001926 Ry
     one-center paw contrib.   =    -285.65907762 Ry
      -> PAW hartree energy AE =      25.18280092 Ry
      -> PAW hartree energy PS =     -25.06652362 Ry
      -> PAW xc energy AE      =     -16.52024242 Ry
      -> PAW xc energy PS      =       6.87986697 Ry
      -> total E_H with PAW    =   10266.96587817 Ry
      -> total E_XC with PAW   =    -711.21632239 Ry

     convergence has been achieved in  51 iterations

     Writing all to output data dir /bsuhome/zayahcortright/scratch/pwscf.save/
 
     init_run     :      7.78s CPU      8.57s WALL (       1 calls)
     electrons    :    773.87s CPU    804.69s WALL (       1 calls)

     Called by init_run:
     wfcinit      :      6.31s CPU      6.52s WALL (       1 calls)
     wfcinit:atom :      0.05s CPU      0.07s WALL (       5 calls)
     wfcinit:wfcr :      5.99s CPU      6.11s WALL (       5 calls)
     potinit      :      0.16s CPU      0.18s WALL (       1 calls)
     hinit0       :      0.46s CPU      0.75s WALL (       1 calls)

     Called by electrons:
     c_bands      :    618.83s CPU    625.12s WALL (      51 calls)
     sum_band     :    117.58s CPU    130.51s WALL (      51 calls)
     v_of_rho     :      5.55s CPU      5.99s WALL (      52 calls)
     v_h          :      0.49s CPU      0.49s WALL (      52 calls)
     v_xc         :      5.06s CPU      5.49s WALL (      52 calls)
     newd         :     16.88s CPU     27.55s WALL (      52 calls)
     PAW_pot      :      1.81s CPU      1.85s WALL (      52 calls)
     mix_rho      :     12.79s CPU     13.19s WALL (      51 calls)

     Called by c_bands:
     init_us_2    :      6.98s CPU      7.09s WALL (     515 calls)
     init_us_2:cp :      6.98s CPU      7.08s WALL (     515 calls)
     cegterg      :    580.22s CPU    586.16s WALL (     255 calls)

     Called by sum_band:
     sum_band:wei :      0.36s CPU      0.36s WALL (      51 calls)
     sum_band:loo :     97.30s CPU     98.13s WALL (      51 calls)
     sum_band:buf :      1.54s CPU      1.63s WALL (     255 calls)
     sum_band:ini :      3.19s CPU      3.21s WALL (     255 calls)
     sum_band:cal :     21.46s CPU     21.52s WALL (     255 calls)
     sum_band:bec :      0.66s CPU      0.68s WALL (     255 calls)
     addusdens    :     17.83s CPU     29.83s WALL (      51 calls)
                                        0.00s GPU  (      51 calls)
     addusd:skk   :      0.32s CPU      0.97s WALL (     204 calls)
                                        0.00s GPU  (     204 calls)

     Called by *egterg:
     cdiaghg      :     61.41s CPU     61.71s WALL (    1459 calls)
     cegterg:over :     43.45s CPU     43.65s WALL (    1204 calls)
     cegterg:upda :     32.49s CPU     32.92s WALL (    1204 calls)
     cegterg:last :     66.88s CPU     67.12s WALL (     477 calls)
     cdiaghg:chol :      3.56s CPU      3.60s WALL (    1459 calls)
     cdiaghg:inve :      3.68s CPU      3.70s WALL (    1459 calls)
     cdiaghg:para :      7.85s CPU      7.90s WALL (    2918 calls)
     h_psi        :    314.96s CPU    318.16s WALL (    1464 calls)
     s_psi        :     43.23s CPU     43.41s WALL (    1464 calls)
     g_psi        :      1.09s CPU      1.09s WALL (    1204 calls)

     Called by h_psi:
     h_psi:calbec :     49.52s CPU     49.80s WALL (    1464 calls)
     vloc_psi     :    219.18s CPU    221.37s WALL (    1464 calls)
     add_vuspsi   :     43.25s CPU     43.51s WALL (    1464 calls)

     General routines
     calbec       :     70.97s CPU     71.32s WALL (    1719 calls)
     fft          :      4.44s CPU      4.52s WALL (     674 calls)
     ffts         :      4.73s CPU      4.78s WALL (    5393 calls)
     fftw         :    188.14s CPU    189.81s WALL (  350709 calls)
     interpolate  :      0.46s CPU      0.47s WALL (      52 calls)
 
     Parallel routines

     PAW routines
     PAW_pot      :      1.81s CPU      1.85s WALL (      52 calls)
 
     PWSCF        :  13m 3.23s CPU  13m39.28s WALL

 
   This run was terminated on:   0:56:26  19Jun2024            

=------------------------------------------------------------------------------=
   JOB DONE.
=------------------------------------------------------------------------------=
