
     Program PWSCF v.7.2 starts on 20Jun2024 at 20:47:27 

     This program is part of the open-source Quantum ESPRESSO suite
     for quantum simulation of materials; please cite
         "P. Giannozzi et al., J. Phys.:Condens. Matter 21 395502 (2009);
         "P. Giannozzi et al., J. Phys.:Condens. Matter 29 465901 (2017);
         "P. Giannozzi et al., J. Chem. Phys. 152 154105 (2020);
          URL http://www.quantum-espresso.org", 
     in publications or presentations arising from this work. More details at
     http://www.quantum-espresso.org/quote

     Parallel version (MPI & OpenMP), running on      48 processor cores
     Number of MPI processes:                48
     Threads/MPI process:                     1

     MPI processes distributed on     1 nodes
     41845 MiB available memory on the printing compute node when the environment starts
 
     Reading input from espresso.pwi
Warning: card &CELL ignored
Warning: card / ignored
Warning: card &FCP ignored
Warning: card / ignored
Warning: card &RISM ignored
Warning: card / ignored

     Current dimensions of program PWSCF are:
     Max number of different atomic species (ntypx) = 10
     Max number of k-points (npk) =  40000
     Max angular momentum in pseudopotentials (lmaxx) =  4
     file O.pbe-n-kjpaw_psl.0.1.UPF: wavefunction(s)  2P renormalized
     signal trapping enabled: kill the code with -SIGUSR1 to stop cleanly the simulation 
 
     K-points division:     npool     =       2
     R & G space division:  proc/nbgrp/npool/nimage =      24
     Subspace diagonalization in iterative solution of the eigenvalue problem:
     one sub-group per band group will be used
     scalapack distributed-memory algorithm (size of sub-group:  3*  3 procs)

 
     Parallelization info
     --------------------
     sticks:   dense  smooth     PW     G-vecs:    dense   smooth      PW
     Min         350     175     47                61430    21716    3036
     Max         351     177     48                61449    21727    3041
     Sum        8421    4205   1137              1474595   521381   72913
 
     Using Slab Decomposition
 


     bravais-lattice index     =            0
     lattice parameter (alat)  =      14.8599  a.u.
     unit-cell volume          =    8305.1283 (a.u.)^3
     number of atoms/cell      =           51
     number of atomic types    =            4
     number of electrons       =       437.00
     number of Kohn-Sham states=          263
     kinetic-energy cutoff     =      60.0000  Ry
     charge density cutoff     =     480.0000  Ry
     scf convergence threshold =      1.0E-08
     mixing beta               =       0.1500
     number of iterations used =            8  local-TF  mixing
     Exchange-correlation= PBE
                           (   1   4   3   4   0   0   0)

     celldm(1)=  14.859904  celldm(2)=   0.000000  celldm(3)=   0.000000
     celldm(4)=   0.000000  celldm(5)=   0.000000  celldm(6)=   0.000000

     crystal axes: (cart. coord. in units of alat)
               a(1) = (   1.000000   0.000000   0.000000 )  
               a(2) = (   0.000000   1.000000   0.000000 )  
               a(3) = (   0.000000   0.000000   2.531036 )  

     reciprocal axes: (cart. coord. in units 2 pi/alat)
               b(1) = (  1.000000  0.000000  0.000000 )  
               b(2) = (  0.000000  1.000000  0.000000 )  
               b(3) = (  0.000000  0.000000  0.395095 )  


     PseudoPot. # 1 for Sr read from file:
     /bsuhome/zayahcortright/q-e/pseudo/Sr_pbe_v1.uspp.F.UPF
     MD5 check sum: 6b418c05fbe9db5448babca5e47b7a5b
     Pseudo is Ultrasoft + core correction, Zval = 10.0
     Generated by new atomic code, or converted to UPF format
     Using radial grid of  883 points,  6 beta functions with: 
                l(1) =   0
                l(2) =   0
                l(3) =   1
                l(4) =   1
                l(5) =   2
                l(6) =   2
     Q(r) pseudized with  6 coefficients,  rinner =    1.400   1.400   1.400
                                                       1.400   1.400

     PseudoPot. # 2 for O  read from file:
     /bsuhome/zayahcortright/q-e/pseudo/O.pbe-n-kjpaw_psl.0.1.UPF
     MD5 check sum: 0234752ac141de4415c5fc33072bef88
     Pseudo is Projector augmented-wave + core cor, Zval =  6.0
     Generated using "atomic" code by A. Dal Corso  v.5.0.99 svn rev. 10869
     Shape of augmentation charge: BESSEL
     Using radial grid of 1095 points,  4 beta functions with: 
                l(1) =   0
                l(2) =   0
                l(3) =   1
                l(4) =   1
     Q(r) pseudized with 0 coefficients 


     PseudoPot. # 3 for Co read from file:
     /bsuhome/zayahcortright/q-e/pseudo/Co_pbe_v1.2.uspp.F.UPF
     MD5 check sum: 5f91765df6ddd3222702df6e7b74a16d
     Pseudo is Ultrasoft + core correction, Zval = 17.0
     Generated by new atomic code, or converted to UPF format
     Using radial grid of  863 points,  6 beta functions with: 
                l(1) =   0
                l(2) =   0
                l(3) =   1
                l(4) =   1
                l(5) =   2
                l(6) =   2
     Q(r) pseudized with  8 coefficients,  rinner =    1.200   1.200   1.200
                                                       1.200   1.200

     PseudoPot. # 4 for H  read from file:
     /bsuhome/zayahcortright/q-e/pseudo/H.pbe-rrkjus_psl.1.0.0.UPF
     MD5 check sum: f52b6d4d1c606e5624b1dc7b2218f220
     Pseudo is Ultrasoft, Zval =  1.0
     Generated using "atomic" code by A. Dal Corso  v.5.1
     Using radial grid of  929 points,  2 beta functions with: 
                l(1) =   0
                l(2) =   0
     Q(r) pseudized with 0 coefficients 


     atomic species   valence    mass     pseudopotential
        Sr            10.00    87.62000     Sr( 1.00)
        O              6.00    15.99900     O ( 1.00)
        Co            17.00    58.93319     Co( 1.00)
        H              1.00     1.00800     H ( 1.00)

     No symmetry found


                                    s                        frac. trans.

      isym =  1     identity                                     

 cryst.   s( 1) = (     1          0          0      )
                  (     0          1          0      )
                  (     0          0          1      )

 cart.    s( 1) = (  1.0000000  0.0000000  0.0000000 )
                  (  0.0000000  1.0000000  0.0000000 )
                  (  0.0000000  0.0000000  1.0000000 )


   Cartesian axes

     site n.     atom                  positions (alat units)
         1           Sr  tau(   1) = (   0.2508693   0.7491307   1.7574407  )
         2           O   tau(   2) = (   0.4985141   0.5014859   1.7715967  )
         3           Sr  tau(   3) = (   0.7482398   0.7454518   1.7648669  )
         4           Sr  tau(   4) = (   0.7441748   0.2558252   1.7667843  )
         5           Sr  tau(   5) = (   0.2508693   0.7491307   1.2696799  )
         6           Sr  tau(   6) = (   0.2508693   0.7491307   0.7632319  )
         7           Co  tau(   7) = (   0.4998914   0.5001086   1.0164559  )
         8           Co  tau(   8) = (   0.4936915   0.5063085   1.5135603  )
         9           O   tau(   9) = (   0.4988895   0.7610401   1.0164559  )
        10           O   tau(  10) = (   0.2389599   0.5011105   1.0164559  )
        11           O   tau(  11) = (   0.0070918   0.7374880   1.0164559  )
        12           O   tau(  12) = (   0.0088340   0.7405089   1.5135603  )
        13           O   tau(  13) = (   0.5066944   0.7415376   1.5135603  )
        14           O   tau(  14) = (   0.2584624   0.4933056   1.5135603  )
        15           O   tau(  15) = (   0.4985141   0.5014859   0.7773880  )
        16           O   tau(  16) = (   0.4985141   0.5014859   1.2555238  )
        17           Sr  tau(  17) = (   0.7482398   0.7454518   0.7706582  )
        18           Sr  tau(  18) = (   0.7482398   0.7454518   1.2622536  )
        19           Sr  tau(  19) = (   0.7441748   0.2558252   0.7725755  )
        20           Sr  tau(  20) = (   0.7441748   0.2558252   1.2603363  )
        21           O   tau(  21) = (   0.7322655   0.0078049   1.5135603  )
        22           O   tau(  22) = (   0.7558175   0.4996027   1.5135603  )
        23           O   tau(  23) = (   0.5003973   0.2441825   1.5135603  )
        24           O   tau(  24) = (   0.7527966   0.4978604   1.0164559  )
        25           O   tau(  25) = (   0.5021396   0.2472034   1.0164559  )
        26           O   tau(  26) = (   0.7517679   0.0000000   1.0164559  )
        27           O   tau(  27) = (   0.0114961   0.4948124   1.7455321  )
        28           O   tau(  28) = (   0.0048226   0.0077944   1.7715967  )
        29           Sr  tau(  29) = (   0.2545482   0.2517602   1.7648669  )
        30           O   tau(  30) = (   0.5048017   0.0015068   1.7786929  )
        31           Co  tau(  31) = (   0.0056869   0.5006215   1.0164559  )
        32           Co  tau(  32) = (   0.0065315   0.4997770   1.5135603  )
        33           Co  tau(  33) = (   0.0061999   0.0064171   1.0164559  )
        34           Co  tau(  34) = (   0.0000000   0.0126169   1.5135603  )
        35           O   tau(  35) = (   0.0114961   0.4948124   1.2815885  )
        36           O   tau(  36) = (   0.0114961   0.4948124   0.7513233  )
        37           O   tau(  37) = (   0.0051979   0.2673486   1.0164559  )
        38           O   tau(  38) = (   0.0130029   0.2478461   1.5135603  )
        39           O   tau(  39) = (   0.0048226   0.0077944   0.7773880  )
        40           O   tau(  40) = (   0.0048226   0.0077944   1.2555238  )
        41           Sr  tau(  41) = (   0.2545482   0.2517602   0.7706582  )
        42           Sr  tau(  42) = (   0.2545482   0.2517602   1.2622536  )
        43           Co  tau(  43) = (   0.4989925   0.0073160   1.5135603  )
        44           Co  tau(  44) = (   0.4998370   0.0064714   1.0164559  )
        45           O   tau(  45) = (   0.5048017   0.0015068   0.7844841  )
        46           O   tau(  46) = (   0.5048017   0.0015068   1.2484277  )
        47           O   tau(  47) = (   0.2621260   0.0059111   1.5135603  )
        48           O   tau(  48) = (   0.2591051   0.0041689   1.0164559  )
        49           O   tau(  49) = (   0.9951520   0.9951520   2.1602013  )
        50           O   tau(  50) = (   0.9951520   0.9951520   2.3186489  )
        51           H   tau(  51) = (   0.9951520   0.9951520   2.4431567  )

   Crystallographic axes

     site n.     atom                  positions (cryst. coord.)
         1           Sr  tau(   1) = (  0.2508693  0.7491307  0.6943562  )
         2           O   tau(   2) = (  0.4985141  0.5014859  0.6999492  )
         3           Sr  tau(   3) = (  0.7482398  0.7454518  0.6972903  )
         4           Sr  tau(   4) = (  0.7441748  0.2558252  0.6980478  )
         5           Sr  tau(   5) = (  0.2508693  0.7491307  0.5016443  )
         6           Sr  tau(   6) = (  0.2508693  0.7491307  0.3015492  )
         7           Co  tau(   7) = (  0.4998914  0.5001086  0.4015968  )
         8           Co  tau(   8) = (  0.4936915  0.5063085  0.5980003  )
         9           O   tau(   9) = (  0.4988895  0.7610401  0.4015968  )
        10           O   tau(  10) = (  0.2389599  0.5011105  0.4015968  )
        11           O   tau(  11) = (  0.0070918  0.7374880  0.4015968  )
        12           O   tau(  12) = (  0.0088340  0.7405089  0.5980003  )
        13           O   tau(  13) = (  0.5066944  0.7415376  0.5980003  )
        14           O   tau(  14) = (  0.2584624  0.4933056  0.5980003  )
        15           O   tau(  15) = (  0.4985141  0.5014859  0.3071422  )
        16           O   tau(  16) = (  0.4985141  0.5014859  0.4960513  )
        17           Sr  tau(  17) = (  0.7482398  0.7454518  0.3044833  )
        18           Sr  tau(  18) = (  0.7482398  0.7454518  0.4987103  )
        19           Sr  tau(  19) = (  0.7441748  0.2558252  0.3052408  )
        20           Sr  tau(  20) = (  0.7441748  0.2558252  0.4979527  )
        21           O   tau(  21) = (  0.7322655  0.0078049  0.5980003  )
        22           O   tau(  22) = (  0.7558175  0.4996027  0.5980003  )
        23           O   tau(  23) = (  0.5003973  0.2441825  0.5980003  )
        24           O   tau(  24) = (  0.7527966  0.4978604  0.4015968  )
        25           O   tau(  25) = (  0.5021396  0.2472034  0.4015968  )
        26           O   tau(  26) = (  0.7517679  0.0000000  0.4015968  )
        27           O   tau(  27) = (  0.0114961  0.4948124  0.6896512  )
        28           O   tau(  28) = (  0.0048226  0.0077944  0.6999492  )
        29           Sr  tau(  29) = (  0.2545482  0.2517602  0.6972903  )
        30           O   tau(  30) = (  0.5048017  0.0015068  0.7027529  )
        31           Co  tau(  31) = (  0.0056869  0.5006215  0.4015968  )
        32           Co  tau(  32) = (  0.0065315  0.4997770  0.5980003  )
        33           Co  tau(  33) = (  0.0061999  0.0064171  0.4015968  )
        34           Co  tau(  34) = (  0.0000000  0.0126169  0.5980003  )
        35           O   tau(  35) = (  0.0114961  0.4948124  0.5063494  )
        36           O   tau(  36) = (  0.0114961  0.4948124  0.2968442  )
        37           O   tau(  37) = (  0.0051979  0.2673486  0.4015968  )
        38           O   tau(  38) = (  0.0130029  0.2478461  0.5980003  )
        39           O   tau(  39) = (  0.0048226  0.0077944  0.3071422  )
        40           O   tau(  40) = (  0.0048226  0.0077944  0.4960513  )
        41           Sr  tau(  41) = (  0.2545482  0.2517602  0.3044833  )
        42           Sr  tau(  42) = (  0.2545482  0.2517602  0.4987103  )
        43           Co  tau(  43) = (  0.4989925  0.0073160  0.5980003  )
        44           Co  tau(  44) = (  0.4998370  0.0064714  0.4015968  )
        45           O   tau(  45) = (  0.5048017  0.0015068  0.3099459  )
        46           O   tau(  46) = (  0.5048017  0.0015068  0.4932477  )
        47           O   tau(  47) = (  0.2621260  0.0059111  0.5980003  )
        48           O   tau(  48) = (  0.2591051  0.0041689  0.4015968  )
        49           O   tau(  49) = (  0.9951520  0.9951520  0.8534850  )
        50           O   tau(  50) = (  0.9951520  0.9951520  0.9160869  )
        51           H   tau(  51) = (  0.9951520  0.9951520  0.9652793  )

     number of k points=    10  Gaussian smearing, width (Ry)=  0.0700
                       cart. coord. in units 2pi/alat
        k(    1) = (   0.0000000   0.0000000   0.0000000), wk =   0.1250000
        k(    2) = (   0.0000000   0.2500000   0.0000000), wk =   0.2500000
        k(    3) = (   0.0000000  -0.5000000   0.0000000), wk =   0.1250000
        k(    4) = (   0.2500000   0.2500000   0.0000000), wk =   0.2500000
        k(    5) = (   0.2500000  -0.5000000   0.0000000), wk =   0.2500000
        k(    6) = (  -0.5000000  -0.5000000   0.0000000), wk =   0.1250000
        k(    7) = (   0.2500000   0.0000000   0.0000000), wk =   0.2500000
        k(    8) = (  -0.5000000   0.0000000   0.0000000), wk =   0.1250000
        k(    9) = (  -0.2500000   0.2500000   0.0000000), wk =   0.2500000
        k(   10) = (  -0.5000000   0.2500000   0.0000000), wk =   0.2500000

                       cryst. coord.
        k(    1) = (   0.0000000   0.0000000   0.0000000), wk =   0.1250000
        k(    2) = (   0.0000000   0.2500000   0.0000000), wk =   0.2500000
        k(    3) = (   0.0000000  -0.5000000   0.0000000), wk =   0.1250000
        k(    4) = (   0.2500000   0.2500000   0.0000000), wk =   0.2500000
        k(    5) = (   0.2500000  -0.5000000   0.0000000), wk =   0.2500000
        k(    6) = (  -0.5000000  -0.5000000   0.0000000), wk =   0.1250000
        k(    7) = (   0.2500000   0.0000000   0.0000000), wk =   0.2500000
        k(    8) = (  -0.5000000   0.0000000   0.0000000), wk =   0.1250000
        k(    9) = (  -0.2500000   0.2500000   0.0000000), wk =   0.2500000
        k(   10) = (  -0.5000000   0.2500000   0.0000000), wk =   0.2500000

     Dense  grid:  1474595 G-vectors     FFT dimensions: ( 108, 108, 270)

     Smooth grid:   521381 G-vectors     FFT dimensions: (  75,  75, 192)

     Dynamical RAM for                 wfc:      10.90 MB

     Dynamical RAM for     wfc (w. buffer):      65.37 MB

     Dynamical RAM for           str. fact:       3.75 MB

     Dynamical RAM for           local pot:       0.00 MB

     Dynamical RAM for          nlocal pot:      24.94 MB

     Dynamical RAM for                qrad:       7.03 MB

     Dynamical RAM for          rho,v,vnew:       6.02 MB

     Dynamical RAM for               rhoin:       2.01 MB

     Dynamical RAM for            rho*nmix:      15.00 MB

     Dynamical RAM for           G-vectors:       3.68 MB

     Dynamical RAM for          h,s,v(r/c):       1.40 MB

     Dynamical RAM for          <psi|beta>:       2.42 MB

     Dynamical RAM for                 psi:      21.79 MB

     Dynamical RAM for                hpsi:      21.79 MB

     Dynamical RAM for                spsi:      21.79 MB

     Dynamical RAM for      wfcinit/wfcrot:      34.89 MB

     Dynamical RAM for           addusdens:     101.73 MB

     Estimated static dynamical RAM per process >     122.82 MB

     Estimated max dynamical RAM per process >     239.55 MB

     Estimated total dynamical RAM >      10.88 GB

     Check: negative core charge=   -0.000004

     Initial potential from superposition of free atoms

     starting charge     428.5961, renormalised to     437.0000

     negative rho (up, down):  7.814E-01 0.000E+00
     Starting wfcs are  381 randomized atomic wfcs
     Checking if some PAW data can be deallocated... 
       PAW data deallocated on   18 nodes for type:  2

     total cpu time spent up to now is       10.0 secs

     Self-consistent Calculation

     iteration #  1     ecut=    60.00 Ry     beta= 0.15
     Davidson diagonalization with overlap

---- Real-time Memory Report at c_bands before calling an iterative solver
             0 MiB given to the printing process from OS
             0 MiB allocation reported by mallinfo(arena+hblkhd)
         32057 MiB available memory on the node where the printing process lives
------------------
     ethr =  1.00E-02,  avg # of iterations =  2.0

     negative rho (up, down):  7.716E-01 0.000E+00

     total cpu time spent up to now is       25.5 secs

     total energy              =   -4489.32243706 Ry
     estimated scf accuracy    <      49.75789112 Ry

     iteration #  2     ecut=    60.00 Ry     beta= 0.15
     Davidson diagonalization with overlap

---- Real-time Memory Report at c_bands before calling an iterative solver
             0 MiB given to the printing process from OS
             0 MiB allocation reported by mallinfo(arena+hblkhd)
         32442 MiB available memory on the node where the printing process lives
------------------
     ethr =  1.00E-02,  avg # of iterations =  1.0

     negative rho (up, down):  7.613E-01 0.000E+00

     total cpu time spent up to now is       38.6 secs

     total energy              =   -4486.81864608 Ry
     estimated scf accuracy    <      35.43897196 Ry

     iteration #  3     ecut=    60.00 Ry     beta= 0.15
     Davidson diagonalization with overlap

---- Real-time Memory Report at c_bands before calling an iterative solver
             0 MiB given to the printing process from OS
             0 MiB allocation reported by mallinfo(arena+hblkhd)
         31740 MiB available memory on the node where the printing process lives
------------------
     ethr =  8.11E-03,  avg # of iterations =  1.0

     negative rho (up, down):  7.563E-01 0.000E+00

     total cpu time spent up to now is       51.4 secs

     total energy              =   -4486.77144452 Ry
     estimated scf accuracy    <      35.34649951 Ry

     iteration #  4     ecut=    60.00 Ry     beta= 0.15
     Davidson diagonalization with overlap

---- Real-time Memory Report at c_bands before calling an iterative solver
             0 MiB given to the printing process from OS
             0 MiB allocation reported by mallinfo(arena+hblkhd)
         31678 MiB available memory on the node where the printing process lives
------------------
     ethr =  8.09E-03,  avg # of iterations =  1.0

     negative rho (up, down):  7.576E-01 0.000E+00

     total cpu time spent up to now is       64.3 secs

     total energy              =   -4486.60531037 Ry
     estimated scf accuracy    <      34.22897293 Ry

     iteration #  5     ecut=    60.00 Ry     beta= 0.15
     Davidson diagonalization with overlap

---- Real-time Memory Report at c_bands before calling an iterative solver
             0 MiB given to the printing process from OS
             0 MiB allocation reported by mallinfo(arena+hblkhd)
         31662 MiB available memory on the node where the printing process lives
------------------
     ethr =  7.83E-03,  avg # of iterations =  1.0

     negative rho (up, down):  7.339E-01 0.000E+00

     total cpu time spent up to now is       76.9 secs

     total energy              =   -4482.58139894 Ry
     estimated scf accuracy    <      22.69686619 Ry

     iteration #  6     ecut=    60.00 Ry     beta= 0.15
     Davidson diagonalization with overlap

---- Real-time Memory Report at c_bands before calling an iterative solver
             0 MiB given to the printing process from OS
             0 MiB allocation reported by mallinfo(arena+hblkhd)
         31646 MiB available memory on the node where the printing process lives
------------------
     ethr =  5.19E-03,  avg # of iterations =  2.0

     negative rho (up, down):  7.487E-01 0.000E+00

     total cpu time spent up to now is       91.4 secs

     total energy              =   -4483.64388992 Ry
     estimated scf accuracy    <      33.77704457 Ry

     iteration #  7     ecut=    60.00 Ry     beta= 0.15
     Davidson diagonalization with overlap

---- Real-time Memory Report at c_bands before calling an iterative solver
             0 MiB given to the printing process from OS
             0 MiB allocation reported by mallinfo(arena+hblkhd)
         31621 MiB available memory on the node where the printing process lives
------------------
     ethr =  5.19E-03,  avg # of iterations =  1.0

     negative rho (up, down):  7.534E-01 0.000E+00

     total cpu time spent up to now is      104.2 secs

     total energy              =   -4483.69386845 Ry
     estimated scf accuracy    <      35.11970478 Ry

     iteration #  8     ecut=    60.00 Ry     beta= 0.15
     Davidson diagonalization with overlap

---- Real-time Memory Report at c_bands before calling an iterative solver
             0 MiB given to the printing process from OS
             0 MiB allocation reported by mallinfo(arena+hblkhd)
         31604 MiB available memory on the node where the printing process lives
------------------
     ethr =  5.19E-03,  avg # of iterations =  1.0

     negative rho (up, down):  7.511E-01 0.000E+00

     total cpu time spent up to now is      116.8 secs

     total energy              =   -4483.79093120 Ry
     estimated scf accuracy    <       6.07092872 Ry

     iteration #  9     ecut=    60.00 Ry     beta= 0.15
     Davidson diagonalization with overlap

---- Real-time Memory Report at c_bands before calling an iterative solver
             0 MiB given to the printing process from OS
             0 MiB allocation reported by mallinfo(arena+hblkhd)
         31578 MiB available memory on the node where the printing process lives
------------------
     ethr =  1.39E-03,  avg # of iterations =  3.4

     negative rho (up, down):  7.656E-01 0.000E+00

     total cpu time spent up to now is      131.6 secs

     total energy              =   -4483.73676469 Ry
     estimated scf accuracy    <       3.66059157 Ry

     iteration # 10     ecut=    60.00 Ry     beta= 0.15
     Davidson diagonalization with overlap

---- Real-time Memory Report at c_bands before calling an iterative solver
             0 MiB given to the printing process from OS
             0 MiB allocation reported by mallinfo(arena+hblkhd)
         31533 MiB available memory on the node where the printing process lives
------------------
     ethr =  8.38E-04,  avg # of iterations = 11.6

     negative rho (up, down):  7.889E-01 0.000E+00

     total cpu time spent up to now is      151.0 secs

     total energy              =   -4483.52468406 Ry
     estimated scf accuracy    <       4.54915619 Ry

     iteration # 11     ecut=    60.00 Ry     beta= 0.15
     Davidson diagonalization with overlap

---- Real-time Memory Report at c_bands before calling an iterative solver
             0 MiB given to the printing process from OS
             0 MiB allocation reported by mallinfo(arena+hblkhd)
         31180 MiB available memory on the node where the printing process lives
------------------
     ethr =  8.38E-04,  avg # of iterations =  7.1

     negative rho (up, down):  7.910E-01 0.000E+00

     total cpu time spent up to now is      168.6 secs

     total energy              =   -4483.17206178 Ry
     estimated scf accuracy    <       4.38771565 Ry

     iteration # 12     ecut=    60.00 Ry     beta= 0.15
     Davidson diagonalization with overlap

---- Real-time Memory Report at c_bands before calling an iterative solver
             0 MiB given to the printing process from OS
             0 MiB allocation reported by mallinfo(arena+hblkhd)
         31096 MiB available memory on the node where the printing process lives
------------------
     ethr =  8.38E-04,  avg # of iterations =  5.7

     negative rho (up, down):  8.018E-01 0.000E+00

     total cpu time spent up to now is      185.6 secs

     total energy              =   -4483.20334888 Ry
     estimated scf accuracy    <       2.09960349 Ry

     iteration # 13     ecut=    60.00 Ry     beta= 0.15
     Davidson diagonalization with overlap

---- Real-time Memory Report at c_bands before calling an iterative solver
             0 MiB given to the printing process from OS
             0 MiB allocation reported by mallinfo(arena+hblkhd)
         31061 MiB available memory on the node where the printing process lives
------------------
     ethr =  4.80E-04,  avg # of iterations =  4.0

     negative rho (up, down):  8.025E-01 0.000E+00

     total cpu time spent up to now is      201.3 secs

     total energy              =   -4483.25347700 Ry
     estimated scf accuracy    <       1.16409382 Ry

     iteration # 14     ecut=    60.00 Ry     beta= 0.15
     Davidson diagonalization with overlap

---- Real-time Memory Report at c_bands before calling an iterative solver
             0 MiB given to the printing process from OS
             0 MiB allocation reported by mallinfo(arena+hblkhd)
         31093 MiB available memory on the node where the printing process lives
------------------
     ethr =  2.66E-04,  avg # of iterations =  7.3

     negative rho (up, down):  8.152E-01 0.000E+00

     total cpu time spent up to now is      219.4 secs

     total energy              =   -4483.10756650 Ry
     estimated scf accuracy    <       0.73435336 Ry

     iteration # 15     ecut=    60.00 Ry     beta= 0.15
     Davidson diagonalization with overlap

---- Real-time Memory Report at c_bands before calling an iterative solver
             0 MiB given to the printing process from OS
             0 MiB allocation reported by mallinfo(arena+hblkhd)
         31063 MiB available memory on the node where the printing process lives
------------------
     c_bands:  1 eigenvalues not converged
     ethr =  1.68E-04,  avg # of iterations =  8.9

     negative rho (up, down):  8.181E-01 0.000E+00

     total cpu time spent up to now is      237.0 secs

     total energy              =   -4483.14000167 Ry
     estimated scf accuracy    <       3.77212834 Ry

     iteration # 16     ecut=    60.00 Ry     beta= 0.15
     Davidson diagonalization with overlap

---- Real-time Memory Report at c_bands before calling an iterative solver
             0 MiB given to the printing process from OS
             0 MiB allocation reported by mallinfo(arena+hblkhd)
         31056 MiB available memory on the node where the printing process lives
------------------
     ethr =  1.68E-04,  avg # of iterations =  2.1

     negative rho (up, down):  8.142E-01 0.000E+00

     total cpu time spent up to now is      251.2 secs

     total energy              =   -4483.10246555 Ry
     estimated scf accuracy    <       1.53503406 Ry

     iteration # 17     ecut=    60.00 Ry     beta= 0.15
     Davidson diagonalization with overlap

---- Real-time Memory Report at c_bands before calling an iterative solver
             0 MiB given to the printing process from OS
             0 MiB allocation reported by mallinfo(arena+hblkhd)
         31071 MiB available memory on the node where the printing process lives
------------------
     ethr =  1.68E-04,  avg # of iterations =  1.6

     negative rho (up, down):  8.195E-01 0.000E+00

     total cpu time spent up to now is      265.3 secs

     total energy              =   -4483.04353363 Ry
     estimated scf accuracy    <       0.40373572 Ry

     iteration # 18     ecut=    60.00 Ry     beta= 0.15
     Davidson diagonalization with overlap

---- Real-time Memory Report at c_bands before calling an iterative solver
             0 MiB given to the printing process from OS
             0 MiB allocation reported by mallinfo(arena+hblkhd)
         31081 MiB available memory on the node where the printing process lives
------------------
     c_bands:  1 eigenvalues not converged
     ethr =  9.24E-05,  avg # of iterations = 13.6

     negative rho (up, down):  8.211E-01 0.000E+00

     total cpu time spent up to now is      285.6 secs

     total energy              =   -4483.03091408 Ry
     estimated scf accuracy    <       1.58838568 Ry

     iteration # 19     ecut=    60.00 Ry     beta= 0.15
     Davidson diagonalization with overlap

---- Real-time Memory Report at c_bands before calling an iterative solver
             0 MiB given to the printing process from OS
             0 MiB allocation reported by mallinfo(arena+hblkhd)
         31055 MiB available memory on the node where the printing process lives
------------------
     ethr =  9.24E-05,  avg # of iterations =  4.6

     negative rho (up, down):  8.274E-01 0.000E+00

     total cpu time spent up to now is      301.5 secs

     total energy              =   -4483.02374954 Ry
     estimated scf accuracy    <       0.55314150 Ry

     iteration # 20     ecut=    60.00 Ry     beta= 0.15
     Davidson diagonalization with overlap

---- Real-time Memory Report at c_bands before calling an iterative solver
             0 MiB given to the printing process from OS
             0 MiB allocation reported by mallinfo(arena+hblkhd)
         31060 MiB available memory on the node where the printing process lives
------------------
     ethr =  9.24E-05,  avg # of iterations =  4.8

     negative rho (up, down):  8.248E-01 0.000E+00

     total cpu time spent up to now is      317.2 secs

     total energy              =   -4482.97591131 Ry
     estimated scf accuracy    <       0.64791104 Ry

     iteration # 21     ecut=    60.00 Ry     beta= 0.15
     Davidson diagonalization with overlap

---- Real-time Memory Report at c_bands before calling an iterative solver
             0 MiB given to the printing process from OS
             0 MiB allocation reported by mallinfo(arena+hblkhd)
         31060 MiB available memory on the node where the printing process lives
------------------
     ethr =  9.24E-05,  avg # of iterations =  8.3

     negative rho (up, down):  8.399E-01 0.000E+00

     total cpu time spent up to now is      334.6 secs

     total energy              =   -4482.97712309 Ry
     estimated scf accuracy    <       0.09009806 Ry

     iteration # 22     ecut=    60.00 Ry     beta= 0.15
     Davidson diagonalization with overlap

---- Real-time Memory Report at c_bands before calling an iterative solver
             0 MiB given to the printing process from OS
             0 MiB allocation reported by mallinfo(arena+hblkhd)
         31048 MiB available memory on the node where the printing process lives
------------------
     ethr =  2.06E-05,  avg # of iterations = 11.3

     negative rho (up, down):  8.380E-01 0.000E+00

     total cpu time spent up to now is      354.5 secs

     total energy              =   -4482.97483714 Ry
     estimated scf accuracy    <       0.04877083 Ry

     iteration # 23     ecut=    60.00 Ry     beta= 0.15
     Davidson diagonalization with overlap

---- Real-time Memory Report at c_bands before calling an iterative solver
             0 MiB given to the printing process from OS
             0 MiB allocation reported by mallinfo(arena+hblkhd)
         30859 MiB available memory on the node where the printing process lives
------------------
     ethr =  1.12E-05,  avg # of iterations =  2.3

     negative rho (up, down):  8.251E-01 0.000E+00

     total cpu time spent up to now is      368.9 secs

     total energy              =   -4482.96941761 Ry
     estimated scf accuracy    <       0.03261853 Ry

     iteration # 24     ecut=    60.00 Ry     beta= 0.15
     Davidson diagonalization with overlap

---- Real-time Memory Report at c_bands before calling an iterative solver
             0 MiB given to the printing process from OS
             0 MiB allocation reported by mallinfo(arena+hblkhd)
         30874 MiB available memory on the node where the printing process lives
------------------
     ethr =  7.46E-06,  avg # of iterations = 13.6

     negative rho (up, down):  8.214E-01 0.000E+00

     total cpu time spent up to now is      389.1 secs

     total energy              =   -4482.96960212 Ry
     estimated scf accuracy    <       0.01454307 Ry

     iteration # 25     ecut=    60.00 Ry     beta= 0.15
     Davidson diagonalization with overlap

---- Real-time Memory Report at c_bands before calling an iterative solver
             0 MiB given to the printing process from OS
             0 MiB allocation reported by mallinfo(arena+hblkhd)
         30857 MiB available memory on the node where the printing process lives
------------------
     ethr =  3.33E-06,  avg # of iterations =  2.2

     negative rho (up, down):  8.126E-01 0.000E+00

     total cpu time spent up to now is      403.8 secs

     total energy              =   -4482.96829187 Ry
     estimated scf accuracy    <       0.01013918 Ry

     iteration # 26     ecut=    60.00 Ry     beta= 0.15
     Davidson diagonalization with overlap

---- Real-time Memory Report at c_bands before calling an iterative solver
             0 MiB given to the printing process from OS
             0 MiB allocation reported by mallinfo(arena+hblkhd)
         30811 MiB available memory on the node where the printing process lives
------------------
     ethr =  2.32E-06,  avg # of iterations =  8.4

     negative rho (up, down):  7.951E-01 0.000E+00

     total cpu time spent up to now is      421.5 secs

     total energy              =   -4482.96692061 Ry
     estimated scf accuracy    <       0.00565796 Ry

     iteration # 27     ecut=    60.00 Ry     beta= 0.15
     Davidson diagonalization with overlap

---- Real-time Memory Report at c_bands before calling an iterative solver
             0 MiB given to the printing process from OS
             0 MiB allocation reported by mallinfo(arena+hblkhd)
         30800 MiB available memory on the node where the printing process lives
------------------
     ethr =  1.29E-06,  avg # of iterations =  9.2

     negative rho (up, down):  7.958E-01 0.000E+00

     total cpu time spent up to now is      440.9 secs

     total energy              =   -4482.96735864 Ry
     estimated scf accuracy    <       0.00151618 Ry

     iteration # 28     ecut=    60.00 Ry     beta= 0.15
     Davidson diagonalization with overlap

---- Real-time Memory Report at c_bands before calling an iterative solver
             0 MiB given to the printing process from OS
             0 MiB allocation reported by mallinfo(arena+hblkhd)
         30688 MiB available memory on the node where the printing process lives
------------------
     ethr =  3.47E-07,  avg # of iterations =  3.1

     negative rho (up, down):  7.946E-01 0.000E+00

     total cpu time spent up to now is      455.9 secs

     total energy              =   -4482.96735989 Ry
     estimated scf accuracy    <       0.00089499 Ry

     iteration # 29     ecut=    60.00 Ry     beta= 0.15
     Davidson diagonalization with overlap

---- Real-time Memory Report at c_bands before calling an iterative solver
             0 MiB given to the printing process from OS
             0 MiB allocation reported by mallinfo(arena+hblkhd)
         30732 MiB available memory on the node where the printing process lives
------------------
     ethr =  2.05E-07,  avg # of iterations =  2.3

     negative rho (up, down):  7.936E-01 0.000E+00

     total cpu time spent up to now is      470.4 secs

     total energy              =   -4482.96733773 Ry
     estimated scf accuracy    <       0.00060258 Ry

     iteration # 30     ecut=    60.00 Ry     beta= 0.15
     Davidson diagonalization with overlap

---- Real-time Memory Report at c_bands before calling an iterative solver
             0 MiB given to the printing process from OS
             0 MiB allocation reported by mallinfo(arena+hblkhd)
         30787 MiB available memory on the node where the printing process lives
------------------
     ethr =  1.38E-07,  avg # of iterations =  5.8

     negative rho (up, down):  7.928E-01 0.000E+00

     total cpu time spent up to now is      486.6 secs

     total energy              =   -4482.96730399 Ry
     estimated scf accuracy    <       0.00038183 Ry

     iteration # 31     ecut=    60.00 Ry     beta= 0.15
     Davidson diagonalization with overlap

---- Real-time Memory Report at c_bands before calling an iterative solver
             0 MiB given to the printing process from OS
             0 MiB allocation reported by mallinfo(arena+hblkhd)
         30842 MiB available memory on the node where the printing process lives
------------------
     ethr =  8.74E-08,  avg # of iterations =  5.6

     negative rho (up, down):  7.927E-01 0.000E+00

     total cpu time spent up to now is      502.8 secs

     total energy              =   -4482.96727961 Ry
     estimated scf accuracy    <       0.00020264 Ry

     iteration # 32     ecut=    60.00 Ry     beta= 0.15
     Davidson diagonalization with overlap

---- Real-time Memory Report at c_bands before calling an iterative solver
             0 MiB given to the printing process from OS
             0 MiB allocation reported by mallinfo(arena+hblkhd)
         30824 MiB available memory on the node where the printing process lives
------------------
     ethr =  4.64E-08,  avg # of iterations =  4.0

     negative rho (up, down):  7.925E-01 0.000E+00

     total cpu time spent up to now is      518.3 secs

     total energy              =   -4482.96726298 Ry
     estimated scf accuracy    <       0.00011679 Ry

     iteration # 33     ecut=    60.00 Ry     beta= 0.15
     Davidson diagonalization with overlap

---- Real-time Memory Report at c_bands before calling an iterative solver
             0 MiB given to the printing process from OS
             0 MiB allocation reported by mallinfo(arena+hblkhd)
         30828 MiB available memory on the node where the printing process lives
------------------
     ethr =  2.67E-08,  avg # of iterations =  5.3

     negative rho (up, down):  7.922E-01 0.000E+00

     total cpu time spent up to now is      534.2 secs

     total energy              =   -4482.96725860 Ry
     estimated scf accuracy    <       0.00007474 Ry

     iteration # 34     ecut=    60.00 Ry     beta= 0.15
     Davidson diagonalization with overlap

---- Real-time Memory Report at c_bands before calling an iterative solver
             0 MiB given to the printing process from OS
             0 MiB allocation reported by mallinfo(arena+hblkhd)
         30829 MiB available memory on the node where the printing process lives
------------------
     ethr =  1.71E-08,  avg # of iterations =  3.4

     negative rho (up, down):  7.920E-01 0.000E+00

     total cpu time spent up to now is      549.2 secs

     total energy              =   -4482.96727068 Ry
     estimated scf accuracy    <       0.00002990 Ry

     iteration # 35     ecut=    60.00 Ry     beta= 0.15
     Davidson diagonalization with overlap

---- Real-time Memory Report at c_bands before calling an iterative solver
             0 MiB given to the printing process from OS
             0 MiB allocation reported by mallinfo(arena+hblkhd)
         30872 MiB available memory on the node where the printing process lives
------------------
     ethr =  6.84E-09,  avg # of iterations =  2.5

     negative rho (up, down):  7.919E-01 0.000E+00

     total cpu time spent up to now is      564.1 secs

     total energy              =   -4482.96728273 Ry
     estimated scf accuracy    <       0.00001631 Ry

     iteration # 36     ecut=    60.00 Ry     beta= 0.15
     Davidson diagonalization with overlap

---- Real-time Memory Report at c_bands before calling an iterative solver
             0 MiB given to the printing process from OS
             0 MiB allocation reported by mallinfo(arena+hblkhd)
         30863 MiB available memory on the node where the printing process lives
------------------
     ethr =  3.73E-09,  avg # of iterations =  3.8

     negative rho (up, down):  7.920E-01 0.000E+00

     total cpu time spent up to now is      579.5 secs

     total energy              =   -4482.96728873 Ry
     estimated scf accuracy    <       0.00000886 Ry

     iteration # 37     ecut=    60.00 Ry     beta= 0.15
     Davidson diagonalization with overlap

---- Real-time Memory Report at c_bands before calling an iterative solver
             0 MiB given to the printing process from OS
             0 MiB allocation reported by mallinfo(arena+hblkhd)
         30859 MiB available memory on the node where the printing process lives
------------------
     ethr =  2.03E-09,  avg # of iterations =  4.5

     negative rho (up, down):  7.921E-01 0.000E+00

     total cpu time spent up to now is      595.0 secs

     total energy              =   -4482.96728997 Ry
     estimated scf accuracy    <       0.00000586 Ry

     iteration # 38     ecut=    60.00 Ry     beta= 0.15
     Davidson diagonalization with overlap

---- Real-time Memory Report at c_bands before calling an iterative solver
             0 MiB given to the printing process from OS
             0 MiB allocation reported by mallinfo(arena+hblkhd)
         30869 MiB available memory on the node where the printing process lives
------------------
     ethr =  1.34E-09,  avg # of iterations =  3.7

     negative rho (up, down):  7.922E-01 0.000E+00

     total cpu time spent up to now is      610.1 secs

     total energy              =   -4482.96729051 Ry
     estimated scf accuracy    <       0.00000391 Ry

     iteration # 39     ecut=    60.00 Ry     beta= 0.15
     Davidson diagonalization with overlap

---- Real-time Memory Report at c_bands before calling an iterative solver
             0 MiB given to the printing process from OS
             0 MiB allocation reported by mallinfo(arena+hblkhd)
         30883 MiB available memory on the node where the printing process lives
------------------
     ethr =  8.95E-10,  avg # of iterations =  3.6

     negative rho (up, down):  7.923E-01 0.000E+00

     total cpu time spent up to now is      625.2 secs

     total energy              =   -4482.96729045 Ry
     estimated scf accuracy    <       0.00000331 Ry

     iteration # 40     ecut=    60.00 Ry     beta= 0.15
     Davidson diagonalization with overlap

---- Real-time Memory Report at c_bands before calling an iterative solver
             0 MiB given to the printing process from OS
             0 MiB allocation reported by mallinfo(arena+hblkhd)
         30893 MiB available memory on the node where the printing process lives
------------------
     ethr =  7.57E-10,  avg # of iterations =  3.8

     negative rho (up, down):  7.923E-01 0.000E+00

     total cpu time spent up to now is      640.5 secs

     total energy              =   -4482.96729038 Ry
     estimated scf accuracy    <       0.00000209 Ry

     iteration # 41     ecut=    60.00 Ry     beta= 0.15
     Davidson diagonalization with overlap

---- Real-time Memory Report at c_bands before calling an iterative solver
             0 MiB given to the printing process from OS
             0 MiB allocation reported by mallinfo(arena+hblkhd)
         30889 MiB available memory on the node where the printing process lives
------------------
     ethr =  4.79E-10,  avg # of iterations =  4.4

     negative rho (up, down):  7.923E-01 0.000E+00

     total cpu time spent up to now is      655.8 secs

     total energy              =   -4482.96729054 Ry
     estimated scf accuracy    <       0.00000148 Ry

     iteration # 42     ecut=    60.00 Ry     beta= 0.15
     Davidson diagonalization with overlap

---- Real-time Memory Report at c_bands before calling an iterative solver
             0 MiB given to the printing process from OS
             0 MiB allocation reported by mallinfo(arena+hblkhd)
         30891 MiB available memory on the node where the printing process lives
------------------
     ethr =  3.39E-10,  avg # of iterations =  3.3

     negative rho (up, down):  7.923E-01 0.000E+00

     total cpu time spent up to now is      670.7 secs

     total energy              =   -4482.96729063 Ry
     estimated scf accuracy    <       0.00000122 Ry

     iteration # 43     ecut=    60.00 Ry     beta= 0.15
     Davidson diagonalization with overlap

---- Real-time Memory Report at c_bands before calling an iterative solver
             0 MiB given to the printing process from OS
             0 MiB allocation reported by mallinfo(arena+hblkhd)
         30894 MiB available memory on the node where the printing process lives
------------------
     ethr =  2.80E-10,  avg # of iterations =  3.5

     negative rho (up, down):  7.923E-01 0.000E+00

     total cpu time spent up to now is      685.5 secs

     total energy              =   -4482.96729071 Ry
     estimated scf accuracy    <       0.00000086 Ry

     iteration # 44     ecut=    60.00 Ry     beta= 0.15
     Davidson diagonalization with overlap

---- Real-time Memory Report at c_bands before calling an iterative solver
             0 MiB given to the printing process from OS
             0 MiB allocation reported by mallinfo(arena+hblkhd)
         30891 MiB available memory on the node where the printing process lives
------------------
     ethr =  1.97E-10,  avg # of iterations =  3.7

     negative rho (up, down):  7.923E-01 0.000E+00

     total cpu time spent up to now is      700.6 secs

     total energy              =   -4482.96729083 Ry
     estimated scf accuracy    <       0.00000059 Ry

     iteration # 45     ecut=    60.00 Ry     beta= 0.15
     Davidson diagonalization with overlap

---- Real-time Memory Report at c_bands before calling an iterative solver
             0 MiB given to the printing process from OS
             0 MiB allocation reported by mallinfo(arena+hblkhd)
         30894 MiB available memory on the node where the printing process lives
------------------
     ethr =  1.35E-10,  avg # of iterations =  2.8

     negative rho (up, down):  7.922E-01 0.000E+00

     total cpu time spent up to now is      715.2 secs

     total energy              =   -4482.96729112 Ry
     estimated scf accuracy    <       0.00000042 Ry

     iteration # 46     ecut=    60.00 Ry     beta= 0.15
     Davidson diagonalization with overlap

---- Real-time Memory Report at c_bands before calling an iterative solver
             0 MiB given to the printing process from OS
             0 MiB allocation reported by mallinfo(arena+hblkhd)
         30900 MiB available memory on the node where the printing process lives
------------------
     ethr =  9.60E-11,  avg # of iterations =  4.5

     negative rho (up, down):  7.922E-01 0.000E+00

     total cpu time spent up to now is      730.9 secs

     total energy              =   -4482.96729122 Ry
     estimated scf accuracy    <       0.00000021 Ry

     iteration # 47     ecut=    60.00 Ry     beta= 0.15
     Davidson diagonalization with overlap

---- Real-time Memory Report at c_bands before calling an iterative solver
             0 MiB given to the printing process from OS
             0 MiB allocation reported by mallinfo(arena+hblkhd)
         30904 MiB available memory on the node where the printing process lives
------------------
     ethr =  4.82E-11,  avg # of iterations =  4.7

     negative rho (up, down):  7.923E-01 0.000E+00

     total cpu time spent up to now is      746.5 secs

     total energy              =   -4482.96729125 Ry
     estimated scf accuracy    <       0.00000008 Ry

     iteration # 48     ecut=    60.00 Ry     beta= 0.15
     Davidson diagonalization with overlap

---- Real-time Memory Report at c_bands before calling an iterative solver
             0 MiB given to the printing process from OS
             0 MiB allocation reported by mallinfo(arena+hblkhd)
         30896 MiB available memory on the node where the printing process lives
------------------
     ethr =  1.85E-11,  avg # of iterations =  4.1

     negative rho (up, down):  7.923E-01 0.000E+00

     total cpu time spent up to now is      762.2 secs

     total energy              =   -4482.96729125 Ry
     estimated scf accuracy    <       0.00000003 Ry

     iteration # 49     ecut=    60.00 Ry     beta= 0.15
     Davidson diagonalization with overlap

---- Real-time Memory Report at c_bands before calling an iterative solver
             0 MiB given to the printing process from OS
             0 MiB allocation reported by mallinfo(arena+hblkhd)
         30821 MiB available memory on the node where the printing process lives
------------------
     ethr =  7.80E-12,  avg # of iterations =  4.8

     negative rho (up, down):  7.923E-01 0.000E+00

     total cpu time spent up to now is      779.1 secs

     total energy              =   -4482.96729126 Ry
     estimated scf accuracy    <       0.00000002 Ry

     iteration # 50     ecut=    60.00 Ry     beta= 0.15
     Davidson diagonalization with overlap

---- Real-time Memory Report at c_bands before calling an iterative solver
             0 MiB given to the printing process from OS
             0 MiB allocation reported by mallinfo(arena+hblkhd)
         30812 MiB available memory on the node where the printing process lives
------------------
     ethr =  4.45E-12,  avg # of iterations =  2.8

     negative rho (up, down):  7.923E-01 0.000E+00

     total cpu time spent up to now is      793.7 secs

     total energy              =   -4482.96729126 Ry
     estimated scf accuracy    <       0.00000002 Ry

     iteration # 51     ecut=    60.00 Ry     beta= 0.15
     Davidson diagonalization with overlap

---- Real-time Memory Report at c_bands before calling an iterative solver
             0 MiB given to the printing process from OS
             0 MiB allocation reported by mallinfo(arena+hblkhd)
         30846 MiB available memory on the node where the printing process lives
------------------
     ethr =  3.65E-12,  avg # of iterations =  3.4

     negative rho (up, down):  7.923E-01 0.000E+00

     total cpu time spent up to now is      808.7 secs

     total energy              =   -4482.96729126 Ry
     estimated scf accuracy    <       0.00000001 Ry

     iteration # 52     ecut=    60.00 Ry     beta= 0.15
     Davidson diagonalization with overlap

---- Real-time Memory Report at c_bands before calling an iterative solver
             0 MiB given to the printing process from OS
             0 MiB allocation reported by mallinfo(arena+hblkhd)
         30845 MiB available memory on the node where the printing process lives
------------------
     ethr =  2.90E-12,  avg # of iterations =  4.7

     negative rho (up, down):  7.923E-01 0.000E+00

     total cpu time spent up to now is      823.9 secs

     End of self-consistent calculation

          k = 0.0000 0.0000 0.0000 ( 65197 PWs)   bands (ev):

   -92.3233 -92.2675 -92.1771 -92.1275 -92.0681 -92.0295 -92.0126 -91.8907
   -55.6764 -55.6538 -55.5350 -55.5244 -55.5164 -55.5111 -55.4731 -55.4468
   -55.4308 -55.4284 -55.4185 -55.3771 -55.3583 -55.3204 -55.3029 -55.2675
   -55.2630 -55.2187 -55.2164 -55.2153 -55.2068 -55.1657 -55.1432 -55.0574
   -30.9106 -30.8915 -30.7710 -30.7506 -30.6896 -30.6639 -30.5764 -30.4670
   -29.4753 -29.4319 -29.4060 -29.2975 -22.2452 -14.7089 -14.6745 -14.5877
   -14.4568 -14.2761 -14.1523 -13.8499 -13.8339 -13.8008 -13.7629 -13.7585
   -13.7182 -13.7115 -13.6942 -13.6792 -13.6597 -13.6231 -13.5584 -13.4116
   -13.2431 -13.2012 -13.1679 -13.1429 -13.1231 -13.0789 -13.0381 -12.9576
   -12.8851 -12.8035 -12.7858 -12.7435 -12.7330 -12.7085 -12.6913 -12.6720
   -12.6427 -12.6271 -12.6032 -12.5823 -12.5697 -12.5578 -12.5486 -12.5318
   -12.4990 -12.4825 -12.4552 -12.4023 -12.3647 -12.3519 -11.9757 -11.8309
   -11.7228 -11.6462 -11.4893 -11.4145 -11.4033 -11.3814 -11.3637 -11.2996
   -11.2823 -11.2478 -11.2188 -11.1077 -11.0268 -11.0232  -5.7754  -3.1533
    -3.1492  -2.5695  -2.3358  -2.1061  -1.9612  -1.8961  -1.7531  -1.4475
    -1.4333  -1.4114  -1.3305  -1.3118  -1.2435  -1.2280  -1.1856  -1.1392
    -0.9603  -0.7377  -0.7092  -0.5569  -0.5435  -0.5008  -0.4826  -0.4386
    -0.4235  -0.3605  -0.3345  -0.2688  -0.2552  -0.1733  -0.0483  -0.0328
    -0.0041   0.0732   0.0790   0.0923   0.1649   0.2424   0.2607   0.3357
     0.3559   0.4113   0.5037   0.5516   0.5750   0.5832   0.8334   0.8485
     1.0187   1.0896   1.1506   1.2000   1.2916   1.3042   1.3211   1.3885
     1.4170   1.4521   1.5109   1.6467   1.6974   1.7213   1.7369   1.7455
     1.8166   1.8968   1.9852   2.0004   2.0551   2.0802   2.1169   2.1410
     2.1464   2.2037   2.2519   2.2643   2.2920   2.3250   2.3941   2.5226
     2.5989   2.6515   2.6660   2.8130   2.8286   2.8753   2.8889   2.9811
     3.0270   3.0480   3.0700   3.0780   3.1005   3.1114   3.1653   3.2778
     3.3107   3.3259   3.3331   3.3983   3.4026   3.4280   3.4366   3.4441
     3.4543   3.4622   3.4748   3.4801   3.4948   3.5035   3.5104   3.5311
     3.5523   3.5580   3.5690   3.5862   3.7099   3.7625   4.4331   4.7749
     4.7954   5.1531   5.3890   5.5079   5.6891   6.2877   6.3309   6.3724
     6.6253   6.6318   6.6888   6.7386   6.9628   7.2221   7.2868   7.3552
     7.3951   7.6632   7.7510   7.9096   7.9403   7.9696   8.0397   8.1516
     8.3026   8.3387   8.3682   8.3851   8.5004   8.5805   8.6027

     occupation numbers 
     1.0000   1.0000   1.0000   1.0000   1.0000   1.0000   1.0000   1.0000
     1.0000   1.0000   1.0000   1.0000   1.0000   1.0000   1.0000   1.0000
     1.0000   1.0000   1.0000   1.0000   1.0000   1.0000   1.0000   1.0000
     1.0000   1.0000   1.0000   1.0000   1.0000   1.0000   1.0000   1.0000
     1.0000   1.0000   1.0000   1.0000   1.0000   1.0000   1.0000   1.0000
     1.0000   1.0000   1.0000   1.0000   1.0000   1.0000   1.0000   1.0000
     1.0000   1.0000   1.0000   1.0000   1.0000   1.0000   1.0000   1.0000
     1.0000   1.0000   1.0000   1.0000   1.0000   1.0000   1.0000   1.0000
     1.0000   1.0000   1.0000   1.0000   1.0000   1.0000   1.0000   1.0000
     1.0000   1.0000   1.0000   1.0000   1.0000   1.0000   1.0000   1.0000
     1.0000   1.0000   1.0000   1.0000   1.0000   1.0000   1.0000   1.0000
     1.0000   1.0000   1.0000   1.0000   1.0000   1.0000   1.0000   1.0000
     1.0000   1.0000   1.0000   1.0000   1.0000   1.0000   1.0000   1.0000
     1.0000   1.0000   1.0000   1.0000   1.0000   1.0000   1.0000   1.0000
     1.0000   1.0000   1.0000   1.0000   1.0000   1.0000   1.0000   1.0000
     1.0000   1.0000   1.0000   1.0000   1.0000   1.0000   1.0000   1.0000
     1.0000   1.0000   1.0000   1.0000   1.0000   1.0000   1.0000   1.0000
     1.0000   1.0000   1.0000   1.0000   1.0000   1.0000   1.0000   1.0000
     1.0000   1.0000   1.0000   1.0000   1.0000   1.0000   1.0000   1.0000
     1.0000   1.0000   1.0000   1.0000   1.0000   1.0000   1.0000   1.0000
     1.0000   0.9999   0.9999   0.9999   0.9998   0.9998   0.9998   0.9997
     0.9997   0.9996   0.9994   0.9989   0.9985   0.9984   0.9982   0.9982
     0.9975   0.9963   0.9946   0.9943   0.9928   0.9920   0.9907   0.9898
     0.9896   0.9870   0.9844   0.9837   0.9819   0.9796   0.9740   0.9602
     0.9494   0.9408   0.9382   0.9068   0.9029   0.8905   0.8866   0.8581
     0.8422   0.8346   0.8264   0.8233   0.8145   0.8101   0.7877   0.7361
     0.7199   0.7122   0.7086   0.6745   0.6722   0.6585   0.6538   0.6497
     0.6440   0.6397   0.6326   0.6297   0.6214   0.6164   0.6125   0.6007
     0.5886   0.5852   0.5789   0.5688   0.4959   0.4648   0.1391   0.0557
     0.0524   0.0156   0.0061   0.0037   0.0016   0.0001   0.0000   0.0000
     0.0000   0.0000   0.0000   0.0000   0.0000   0.0000   0.0000   0.0000
     0.0000   0.0000   0.0000   0.0000   0.0000   0.0000   0.0000   0.0000
     0.0000   0.0000   0.0000   0.0000   0.0000   0.0000   0.0000

          k = 0.0000 0.2500 0.0000 ( 65257 PWs)   bands (ev):

   -92.3233 -92.2675 -92.1771 -92.1275 -92.0681 -92.0295 -92.0126 -91.8907
   -55.6764 -55.6538 -55.5350 -55.5244 -55.5164 -55.5111 -55.4731 -55.4468
   -55.4308 -55.4284 -55.4185 -55.3771 -55.3583 -55.3204 -55.3029 -55.2675
   -55.2630 -55.2187 -55.2164 -55.2153 -55.2068 -55.1657 -55.1432 -55.0574
   -30.9104 -30.8914 -30.7706 -30.7508 -30.6900 -30.6641 -30.5761 -30.4673
   -29.4747 -29.4316 -29.4066 -29.2978 -22.2452 -14.6717 -14.6486 -14.5627
   -14.4277 -14.3140 -14.1425 -13.9953 -13.8155 -13.7877 -13.7640 -13.7621
   -13.7351 -13.6793 -13.6732 -13.6591 -13.6439 -13.6079 -13.4788 -13.4425
   -13.2800 -13.2680 -13.2103 -13.1759 -13.1352 -13.0955 -13.0579 -12.9771
   -12.9444 -12.9143 -12.8480 -12.7818 -12.7654 -12.7410 -12.7242 -12.6494
   -12.6146 -12.5925 -12.5682 -12.5429 -12.5371 -12.5145 -12.4990 -12.4909
   -12.4511 -12.4318 -12.4284 -12.3954 -12.2694 -12.1898 -12.0371 -11.8822
   -11.7792 -11.7137 -11.4548 -11.4113 -11.3840 -11.3554 -11.3387 -11.2916
   -11.2801 -11.2577 -11.2238 -11.1218 -11.0685 -11.0579  -5.7754  -3.1535
    -3.1492  -2.4343  -2.2113  -2.0744  -1.8925  -1.8488  -1.6841  -1.4676
    -1.3795  -1.3664  -1.3115  -1.2082  -1.1933  -1.1579  -1.1334  -1.0897
    -0.8915  -0.7638  -0.7512  -0.6756  -0.6640  -0.5594  -0.5282  -0.4743
    -0.4499  -0.4048  -0.3435  -0.3188  -0.2847  -0.2566  -0.2390  -0.2049
    -0.1325  -0.0786  -0.0211   0.0883   0.1079   0.1508   0.2675   0.3030
     0.3664   0.4173   0.4849   0.5041   0.5293   0.5834   0.8809   0.9691
     0.9971   1.0893   1.1327   1.1519   1.2799   1.2979   1.3905   1.4146
     1.4464   1.5623   1.6455   1.6741   1.6969   1.7134   1.7447   1.8058
     1.8310   1.8571   1.9073   1.9361   1.9652   2.0401   2.0719   2.1097
     2.1676   2.2171   2.2475   2.2774   2.3152   2.3378   2.4282   2.5562
     2.6290   2.6498   2.7307   2.7731   2.8092   2.8165   2.8838   2.9282
     2.9980   3.0429   3.0606   3.0844   3.1090   3.2397   3.2610   3.2922
     3.3133   3.3319   3.3410   3.3487   3.3569   3.3866   3.3897   3.4065
     3.4095   3.4228   3.4382   3.4485   3.4596   3.4827   3.4931   3.4980
     3.5326   3.5493   3.6105   3.9553   3.9946   4.2525   4.6159   4.7631
     4.9188   5.0963   5.4265   5.5490   5.8164   5.9114   6.1740   6.3255
     6.3499   6.4732   6.5381   6.7446   6.8887   7.0654   7.2867   7.4384
     7.5569   7.7463   7.8068   7.8845   7.9333   7.9440   8.0902   8.2068
     8.2456   8.4067   8.5029   8.5436   8.5929   8.6937   8.9224

     occupation numbers 
     1.0000   1.0000   1.0000   1.0000   1.0000   1.0000   1.0000   1.0000
     1.0000   1.0000   1.0000   1.0000   1.0000   1.0000   1.0000   1.0000
     1.0000   1.0000   1.0000   1.0000   1.0000   1.0000   1.0000   1.0000
     1.0000   1.0000   1.0000   1.0000   1.0000   1.0000   1.0000   1.0000
     1.0000   1.0000   1.0000   1.0000   1.0000   1.0000   1.0000   1.0000
     1.0000   1.0000   1.0000   1.0000   1.0000   1.0000   1.0000   1.0000
     1.0000   1.0000   1.0000   1.0000   1.0000   1.0000   1.0000   1.0000
     1.0000   1.0000   1.0000   1.0000   1.0000   1.0000   1.0000   1.0000
     1.0000   1.0000   1.0000   1.0000   1.0000   1.0000   1.0000   1.0000
     1.0000   1.0000   1.0000   1.0000   1.0000   1.0000   1.0000   1.0000
     1.0000   1.0000   1.0000   1.0000   1.0000   1.0000   1.0000   1.0000
     1.0000   1.0000   1.0000   1.0000   1.0000   1.0000   1.0000   1.0000
     1.0000   1.0000   1.0000   1.0000   1.0000   1.0000   1.0000   1.0000
     1.0000   1.0000   1.0000   1.0000   1.0000   1.0000   1.0000   1.0000
     1.0000   1.0000   1.0000   1.0000   1.0000   1.0000   1.0000   1.0000
     1.0000   1.0000   1.0000   1.0000   1.0000   1.0000   1.0000   1.0000
     1.0000   1.0000   1.0000   1.0000   1.0000   1.0000   1.0000   1.0000
     1.0000   1.0000   1.0000   1.0000   1.0000   1.0000   1.0000   1.0000
     1.0000   1.0000   1.0000   1.0000   1.0000   1.0000   1.0000   1.0000
     1.0000   1.0000   1.0000   1.0000   1.0000   1.0000   1.0000   1.0000
     1.0000   0.9999   0.9999   0.9999   0.9998   0.9998   0.9997   0.9997
     0.9996   0.9993   0.9989   0.9987   0.9986   0.9984   0.9982   0.9976
     0.9973   0.9969   0.9962   0.9956   0.9951   0.9932   0.9923   0.9910
     0.9887   0.9863   0.9847   0.9829   0.9803   0.9787   0.9708   0.9557
     0.9446   0.9411   0.9256   0.9163   0.9078   0.9060   0.8881   0.8750
     0.8524   0.8365   0.8299   0.8208   0.8111   0.7543   0.7442   0.7291
     0.7186   0.7092   0.7045   0.7006   0.6964   0.6808   0.6791   0.6701
     0.6685   0.6613   0.6529   0.6472   0.6411   0.6282   0.6224   0.6196
     0.5998   0.5902   0.5546   0.3540   0.3325   0.2072   0.0876   0.0577
     0.0355   0.0193   0.0052   0.0031   0.0009   0.0005   0.0001   0.0000
     0.0000   0.0000   0.0000   0.0000   0.0000   0.0000   0.0000   0.0000
     0.0000   0.0000   0.0000   0.0000   0.0000   0.0000   0.0000   0.0000
     0.0000   0.0000   0.0000   0.0000   0.0000   0.0000   0.0000

          k = 0.0000-0.5000 0.0000 ( 65180 PWs)   bands (ev):

   -92.3233 -92.2675 -92.1771 -92.1275 -92.0681 -92.0295 -92.0126 -91.8907
   -55.6764 -55.6538 -55.5350 -55.5244 -55.5164 -55.5111 -55.4731 -55.4468
   -55.4308 -55.4284 -55.4185 -55.3771 -55.3583 -55.3204 -55.3029 -55.2675
   -55.2630 -55.2187 -55.2164 -55.2153 -55.2068 -55.1657 -55.1432 -55.0574
   -30.9102 -30.8912 -30.7703 -30.7510 -30.6904 -30.6642 -30.5758 -30.4676
   -29.4740 -29.4313 -29.4073 -29.2982 -22.2452 -14.6407 -14.5916 -14.5403
   -14.4166 -14.3264 -14.1895 -14.0449 -13.9218 -13.7850 -13.7621 -13.7266
   -13.6821 -13.6659 -13.6229 -13.6017 -13.5557 -13.5406 -13.5123 -13.4766
   -13.4610 -13.4131 -13.2121 -13.1577 -13.1444 -13.0856 -13.0764 -12.9895
   -12.9784 -12.9253 -12.9175 -12.8523 -12.7580 -12.7406 -12.7174 -12.6918
   -12.6048 -12.5910 -12.5628 -12.5387 -12.5153 -12.5113 -12.4898 -12.4397
   -12.4094 -12.4043 -12.3382 -12.2847 -12.1483 -12.1277 -11.9684 -11.9575
   -11.8871 -11.8435 -11.4083 -11.4064 -11.3792 -11.3408 -11.3069 -11.2959
   -11.2535 -11.2495 -11.2055 -11.1432 -11.1293 -11.1149  -5.7754  -3.1537
    -3.1492  -2.2200  -2.1596  -2.0085  -1.9355  -1.6568  -1.5728  -1.4445
    -1.3057  -1.2712  -1.2502  -1.1703  -1.1405  -1.0588  -1.0236  -0.9483
    -0.9061  -0.8663  -0.8397  -0.7852  -0.7464  -0.7014  -0.6646  -0.6300
    -0.5967  -0.4858  -0.4403  -0.4089  -0.4079  -0.3222  -0.2878  -0.2666
    -0.2186  -0.1340  -0.0673   0.0127   0.0385   0.1431   0.1907   0.3431
     0.3683   0.3998   0.4594   0.5728   0.6156   0.7653   0.8287   0.8370
     0.9652   1.0000   1.1161   1.2422   1.3504   1.3811   1.4135   1.4211
     1.4626   1.4802   1.5169   1.5323   1.5442   1.6519   1.7105   1.7396
     1.7669   2.0204   2.0537   2.0745   2.1641   2.1925   2.2230   2.2383
     2.2749   2.2835   2.2941   2.3273   2.3710   2.3976   2.4235   2.4384
     2.4667   2.5207   2.5989   2.6222   2.8074   2.9749   2.9826   2.9913
     3.0376   3.0423   3.0537   3.0775   3.1061   3.1100   3.1199   3.1734
     3.1937   3.2692   3.2826   3.3496   3.3591   3.3835   3.3850   3.4054
     3.4078   3.4135   3.4156   3.4204   3.4320   3.4528   3.4538   3.5179
     3.5238   3.5389   3.5934   4.4876   4.5021   4.5317   4.6043   4.9598
     5.1549   5.2386   5.4716   5.5168   5.5896   5.8277   5.9648   6.0057
     6.2265   6.3840   6.3940   6.4377   7.0108   7.0757   7.1487   7.4314
     7.5653   7.6121   7.7291   7.9867   8.0539   8.0813   8.2143   8.2854
     8.4412   8.5984   8.6843   8.7244   8.7466   8.8565   8.9786

     occupation numbers 
     1.0000   1.0000   1.0000   1.0000   1.0000   1.0000   1.0000   1.0000
     1.0000   1.0000   1.0000   1.0000   1.0000   1.0000   1.0000   1.0000
     1.0000   1.0000   1.0000   1.0000   1.0000   1.0000   1.0000   1.0000
     1.0000   1.0000   1.0000   1.0000   1.0000   1.0000   1.0000   1.0000
     1.0000   1.0000   1.0000   1.0000   1.0000   1.0000   1.0000   1.0000
     1.0000   1.0000   1.0000   1.0000   1.0000   1.0000   1.0000   1.0000
     1.0000   1.0000   1.0000   1.0000   1.0000   1.0000   1.0000   1.0000
     1.0000   1.0000   1.0000   1.0000   1.0000   1.0000   1.0000   1.0000
     1.0000   1.0000   1.0000   1.0000   1.0000   1.0000   1.0000   1.0000
     1.0000   1.0000   1.0000   1.0000   1.0000   1.0000   1.0000   1.0000
     1.0000   1.0000   1.0000   1.0000   1.0000   1.0000   1.0000   1.0000
     1.0000   1.0000   1.0000   1.0000   1.0000   1.0000   1.0000   1.0000
     1.0000   1.0000   1.0000   1.0000   1.0000   1.0000   1.0000   1.0000
     1.0000   1.0000   1.0000   1.0000   1.0000   1.0000   1.0000   1.0000
     1.0000   1.0000   1.0000   1.0000   1.0000   1.0000   1.0000   1.0000
     1.0000   1.0000   1.0000   1.0000   1.0000   1.0000   1.0000   1.0000
     1.0000   1.0000   1.0000   1.0000   1.0000   1.0000   1.0000   1.0000
     1.0000   1.0000   1.0000   1.0000   1.0000   1.0000   1.0000   1.0000
     1.0000   1.0000   1.0000   1.0000   1.0000   1.0000   1.0000   1.0000
     1.0000   1.0000   1.0000   1.0000   1.0000   1.0000   1.0000   1.0000
     1.0000   1.0000   0.9999   0.9999   0.9998   0.9997   0.9997   0.9996
     0.9996   0.9995   0.9994   0.9994   0.9993   0.9988   0.9985   0.9982
     0.9980   0.9938   0.9928   0.9922   0.9888   0.9875   0.9860   0.9852
     0.9830   0.9825   0.9818   0.9795   0.9760   0.9737   0.9713   0.9698
     0.9668   0.9604   0.9494   0.9457   0.9082   0.8602   0.8576   0.8547
     0.8384   0.8367   0.8325   0.8235   0.8123   0.8107   0.8067   0.7842
     0.7753   0.7403   0.7338   0.7001   0.6952   0.6824   0.6816   0.6707
     0.6694   0.6663   0.6652   0.6626   0.6563   0.6449   0.6443   0.6083
     0.6049   0.5963   0.5646   0.1220   0.1177   0.1093   0.0904   0.0310
     0.0155   0.0113   0.0043   0.0035   0.0025   0.0008   0.0004   0.0003
     0.0001   0.0000   0.0000   0.0000   0.0000   0.0000   0.0000   0.0000
     0.0000   0.0000   0.0000   0.0000   0.0000   0.0000   0.0000   0.0000
     0.0000   0.0000   0.0000   0.0000   0.0000   0.0000   0.0000

          k = 0.2500 0.2500 0.0000 ( 65198 PWs)   bands (ev):

   -92.3233 -92.2675 -92.1771 -92.1275 -92.0681 -92.0295 -92.0126 -91.8907
   -55.6764 -55.6538 -55.5350 -55.5244 -55.5164 -55.5111 -55.4731 -55.4468
   -55.4308 -55.4284 -55.4185 -55.3771 -55.3583 -55.3204 -55.3029 -55.2675
   -55.2630 -55.2187 -55.2164 -55.2153 -55.2068 -55.1657 -55.1432 -55.0574
   -30.9086 -30.8931 -30.7705 -30.7505 -30.6898 -30.6645 -30.5763 -30.4674
   -29.4737 -29.4326 -29.4062 -29.2983 -22.2452 -14.6440 -14.6126 -14.5349
   -14.4174 -14.3054 -14.1813 -14.1003 -13.9019 -13.7623 -13.7390 -13.7285
   -13.6942 -13.6636 -13.6427 -13.6209 -13.5911 -13.5683 -13.4717 -13.4565
   -13.2956 -13.2833 -13.2520 -13.2321 -13.1975 -13.1449 -13.1110 -13.0589
   -12.9751 -12.9336 -12.8642 -12.7771 -12.7388 -12.7199 -12.6834 -12.6544
   -12.6437 -12.5996 -12.5813 -12.5700 -12.5413 -12.5129 -12.4891 -12.4567
   -12.4043 -12.3948 -12.3754 -12.3470 -12.2110 -12.0866 -12.0850 -11.9114
   -11.8098 -11.7628 -11.4270 -11.3949 -11.3844 -11.3770 -11.3147 -11.2796
   -11.2731 -11.2378 -11.2300 -11.1384 -11.0967 -11.0793  -5.7754  -3.1535
    -3.1494  -2.2963  -2.0857  -1.9685  -1.8757  -1.7528  -1.6873  -1.4926
    -1.3451  -1.3244  -1.2981  -1.2030  -1.1675  -1.0757  -1.0491  -0.9990
    -0.8662  -0.8193  -0.7473  -0.7017  -0.6581  -0.6329  -0.6074  -0.5664
    -0.5499  -0.4603  -0.4110  -0.3493  -0.2996  -0.2706  -0.2160  -0.2067
    -0.1435  -0.0927  -0.0404  -0.0019   0.0793   0.1318   0.1618   0.2044
     0.2579   0.3150   0.3643   0.3934   0.4598   0.5113   0.7753   0.9190
     0.9604   1.0080   1.0548   1.1158   1.1689   1.2233   1.2608   1.5355
     1.6082   1.6829   1.7087   1.7514   1.7885   1.8228   1.8588   1.8776
     1.9059   1.9413   1.9538   1.9731   2.0128   2.0549   2.0937   2.1335
     2.1733   2.1883   2.2163   2.2585   2.3073   2.3372   2.4698   2.5358
     2.5779   2.6088   2.6645   2.7331   2.7647   2.8025   2.8222   2.8372
     2.9455   2.9856   3.0740   3.0855   3.0988   3.2504   3.2677   3.2743
     3.2894   3.3028   3.3166   3.3290   3.3371   3.3471   3.3607   3.3722
     3.3920   3.3985   3.4092   3.4293   3.4440   3.4533   3.4848   3.7865
     3.8771   3.9130   3.9738   3.9978   4.2229   4.3280   4.6514   4.8141
     4.9922   5.1569   5.3396   5.5750   5.9316   5.9637   6.0038   6.1318
     6.2140   6.2656   6.3575   6.4239   6.9115   7.0122   7.0512   7.1948
     7.7174   7.7998   7.8252   7.9042   8.0380   8.1384   8.2109   8.2848
     8.3447   8.4327   8.6355   8.6784   8.7016   8.7386   8.8386

     occupation numbers 
     1.0000   1.0000   1.0000   1.0000   1.0000   1.0000   1.0000   1.0000
     1.0000   1.0000   1.0000   1.0000   1.0000   1.0000   1.0000   1.0000
     1.0000   1.0000   1.0000   1.0000   1.0000   1.0000   1.0000   1.0000
     1.0000   1.0000   1.0000   1.0000   1.0000   1.0000   1.0000   1.0000
     1.0000   1.0000   1.0000   1.0000   1.0000   1.0000   1.0000   1.0000
     1.0000   1.0000   1.0000   1.0000   1.0000   1.0000   1.0000   1.0000
     1.0000   1.0000   1.0000   1.0000   1.0000   1.0000   1.0000   1.0000
     1.0000   1.0000   1.0000   1.0000   1.0000   1.0000   1.0000   1.0000
     1.0000   1.0000   1.0000   1.0000   1.0000   1.0000   1.0000   1.0000
     1.0000   1.0000   1.0000   1.0000   1.0000   1.0000   1.0000   1.0000
     1.0000   1.0000   1.0000   1.0000   1.0000   1.0000   1.0000   1.0000
     1.0000   1.0000   1.0000   1.0000   1.0000   1.0000   1.0000   1.0000
     1.0000   1.0000   1.0000   1.0000   1.0000   1.0000   1.0000   1.0000
     1.0000   1.0000   1.0000   1.0000   1.0000   1.0000   1.0000   1.0000
     1.0000   1.0000   1.0000   1.0000   1.0000   1.0000   1.0000   1.0000
     1.0000   1.0000   1.0000   1.0000   1.0000   1.0000   1.0000   1.0000
     1.0000   1.0000   1.0000   1.0000   1.0000   1.0000   1.0000   1.0000
     1.0000   1.0000   1.0000   1.0000   1.0000   1.0000   1.0000   1.0000
     1.0000   1.0000   1.0000   1.0000   1.0000   1.0000   1.0000   1.0000
     1.0000   1.0000   1.0000   1.0000   1.0000   1.0000   1.0000   1.0000
     1.0000   1.0000   1.0000   0.9999   0.9999   0.9999   0.9999   0.9994
     0.9991   0.9986   0.9985   0.9981   0.9978   0.9974   0.9969   0.9966
     0.9962   0.9956   0.9953   0.9949   0.9940   0.9928   0.9916   0.9901
     0.9884   0.9877   0.9864   0.9840   0.9809   0.9787   0.9665   0.9585
     0.9526   0.9479   0.9385   0.9251   0.9182   0.9094   0.9046   0.9007
     0.8697   0.8566   0.8248   0.8204   0.8152   0.7492   0.7410   0.7378
     0.7304   0.7238   0.7169   0.7106   0.7065   0.7014   0.6943   0.6884
     0.6779   0.6744   0.6686   0.6578   0.6497   0.6446   0.6270   0.4506
     0.3980   0.3776   0.3438   0.3308   0.2200   0.1767   0.0795   0.0495
     0.0278   0.0154   0.0075   0.0027   0.0005   0.0004   0.0003   0.0002
     0.0001   0.0001   0.0000   0.0000   0.0000   0.0000   0.0000   0.0000
     0.0000   0.0000   0.0000   0.0000   0.0000   0.0000   0.0000   0.0000
     0.0000   0.0000   0.0000   0.0000   0.0000   0.0000   0.0000

          k = 0.2500-0.5000 0.0000 ( 65138 PWs)   bands (ev):

   -92.3233 -92.2675 -92.1771 -92.1275 -92.0681 -92.0295 -92.0126 -91.8907
   -55.6764 -55.6538 -55.5350 -55.5244 -55.5164 -55.5111 -55.4731 -55.4468
   -55.4308 -55.4284 -55.4185 -55.3771 -55.3583 -55.3204 -55.3029 -55.2675
   -55.2630 -55.2187 -55.2164 -55.2153 -55.2068 -55.1657 -55.1432 -55.0574
   -30.9085 -30.8930 -30.7701 -30.7507 -30.6902 -30.6646 -30.5760 -30.4677
   -29.4731 -29.4323 -29.4069 -29.2986 -22.2452 -14.6104 -14.5647 -14.4973
   -14.3851 -14.3508 -14.2294 -14.1462 -14.0176 -13.7622 -13.7024 -13.6571
   -13.6264 -13.6074 -13.5899 -13.5732 -13.5413 -13.5283 -13.4931 -13.4513
   -13.4383 -13.4084 -13.2959 -13.2478 -13.2155 -13.1682 -13.1355 -13.0994
   -13.0293 -12.9867 -12.8400 -12.7760 -12.7586 -12.6991 -12.6653 -12.6608
   -12.6224 -12.6033 -12.5773 -12.5464 -12.5420 -12.5053 -12.4914 -12.4566
   -12.4222 -12.4100 -12.2887 -12.2572 -12.1549 -12.1059 -11.9552 -11.9417
   -11.8783 -11.8474 -11.4023 -11.3905 -11.3795 -11.3522 -11.3208 -11.2924
   -11.2514 -11.2235 -11.2015 -11.1563 -11.1302 -11.1190  -5.7754  -3.1537
    -3.1494  -2.0788  -2.0118  -1.8826  -1.8046  -1.6775  -1.5928  -1.4691
    -1.3174  -1.2654  -1.2427  -1.1790  -1.1657  -1.0695  -1.0024  -0.9166
    -0.8700  -0.8602  -0.7946  -0.7548  -0.7184  -0.6716  -0.6351  -0.6001
    -0.5591  -0.5489  -0.5030  -0.4752  -0.4342  -0.4034  -0.3353  -0.2358
    -0.1964  -0.1197  -0.0565  -0.0104   0.0356   0.0591   0.1028   0.2671
     0.2768   0.3809   0.4231   0.4335   0.4810   0.5023   0.5444   0.5696
     0.6469   0.9016   0.9923   1.0776   1.1393   1.3901   1.4187   1.5073
     1.5338   1.7051   1.7357   1.7803   1.8034   1.8220   1.8419   1.9013
     1.9444   1.9834   2.0616   2.1356   2.1781   2.2035   2.2166   2.2485
     2.2639   2.2742   2.3120   2.3296   2.3461   2.3838   2.4013   2.4299
     2.4592   2.5185   2.5550   2.6300   2.7759   2.9280   2.9414   2.9610
     2.9878   3.0129   3.0407   3.0642   3.0680   3.0812   3.1009   3.1114
     3.1999   3.2477   3.2690   3.2705   3.2868   3.3076   3.3219   3.3402
     3.3475   3.3764   3.3894   3.4057   3.4152   3.4240   3.4347   3.9497
     3.9555   4.1174   4.1649   4.4950   4.5417   4.5511   4.6713   5.0247
     5.1893   5.2691   5.4792   5.5086   5.6298   5.6885   5.8961   5.9218
     6.1016   6.1503   6.2888   6.4896   6.5797   6.6515   7.1144   7.2398
     7.4801   7.6330   7.9698   8.0862   8.1719   8.2170   8.3430   8.4058
     8.5517   8.5949   8.6855   8.7571   8.8282   8.8803   8.9320

     occupation numbers 
     1.0000   1.0000   1.0000   1.0000   1.0000   1.0000   1.0000   1.0000
     1.0000   1.0000   1.0000   1.0000   1.0000   1.0000   1.0000   1.0000
     1.0000   1.0000   1.0000   1.0000   1.0000   1.0000   1.0000   1.0000
     1.0000   1.0000   1.0000   1.0000   1.0000   1.0000   1.0000   1.0000
     1.0000   1.0000   1.0000   1.0000   1.0000   1.0000   1.0000   1.0000
     1.0000   1.0000   1.0000   1.0000   1.0000   1.0000   1.0000   1.0000
     1.0000   1.0000   1.0000   1.0000   1.0000   1.0000   1.0000   1.0000
     1.0000   1.0000   1.0000   1.0000   1.0000   1.0000   1.0000   1.0000
     1.0000   1.0000   1.0000   1.0000   1.0000   1.0000   1.0000   1.0000
     1.0000   1.0000   1.0000   1.0000   1.0000   1.0000   1.0000   1.0000
     1.0000   1.0000   1.0000   1.0000   1.0000   1.0000   1.0000   1.0000
     1.0000   1.0000   1.0000   1.0000   1.0000   1.0000   1.0000   1.0000
     1.0000   1.0000   1.0000   1.0000   1.0000   1.0000   1.0000   1.0000
     1.0000   1.0000   1.0000   1.0000   1.0000   1.0000   1.0000   1.0000
     1.0000   1.0000   1.0000   1.0000   1.0000   1.0000   1.0000   1.0000
     1.0000   1.0000   1.0000   1.0000   1.0000   1.0000   1.0000   1.0000
     1.0000   1.0000   1.0000   1.0000   1.0000   1.0000   1.0000   1.0000
     1.0000   1.0000   1.0000   1.0000   1.0000   1.0000   1.0000   1.0000
     1.0000   1.0000   1.0000   1.0000   1.0000   1.0000   1.0000   1.0000
     1.0000   1.0000   1.0000   1.0000   1.0000   1.0000   1.0000   1.0000
     1.0000   1.0000   1.0000   1.0000   0.9999   0.9997   0.9997   0.9994
     0.9994   0.9985   0.9983   0.9978   0.9976   0.9974   0.9971   0.9963
     0.9955   0.9947   0.9926   0.9900   0.9882   0.9870   0.9863   0.9846
     0.9837   0.9831   0.9806   0.9793   0.9780   0.9749   0.9734   0.9706
     0.9676   0.9607   0.9559   0.9444   0.9157   0.8751   0.8709   0.8647
     0.8559   0.8473   0.8373   0.8286   0.8271   0.8221   0.8143   0.8101
     0.7725   0.7505   0.7404   0.7396   0.7317   0.7214   0.7143   0.7049
     0.7012   0.6862   0.6793   0.6706   0.6654   0.6606   0.6548   0.3571
     0.3538   0.2692   0.2464   0.1198   0.1065   0.1040   0.0752   0.0248
     0.0137   0.0100   0.0042   0.0037   0.0021   0.0016   0.0006   0.0005
     0.0002   0.0001   0.0001   0.0000   0.0000   0.0000   0.0000   0.0000
     0.0000   0.0000   0.0000   0.0000   0.0000   0.0000   0.0000   0.0000
     0.0000   0.0000   0.0000   0.0000   0.0000   0.0000   0.0000

          k =-0.5000-0.5000 0.0000 ( 65132 PWs)   bands (ev):

   -92.3233 -92.2675 -92.1771 -92.1275 -92.0681 -92.0295 -92.0126 -91.8907
   -55.6764 -55.6538 -55.5350 -55.5244 -55.5164 -55.5111 -55.4731 -55.4468
   -55.4308 -55.4284 -55.4185 -55.3771 -55.3583 -55.3204 -55.3029 -55.2675
   -55.2630 -55.2187 -55.2164 -55.2153 -55.2068 -55.1657 -55.1432 -55.0574
   -30.9062 -30.8952 -30.7700 -30.7503 -30.6901 -30.6650 -30.5761 -30.4679
   -29.4721 -29.4333 -29.4065 -29.2990 -22.2452 -14.5650 -14.5369 -14.4202
   -14.4093 -14.3178 -14.2762 -14.2500 -14.1164 -13.7622 -13.6155 -13.6060
   -13.5684 -13.5515 -13.5334 -13.5259 -13.4889 -13.4806 -13.4680 -13.4607
   -13.4450 -13.3655 -13.3589 -13.3372 -13.3154 -13.2957 -13.2126 -13.1929
   -13.0806 -13.0358 -12.7917 -12.7553 -12.6850 -12.6670 -12.6589 -12.6388
   -12.6183 -12.6121 -12.6031 -12.5865 -12.5244 -12.5069 -12.4941 -12.4738
   -12.4327 -12.4274 -12.2385 -12.2309 -12.1713 -12.0858 -11.9517 -11.9108
   -11.8728 -11.8528 -11.3987 -11.3865 -11.3688 -11.3520 -11.3174 -11.2996
   -11.2648 -11.2039 -11.1836 -11.1784 -11.1280 -11.1249  -5.7753  -3.1537
    -3.1496  -1.8559  -1.7793  -1.7694  -1.6945  -1.6569  -1.5787  -1.5110
    -1.3852  -1.2676  -1.2382  -1.1994  -1.1411  -1.0694  -1.0559  -0.9840
    -0.9413  -0.8261  -0.7995  -0.7503  -0.7173  -0.6536  -0.6109  -0.5912
    -0.5803  -0.5278  -0.4786  -0.4678  -0.3530  -0.2959  -0.2492  -0.2000
    -0.1760  -0.1648  -0.1276  -0.0883  -0.0555  -0.0396   0.0466   0.1097
     0.1632   0.1807   0.2589   0.3056   0.3184   0.3780   0.3993   0.4170
     0.4374   0.8681   0.9046   1.0150   1.0599   1.4249   1.4382   1.4692
     1.5090   1.7872   1.8073   1.8140   1.8515   1.9868   2.0832   2.1085
     2.1424   2.1511   2.1799   2.1923   2.2242   2.2292   2.2356   2.2525
     2.3167   2.3192   2.3435   2.3479   2.3759   2.3840   2.4245   2.4567
     2.4668   2.5027   2.5273   2.6017   2.6703   2.9381   2.9725   2.9896
     3.0127   3.0140   3.0445   3.0540   3.0713   3.0783   3.0874   3.0996
     3.1083   3.1247   3.1364   3.2011   3.2046   3.2259   3.2397   3.2501
     3.2693   3.2751   3.2850   3.3848   3.3890   3.4202   3.4301   4.3786
     4.3918   4.4103   4.4198   4.6947   4.7667   4.7944   5.0341   5.1534
     5.1768   5.2409   5.3542   5.4090   5.5432   5.5683   5.5783   5.7303
[...]
     0.0000   0.0000   0.0000   0.0000   0.0000   0.0000   0.0000   0.0000
     0.0000   0.0000   0.0000   0.0000   0.0000   0.0000   0.0000

          k =-0.5000 0.0000 0.0000 ( 65180 PWs)   bands (ev):

   -92.3233 -92.2675 -92.1771 -92.1275 -92.0681 -92.0295 -92.0126 -91.8907
   -55.6764 -55.6538 -55.5350 -55.5244 -55.5164 -55.5111 -55.4731 -55.4468
   -55.4308 -55.4284 -55.4185 -55.3771 -55.3583 -55.3204 -55.3029 -55.2675
   -55.2630 -55.2187 -55.2164 -55.2153 -55.2068 -55.1657 -55.1432 -55.0574
   -30.9066 -30.8955 -30.7707 -30.7499 -30.6893 -30.6647 -30.5767 -30.4672
   -29.4733 -29.4339 -29.4052 -29.2983 -22.2452 -14.6439 -14.5963 -14.5334
   -14.4288 -14.3191 -14.1748 -14.0383 -13.8983 -13.7650 -13.7621 -13.7570
   -13.7353 -13.6883 -13.6248 -13.5920 -13.5485 -13.5428 -13.5260 -13.4696
   -13.4634 -13.3708 -13.1836 -13.1703 -13.1245 -13.1156 -13.0904 -12.9948
   -12.9767 -12.9025 -12.8842 -12.8791 -12.7648 -12.6875 -12.6797 -12.6756
   -12.6581 -12.6445 -12.5824 -12.5725 -12.5634 -12.5442 -12.4766 -12.4138
   -12.3796 -12.3635 -12.2732 -12.2641 -12.1742 -12.1560 -12.0037 -11.9615
   -11.8713 -11.8344 -11.4056 -11.3847 -11.3776 -11.3628 -11.3450 -11.3038
   -11.2403 -11.2229 -11.1906 -11.1457 -11.1362 -11.1203  -5.7754  -3.1533
    -3.1496  -2.2097  -2.1705  -2.0056  -1.9668  -1.6557  -1.5805  -1.4306
    -1.3124  -1.2744  -1.2279  -1.1798  -1.1536  -1.0327  -0.9868  -0.9738
    -0.8901  -0.8545  -0.8422  -0.8072  -0.7531  -0.6829  -0.6518  -0.6272
    -0.5331  -0.4822  -0.4342  -0.4020  -0.3800  -0.3514  -0.3027  -0.2780
    -0.2422  -0.1478  -0.0723  -0.0130   0.0518   0.2002   0.2559   0.3150
     0.3338   0.3878   0.4256   0.5515   0.5923   0.6413   0.8127   0.9106
     0.9559   1.0390   1.0861   1.2257   1.2425   1.3655   1.3986   1.4527
     1.4763   1.5186   1.5297   1.5757   1.6011   1.6634   1.7115   1.7584
     1.7681   2.0586   2.0687   2.0727   2.0972   2.2188   2.2263   2.2334
     2.2528   2.2858   2.2982   2.3326   2.3647   2.3819   2.4507   2.4531
     2.5115   2.5247   2.5911   2.6932   2.7870   2.8719   2.8868   2.9645
     3.0020   3.0243   3.0799   3.0875   3.1031   3.1084   3.1144   3.1412
     3.2095   3.2537   3.2978   3.3266   3.3746   3.3777   3.3790   3.3915
     3.4064   3.4178   3.4323   3.4357   3.4555   3.4625   3.4837   3.5045
     3.5087   3.6345   3.6427   4.4465   4.4747   4.5374   4.6610   5.0183
     5.1561   5.2209   5.3287   5.4516   5.7302   5.8799   5.9720   5.9995
     6.2227   6.2917   6.3969   6.4444   6.9956   7.0831   7.1498   7.4726
     7.4943   7.6999   7.7632   7.8718   8.0955   8.1157   8.2070   8.3638
     8.4560   8.5796   8.6454   8.7408   8.7499   8.8717   8.9234

     occupation numbers 
     1.0000   1.0000   1.0000   1.0000   1.0000   1.0000   1.0000   1.0000
     1.0000   1.0000   1.0000   1.0000   1.0000   1.0000   1.0000   1.0000
     1.0000   1.0000   1.0000   1.0000   1.0000   1.0000   1.0000   1.0000
     1.0000   1.0000   1.0000   1.0000   1.0000   1.0000   1.0000   1.0000
     1.0000   1.0000   1.0000   1.0000   1.0000   1.0000   1.0000   1.0000
     1.0000   1.0000   1.0000   1.0000   1.0000   1.0000   1.0000   1.0000
     1.0000   1.0000   1.0000   1.0000   1.0000   1.0000   1.0000   1.0000
     1.0000   1.0000   1.0000   1.0000   1.0000   1.0000   1.0000   1.0000
     1.0000   1.0000   1.0000   1.0000   1.0000   1.0000   1.0000   1.0000
     1.0000   1.0000   1.0000   1.0000   1.0000   1.0000   1.0000   1.0000
     1.0000   1.0000   1.0000   1.0000   1.0000   1.0000   1.0000   1.0000
     1.0000   1.0000   1.0000   1.0000   1.0000   1.0000   1.0000   1.0000
     1.0000   1.0000   1.0000   1.0000   1.0000   1.0000   1.0000   1.0000
     1.0000   1.0000   1.0000   1.0000   1.0000   1.0000   1.0000   1.0000
     1.0000   1.0000   1.0000   1.0000   1.0000   1.0000   1.0000   1.0000
     1.0000   1.0000   1.0000   1.0000   1.0000   1.0000   1.0000   1.0000
     1.0000   1.0000   1.0000   1.0000   1.0000   1.0000   1.0000   1.0000
     1.0000   1.0000   1.0000   1.0000   1.0000   1.0000   1.0000   1.0000
     1.0000   1.0000   1.0000   1.0000   1.0000   1.0000   1.0000   1.0000
     1.0000   1.0000   1.0000   1.0000   1.0000   1.0000   1.0000   1.0000
     1.0000   1.0000   0.9999   0.9999   0.9999   0.9997   0.9997   0.9996
     0.9995   0.9994   0.9994   0.9992   0.9991   0.9988   0.9984   0.9981
     0.9980   0.9927   0.9924   0.9923   0.9914   0.9862   0.9858   0.9855
     0.9844   0.9823   0.9815   0.9791   0.9766   0.9751   0.9685   0.9683
     0.9616   0.9599   0.9506   0.9331   0.9131   0.8914   0.8872   0.8636
     0.8510   0.8432   0.8226   0.8196   0.8135   0.8113   0.8090   0.7979
     0.7682   0.7477   0.7263   0.7119   0.6871   0.6854   0.6848   0.6782
     0.6702   0.6640   0.6562   0.6543   0.6433   0.6395   0.6276   0.6159
     0.6135   0.5405   0.5357   0.1348   0.1259   0.1077   0.0774   0.0254
     0.0155   0.0121   0.0079   0.0047   0.0013   0.0006   0.0004   0.0003
     0.0001   0.0001   0.0000   0.0000   0.0000   0.0000   0.0000   0.0000
     0.0000   0.0000   0.0000   0.0000   0.0000   0.0000   0.0000   0.0000
     0.0000   0.0000   0.0000   0.0000   0.0000   0.0000   0.0000

          k =-0.2500 0.2500 0.0000 ( 65198 PWs)   bands (ev):

   -92.3233 -92.2675 -92.1771 -92.1275 -92.0681 -92.0295 -92.0126 -91.8907
   -55.6764 -55.6538 -55.5350 -55.5244 -55.5164 -55.5111 -55.4731 -55.4468
   -55.4308 -55.4284 -55.4185 -55.3771 -55.3583 -55.3204 -55.3029 -55.2675
   -55.2630 -55.2187 -55.2164 -55.2153 -55.2068 -55.1657 -55.1432 -55.0574
   -30.9086 -30.8931 -30.7705 -30.7505 -30.6898 -30.6645 -30.5763 -30.4674
   -29.4737 -29.4326 -29.4062 -29.2983 -22.2452 -14.6455 -14.6114 -14.5335
   -14.4152 -14.3120 -14.1857 -14.0922 -13.8935 -13.7623 -13.7470 -13.7168
   -13.7076 -13.6593 -13.6351 -13.6201 -13.6111 -13.5683 -13.4680 -13.4571
   -13.3046 -13.2785 -13.2515 -13.2296 -13.1992 -13.1309 -13.1013 -13.0687
   -12.9841 -12.9334 -12.8576 -12.7807 -12.7410 -12.7134 -12.6750 -12.6520
   -12.6292 -12.6066 -12.5859 -12.5728 -12.5593 -12.5183 -12.4976 -12.4500
   -12.4086 -12.4020 -12.3820 -12.3250 -12.1927 -12.1037 -12.0753 -11.9172
   -11.8126 -11.7589 -11.4262 -11.4043 -11.3774 -11.3649 -11.3244 -11.2893
   -11.2665 -11.2449 -11.2224 -11.1381 -11.0922 -11.0826  -5.7754  -3.1535
    -3.1494  -2.2947  -2.0847  -1.9641  -1.8777  -1.7570  -1.6899  -1.4902
    -1.3418  -1.3222  -1.2960  -1.2036  -1.1663  -1.0756  -1.0424  -1.0166
    -0.8719  -0.8173  -0.7503  -0.7213  -0.6620  -0.6383  -0.5978  -0.5687
    -0.5290  -0.4668  -0.4204  -0.3605  -0.2908  -0.2669  -0.2128  -0.1845
    -0.1400  -0.0834  -0.0434   0.0038   0.0974   0.1357   0.1396   0.1914
     0.2549   0.3158   0.3667   0.3965   0.4635   0.5099   0.7570   0.9218
     0.9679   1.0014   1.0589   1.1128   1.1734   1.2298   1.2587   1.5427
     1.6598   1.6981   1.7287   1.7386   1.7804   1.7982   1.8418   1.8718
     1.8895   1.9154   1.9527   1.9652   2.0154   2.0300   2.0747   2.1432
     2.1652   2.1878   2.2223   2.2552   2.2898   2.3419   2.4586   2.5650
     2.6046   2.6463   2.6676   2.7319   2.7773   2.8033   2.8240   2.8478
     2.9461   2.9845   3.0750   3.0853   3.0978   3.2567   3.2660   3.2788
     3.2895   3.2996   3.3128   3.3191   3.3370   3.3461   3.3615   3.3710
     3.3838   3.3932   3.3999   3.4314   3.4432   3.4526   3.4866   3.7796
     3.8603   3.9160   3.9774   4.0057   4.2078   4.3364   4.6504   4.8146
     4.9884   5.1592   5.3500   5.5737   5.9317   5.9630   6.0051   6.1362
     6.2109   6.2657   6.3641   6.4146   6.9243   6.9987   7.0480   7.1991
     7.7178   7.8107   7.8247   7.9064   7.9992   8.1664   8.2046   8.2855
     8.3518   8.4341   8.6180   8.6936   8.7119   8.7345   8.8380

     occupation numbers 
     1.0000   1.0000   1.0000   1.0000   1.0000   1.0000   1.0000   1.0000
     1.0000   1.0000   1.0000   1.0000   1.0000   1.0000   1.0000   1.0000
     1.0000   1.0000   1.0000   1.0000   1.0000   1.0000   1.0000   1.0000
     1.0000   1.0000   1.0000   1.0000   1.0000   1.0000   1.0000   1.0000
     1.0000   1.0000   1.0000   1.0000   1.0000   1.0000   1.0000   1.0000
     1.0000   1.0000   1.0000   1.0000   1.0000   1.0000   1.0000   1.0000
     1.0000   1.0000   1.0000   1.0000   1.0000   1.0000   1.0000   1.0000
     1.0000   1.0000   1.0000   1.0000   1.0000   1.0000   1.0000   1.0000
     1.0000   1.0000   1.0000   1.0000   1.0000   1.0000   1.0000   1.0000
     1.0000   1.0000   1.0000   1.0000   1.0000   1.0000   1.0000   1.0000
     1.0000   1.0000   1.0000   1.0000   1.0000   1.0000   1.0000   1.0000
     1.0000   1.0000   1.0000   1.0000   1.0000   1.0000   1.0000   1.0000
     1.0000   1.0000   1.0000   1.0000   1.0000   1.0000   1.0000   1.0000
     1.0000   1.0000   1.0000   1.0000   1.0000   1.0000   1.0000   1.0000
     1.0000   1.0000   1.0000   1.0000   1.0000   1.0000   1.0000   1.0000
     1.0000   1.0000   1.0000   1.0000   1.0000   1.0000   1.0000   1.0000
     1.0000   1.0000   1.0000   1.0000   1.0000   1.0000   1.0000   1.0000
     1.0000   1.0000   1.0000   1.0000   1.0000   1.0000   1.0000   1.0000
     1.0000   1.0000   1.0000   1.0000   1.0000   1.0000   1.0000   1.0000
     1.0000   1.0000   1.0000   1.0000   1.0000   1.0000   1.0000   1.0000
     1.0000   1.0000   1.0000   0.9999   0.9999   0.9999   0.9999   0.9993
     0.9988   0.9985   0.9983   0.9982   0.9978   0.9977   0.9971   0.9967
     0.9965   0.9960   0.9953   0.9951   0.9939   0.9935   0.9922   0.9897
     0.9888   0.9878   0.9860   0.9842   0.9821   0.9784   0.9677   0.9545
     0.9485   0.9417   0.9379   0.9253   0.9154   0.9092   0.9041   0.8979
     0.8695   0.8570   0.8244   0.8205   0.8156   0.7462   0.7418   0.7356
     0.7304   0.7254   0.7188   0.7157   0.7066   0.7019   0.6939   0.6890
     0.6822   0.6773   0.6737   0.6566   0.6501   0.6450   0.6260   0.4547
     0.4077   0.3759   0.3418   0.3265   0.2267   0.1735   0.0797   0.0494
     0.0282   0.0153   0.0072   0.0027   0.0005   0.0004   0.0003   0.0002
     0.0001   0.0001   0.0000   0.0000   0.0000   0.0000   0.0000   0.0000
     0.0000   0.0000   0.0000   0.0000   0.0000   0.0000   0.0000   0.0000
     0.0000   0.0000   0.0000   0.0000   0.0000   0.0000   0.0000

          k =-0.5000 0.2500 0.0000 ( 65138 PWs)   bands (ev):

   -92.3233 -92.2675 -92.1771 -92.1275 -92.0681 -92.0295 -92.0126 -91.8907
   -55.6764 -55.6538 -55.5350 -55.5244 -55.5164 -55.5111 -55.4731 -55.4468
   -55.4308 -55.4284 -55.4185 -55.3771 -55.3583 -55.3204 -55.3029 -55.2675
   -55.2630 -55.2187 -55.2164 -55.2153 -55.2068 -55.1657 -55.1432 -55.0574
   -30.9064 -30.8954 -30.7703 -30.7501 -30.6897 -30.6649 -30.5764 -30.4675
   -29.4727 -29.4336 -29.4058 -29.2987 -22.2452 -14.6117 -14.5694 -14.4906
   -14.3940 -14.3490 -14.2212 -14.1411 -14.0124 -13.7622 -13.6974 -13.6678
   -13.6553 -13.6122 -13.5953 -13.5645 -13.5344 -13.5269 -13.5034 -13.4649
   -13.4493 -13.3565 -13.2683 -13.2316 -13.2173 -13.2076 -13.1524 -13.1012
   -13.0249 -12.9677 -12.8341 -12.7979 -12.7157 -12.6987 -12.6620 -12.6492
   -12.6381 -12.6147 -12.5978 -12.5763 -12.5675 -12.5110 -12.4893 -12.4423
   -12.4033 -12.3939 -12.2555 -12.2480 -12.1725 -12.1178 -11.9618 -11.9567
   -11.8664 -11.8433 -11.3985 -11.3859 -11.3718 -11.3600 -11.3388 -11.3086
   -11.2277 -11.2190 -11.1958 -11.1601 -11.1318 -11.1227  -5.7754  -3.1535
    -3.1496  -2.0680  -2.0252  -1.8756  -1.8338  -1.6750  -1.5993  -1.4547
    -1.3188  -1.2631  -1.2350  -1.1960  -1.1561  -1.0764  -0.9619  -0.9053
    -0.8818  -0.8569  -0.7827  -0.7511  -0.7157  -0.6952  -0.6349  -0.6084
    -0.5669  -0.5315  -0.5030  -0.4462  -0.4203  -0.3784  -0.3446  -0.2407
    -0.2154  -0.1311  -0.0658  -0.0350   0.0206   0.1087   0.1370   0.2421
     0.2679   0.3330   0.3746   0.4022   0.4849   0.5202   0.5523   0.6043
     0.6403   0.9425   0.9877   1.0645   1.1016   1.3736   1.4342   1.5089
     1.5340   1.7172   1.7534   1.7908   1.8068   1.8245   1.8422   1.9100
     1.9521   1.9872   2.0169   2.1202   2.1630   2.2067   2.2160   2.2462
     2.2767   2.2919   2.3065   2.3283   2.3532   2.3962   2.4219   2.4521
     2.4755   2.4995   2.5694   2.6854   2.7866   2.8156   2.8853   2.9286
     2.9797   3.0245   3.0314   3.0659   3.0837   3.0921   3.1063   3.1271
     3.2095   3.2513   3.2639   3.2714   3.2921   3.3156   3.3285   3.3420
     3.3546   3.3740   3.3881   3.3991   3.4068   3.4181   3.4306   3.9537
     3.9828   4.1491   4.1689   4.4500   4.5007   4.5533   4.7568   5.0707
     5.1772   5.2420   5.3527   5.4673   5.7362   5.7727   5.8468   5.9743
     6.0625   6.1212   6.3199   6.4238   6.5715   6.6545   7.1304   7.3115
     7.4329   7.6305   7.9765   8.0716   8.1882   8.2229   8.3236   8.3969
     8.5471   8.6511   8.7075   8.7336   8.8394   8.8712   8.9375

     occupation numbers 
     1.0000   1.0000   1.0000   1.0000   1.0000   1.0000   1.0000   1.0000
     1.0000   1.0000   1.0000   1.0000   1.0000   1.0000   1.0000   1.0000
     1.0000   1.0000   1.0000   1.0000   1.0000   1.0000   1.0000   1.0000
     1.0000   1.0000   1.0000   1.0000   1.0000   1.0000   1.0000   1.0000
     1.0000   1.0000   1.0000   1.0000   1.0000   1.0000   1.0000   1.0000
     1.0000   1.0000   1.0000   1.0000   1.0000   1.0000   1.0000   1.0000
     1.0000   1.0000   1.0000   1.0000   1.0000   1.0000   1.0000   1.0000
     1.0000   1.0000   1.0000   1.0000   1.0000   1.0000   1.0000   1.0000
     1.0000   1.0000   1.0000   1.0000   1.0000   1.0000   1.0000   1.0000
     1.0000   1.0000   1.0000   1.0000   1.0000   1.0000   1.0000   1.0000
     1.0000   1.0000   1.0000   1.0000   1.0000   1.0000   1.0000   1.0000
     1.0000   1.0000   1.0000   1.0000   1.0000   1.0000   1.0000   1.0000
     1.0000   1.0000   1.0000   1.0000   1.0000   1.0000   1.0000   1.0000
     1.0000   1.0000   1.0000   1.0000   1.0000   1.0000   1.0000   1.0000
     1.0000   1.0000   1.0000   1.0000   1.0000   1.0000   1.0000   1.0000
     1.0000   1.0000   1.0000   1.0000   1.0000   1.0000   1.0000   1.0000
     1.0000   1.0000   1.0000   1.0000   1.0000   1.0000   1.0000   1.0000
     1.0000   1.0000   1.0000   1.0000   1.0000   1.0000   1.0000   1.0000
     1.0000   1.0000   1.0000   1.0000   1.0000   1.0000   1.0000   1.0000
     1.0000   1.0000   1.0000   1.0000   1.0000   1.0000   1.0000   1.0000
     1.0000   1.0000   1.0000   1.0000   0.9999   0.9997   0.9996   0.9994
     0.9994   0.9984   0.9981   0.9977   0.9976   0.9974   0.9971   0.9961
     0.9953   0.9946   0.9939   0.9906   0.9889   0.9869   0.9864   0.9847
     0.9829   0.9819   0.9809   0.9794   0.9775   0.9738   0.9714   0.9684
     0.9658   0.9630   0.9538   0.9346   0.9132   0.9062   0.8876   0.8749
     0.8586   0.8431   0.8407   0.8279   0.8211   0.8178   0.8122   0.8038
     0.7681   0.7488   0.7428   0.7392   0.7291   0.7174   0.7109   0.7040
     0.6975   0.6874   0.6800   0.6741   0.6700   0.6639   0.6571   0.3549
     0.3389   0.2538   0.2445   0.1337   0.1181   0.1034   0.0588   0.0211
     0.0143   0.0111   0.0071   0.0044   0.0013   0.0011   0.0007   0.0004
     0.0002   0.0002   0.0001   0.0000   0.0000   0.0000   0.0000   0.0000
     0.0000   0.0000   0.0000   0.0000   0.0000   0.0000   0.0000   0.0000
     0.0000   0.0000   0.0000   0.0000   0.0000   0.0000   0.0000

     the Fermi energy is     3.7030 ev

!    total energy              =   -4482.96729126 Ry
     estimated scf accuracy    <          5.5E-09 Ry
     smearing contrib. (-TS)   =      -1.17273096 Ry
     internal energy E=F+TS    =   -4481.79456030 Ry

     The total energy is F=E-TS. E is the sum of the following terms:
     one-electron contribution =  -20252.31006338 Ry
     hartree contribution      =   10266.03496308 Ry
     xc contribution           =    -701.57718785 Ry
     ewald contribution        =    6491.71675022 Ry
     one-center paw contrib.   =    -285.65902237 Ry
      -> PAW hartree energy AE =      25.18948993 Ry
      -> PAW hartree energy PS =     -25.07314954 Ry
      -> PAW xc energy AE      =     -16.52116993 Ry
      -> PAW xc energy PS      =       6.88084759 Ry
      -> total E_H with PAW    =   10266.15130347 Ry
      -> total E_XC with PAW   =    -711.21751020 Ry

     convergence has been achieved in  52 iterations

     Writing all to output data dir /bsuhome/zayahcortright/scratch/pwscf.save/
 
     init_run     :      8.83s CPU      9.22s WALL (       1 calls)
     electrons    :    801.50s CPU    814.14s WALL (       1 calls)

     Called by init_run:
     wfcinit      :      6.88s CPU      7.07s WALL (       1 calls)
     wfcinit:atom :      0.06s CPU      0.07s WALL (       5 calls)
     wfcinit:wfcr :      6.52s CPU      6.65s WALL (       5 calls)
     potinit      :      0.19s CPU      0.20s WALL (       1 calls)
     hinit0       :      0.69s CPU      0.80s WALL (       1 calls)

     Called by electrons:
     c_bands      :    633.29s CPU    638.27s WALL (      52 calls)
     sum_band     :    124.95s CPU    129.30s WALL (      52 calls)
     v_of_rho     :      5.71s CPU      6.02s WALL (      53 calls)
     v_h          :      0.51s CPU      0.51s WALL (      53 calls)
     v_xc         :      5.20s CPU      5.51s WALL (      53 calls)
     newd         :     22.33s CPU     24.92s WALL (      53 calls)
     PAW_pot      :      1.70s CPU      1.72s WALL (      53 calls)
     mix_rho      :     13.20s CPU     13.46s WALL (      52 calls)

     Called by c_bands:
     init_us_2    :      7.56s CPU      7.63s WALL (     525 calls)
     init_us_2:cp :      7.56s CPU      7.63s WALL (     525 calls)
     cegterg      :    596.59s CPU    601.36s WALL (     260 calls)

     Called by sum_band:
     sum_band:wei :      0.36s CPU      0.36s WALL (      52 calls)
     sum_band:loo :    101.29s CPU    101.98s WALL (      52 calls)
     sum_band:buf :      1.45s CPU      1.47s WALL (     260 calls)
     sum_band:ini :      3.57s CPU      3.58s WALL (     260 calls)
     sum_band:cal :     21.68s CPU     21.73s WALL (     260 calls)
     sum_band:bec :      0.62s CPU      0.62s WALL (     260 calls)
     addusdens    :     19.23s CPU     22.85s WALL (      52 calls)
                                        0.00s GPU  (      52 calls)
     addusd:skk   :      0.40s CPU      0.80s WALL (     208 calls)
                                        0.00s GPU  (     208 calls)

     Called by *egterg:
     cdiaghg      :     62.55s CPU     62.79s WALL (    1432 calls)
     cegterg:over :     46.11s CPU     46.26s WALL (    1172 calls)
     cegterg:upda :     33.19s CPU     33.52s WALL (    1172 calls)
     cegterg:last :     69.14s CPU     69.32s WALL (     489 calls)
     cdiaghg:chol :      3.69s CPU      3.72s WALL (    1432 calls)
     cdiaghg:inve :      3.87s CPU      3.89s WALL (    1432 calls)
     cdiaghg:para :      7.96s CPU      8.00s WALL (    2864 calls)
     h_psi        :    322.28s CPU    325.17s WALL (    1437 calls)
     s_psi        :     45.64s CPU     45.77s WALL (    1437 calls)
     g_psi        :      1.23s CPU      1.23s WALL (    1172 calls)

     Called by h_psi:
     h_psi:calbec :     49.94s CPU     50.12s WALL (    1437 calls)
     vloc_psi     :    223.61s CPU    225.75s WALL (    1437 calls)
     add_vuspsi   :     45.18s CPU     45.35s WALL (    1437 calls)

     General routines
     calbec       :     71.61s CPU     71.85s WALL (    1697 calls)
     fft          :      6.57s CPU      6.62s WALL (     687 calls)
     ffts         :      4.98s CPU      5.02s WALL (    5496 calls)
     fftw         :    193.47s CPU    195.06s WALL (  358202 calls)
     interpolate  :      0.43s CPU      0.44s WALL (      53 calls)
 
     Parallel routines

     PAW routines
     PAW_pot      :      1.70s CPU      1.72s WALL (      53 calls)
 
     PWSCF        :  13m32.14s CPU  13m49.46s WALL

 
   This run was terminated on:  21: 1:16  20Jun2024            

=------------------------------------------------------------------------------=
   JOB DONE.
=------------------------------------------------------------------------------=
