
     Program PWSCF v.7.2 starts on 21Jun2024 at 22:43:26 

     This program is part of the open-source Quantum ESPRESSO suite
     for quantum simulation of materials; please cite
         "P. Giannozzi et al., J. Phys.:Condens. Matter 21 395502 (2009);
         "P. Giannozzi et al., J. Phys.:Condens. Matter 29 465901 (2017);
         "P. Giannozzi et al., J. Chem. Phys. 152 154105 (2020);
          URL http://www.quantum-espresso.org", 
     in publications or presentations arising from this work. More details at
     http://www.quantum-espresso.org/quote

     Parallel version (MPI & OpenMP), running on      48 processor cores
     Number of MPI processes:                48
     Threads/MPI process:                     1

     MPI processes distributed on     1 nodes
     60569 MiB available memory on the printing compute node when the environment starts
 
     Reading input from espresso.pwi
Warning: card &CELL ignored
Warning: card / ignored
Warning: card &FCP ignored
Warning: card / ignored
Warning: card &RISM ignored
Warning: card / ignored

     Current dimensions of program PWSCF are:
     Max number of different atomic species (ntypx) = 10
     Max number of k-points (npk) =  40000
     Max angular momentum in pseudopotentials (lmaxx) =  4
     file O.pbe-n-kjpaw_psl.0.1.UPF: wavefunction(s)  2P renormalized
     signal trapping enabled: kill the code with -SIGUSR1 to stop cleanly the simulation 
 
     K-points division:     npool     =       2
     R & G space division:  proc/nbgrp/npool/nimage =      24
     Subspace diagonalization in iterative solution of the eigenvalue problem:
     one sub-group per band group will be used
     scalapack distributed-memory algorithm (size of sub-group:  3*  3 procs)

 
     Parallelization info
     --------------------
     sticks:   dense  smooth     PW     G-vecs:    dense   smooth      PW
     Min         350     175     47                61430    21716    3036
     Max         351     177     48                61449    21727    3041
     Sum        8421    4205   1137              1474595   521381   72913
 
     Using Slab Decomposition
 


     bravais-lattice index     =            0
     lattice parameter (alat)  =      14.8599  a.u.
     unit-cell volume          =    8305.1283 (a.u.)^3
     number of atoms/cell      =           49
     number of atomic types    =            3
     number of electrons       =       430.00
     number of Kohn-Sham states=          258
     kinetic-energy cutoff     =      60.0000  Ry
     charge density cutoff     =     480.0000  Ry
     scf convergence threshold =      1.0E-08
     mixing beta               =       0.1500
     number of iterations used =            8  local-TF  mixing
     Exchange-correlation= SLA  PW   PBE  PBE
                           (   1   4   3   4   0   0   0)

     celldm(1)=  14.859904  celldm(2)=   0.000000  celldm(3)=   0.000000
     celldm(4)=   0.000000  celldm(5)=   0.000000  celldm(6)=   0.000000

     crystal axes: (cart. coord. in units of alat)
               a(1) = (   1.000000   0.000000   0.000000 )  
               a(2) = (   0.000000   1.000000   0.000000 )  
               a(3) = (   0.000000   0.000000   2.531036 )  

     reciprocal axes: (cart. coord. in units 2 pi/alat)
               b(1) = (  1.000000  0.000000  0.000000 )  
               b(2) = (  0.000000  1.000000  0.000000 )  
               b(3) = (  0.000000  0.000000  0.395095 )  


     PseudoPot. # 1 for Sr read from file:
     /bsuhome/zayahcortright/q-e/pseudo/Sr_pbe_v1.uspp.F.UPF
     MD5 check sum: 6b418c05fbe9db5448babca5e47b7a5b
     Pseudo is Ultrasoft + core correction, Zval = 10.0
     Generated by new atomic code, or converted to UPF format
     Using radial grid of  883 points,  6 beta functions with: 
                l(1) =   0
                l(2) =   0
                l(3) =   1
                l(4) =   1
                l(5) =   2
                l(6) =   2
     Q(r) pseudized with  6 coefficients,  rinner =    1.400   1.400   1.400
                                                       1.400   1.400

     PseudoPot. # 2 for O  read from file:
     /bsuhome/zayahcortright/q-e/pseudo/O.pbe-n-kjpaw_psl.0.1.UPF
     MD5 check sum: 0234752ac141de4415c5fc33072bef88
     Pseudo is Projector augmented-wave + core cor, Zval =  6.0
     Generated using "atomic" code by A. Dal Corso  v.5.0.99 svn rev. 10869
     Shape of augmentation charge: BESSEL
     Using radial grid of 1095 points,  4 beta functions with: 
                l(1) =   0
                l(2) =   0
                l(3) =   1
                l(4) =   1
     Q(r) pseudized with 0 coefficients 


     PseudoPot. # 3 for Co read from file:
     /bsuhome/zayahcortright/q-e/pseudo/Co_pbe_v1.2.uspp.F.UPF
     MD5 check sum: 5f91765df6ddd3222702df6e7b74a16d
     Pseudo is Ultrasoft + core correction, Zval = 17.0
     Generated by new atomic code, or converted to UPF format
     Using radial grid of  863 points,  6 beta functions with: 
                l(1) =   0
                l(2) =   0
                l(3) =   1
                l(4) =   1
                l(5) =   2
                l(6) =   2
     Q(r) pseudized with  8 coefficients,  rinner =    1.200   1.200   1.200
                                                       1.200   1.200

     atomic species   valence    mass     pseudopotential
        Sr            10.00    87.62000     Sr( 1.00)
        O              6.00    15.99900     O ( 1.00)
        Co            17.00    58.93319     Co( 1.00)

     No symmetry found


                                    s                        frac. trans.

      isym =  1     identity                                     

 cryst.   s( 1) = (     1          0          0      )
                  (     0          1          0      )
                  (     0          0          1      )

 cart.    s( 1) = (  1.0000000  0.0000000  0.0000000 )
                  (  0.0000000  1.0000000  0.0000000 )
                  (  0.0000000  0.0000000  1.0000000 )


   Cartesian axes

     site n.     atom                  positions (alat units)
         1           Sr  tau(   1) = (   0.2508693   0.7491307   1.7574407  )
         2           O   tau(   2) = (   0.4985141   0.5014859   1.7715967  )
         3           Sr  tau(   3) = (   0.7482398   0.7454518   1.7648669  )
         4           Sr  tau(   4) = (   0.7441748   0.2558252   1.7667843  )
         5           Sr  tau(   5) = (   0.2508693   0.7491307   1.2696799  )
         6           Sr  tau(   6) = (   0.2508693   0.7491307   0.7632319  )
         7           Co  tau(   7) = (   0.4998914   0.5001086   1.0164559  )
         8           Co  tau(   8) = (   0.4936915   0.5063085   1.5135603  )
         9           O   tau(   9) = (   0.4988895   0.7610401   1.0164559  )
        10           O   tau(  10) = (   0.2389599   0.5011105   1.0164559  )
        11           O   tau(  11) = (   0.0070918   0.7374880   1.0164559  )
        12           O   tau(  12) = (   0.0088340   0.7405089   1.5135603  )
        13           O   tau(  13) = (   0.5066944   0.7415376   1.5135603  )
        14           O   tau(  14) = (   0.2584624   0.4933056   1.5135603  )
        15           O   tau(  15) = (   0.4985141   0.5014859   0.7773880  )
        16           O   tau(  16) = (   0.4985141   0.5014859   1.2555238  )
        17           Sr  tau(  17) = (   0.7482398   0.7454518   0.7706582  )
        18           Sr  tau(  18) = (   0.7482398   0.7454518   1.2622536  )
        19           Sr  tau(  19) = (   0.7441748   0.2558252   0.7725755  )
        20           Sr  tau(  20) = (   0.7441748   0.2558252   1.2603363  )
        21           O   tau(  21) = (   0.7322655   0.0078049   1.5135603  )
        22           O   tau(  22) = (   0.7558175   0.4996027   1.5135603  )
        23           O   tau(  23) = (   0.5003973   0.2441825   1.5135603  )
        24           O   tau(  24) = (   0.7527966   0.4978604   1.0164559  )
        25           O   tau(  25) = (   0.5021396   0.2472034   1.0164559  )
        26           O   tau(  26) = (   0.7517679   0.0000000   1.0164559  )
        27           O   tau(  27) = (   0.0114961   0.4948124   1.7455321  )
        28           O   tau(  28) = (   0.0048226   0.0077944   1.7715967  )
        29           Sr  tau(  29) = (   0.2545482   0.2517602   1.7648669  )
        30           O   tau(  30) = (   0.5048017   0.0015068   1.7786929  )
        31           Co  tau(  31) = (   0.0056869   0.5006215   1.0164559  )
        32           Co  tau(  32) = (   0.0065315   0.4997770   1.5135603  )
        33           Co  tau(  33) = (   0.0061999   0.0064171   1.0164559  )
        34           Co  tau(  34) = (   0.0000000   0.0126169   1.5135603  )
        35           O   tau(  35) = (   0.0114961   0.4948124   1.2815885  )
        36           O   tau(  36) = (   0.0114961   0.4948124   0.7513233  )
        37           O   tau(  37) = (   0.0051979   0.2673486   1.0164559  )
        38           O   tau(  38) = (   0.0130029   0.2478461   1.5135603  )
        39           O   tau(  39) = (   0.0048226   0.0077944   0.7773880  )
        40           O   tau(  40) = (   0.0048226   0.0077944   1.2555238  )
        41           Sr  tau(  41) = (   0.2545482   0.2517602   0.7706582  )
        42           Sr  tau(  42) = (   0.2545482   0.2517602   1.2622536  )
        43           Co  tau(  43) = (   0.4989925   0.0073160   1.5135603  )
        44           Co  tau(  44) = (   0.4998370   0.0064714   1.0164559  )
        45           O   tau(  45) = (   0.5048017   0.0015068   0.7844841  )
        46           O   tau(  46) = (   0.5048017   0.0015068   1.2484277  )
        47           O   tau(  47) = (   0.2621260   0.0059111   1.5135603  )
        48           O   tau(  48) = (   0.2591051   0.0041689   1.0164559  )
        49           O   tau(  49) = (   0.7108228   0.0000000   2.1602013  )

   Crystallographic axes

     site n.     atom                  positions (cryst. coord.)
         1           Sr  tau(   1) = (  0.2508693  0.7491307  0.6943562  )
         2           O   tau(   2) = (  0.4985141  0.5014859  0.6999492  )
         3           Sr  tau(   3) = (  0.7482398  0.7454518  0.6972903  )
         4           Sr  tau(   4) = (  0.7441748  0.2558252  0.6980478  )
         5           Sr  tau(   5) = (  0.2508693  0.7491307  0.5016443  )
         6           Sr  tau(   6) = (  0.2508693  0.7491307  0.3015492  )
         7           Co  tau(   7) = (  0.4998914  0.5001086  0.4015968  )
         8           Co  tau(   8) = (  0.4936915  0.5063085  0.5980003  )
         9           O   tau(   9) = (  0.4988895  0.7610401  0.4015968  )
        10           O   tau(  10) = (  0.2389599  0.5011105  0.4015968  )
        11           O   tau(  11) = (  0.0070918  0.7374880  0.4015968  )
        12           O   tau(  12) = (  0.0088340  0.7405089  0.5980003  )
        13           O   tau(  13) = (  0.5066944  0.7415376  0.5980003  )
        14           O   tau(  14) = (  0.2584624  0.4933056  0.5980003  )
        15           O   tau(  15) = (  0.4985141  0.5014859  0.3071422  )
        16           O   tau(  16) = (  0.4985141  0.5014859  0.4960513  )
        17           Sr  tau(  17) = (  0.7482398  0.7454518  0.3044833  )
        18           Sr  tau(  18) = (  0.7482398  0.7454518  0.4987103  )
        19           Sr  tau(  19) = (  0.7441748  0.2558252  0.3052408  )
        20           Sr  tau(  20) = (  0.7441748  0.2558252  0.4979527  )
        21           O   tau(  21) = (  0.7322655  0.0078049  0.5980003  )
        22           O   tau(  22) = (  0.7558175  0.4996027  0.5980003  )
        23           O   tau(  23) = (  0.5003973  0.2441825  0.5980003  )
        24           O   tau(  24) = (  0.7527966  0.4978604  0.4015968  )
        25           O   tau(  25) = (  0.5021396  0.2472034  0.4015968  )
        26           O   tau(  26) = (  0.7517679  0.0000000  0.4015968  )
        27           O   tau(  27) = (  0.0114961  0.4948124  0.6896512  )
        28           O   tau(  28) = (  0.0048226  0.0077944  0.6999492  )
        29           Sr  tau(  29) = (  0.2545482  0.2517602  0.6972903  )
        30           O   tau(  30) = (  0.5048017  0.0015068  0.7027529  )
        31           Co  tau(  31) = (  0.0056869  0.5006215  0.4015968  )
        32           Co  tau(  32) = (  0.0065315  0.4997770  0.5980003  )
        33           Co  tau(  33) = (  0.0061999  0.0064171  0.4015968  )
        34           Co  tau(  34) = (  0.0000000  0.0126169  0.5980003  )
        35           O   tau(  35) = (  0.0114961  0.4948124  0.5063494  )
        36           O   tau(  36) = (  0.0114961  0.4948124  0.2968442  )
        37           O   tau(  37) = (  0.0051979  0.2673486  0.4015968  )
        38           O   tau(  38) = (  0.0130029  0.2478461  0.5980003  )
        39           O   tau(  39) = (  0.0048226  0.0077944  0.3071422  )
        40           O   tau(  40) = (  0.0048226  0.0077944  0.4960513  )
        41           Sr  tau(  41) = (  0.2545482  0.2517602  0.3044833  )
        42           Sr  tau(  42) = (  0.2545482  0.2517602  0.4987103  )
        43           Co  tau(  43) = (  0.4989925  0.0073160  0.5980003  )
        44           Co  tau(  44) = (  0.4998370  0.0064714  0.4015968  )
        45           O   tau(  45) = (  0.5048017  0.0015068  0.3099459  )
        46           O   tau(  46) = (  0.5048017  0.0015068  0.4932477  )
        47           O   tau(  47) = (  0.2621260  0.0059111  0.5980003  )
        48           O   tau(  48) = (  0.2591051  0.0041689  0.4015968  )
        49           O   tau(  49) = (  0.7108228  0.0000000  0.8534850  )

     number of k points=    10  Gaussian smearing, width (Ry)=  0.0700
                       cart. coord. in units 2pi/alat
        k(    1) = (   0.0000000   0.0000000   0.0000000), wk =   0.1250000
        k(    2) = (   0.0000000   0.2500000   0.0000000), wk =   0.2500000
        k(    3) = (   0.0000000  -0.5000000   0.0000000), wk =   0.1250000
        k(    4) = (   0.2500000   0.2500000   0.0000000), wk =   0.2500000
        k(    5) = (   0.2500000  -0.5000000   0.0000000), wk =   0.2500000
        k(    6) = (  -0.5000000  -0.5000000   0.0000000), wk =   0.1250000
        k(    7) = (   0.2500000   0.0000000   0.0000000), wk =   0.2500000
        k(    8) = (  -0.5000000   0.0000000   0.0000000), wk =   0.1250000
        k(    9) = (  -0.2500000   0.2500000   0.0000000), wk =   0.2500000
        k(   10) = (  -0.5000000   0.2500000   0.0000000), wk =   0.2500000

                       cryst. coord.
        k(    1) = (   0.0000000   0.0000000   0.0000000), wk =   0.1250000
        k(    2) = (   0.0000000   0.2500000   0.0000000), wk =   0.2500000
        k(    3) = (   0.0000000  -0.5000000   0.0000000), wk =   0.1250000
        k(    4) = (   0.2500000   0.2500000   0.0000000), wk =   0.2500000
        k(    5) = (   0.2500000  -0.5000000   0.0000000), wk =   0.2500000
        k(    6) = (  -0.5000000  -0.5000000   0.0000000), wk =   0.1250000
        k(    7) = (   0.2500000   0.0000000   0.0000000), wk =   0.2500000
        k(    8) = (  -0.5000000   0.0000000   0.0000000), wk =   0.1250000
        k(    9) = (  -0.2500000   0.2500000   0.0000000), wk =   0.2500000
        k(   10) = (  -0.5000000   0.2500000   0.0000000), wk =   0.2500000

     Dense  grid:  1474595 G-vectors     FFT dimensions: ( 108, 108, 270)

     Smooth grid:   521381 G-vectors     FFT dimensions: (  75,  75, 192)

     Dynamical RAM for                 wfc:      10.69 MB

     Dynamical RAM for     wfc (w. buffer):      64.13 MB

     Dynamical RAM for           str. fact:       2.81 MB

     Dynamical RAM for           local pot:       0.00 MB

     Dynamical RAM for          nlocal pot:      24.53 MB

     Dynamical RAM for                qrad:       5.27 MB

     Dynamical RAM for          rho,v,vnew:       6.02 MB

     Dynamical RAM for               rhoin:       2.01 MB

     Dynamical RAM for            rho*nmix:      15.00 MB

     Dynamical RAM for           G-vectors:       3.68 MB

     Dynamical RAM for          h,s,v(r/c):       1.35 MB

     Dynamical RAM for          <psi|beta>:       2.33 MB

     Dynamical RAM for                 psi:      21.38 MB

     Dynamical RAM for                hpsi:      21.38 MB

     Dynamical RAM for                spsi:      21.38 MB

     Dynamical RAM for      wfcinit/wfcrot:      34.39 MB

     Dynamical RAM for           addusdens:     101.26 MB

     Estimated static dynamical RAM per process >     117.53 MB

     Estimated max dynamical RAM per process >     233.79 MB

     Estimated total dynamical RAM >      10.61 GB

     Check: negative core charge=   -0.000004

     Initial potential from superposition of free atoms

     starting charge     421.5961, renormalised to     430.0000

     negative rho (up, down):  7.826E-01 0.000E+00
     Starting wfcs are  376 randomized atomic wfcs
     Checking if some PAW data can be deallocated... 
       PAW data deallocated on   19 nodes for type:  2

     total cpu time spent up to now is        8.5 secs

     Self-consistent Calculation

     iteration #  1     ecut=    60.00 Ry     beta= 0.15
     Davidson diagonalization with overlap

---- Real-time Memory Report at c_bands before calling an iterative solver
             0 MiB given to the printing process from OS
             0 MiB allocation reported by mallinfo(arena+hblkhd)
         51471 MiB available memory on the node where the printing process lives
------------------
     ethr =  1.00E-02,  avg # of iterations =  2.0

     negative rho (up, down):  7.718E-01 0.000E+00

     total cpu time spent up to now is       23.4 secs

     total energy              =   -4445.27460325 Ry
     estimated scf accuracy    <      53.92418177 Ry

     iteration #  2     ecut=    60.00 Ry     beta= 0.15
     Davidson diagonalization with overlap

---- Real-time Memory Report at c_bands before calling an iterative solver
             0 MiB given to the printing process from OS
             0 MiB allocation reported by mallinfo(arena+hblkhd)
         51838 MiB available memory on the node where the printing process lives
------------------
     ethr =  1.00E-02,  avg # of iterations =  1.0

     negative rho (up, down):  7.587E-01 0.000E+00

     total cpu time spent up to now is       36.2 secs

     total energy              =   -4441.81109236 Ry
     estimated scf accuracy    <      28.71011430 Ry

     iteration #  3     ecut=    60.00 Ry     beta= 0.15
     Davidson diagonalization with overlap

---- Real-time Memory Report at c_bands before calling an iterative solver
             0 MiB given to the printing process from OS
             0 MiB allocation reported by mallinfo(arena+hblkhd)
         51064 MiB available memory on the node where the printing process lives
------------------
     ethr =  6.68E-03,  avg # of iterations =  1.0

     negative rho (up, down):  7.533E-01 0.000E+00

     total cpu time spent up to now is       48.8 secs

     total energy              =   -4442.65237198 Ry
     estimated scf accuracy    <      29.44758284 Ry

     iteration #  4     ecut=    60.00 Ry     beta= 0.15
     Davidson diagonalization with overlap

---- Real-time Memory Report at c_bands before calling an iterative solver
             0 MiB given to the printing process from OS
             0 MiB allocation reported by mallinfo(arena+hblkhd)
         51020 MiB available memory on the node where the printing process lives
------------------
     ethr =  6.68E-03,  avg # of iterations =  1.0

     negative rho (up, down):  7.540E-01 0.000E+00

     total cpu time spent up to now is       61.5 secs

     total energy              =   -4442.41605856 Ry
     estimated scf accuracy    <      26.83730804 Ry

     iteration #  5     ecut=    60.00 Ry     beta= 0.15
     Davidson diagonalization with overlap

---- Real-time Memory Report at c_bands before calling an iterative solver
             0 MiB given to the printing process from OS
             0 MiB allocation reported by mallinfo(arena+hblkhd)
         51000 MiB available memory on the node where the printing process lives
------------------
     ethr =  6.24E-03,  avg # of iterations =  1.0

     negative rho (up, down):  7.366E-01 0.000E+00

     total cpu time spent up to now is       73.8 secs

     total energy              =   -4441.02842563 Ry
     estimated scf accuracy    <      18.81621338 Ry

     iteration #  6     ecut=    60.00 Ry     beta= 0.15
     Davidson diagonalization with overlap

---- Real-time Memory Report at c_bands before calling an iterative solver
             0 MiB given to the printing process from OS
             0 MiB allocation reported by mallinfo(arena+hblkhd)
         50977 MiB available memory on the node where the printing process lives
------------------
     ethr =  4.38E-03,  avg # of iterations =  2.0

     negative rho (up, down):  7.406E-01 0.000E+00

     total cpu time spent up to now is       88.0 secs

     total energy              =   -4443.61952130 Ry
     estimated scf accuracy    <      63.57797149 Ry

     iteration #  7     ecut=    60.00 Ry     beta= 0.15
     Davidson diagonalization with overlap

---- Real-time Memory Report at c_bands before calling an iterative solver
             0 MiB given to the printing process from OS
             0 MiB allocation reported by mallinfo(arena+hblkhd)
         50958 MiB available memory on the node where the printing process lives
------------------
     ethr =  4.38E-03,  avg # of iterations =  1.0

     negative rho (up, down):  7.464E-01 0.000E+00

     total cpu time spent up to now is      100.5 secs

     total energy              =   -4440.03750965 Ry
     estimated scf accuracy    <      56.57910574 Ry

     iteration #  8     ecut=    60.00 Ry     beta= 0.15
     Davidson diagonalization with overlap

---- Real-time Memory Report at c_bands before calling an iterative solver
             0 MiB given to the printing process from OS
             0 MiB allocation reported by mallinfo(arena+hblkhd)
         50945 MiB available memory on the node where the printing process lives
------------------
     ethr =  4.38E-03,  avg # of iterations =  1.0

     negative rho (up, down):  7.478E-01 0.000E+00

     total cpu time spent up to now is      113.0 secs

     total energy              =   -4441.48390311 Ry
     estimated scf accuracy    <       6.34027840 Ry

     iteration #  9     ecut=    60.00 Ry     beta= 0.15
     Davidson diagonalization with overlap

---- Real-time Memory Report at c_bands before calling an iterative solver
             0 MiB given to the printing process from OS
             0 MiB allocation reported by mallinfo(arena+hblkhd)
         50926 MiB available memory on the node where the printing process lives
------------------
     ethr =  1.47E-03,  avg # of iterations =  1.4

     negative rho (up, down):  7.625E-01 0.000E+00

     total cpu time spent up to now is      126.0 secs

     total energy              =   -4440.22354391 Ry
     estimated scf accuracy    <       5.28171557 Ry

     iteration # 10     ecut=    60.00 Ry     beta= 0.15
     Davidson diagonalization with overlap

---- Real-time Memory Report at c_bands before calling an iterative solver
             0 MiB given to the printing process from OS
             0 MiB allocation reported by mallinfo(arena+hblkhd)
         50906 MiB available memory on the node where the printing process lives
------------------
     ethr =  1.23E-03,  avg # of iterations =  3.0

     negative rho (up, down):  7.693E-01 0.000E+00

     total cpu time spent up to now is      140.2 secs

     total energy              =   -4440.77215375 Ry
     estimated scf accuracy    <      20.99741997 Ry

     iteration # 11     ecut=    60.00 Ry     beta= 0.15
     Davidson diagonalization with overlap

---- Real-time Memory Report at c_bands before calling an iterative solver
             0 MiB given to the printing process from OS
             0 MiB allocation reported by mallinfo(arena+hblkhd)
         50883 MiB available memory on the node where the printing process lives
------------------
     ethr =  1.23E-03,  avg # of iterations =  9.0

     negative rho (up, down):  7.791E-01 0.000E+00

     total cpu time spent up to now is      157.6 secs

     total energy              =   -4440.05488106 Ry
     estimated scf accuracy    <      22.05166777 Ry

     iteration # 12     ecut=    60.00 Ry     beta= 0.15
     Davidson diagonalization with overlap

---- Real-time Memory Report at c_bands before calling an iterative solver
             0 MiB given to the printing process from OS
             0 MiB allocation reported by mallinfo(arena+hblkhd)
         50669 MiB available memory on the node where the printing process lives
------------------
     ethr =  1.23E-03,  avg # of iterations =  1.7

     negative rho (up, down):  7.811E-01 0.000E+00

     total cpu time spent up to now is      171.2 secs

     total energy              =   -4440.46774436 Ry
     estimated scf accuracy    <       1.71628299 Ry

     iteration # 13     ecut=    60.00 Ry     beta= 0.15
     Davidson diagonalization with overlap

---- Real-time Memory Report at c_bands before calling an iterative solver
             0 MiB given to the printing process from OS
             0 MiB allocation reported by mallinfo(arena+hblkhd)
         50668 MiB available memory on the node where the printing process lives
------------------
     ethr =  3.99E-04,  avg # of iterations =  9.3

     negative rho (up, down):  7.876E-01 0.000E+00

     total cpu time spent up to now is      189.4 secs

     total energy              =   -4440.47789983 Ry
     estimated scf accuracy    <       2.01950834 Ry

     iteration # 14     ecut=    60.00 Ry     beta= 0.15
     Davidson diagonalization with overlap

---- Real-time Memory Report at c_bands before calling an iterative solver
             0 MiB given to the printing process from OS
             0 MiB allocation reported by mallinfo(arena+hblkhd)
         50520 MiB available memory on the node where the printing process lives
------------------
     ethr =  3.99E-04,  avg # of iterations =  1.7

     negative rho (up, down):  8.055E-01 0.000E+00

     total cpu time spent up to now is      202.9 secs

     total energy              =   -4440.41749063 Ry
     estimated scf accuracy    <       0.84921740 Ry

     iteration # 15     ecut=    60.00 Ry     beta= 0.15
     Davidson diagonalization with overlap

---- Real-time Memory Report at c_bands before calling an iterative solver
             0 MiB given to the printing process from OS
             0 MiB allocation reported by mallinfo(arena+hblkhd)
         50411 MiB available memory on the node where the printing process lives
------------------
     ethr =  1.97E-04,  avg # of iterations =  7.1

     negative rho (up, down):  8.169E-01 0.000E+00

     total cpu time spent up to now is      220.0 secs

     total energy              =   -4440.38585220 Ry
     estimated scf accuracy    <       1.01659543 Ry

     iteration # 16     ecut=    60.00 Ry     beta= 0.15
     Davidson diagonalization with overlap

---- Real-time Memory Report at c_bands before calling an iterative solver
             0 MiB given to the printing process from OS
             0 MiB allocation reported by mallinfo(arena+hblkhd)
         50358 MiB available memory on the node where the printing process lives
------------------
     ethr =  1.97E-04,  avg # of iterations =  4.3

     negative rho (up, down):  8.224E-01 0.000E+00

     total cpu time spent up to now is      235.0 secs

     total energy              =   -4440.37816977 Ry
     estimated scf accuracy    <       0.24833266 Ry

     iteration # 17     ecut=    60.00 Ry     beta= 0.15
     Davidson diagonalization with overlap

---- Real-time Memory Report at c_bands before calling an iterative solver
             0 MiB given to the printing process from OS
             0 MiB allocation reported by mallinfo(arena+hblkhd)
         50378 MiB available memory on the node where the printing process lives
------------------
     c_bands:  1 eigenvalues not converged
     c_bands:  1 eigenvalues not converged
     ethr =  5.78E-05,  avg # of iterations = 13.2

     negative rho (up, down):  8.224E-01 0.000E+00

     total cpu time spent up to now is      254.7 secs

     total energy              =   -4440.35014532 Ry
     estimated scf accuracy    <       0.18921124 Ry

     iteration # 18     ecut=    60.00 Ry     beta= 0.15
     Davidson diagonalization with overlap

---- Real-time Memory Report at c_bands before calling an iterative solver
             0 MiB given to the printing process from OS
             0 MiB allocation reported by mallinfo(arena+hblkhd)
         50339 MiB available memory on the node where the printing process lives
------------------
     ethr =  4.40E-05,  avg # of iterations =  6.8

     negative rho (up, down):  8.228E-01 0.000E+00

     total cpu time spent up to now is      271.3 secs

     total energy              =   -4440.33632514 Ry
     estimated scf accuracy    <       0.80804719 Ry

     iteration # 19     ecut=    60.00 Ry     beta= 0.15
     Davidson diagonalization with overlap

---- Real-time Memory Report at c_bands before calling an iterative solver
             0 MiB given to the printing process from OS
             0 MiB allocation reported by mallinfo(arena+hblkhd)
         50310 MiB available memory on the node where the printing process lives
------------------
     ethr =  4.40E-05,  avg # of iterations =  3.8

     negative rho (up, down):  8.233E-01 0.000E+00

     total cpu time spent up to now is      286.3 secs

     total energy              =   -4440.33650400 Ry
     estimated scf accuracy    <       0.12843778 Ry

     iteration # 20     ecut=    60.00 Ry     beta= 0.15
     Davidson diagonalization with overlap

---- Real-time Memory Report at c_bands before calling an iterative solver
             0 MiB given to the printing process from OS
             0 MiB allocation reported by mallinfo(arena+hblkhd)
         50399 MiB available memory on the node where the printing process lives
------------------
     ethr =  2.99E-05,  avg # of iterations =  5.1

     negative rho (up, down):  8.114E-01 0.000E+00

     total cpu time spent up to now is      301.4 secs

     total energy              =   -4440.31746418 Ry
     estimated scf accuracy    <       0.38586446 Ry

     iteration # 21     ecut=    60.00 Ry     beta= 0.15
     Davidson diagonalization with overlap

---- Real-time Memory Report at c_bands before calling an iterative solver
             0 MiB given to the printing process from OS
             0 MiB allocation reported by mallinfo(arena+hblkhd)
         50364 MiB available memory on the node where the printing process lives
------------------
     ethr =  2.99E-05,  avg # of iterations =  8.2

     negative rho (up, down):  8.080E-01 0.000E+00

     total cpu time spent up to now is      318.8 secs

     total energy              =   -4440.31252894 Ry
     estimated scf accuracy    <       0.07778656 Ry

     iteration # 22     ecut=    60.00 Ry     beta= 0.15
     Davidson diagonalization with overlap

---- Real-time Memory Report at c_bands before calling an iterative solver
             0 MiB given to the printing process from OS
             0 MiB allocation reported by mallinfo(arena+hblkhd)
         50318 MiB available memory on the node where the printing process lives
------------------
     ethr =  1.81E-05,  avg # of iterations = 10.0

     negative rho (up, down):  8.186E-01 0.000E+00

     total cpu time spent up to now is      337.0 secs

     total energy              =   -4440.30643230 Ry
     estimated scf accuracy    <       0.08747589 Ry

     iteration # 23     ecut=    60.00 Ry     beta= 0.15
     Davidson diagonalization with overlap

---- Real-time Memory Report at c_bands before calling an iterative solver
             0 MiB given to the printing process from OS
             0 MiB allocation reported by mallinfo(arena+hblkhd)
         50265 MiB available memory on the node where the printing process lives
------------------
     ethr =  1.81E-05,  avg # of iterations =  3.7

     negative rho (up, down):  8.121E-01 0.000E+00

     total cpu time spent up to now is      351.9 secs

     total energy              =   -4440.30353414 Ry
     estimated scf accuracy    <       0.04411356 Ry

     iteration # 24     ecut=    60.00 Ry     beta= 0.15
     Davidson diagonalization with overlap

---- Real-time Memory Report at c_bands before calling an iterative solver
             0 MiB given to the printing process from OS
             0 MiB allocation reported by mallinfo(arena+hblkhd)
         50263 MiB available memory on the node where the printing process lives
------------------
     ethr =  1.03E-05,  avg # of iterations =  7.7

     negative rho (up, down):  8.058E-01 0.000E+00

     total cpu time spent up to now is      368.8 secs

     total energy              =   -4440.30221588 Ry
     estimated scf accuracy    <       0.02279981 Ry

     iteration # 25     ecut=    60.00 Ry     beta= 0.15
     Davidson diagonalization with overlap

---- Real-time Memory Report at c_bands before calling an iterative solver
             0 MiB given to the printing process from OS
             0 MiB allocation reported by mallinfo(arena+hblkhd)
         50286 MiB available memory on the node where the printing process lives
------------------
     ethr =  5.30E-06,  avg # of iterations =  3.3

     negative rho (up, down):  7.990E-01 0.000E+00

     total cpu time spent up to now is      383.3 secs

     total energy              =   -4440.30089366 Ry
     estimated scf accuracy    <       0.01499991 Ry

     iteration # 26     ecut=    60.00 Ry     beta= 0.15
     Davidson diagonalization with overlap

---- Real-time Memory Report at c_bands before calling an iterative solver
             0 MiB given to the printing process from OS
             0 MiB allocation reported by mallinfo(arena+hblkhd)
         50277 MiB available memory on the node where the printing process lives
------------------
     c_bands:  1 eigenvalues not converged
     ethr =  3.49E-06,  avg # of iterations =  8.8

     negative rho (up, down):  7.945E-01 0.000E+00

     total cpu time spent up to now is      400.3 secs

     total energy              =   -4440.29932924 Ry
     estimated scf accuracy    <       0.00858567 Ry

     iteration # 27     ecut=    60.00 Ry     beta= 0.15
     Davidson diagonalization with overlap

---- Real-time Memory Report at c_bands before calling an iterative solver
             0 MiB given to the printing process from OS
             0 MiB allocation reported by mallinfo(arena+hblkhd)
         50323 MiB available memory on the node where the printing process lives
------------------
     c_bands:  1 eigenvalues not converged
     c_bands:  1 eigenvalues not converged
     ethr =  2.00E-06,  avg # of iterations = 13.5

     negative rho (up, down):  7.955E-01 0.000E+00

     total cpu time spent up to now is      419.9 secs

     total energy              =   -4440.29895570 Ry
     estimated scf accuracy    <       0.00405827 Ry

     iteration # 28     ecut=    60.00 Ry     beta= 0.15
     Davidson diagonalization with overlap

---- Real-time Memory Report at c_bands before calling an iterative solver
             0 MiB given to the printing process from OS
             0 MiB allocation reported by mallinfo(arena+hblkhd)
         50275 MiB available memory on the node where the printing process lives
------------------
     c_bands:  1 eigenvalues not converged
     ethr =  9.44E-07,  avg # of iterations =  5.5

     negative rho (up, down):  7.981E-01 0.000E+00

     total cpu time spent up to now is      435.9 secs

     total energy              =   -4440.29908517 Ry
     estimated scf accuracy    <       0.00210609 Ry

     iteration # 29     ecut=    60.00 Ry     beta= 0.15
     Davidson diagonalization with overlap

---- Real-time Memory Report at c_bands before calling an iterative solver
             0 MiB given to the printing process from OS
             0 MiB allocation reported by mallinfo(arena+hblkhd)
         50274 MiB available memory on the node where the printing process lives
------------------
     c_bands:  1 eigenvalues not converged
     ethr =  4.90E-07,  avg # of iterations = 10.7

     negative rho (up, down):  7.956E-01 0.000E+00

     total cpu time spent up to now is      453.9 secs

     total energy              =   -4440.29897515 Ry
     estimated scf accuracy    <       0.00114041 Ry

     iteration # 30     ecut=    60.00 Ry     beta= 0.15
     Davidson diagonalization with overlap

---- Real-time Memory Report at c_bands before calling an iterative solver
             0 MiB given to the printing process from OS
             0 MiB allocation reported by mallinfo(arena+hblkhd)
         50251 MiB available memory on the node where the printing process lives
------------------
     c_bands:  1 eigenvalues not converged
     ethr =  2.65E-07,  avg # of iterations =  4.5

     negative rho (up, down):  7.962E-01 0.000E+00

     total cpu time spent up to now is      469.2 secs

     total energy              =   -4440.29896438 Ry
     estimated scf accuracy    <       0.00052374 Ry

     iteration # 31     ecut=    60.00 Ry     beta= 0.15
     Davidson diagonalization with overlap

---- Real-time Memory Report at c_bands before calling an iterative solver
             0 MiB given to the printing process from OS
             0 MiB allocation reported by mallinfo(arena+hblkhd)
         50266 MiB available memory on the node where the printing process lives
------------------
     c_bands:  1 eigenvalues not converged
     c_bands:  1 eigenvalues not converged
     ethr =  1.22E-07,  avg # of iterations =  9.6

     negative rho (up, down):  7.978E-01 0.000E+00

     total cpu time spent up to now is      487.1 secs

     total energy              =   -4440.29901279 Ry
     estimated scf accuracy    <       0.00022274 Ry

     iteration # 32     ecut=    60.00 Ry     beta= 0.15
     Davidson diagonalization with overlap

---- Real-time Memory Report at c_bands before calling an iterative solver
             0 MiB given to the printing process from OS
             0 MiB allocation reported by mallinfo(arena+hblkhd)
         50257 MiB available memory on the node where the printing process lives
------------------
     ethr =  5.18E-08,  avg # of iterations =  5.2

     negative rho (up, down):  7.972E-01 0.000E+00

     total cpu time spent up to now is      502.7 secs

     total energy              =   -4440.29899926 Ry
     estimated scf accuracy    <       0.00014063 Ry

     iteration # 33     ecut=    60.00 Ry     beta= 0.15
     Davidson diagonalization with overlap

---- Real-time Memory Report at c_bands before calling an iterative solver
             0 MiB given to the printing process from OS
             0 MiB allocation reported by mallinfo(arena+hblkhd)
         50294 MiB available memory on the node where the printing process lives
------------------
     ethr =  3.27E-08,  avg # of iterations =  2.0

     negative rho (up, down):  7.956E-01 0.000E+00

     total cpu time spent up to now is      517.8 secs

     total energy              =   -4440.29898058 Ry
     estimated scf accuracy    <       0.00007709 Ry

     iteration # 34     ecut=    60.00 Ry     beta= 0.15
     Davidson diagonalization with overlap

---- Real-time Memory Report at c_bands before calling an iterative solver
             0 MiB given to the printing process from OS
             0 MiB allocation reported by mallinfo(arena+hblkhd)
         50242 MiB available memory on the node where the printing process lives
------------------
     ethr =  1.79E-08,  avg # of iterations =  2.0

     negative rho (up, down):  7.931E-01 0.000E+00

     total cpu time spent up to now is      531.7 secs

     total energy              =   -4440.29896082 Ry
     estimated scf accuracy    <       0.00004687 Ry

     iteration # 35     ecut=    60.00 Ry     beta= 0.15
     Davidson diagonalization with overlap

---- Real-time Memory Report at c_bands before calling an iterative solver
             0 MiB given to the printing process from OS
             0 MiB allocation reported by mallinfo(arena+hblkhd)
         50264 MiB available memory on the node where the printing process lives
------------------
     ethr =  1.09E-08,  avg # of iterations =  5.8

     negative rho (up, down):  7.927E-01 0.000E+00

     total cpu time spent up to now is      547.5 secs

     total energy              =   -4440.29896755 Ry
     estimated scf accuracy    <       0.00002219 Ry

     iteration # 36     ecut=    60.00 Ry     beta= 0.15
     Davidson diagonalization with overlap

---- Real-time Memory Report at c_bands before calling an iterative solver
             0 MiB given to the printing process from OS
             0 MiB allocation reported by mallinfo(arena+hblkhd)
         50262 MiB available memory on the node where the printing process lives
------------------
     ethr =  5.16E-09,  avg # of iterations =  2.0

     negative rho (up, down):  7.925E-01 0.000E+00

     total cpu time spent up to now is      561.5 secs

     total energy              =   -4440.29897823 Ry
     estimated scf accuracy    <       0.00001677 Ry

     iteration # 37     ecut=    60.00 Ry     beta= 0.15
     Davidson diagonalization with overlap

---- Real-time Memory Report at c_bands before calling an iterative solver
             0 MiB given to the printing process from OS
             0 MiB allocation reported by mallinfo(arena+hblkhd)
         50261 MiB available memory on the node where the printing process lives
------------------
     ethr =  3.90E-09,  avg # of iterations =  2.2

     negative rho (up, down):  7.925E-01 0.000E+00

     total cpu time spent up to now is      575.5 secs

     total energy              =   -4440.29898150 Ry
     estimated scf accuracy    <       0.00001124 Ry

     iteration # 38     ecut=    60.00 Ry     beta= 0.15
     Davidson diagonalization with overlap

---- Real-time Memory Report at c_bands before calling an iterative solver
             0 MiB given to the printing process from OS
             0 MiB allocation reported by mallinfo(arena+hblkhd)
         50261 MiB available memory on the node where the printing process lives
------------------
     ethr =  2.61E-09,  avg # of iterations =  2.4

     negative rho (up, down):  7.925E-01 0.000E+00

     total cpu time spent up to now is      589.8 secs

     total energy              =   -4440.29898088 Ry
     estimated scf accuracy    <       0.00000599 Ry

     iteration # 39     ecut=    60.00 Ry     beta= 0.15
     Davidson diagonalization with overlap

---- Real-time Memory Report at c_bands before calling an iterative solver
             0 MiB given to the printing process from OS
             0 MiB allocation reported by mallinfo(arena+hblkhd)
         50268 MiB available memory on the node where the printing process lives
------------------
     ethr =  1.39E-09,  avg # of iterations =  2.0

     negative rho (up, down):  7.925E-01 0.000E+00

     total cpu time spent up to now is      603.7 secs

     total energy              =   -4440.29898230 Ry
     estimated scf accuracy    <       0.00000356 Ry

     iteration # 40     ecut=    60.00 Ry     beta= 0.15
     Davidson diagonalization with overlap

---- Real-time Memory Report at c_bands before calling an iterative solver
             0 MiB given to the printing process from OS
             0 MiB allocation reported by mallinfo(arena+hblkhd)
         50267 MiB available memory on the node where the printing process lives
------------------
     ethr =  8.28E-10,  avg # of iterations =  2.4

     negative rho (up, down):  7.925E-01 0.000E+00

     total cpu time spent up to now is      617.7 secs

     total energy              =   -4440.29898241 Ry
     estimated scf accuracy    <       0.00000244 Ry

     iteration # 41     ecut=    60.00 Ry     beta= 0.15
     Davidson diagonalization with overlap

---- Real-time Memory Report at c_bands before calling an iterative solver
             0 MiB given to the printing process from OS
             0 MiB allocation reported by mallinfo(arena+hblkhd)
         50286 MiB available memory on the node where the printing process lives
------------------
     ethr =  5.67E-10,  avg # of iterations =  2.0

     negative rho (up, down):  7.925E-01 0.000E+00

     total cpu time spent up to now is      631.6 secs

     total energy              =   -4440.29898245 Ry
     estimated scf accuracy    <       0.00000126 Ry

     iteration # 42     ecut=    60.00 Ry     beta= 0.15
     Davidson diagonalization with overlap

---- Real-time Memory Report at c_bands before calling an iterative solver
             0 MiB given to the printing process from OS
             0 MiB allocation reported by mallinfo(arena+hblkhd)
         50287 MiB available memory on the node where the printing process lives
------------------
     ethr =  2.92E-10,  avg # of iterations =  2.0

     negative rho (up, down):  7.925E-01 0.000E+00

     total cpu time spent up to now is      645.8 secs

     total energy              =   -4440.29898249 Ry
     estimated scf accuracy    <       0.00000084 Ry

     iteration # 43     ecut=    60.00 Ry     beta= 0.15
     Davidson diagonalization with overlap

---- Real-time Memory Report at c_bands before calling an iterative solver
             0 MiB given to the printing process from OS
             0 MiB allocation reported by mallinfo(arena+hblkhd)
         50293 MiB available memory on the node where the printing process lives
------------------
     ethr =  1.96E-10,  avg # of iterations =  1.8

     negative rho (up, down):  7.925E-01 0.000E+00

     total cpu time spent up to now is      659.7 secs

     total energy              =   -4440.29898266 Ry
     estimated scf accuracy    <       0.00000061 Ry

     iteration # 44     ecut=    60.00 Ry     beta= 0.15
     Davidson diagonalization with overlap

---- Real-time Memory Report at c_bands before calling an iterative solver
             0 MiB given to the printing process from OS
             0 MiB allocation reported by mallinfo(arena+hblkhd)
         50300 MiB available memory on the node where the printing process lives
------------------
     ethr =  1.42E-10,  avg # of iterations =  2.0

     negative rho (up, down):  7.925E-01 0.000E+00

     total cpu time spent up to now is      673.7 secs

     total energy              =   -4440.29898273 Ry
     estimated scf accuracy    <       0.00000032 Ry

     iteration # 45     ecut=    60.00 Ry     beta= 0.15
     Davidson diagonalization with overlap

---- Real-time Memory Report at c_bands before calling an iterative solver
             0 MiB given to the printing process from OS
             0 MiB allocation reported by mallinfo(arena+hblkhd)
         50301 MiB available memory on the node where the printing process lives
------------------
     ethr =  7.52E-11,  avg # of iterations =  1.8

     negative rho (up, down):  7.926E-01 0.000E+00

     total cpu time spent up to now is      687.6 secs

     total energy              =   -4440.29898277 Ry
     estimated scf accuracy    <       0.00000025 Ry

     iteration # 46     ecut=    60.00 Ry     beta= 0.15
     Davidson diagonalization with overlap

---- Real-time Memory Report at c_bands before calling an iterative solver
             0 MiB given to the printing process from OS
             0 MiB allocation reported by mallinfo(arena+hblkhd)
         50304 MiB available memory on the node where the printing process lives
------------------
     ethr =  5.86E-11,  avg # of iterations =  3.0

     negative rho (up, down):  7.926E-01 0.000E+00

     total cpu time spent up to now is      702.1 secs

     total energy              =   -4440.29898268 Ry
     estimated scf accuracy    <       0.00000016 Ry

     iteration # 47     ecut=    60.00 Ry     beta= 0.15
     Davidson diagonalization with overlap

---- Real-time Memory Report at c_bands before calling an iterative solver
             0 MiB given to the printing process from OS
             0 MiB allocation reported by mallinfo(arena+hblkhd)
         50304 MiB available memory on the node where the printing process lives
------------------
     ethr =  3.71E-11,  avg # of iterations =  2.9

     negative rho (up, down):  7.926E-01 0.000E+00

     total cpu time spent up to now is      716.3 secs

     total energy              =   -4440.29898269 Ry
     estimated scf accuracy    <       0.00000008 Ry

     iteration # 48     ecut=    60.00 Ry     beta= 0.15
     Davidson diagonalization with overlap

---- Real-time Memory Report at c_bands before calling an iterative solver
             0 MiB given to the printing process from OS
             0 MiB allocation reported by mallinfo(arena+hblkhd)
         50301 MiB available memory on the node where the printing process lives
------------------
     ethr =  1.82E-11,  avg # of iterations =  2.0

     negative rho (up, down):  7.926E-01 0.000E+00

     total cpu time spent up to now is      730.2 secs

     total energy              =   -4440.29898275 Ry
     estimated scf accuracy    <       0.00000005 Ry

     iteration # 49     ecut=    60.00 Ry     beta= 0.15
     Davidson diagonalization with overlap

---- Real-time Memory Report at c_bands before calling an iterative solver
             0 MiB given to the printing process from OS
             0 MiB allocation reported by mallinfo(arena+hblkhd)
         50303 MiB available memory on the node where the printing process lives
------------------
     ethr =  1.08E-11,  avg # of iterations =  2.7

     negative rho (up, down):  7.926E-01 0.000E+00

     total cpu time spent up to now is      744.9 secs

     total energy              =   -4440.29898277 Ry
     estimated scf accuracy    <       0.00000002 Ry

     iteration # 50     ecut=    60.00 Ry     beta= 0.15
     Davidson diagonalization with overlap

---- Real-time Memory Report at c_bands before calling an iterative solver
             0 MiB given to the printing process from OS
             0 MiB allocation reported by mallinfo(arena+hblkhd)
         50298 MiB available memory on the node where the printing process lives
------------------
     ethr =  4.93E-12,  avg # of iterations =  2.6

     negative rho (up, down):  7.926E-01 0.000E+00

     total cpu time spent up to now is      759.1 secs

     End of self-consistent calculation

          k = 0.0000 0.0000 0.0000 ( 65197 PWs)   bands (ev):

   -92.8658 -92.8127 -92.7192 -92.6715 -92.6143 -92.5720 -92.5546 -92.4341
   -56.2194 -56.1994 -56.0763 -56.0661 -56.0579 -56.0530 -56.0169 -55.9883
   -55.9736 -55.9718 -55.9630 -55.9215 -55.9035 -55.8650 -55.8458 -55.8146
   -55.8055 -55.7598 -55.7584 -55.7569 -55.7484 -55.7092 -55.6847 -55.6009
   -31.4294 -31.4102 -31.2679 -31.1820 -31.0796 -31.0638 -30.9874 -30.9525
   -30.0100 -29.9676 -29.9409 -29.8338 -15.2422 -15.1992 -15.1168 -14.9873
   -14.7913 -14.6689 -14.3786 -14.3556 -14.3295 -14.2807 -14.2348 -14.2251
   -14.2157 -14.1956 -14.1765 -14.1215 -14.0909 -13.9374 -13.7597 -13.7255
   -13.6964 -13.6639 -13.6484 -13.5866 -13.5558 -13.4723 -13.4046 -13.2639
   -13.2516 -13.2448 -13.2271 -13.2094 -13.1551 -13.1473 -13.1382 -13.1262
   -13.1038 -13.0751 -13.0526 -12.9649 -12.9498 -12.9355 -12.9087 -12.8946
   -12.8748 -12.8607 -12.8125 -12.8089 -12.4960 -12.3503 -12.1661 -12.1003
   -12.0236 -11.9740 -11.9496 -11.9383 -11.9158 -11.8982 -11.8348 -11.8172
   -11.7827 -11.7525 -11.6421 -11.5623 -11.5588  -3.1036  -2.8717  -2.6421
    -2.4950  -2.4325  -2.2905  -1.9830  -1.9689  -1.9497  -1.8651  -1.8446
    -1.7766  -1.7598  -1.7194  -1.6752  -1.4934  -1.2690  -1.2394  -1.0929
    -1.0783  -1.0325  -1.0120  -0.9663  -0.9497  -0.8962  -0.8690  -0.7941
    -0.7809  -0.7089  -0.5741  -0.5597  -0.5339  -0.4533  -0.4349  -0.4255
    -0.3560  -0.2898  -0.2331  -0.1894  -0.1575  -0.0915  -0.0209   0.0192
     0.0473   0.0553   0.3142   0.3285   0.5042   0.5661   0.6359   0.6829
     0.7697   0.7817   0.7995   0.8637   0.8898   0.9236   0.9816   1.1112
     1.1737   1.1928   1.2149   1.2286   1.2920   1.3583   1.4700   1.4821
     1.5487   1.5617   1.6035   1.6197   1.6261   1.6857   1.7418   1.7631
     1.7987   1.8384   1.8676   1.9999   2.0856   2.1245   2.1524   2.2995
     2.3157   2.3490   2.3537   2.4569   2.4964   2.5223   2.5413   2.5547
     2.6064   2.6210   2.6507   2.6751   2.7522   2.7767   2.7885   2.7953
     2.8634   2.8696   2.8913   2.8981   2.9078   2.9245   2.9282   2.9416
     2.9462   2.9604   2.9670   2.9745   2.9937   3.0152   3.0201   3.0326
     3.0743   3.1735   3.2673   3.9555   4.2815   4.6306   4.8371   4.8852
     5.7497   5.7986   5.8472   5.8865   6.1522   6.1985   6.4444   6.4536
     6.9525   6.9789   7.0903   7.1761   7.3928   7.5176   7.5442   7.5613
     7.5812   7.8797   7.9581   7.9775   8.0433   8.1519   8.2436   8.6468
     8.7981   8.9467

     occupation numbers 
     1.0000   1.0000   1.0000   1.0000   1.0000   1.0000   1.0000   1.0000
     1.0000   1.0000   1.0000   1.0000   1.0000   1.0000   1.0000   1.0000
     1.0000   1.0000   1.0000   1.0000   1.0000   1.0000   1.0000   1.0000
     1.0000   1.0000   1.0000   1.0000   1.0000   1.0000   1.0000   1.0000
     1.0000   1.0000   1.0000   1.0000   1.0000   1.0000   1.0000   1.0000
     1.0000   1.0000   1.0000   1.0000   1.0000   1.0000   1.0000   1.0000
     1.0000   1.0000   1.0000   1.0000   1.0000   1.0000   1.0000   1.0000
     1.0000   1.0000   1.0000   1.0000   1.0000   1.0000   1.0000   1.0000
     1.0000   1.0000   1.0000   1.0000   1.0000   1.0000   1.0000   1.0000
     1.0000   1.0000   1.0000   1.0000   1.0000   1.0000   1.0000   1.0000
     1.0000   1.0000   1.0000   1.0000   1.0000   1.0000   1.0000   1.0000
     1.0000   1.0000   1.0000   1.0000   1.0000   1.0000   1.0000   1.0000
     1.0000   1.0000   1.0000   1.0000   1.0000   1.0000   1.0000   1.0000
     1.0000   1.0000   1.0000   1.0000   1.0000   1.0000   1.0000   1.0000
     1.0000   1.0000   1.0000   1.0000   1.0000   1.0000   1.0000   1.0000
     1.0000   1.0000   1.0000   1.0000   1.0000   1.0000   1.0000   1.0000
     1.0000   1.0000   1.0000   1.0000   1.0000   1.0000   1.0000   1.0000
     1.0000   1.0000   1.0000   1.0000   1.0000   1.0000   1.0000   1.0000
     1.0000   1.0000   1.0000   1.0000   1.0000   1.0000   1.0000   1.0000
     1.0000   1.0000   1.0000   1.0000   1.0000   0.9999   0.9999   0.9999
     0.9998   0.9998   0.9998   0.9997   0.9996   0.9996   0.9994   0.9988
     0.9984   0.9983   0.9981   0.9980   0.9973   0.9963   0.9940   0.9937
     0.9917   0.9913   0.9897   0.9890   0.9888   0.9859   0.9826   0.9812
     0.9786   0.9754   0.9728   0.9580   0.9452   0.9385   0.9333   0.9002
     0.8959   0.8867   0.8853   0.8529   0.8389   0.8294   0.8221   0.8169
     0.7958   0.7896   0.7767   0.7657   0.7292   0.7170   0.7110   0.7076
     0.6719   0.6686   0.6568   0.6531   0.6478   0.6385   0.6364   0.6289
     0.6263   0.6184   0.6146   0.6103   0.5993   0.5870   0.5842   0.5769
     0.5525   0.4939   0.4386   0.1197   0.0484   0.0147   0.0065   0.0053
     0.0001   0.0000   0.0000   0.0000   0.0000   0.0000   0.0000   0.0000
     0.0000   0.0000   0.0000   0.0000   0.0000   0.0000   0.0000   0.0000
     0.0000   0.0000   0.0000   0.0000   0.0000   0.0000   0.0000   0.0000
     0.0000   0.0000

          k = 0.0000 0.2500 0.0000 ( 65257 PWs)   bands (ev):

   -92.8658 -92.8127 -92.7192 -92.6715 -92.6143 -92.5720 -92.5546 -92.4341
   -56.2194 -56.1994 -56.0763 -56.0661 -56.0579 -56.0530 -56.0169 -55.9883
   -55.9736 -55.9718 -55.9630 -55.9215 -55.9035 -55.8650 -55.8458 -55.8146
   -55.8055 -55.7598 -55.7584 -55.7569 -55.7484 -55.7092 -55.6847 -55.6009
   -31.4292 -31.4101 -31.2681 -31.1821 -31.0793 -31.0635 -30.9877 -30.9528
   -30.0094 -29.9673 -29.9415 -29.8341 -15.2056 -15.1731 -15.0917 -14.9578
   -14.8339 -14.6585 -14.5246 -14.3443 -14.3072 -14.2850 -14.2558 -14.2012
   -14.1924 -14.1803 -14.1571 -14.0944 -14.0100 -13.9687 -13.8048 -13.7842
   -13.7364 -13.7009 -13.6564 -13.6094 -13.5570 -13.4978 -13.4581 -13.3547
   -13.3096 -13.2988 -13.2606 -13.2420 -13.1397 -13.1218 -13.1120 -13.0862
   -13.0542 -13.0207 -12.9949 -12.9556 -12.9482 -12.9181 -12.8997 -12.8698
   -12.8290 -12.8008 -12.7448 -12.6529 -12.5573 -12.4015 -12.2223 -12.1667
   -11.9893 -11.9739 -11.9465 -11.9179 -11.8902 -11.8738 -11.8266 -11.8150
   -11.7920 -11.7580 -11.6565 -11.6040 -11.5935  -2.9683  -2.7474  -2.6097
    -2.4277  -2.3841  -2.2207  -2.0005  -1.9172  -1.9043  -1.8465  -1.7434
    -1.7267  -1.6934  -1.6656  -1.6220  -1.4245  -1.2959  -1.2845  -1.2076
    -1.1982  -1.0935  -1.0635  -1.0042  -0.9790  -0.9401  -0.8757  -0.8479
    -0.8171  -0.7816  -0.7656  -0.7344  -0.6584  -0.6101  -0.5438  -0.4285
    -0.4113  -0.3658  -0.2494  -0.2109  -0.1442  -0.1017  -0.0315  -0.0233
     0.0026   0.0643   0.3624   0.4488   0.4797   0.5706   0.6192   0.6456
     0.7514   0.7696   0.8694   0.8926   0.9151   1.0300   1.1255   1.1488
     1.1703   1.1905   1.2149   1.2736   1.3023   1.3300   1.3768   1.4156
     1.4460   1.5308   1.5614   1.6074   1.6522   1.7105   1.7646   1.7859
     1.8046   1.8233   1.9173   2.0335   2.1084   2.1322   2.1985   2.2498
     2.2910   2.3014   2.3575   2.3925   2.4735   2.5160   2.5325   2.6029
     2.6281   2.6788   2.7040   2.7301   2.7594   2.7806   2.7978   2.8051
     2.8119   2.8234   2.8514   2.8525   2.8730   2.8765   2.8865   2.9068
     2.9182   2.9255   2.9460   2.9562   2.9609   2.9959   3.0131   3.0742
     3.4561   3.4904   3.7196   4.1451   4.2839   4.5613   4.9047   5.0006
     5.5264   5.6410   5.8236   5.9266   5.9633   6.0128   6.0802   6.5585
     7.0352   7.0570   7.2066   7.2544   7.3620   7.4186   7.5025   7.5584
     7.7172   7.9669   8.0823   8.1844   8.2709   8.3066   8.3131   8.3909
     8.6855   8.8324

     occupation numbers 
     1.0000   1.0000   1.0000   1.0000   1.0000   1.0000   1.0000   1.0000
     1.0000   1.0000   1.0000   1.0000   1.0000   1.0000   1.0000   1.0000
     1.0000   1.0000   1.0000   1.0000   1.0000   1.0000   1.0000   1.0000
     1.0000   1.0000   1.0000   1.0000   1.0000   1.0000   1.0000   1.0000
     1.0000   1.0000   1.0000   1.0000   1.0000   1.0000   1.0000   1.0000
     1.0000   1.0000   1.0000   1.0000   1.0000   1.0000   1.0000   1.0000
     1.0000   1.0000   1.0000   1.0000   1.0000   1.0000   1.0000   1.0000
     1.0000   1.0000   1.0000   1.0000   1.0000   1.0000   1.0000   1.0000
     1.0000   1.0000   1.0000   1.0000   1.0000   1.0000   1.0000   1.0000
     1.0000   1.0000   1.0000   1.0000   1.0000   1.0000   1.0000   1.0000
     1.0000   1.0000   1.0000   1.0000   1.0000   1.0000   1.0000   1.0000
     1.0000   1.0000   1.0000   1.0000   1.0000   1.0000   1.0000   1.0000
     1.0000   1.0000   1.0000   1.0000   1.0000   1.0000   1.0000   1.0000
     1.0000   1.0000   1.0000   1.0000   1.0000   1.0000   1.0000   1.0000
     1.0000   1.0000   1.0000   1.0000   1.0000   1.0000   1.0000   1.0000
     1.0000   1.0000   1.0000   1.0000   1.0000   1.0000   1.0000   1.0000
     1.0000   1.0000   1.0000   1.0000   1.0000   1.0000   1.0000   1.0000
     1.0000   1.0000   1.0000   1.0000   1.0000   1.0000   1.0000   1.0000
     1.0000   1.0000   1.0000   1.0000   1.0000   1.0000   1.0000   1.0000
     1.0000   1.0000   1.0000   1.0000   1.0000   0.9999   0.9999   0.9999
     0.9998   0.9998   0.9997   0.9996   0.9996   0.9992   0.9988   0.9986
     0.9985   0.9983   0.9981   0.9975   0.9971   0.9968   0.9960   0.9953
     0.9946   0.9923   0.9913   0.9896   0.9876   0.9845   0.9811   0.9796
     0.9782   0.9767   0.9678   0.9533   0.9414   0.9371   0.9240   0.9125
     0.9024   0.8997   0.8842   0.8738   0.8471   0.8318   0.8255   0.7973
     0.7866   0.7640   0.7523   0.7399   0.7256   0.7150   0.7063   0.7026
     0.6991   0.6931   0.6783   0.6778   0.6668   0.6649   0.6594   0.6483
     0.6420   0.6380   0.6265   0.6207   0.6181   0.5981   0.5882   0.5526
     0.3318   0.3136   0.2043   0.0724   0.0480   0.0189   0.0049   0.0032
     0.0002   0.0001   0.0000   0.0000   0.0000   0.0000   0.0000   0.0000
     0.0000   0.0000   0.0000   0.0000   0.0000   0.0000   0.0000   0.0000
     0.0000   0.0000   0.0000   0.0000   0.0000   0.0000   0.0000   0.0000
     0.0000   0.0000

          k = 0.0000-0.5000 0.0000 ( 65180 PWs)   bands (ev):

   -92.8658 -92.8127 -92.7192 -92.6715 -92.6143 -92.5720 -92.5546 -92.4341
   -56.2194 -56.1994 -56.0763 -56.0661 -56.0579 -56.0530 -56.0168 -55.9883
   -55.9736 -55.9718 -55.9630 -55.9215 -55.9035 -55.8650 -55.8458 -55.8146
   -55.8055 -55.7598 -55.7584 -55.7569 -55.7484 -55.7092 -55.6847 -55.6009
   -31.4290 -31.4100 -31.2683 -31.1823 -31.0790 -31.0632 -30.9881 -30.9531
   -30.0088 -29.9670 -29.9422 -29.8345 -15.1711 -15.1220 -15.0686 -14.9383
   -14.8561 -14.7187 -14.5623 -14.4379 -14.3172 -14.2347 -14.2008 -14.1939
   -14.1442 -14.1291 -14.0795 -14.0579 -14.0338 -13.9983 -13.9534 -13.9138
   -13.7428 -13.6844 -13.6623 -13.6154 -13.5416 -13.5164 -13.4405 -13.4341
   -13.3937 -13.3687 -13.2614 -13.2426 -13.1222 -13.1145 -13.1070 -13.0810
   -13.0415 -13.0302 -12.9531 -12.9157 -12.8917 -12.8670 -12.8591 -12.8271
   -12.8051 -12.7995 -12.6682 -12.5921 -12.4767 -12.4318 -12.3333 -12.2854
   -11.9741 -11.9434 -11.9407 -11.9128 -11.8762 -11.8415 -11.8300 -11.7882
   -11.7842 -11.7399 -11.6783 -11.6648 -11.6508  -2.7542  -2.6938  -2.5446
    -2.4724  -2.1908  -2.1051  -1.9801  -1.8427  -1.8062  -1.7857  -1.7072
    -1.6749  -1.5937  -1.5577  -1.4805  -1.4407  -1.4030  -1.3753  -1.3175
    -1.2786  -1.2332  -1.1959  -1.1639  -1.1296  -1.0199  -0.9755  -0.9390
    -0.9382  -0.8520  -0.8198  -0.7969  -0.7449  -0.6633  -0.5869  -0.5045
    -0.4779  -0.3666  -0.3193  -0.1905  -0.1501  -0.1249  -0.0568   0.0754
     0.1129   0.2303   0.3012   0.3075   0.4348   0.4882   0.6125   0.7141
     0.8252   0.8553   0.8946   0.8993   0.9435   0.9538   0.9905   1.0113
     1.0186   1.1280   1.1923   1.2177   1.2426   1.5064   1.5413   1.5670
     1.6637   1.6922   1.7131   1.7285   1.7520   1.7743   1.7969   1.8154
     1.8424   1.8758   1.9072   1.9098   1.9413   1.9941   2.0778   2.1098
     2.2980   2.4407   2.4506   2.4665   2.5039   2.5099   2.5189   2.5679
     2.5816   2.6012   2.6281   2.6398   2.6572   2.6850   2.7412   2.7519
     2.8167   2.8339   2.8475   2.8497   2.8678   2.8764   2.8789   2.8812
     2.8855   2.9034   2.9153   2.9213   2.9810   2.9873   3.0025   3.0558
     3.9816   4.0145   4.0343   4.1036   4.5847   4.7489   4.9252   5.0095
     5.3036   5.3727   5.5081   5.5894   5.8675   5.8966   6.2857   6.6330
     6.8059   6.9000   7.1545   7.3172   7.5757   7.5811   7.6746   7.6950
     7.7914   7.9768   8.0917   8.1474   8.2484   8.3627   8.5363   8.5747
     8.7046   8.7527

     occupation numbers 
     1.0000   1.0000   1.0000   1.0000   1.0000   1.0000   1.0000   1.0000
     1.0000   1.0000   1.0000   1.0000   1.0000   1.0000   1.0000   1.0000
     1.0000   1.0000   1.0000   1.0000   1.0000   1.0000   1.0000   1.0000
     1.0000   1.0000   1.0000   1.0000   1.0000   1.0000   1.0000   1.0000
     1.0000   1.0000   1.0000   1.0000   1.0000   1.0000   1.0000   1.0000
     1.0000   1.0000   1.0000   1.0000   1.0000   1.0000   1.0000   1.0000
     1.0000   1.0000   1.0000   1.0000   1.0000   1.0000   1.0000   1.0000
     1.0000   1.0000   1.0000   1.0000   1.0000   1.0000   1.0000   1.0000
     1.0000   1.0000   1.0000   1.0000   1.0000   1.0000   1.0000   1.0000
     1.0000   1.0000   1.0000   1.0000   1.0000   1.0000   1.0000   1.0000
     1.0000   1.0000   1.0000   1.0000   1.0000   1.0000   1.0000   1.0000
     1.0000   1.0000   1.0000   1.0000   1.0000   1.0000   1.0000   1.0000
     1.0000   1.0000   1.0000   1.0000   1.0000   1.0000   1.0000   1.0000
     1.0000   1.0000   1.0000   1.0000   1.0000   1.0000   1.0000   1.0000
     1.0000   1.0000   1.0000   1.0000   1.0000   1.0000   1.0000   1.0000
     1.0000   1.0000   1.0000   1.0000   1.0000   1.0000   1.0000   1.0000
     1.0000   1.0000   1.0000   1.0000   1.0000   1.0000   1.0000   1.0000
     1.0000   1.0000   1.0000   1.0000   1.0000   1.0000   1.0000   1.0000
     1.0000   1.0000   1.0000   1.0000   1.0000   1.0000   1.0000   1.0000
     1.0000   1.0000   1.0000   1.0000   1.0000   1.0000   0.9999   0.9999
     0.9997   0.9997   0.9996   0.9996   0.9995   0.9995   0.9994   0.9993
     0.9993   0.9987   0.9983   0.9981   0.9978   0.9931   0.9920   0.9911
     0.9870   0.9855   0.9844   0.9834   0.9819   0.9804   0.9788   0.9773
     0.9751   0.9720   0.9689   0.9686   0.9652   0.9587   0.9465   0.9411
     0.9006   0.8583   0.8550   0.8496   0.8362   0.8340   0.8307   0.8117
     0.8061   0.7980   0.7866   0.7815   0.7738   0.7612   0.7346   0.7293
     0.6966   0.6876   0.6804   0.6792   0.6696   0.6649   0.6636   0.6623
     0.6600   0.6502   0.6436   0.6403   0.6066   0.6031   0.5943   0.5634
     0.1121   0.1031   0.0979   0.0813   0.0174   0.0093   0.0044   0.0031
     0.0007   0.0005   0.0002   0.0002   0.0000   0.0000   0.0000   0.0000
     0.0000   0.0000   0.0000   0.0000   0.0000   0.0000   0.0000   0.0000
     0.0000   0.0000   0.0000   0.0000   0.0000   0.0000   0.0000   0.0000
     0.0000   0.0000

          k = 0.2500 0.2500 0.0000 ( 65198 PWs)   bands (ev):

   -92.8658 -92.8127 -92.7192 -92.6715 -92.6143 -92.5720 -92.5546 -92.4341
   -56.2194 -56.1994 -56.0763 -56.0661 -56.0579 -56.0530 -56.0169 -55.9883
   -55.9736 -55.9718 -55.9630 -55.9215 -55.9035 -55.8650 -55.8458 -55.8146
   -55.8055 -55.7598 -55.7584 -55.7569 -55.7484 -55.7092 -55.6847 -55.6009
   -31.4275 -31.4118 -31.2678 -31.1825 -31.0770 -31.0658 -30.9868 -30.9537
   -30.0084 -29.9683 -29.9411 -29.8346 -15.1770 -15.1389 -15.0637 -14.9472
   -14.8258 -14.7002 -14.6298 -14.4193 -14.2673 -14.2522 -14.2157 -14.1876
   -14.1662 -14.1405 -14.1038 -14.0570 -13.9984 -13.9823 -13.8199 -13.8061
   -13.7783 -13.7568 -13.7053 -13.6683 -13.5854 -13.5797 -13.4201 -13.3919
   -13.3728 -13.2940 -13.2532 -13.2017 -13.1709 -13.1276 -13.1008 -13.0735
   -13.0678 -12.9938 -12.9726 -12.9319 -12.8967 -12.8901 -12.8730 -12.8661
   -12.8386 -12.8249 -12.6516 -12.6057 -12.5392 -12.4306 -12.2538 -12.2169
   -11.9742 -11.9612 -11.9302 -11.9187 -11.9113 -11.8496 -11.8142 -11.8081
   -11.7728 -11.7636 -11.6733 -11.6323 -11.6149  -2.8300  -2.6216  -2.5035
    -2.4091  -2.2888  -2.2240  -2.0254  -1.8819  -1.8628  -1.8332  -1.7384
    -1.7037  -1.6090  -1.5820  -1.5312  -1.4002  -1.3524  -1.2795  -1.2347
    -1.1903  -1.1665  -1.1426  -1.0988  -1.0848  -0.9938  -0.9431  -0.8780
    -0.8278  -0.7964  -0.7491  -0.7319  -0.6698  -0.6223  -0.5646  -0.5300
    -0.4437  -0.3904  -0.3611  -0.3241  -0.2677  -0.1851  -0.1538  -0.1267
    -0.0421  -0.0105   0.2496   0.3973   0.4321   0.4932   0.5360   0.6101
     0.6562   0.7141   0.7462   1.0165   1.0803   1.1536   1.1790   1.2290
     1.2596   1.2936   1.3313   1.3483   1.3754   1.4233   1.4306   1.4447
     1.4903   1.5331   1.5696   1.6332   1.6755   1.6801   1.7244   1.7525
     1.8098   1.8402   1.9583   2.0183   2.0502   2.0731   2.1461   2.2141
     2.2365   2.2708   2.2989   2.3131   2.4201   2.4564   2.5447   2.6035
     2.6278   2.6770   2.7186   2.7313   2.7375   2.7537   2.7692   2.7821
     2.7938   2.8008   2.8132   2.8247   2.8379   2.8558   2.8621   2.8748
     2.8982   2.9080   2.9164   2.9490   3.2483   3.3439   3.3873   3.4608
     3.5061   3.6984   3.7923   4.1515   4.3745   4.5703   4.8243   5.1398
     5.5147   5.5725   5.6080   5.6772   5.7391   6.0989   6.1218   6.1777
     6.8457   7.0510   7.1880   7.3566   7.4669   7.4970   7.6071   7.7718
     7.8350   8.0500   8.2169   8.2293   8.3257   8.3409   8.4281   8.4594
     8.5567   8.7968

     occupation numbers 
     1.0000   1.0000   1.0000   1.0000   1.0000   1.0000   1.0000   1.0000
     1.0000   1.0000   1.0000   1.0000   1.0000   1.0000   1.0000   1.0000
     1.0000   1.0000   1.0000   1.0000   1.0000   1.0000   1.0000   1.0000
     1.0000   1.0000   1.0000   1.0000   1.0000   1.0000   1.0000   1.0000
     1.0000   1.0000   1.0000   1.0000   1.0000   1.0000   1.0000   1.0000
     1.0000   1.0000   1.0000   1.0000   1.0000   1.0000   1.0000   1.0000
     1.0000   1.0000   1.0000   1.0000   1.0000   1.0000   1.0000   1.0000
     1.0000   1.0000   1.0000   1.0000   1.0000   1.0000   1.0000   1.0000
     1.0000   1.0000   1.0000   1.0000   1.0000   1.0000   1.0000   1.0000
     1.0000   1.0000   1.0000   1.0000   1.0000   1.0000   1.0000   1.0000
     1.0000   1.0000   1.0000   1.0000   1.0000   1.0000   1.0000   1.0000
     1.0000   1.0000   1.0000   1.0000   1.0000   1.0000   1.0000   1.0000
     1.0000   1.0000   1.0000   1.0000   1.0000   1.0000   1.0000   1.0000
     1.0000   1.0000   1.0000   1.0000   1.0000   1.0000   1.0000   1.0000
     1.0000   1.0000   1.0000   1.0000   1.0000   1.0000   1.0000   1.0000
     1.0000   1.0000   1.0000   1.0000   1.0000   1.0000   1.0000   1.0000
     1.0000   1.0000   1.0000   1.0000   1.0000   1.0000   1.0000   1.0000
     1.0000   1.0000   1.0000   1.0000   1.0000   1.0000   1.0000   1.0000
     1.0000   1.0000   1.0000   1.0000   1.0000   1.0000   1.0000   1.0000
     1.0000   1.0000   1.0000   1.0000   1.0000   1.0000   1.0000   0.9999
     0.9999   0.9999   0.9998   0.9993   0.9990   0.9986   0.9984   0.9980
     0.9976   0.9972   0.9967   0.9965   0.9960   0.9951   0.9950   0.9946
     0.9935   0.9923   0.9910   0.9885   0.9864   0.9862   0.9837   0.9819
     0.9778   0.9753   0.9632   0.9554   0.9508   0.9472   0.9345   0.9206
     0.9156   0.9074   0.9003   0.8966   0.8651   0.8530   0.8208   0.7971
     0.7867   0.7648   0.7455   0.7394   0.7363   0.7284   0.7207   0.7143
     0.7084   0.7048   0.6984   0.6924   0.6855   0.6760   0.6726   0.6658
     0.6530   0.6476   0.6430   0.6248   0.4497   0.3942   0.3697   0.3293
     0.3053   0.2134   0.1751   0.0711   0.0360   0.0183   0.0068   0.0017
     0.0002   0.0002   0.0001   0.0001   0.0001   0.0000   0.0000   0.0000
     0.0000   0.0000   0.0000   0.0000   0.0000   0.0000   0.0000   0.0000
     0.0000   0.0000   0.0000   0.0000   0.0000   0.0000   0.0000   0.0000
     0.0000   0.0000

          k = 0.2500-0.5000 0.0000 ( 65138 PWs)   bands (ev):

   -92.8658 -92.8127 -92.7192 -92.6715 -92.6143 -92.5720 -92.5546 -92.4341
   -56.2194 -56.1994 -56.0763 -56.0661 -56.0579 -56.0530 -56.0168 -55.9883
   -55.9736 -55.9718 -55.9630 -55.9215 -55.9035 -55.8650 -55.8458 -55.8146
   -55.8055 -55.7598 -55.7584 -55.7569 -55.7484 -55.7092 -55.6847 -55.6009
   -31.4273 -31.4117 -31.2680 -31.1827 -31.0767 -31.0655 -30.9872 -30.9540
   -30.0078 -29.9680 -29.9418 -29.8349 -15.1408 -15.0953 -15.0260 -14.9090
   -14.8774 -14.7593 -14.6643 -14.5356 -14.2316 -14.1748 -14.1523 -14.1288
   -14.1119 -14.1017 -14.0642 -14.0469 -14.0130 -13.9762 -13.9473 -13.9023
   -13.8245 -13.7746 -13.7206 -13.6961 -13.6240 -13.5897 -13.4737 -13.4386
   -13.3597 -13.2942 -13.2714 -13.1867 -13.1424 -13.1262 -13.0968 -13.0672
   -13.0646 -13.0020 -12.9791 -12.9113 -12.8949 -12.8834 -12.8440 -12.8210
   -12.8086 -12.7767 -12.6747 -12.5625 -12.4741 -12.4007 -12.3258 -12.2879
   -11.9741 -11.9371 -11.9250 -11.9140 -11.8865 -11.8553 -11.8266 -11.7853
   -11.7587 -11.7362 -11.6915 -11.6659 -11.6550  -2.6124  -2.5452  -2.4184
    -2.3410  -2.2110  -2.1252  -2.0044  -1.8541  -1.8006  -1.7782  -1.7147
    -1.7019  -1.6043  -1.5370  -1.4530  -1.4023  -1.3929  -1.3307  -1.2876
    -1.2528  -1.2053  -1.1680  -1.1333  -1.0938  -1.0809  -1.0363  -1.0068
    -0.9650  -0.9337  -0.8672  -0.7659  -0.7215  -0.6460  -0.5800  -0.5314
    -0.4882  -0.4677  -0.4138  -0.2507  -0.2378  -0.1383  -0.1017  -0.0881
    -0.0484  -0.0169   0.0292   0.0513   0.1139   0.3928   0.4872   0.5809
     0.6306   0.8770   0.9064   0.9895   1.0156   1.1775   1.2119   1.2544
     1.2762   1.2904   1.3108   1.3735   1.4212   1.4560   1.5427   1.6333
     1.6749   1.6902   1.7049   1.7397   1.7522   1.7589   1.8048   1.8135
     1.8437   1.8714   1.8861   1.9000   1.9381   1.9942   2.0321   2.1130
     2.2540   2.3928   2.4097   2.4294   2.4576   2.4800   2.5065   2.5289
     2.5395   2.5609   2.6025   2.6340   2.6623   2.6864   2.7183   2.7332
     2.7382   2.7505   2.7716   2.7848   2.8058   2.8116   2.8450   2.8577
     2.8696   2.8799   2.8885   2.9011   3.4330   3.4396   3.5802   3.6317
     3.9976   4.0294   4.0507   4.1596   4.6033   4.7698   4.9435   4.9768
     5.1543   5.3149   5.5158   5.5364   5.6459   5.6829   6.3512   6.3816
     6.4558   6.7374   7.2104   7.5996   7.6699   7.7194   7.7429   7.8139
     7.8758   7.9477   8.1919   8.3373   8.4072   8.4289   8.5655   8.6006
     8.6485   8.7207

     occupation numbers 
     1.0000   1.0000   1.0000   1.0000   1.0000   1.0000   1.0000   1.0000
     1.0000   1.0000   1.0000   1.0000   1.0000   1.0000   1.0000   1.0000
     1.0000   1.0000   1.0000   1.0000   1.0000   1.0000   1.0000   1.0000
     1.0000   1.0000   1.0000   1.0000   1.0000   1.0000   1.0000   1.0000
     1.0000   1.0000   1.0000   1.0000   1.0000   1.0000   1.0000   1.0000
     1.0000   1.0000   1.0000   1.0000   1.0000   1.0000   1.0000   1.0000
     1.0000   1.0000   1.0000   1.0000   1.0000   1.0000   1.0000   1.0000
     1.0000   1.0000   1.0000   1.0000   1.0000   1.0000   1.0000   1.0000
     1.0000   1.0000   1.0000   1.0000   1.0000   1.0000   1.0000   1.0000
     1.0000   1.0000   1.0000   1.0000   1.0000   1.0000   1.0000   1.0000
     1.0000   1.0000   1.0000   1.0000   1.0000   1.0000   1.0000   1.0000
     1.0000   1.0000   1.0000   1.0000   1.0000   1.0000   1.0000   1.0000
     1.0000   1.0000   1.0000   1.0000   1.0000   1.0000   1.0000   1.0000
     1.0000   1.0000   1.0000   1.0000   1.0000   1.0000   1.0000   1.0000
     1.0000   1.0000   1.0000   1.0000   1.0000   1.0000   1.0000   1.0000
     1.0000   1.0000   1.0000   1.0000   1.0000   1.0000   1.0000   1.0000
     1.0000   1.0000   1.0000   1.0000   1.0000   1.0000   1.0000   1.0000
     1.0000   1.0000   1.0000   1.0000   1.0000   1.0000   1.0000   1.0000
     1.0000   1.0000   1.0000   1.0000   1.0000   1.0000   1.0000   1.0000
     1.0000   1.0000   1.0000   1.0000   1.0000   1.0000   1.0000   0.9999
     0.9999   0.9997   0.9996   0.9994   0.9993   0.9984   0.9981   0.9977
     0.9975   0.9973   0.9970   0.9961   0.9952   0.9944   0.9919   0.9884
     0.9864   0.9856   0.9848   0.9827   0.9819   0.9815   0.9782   0.9775
     0.9750   0.9725   0.9710   0.9697   0.9656   0.9587   0.9535   0.9406
     0.9115   0.8737   0.8684   0.8621   0.8526   0.8448   0.8353   0.8269
     0.8228   0.8144   0.7975   0.7840   0.7715   0.7605   0.7456   0.7384
     0.7360   0.7300   0.7196   0.7129   0.7022   0.6992   0.6817   0.6750
     0.6686   0.6630   0.6583   0.6514   0.3444   0.3407   0.2679   0.2433
     0.1077   0.0992   0.0938   0.0695   0.0162   0.0085   0.0041   0.0035
     0.0016   0.0007   0.0002   0.0002   0.0001   0.0001   0.0000   0.0000
     0.0000   0.0000   0.0000   0.0000   0.0000   0.0000   0.0000   0.0000
     0.0000   0.0000   0.0000   0.0000   0.0000   0.0000   0.0000   0.0000
     0.0000   0.0000

          k =-0.5000-0.5000 0.0000 ( 65132 PWs)   bands (ev):

   -92.8658 -92.8127 -92.7192 -92.6715 -92.6143 -92.5720 -92.5546 -92.4341
   -56.2194 -56.1994 -56.0763 -56.0661 -56.0579 -56.0530 -56.0168 -55.9883
   -55.9736 -55.9718 -55.9630 -55.9215 -55.9035 -55.8650 -55.8458 -55.8146
   -55.8055 -55.7598 -55.7584 -55.7569 -55.7484 -55.7092 -55.6847 -55.6009
   -31.4251 -31.4139 -31.2676 -31.1831 -31.0720 -31.0702 -30.9862 -30.9550
   -30.0067 -29.9691 -29.9414 -29.8353 -15.0954 -15.0682 -14.9510 -14.9381
   -14.8380 -14.8082 -14.7655 -14.6353 -14.1443 -14.1296 -14.0979 -14.0762
   -14.0609 -14.0452 -14.0209 -14.0094 -13.9888 -13.9826 -13.9633 -13.8900
   -13.8824 -13.8428 -13.8183 -13.8110 -13.7119 -13.6489 -13.5097 -13.4751
   -13.3109 -13.2680 -13.2019 -13.1783 -13.1423 -13.1374 -13.1280 -13.1093
   -13.0129 -13.0047 -12.9506 -12.9229 -12.9139 -12.8940 -12.8668 -12.8371
   -12.7579 -12.7505 -12.6909 -12.5372 -12.4704 -12.3652 -12.3246 -12.2896
   -11.9741 -11.9339 -11.9211 -11.9030 -11.8865 -11.8511 -11.8344 -11.7981
   -11.7392 -11.7183 -11.7140 -11.6637 -11.6608  -2.3883  -2.3126  -2.2997
    -2.2293  -2.1920  -2.1134  -2.0457  -1.9195  -1.8045  -1.7739  -1.7358
    -1.6780  -1.6055  -1.5904  -1.5207  -1.4772  -1.3590  -1.3305  -1.2817
    -1.2549  -1.1907  -1.1439  -1.1246  -1.1121  -1.0587  -1.0152  -0.9978
    -0.8858  -0.8297  -0.7834  -0.7317  -0.7025  -0.6933  -0.6568  -0.6106
    -0.5779  -0.5660  -0.4824  -0.4154  -0.3720  -0.3433  -0.2714  -0.2130
    -0.1873  -0.1382  -0.1155  -0.0998  -0.0850   0.3652   0.4091   0.5348
     0.5510   0.9121   0.9230   0.9563   0.9930   1.2638   1.2843   1.2910
     1.3274   1.4559   1.5501   1.5784   1.6142   1.6402   1.6659   1.6716
     1.7012   1.7158   1.7385   1.7413   1.7895   1.7899   1.8214   1.8555
     1.8648   1.8791   1.9169   1.9356   1.9524   1.9811   2.0118   2.0719
     2.1393   2.4034   2.4365   2.4563   2.4745   2.4839   2.5142   2.5185
     2.5380   2.5464   2.5662   2.5848   2.5951   2.6064   2.6263   2.6609
     2.6694   2.6795   2.6914   2.7119   2.7209   2.7391   2.7433   2.7535
     2.8574   2.8587   2.8877   2.8951   3.8604   3.8783   3.9218   3.9567
     4.1572   4.2324   4.2552   4.4970   4.6183   4.7007   4.8345   4.9379
     4.9475   5.0443   5.1923   5.2490   5.8194   5.8553   5.9115   6.0112
     6.5737   6.8592   6.9015   7.4995   7.8541   7.8654   7.9436   8.0812
     8.1466   8.1672   8.2116   8.2617   8.3762   8.4777   8.5071   8.5298
     8.5482   8.6017

     occupation numbers 
     1.0000   1.0000   1.0000   1.0000   1.0000   1.0000   1.0000   1.0000
     1.0000   1.0000   1.0000   1.0000   1.0000   1.0000   1.0000   1.0000
     1.0000   1.0000   1.0000   1.0000   1.0000   1.0000   1.0000   1.0000
     1.0000   1.0000   1.0000   1.0000   1.0000   1.0000   1.0000   1.0000
     1.0000   1.0000   1.0000   1.0000   1.0000   1.0000   1.0000   1.0000
     1.0000   1.0000   1.0000   1.0000   1.0000   1.0000   1.0000   1.0000
     1.0000   1.0000   1.0000   1.0000   1.0000   1.0000   1.0000   1.0000
     1.0000   1.0000   1.0000   1.0000   1.0000   1.0000   1.0000   1.0000
     1.0000   1.0000   1.0000   1.0000   1.0000   1.0000   1.0000   1.0000
     1.0000   1.0000   1.0000   1.0000   1.0000   1.0000   1.0000   1.0000
     1.0000   1.0000   1.0000   1.0000   1.0000   1.0000   1.0000   1.0000
     1.0000   1.0000   1.0000   1.0000   1.0000   1.0000   1.0000   1.0000
     1.0000   1.0000   1.0000   1.0000   1.0000   1.0000   1.0000   1.0000
     1.0000   1.0000   1.0000   1.0000   1.0000   1.0000   1.0000   1.0000
     1.0000   1.0000   1.0000   1.0000   1.0000   1.0000   1.0000   1.0000
     1.0000   1.0000   1.0000   1.0000   1.0000   1.0000   1.0000   1.0000
     1.0000   1.0000   1.0000   1.0000   1.0000   1.0000   1.0000   1.0000
     1.0000   1.0000   1.0000   1.0000   1.0000   1.0000   1.0000   1.0000
     1.0000   1.0000   1.0000   1.0000   1.0000   1.0000   1.0000   1.0000
     1.0000   1.0000   1.0000   1.0000   1.0000   1.0000   1.0000   1.0000
     0.9999   0.9996   0.9996   0.9995   0.9994   0.9976   0.9974   0.9973
     0.9968   0.9944   0.9917   0.9907   0.9893   0.9881   0.9869   0.9866
     0.9850   0.9842   0.9828   0.9826   0.9793   0.9793   0.9768   0.9739
     0.9731   0.9717   0.9679   0.9658   0.9639   0.9604   0.9563   0.9474
     0.9358   0.8704   0.8597   0.8531   0.8468   0.8434   0.8324   0.8308
     0.8234   0.8201   0.8123   0.8048   0.8006   0.7958   0.7873   0.7721
     0.7683   0.7637   0.7582   0.7486   0.7444   0.7356   0.7336   0.7285
[...]
     0.6334   0.6209   0.6186   0.6139   0.6104   0.6048   0.5992   0.5216
     0.3467   0.3189   0.2041   0.0768   0.0425   0.0204   0.0050   0.0031
     0.0002   0.0001   0.0000   0.0000   0.0000   0.0000   0.0000   0.0000
     0.0000   0.0000   0.0000   0.0000   0.0000   0.0000   0.0000   0.0000
     0.0000   0.0000   0.0000   0.0000   0.0000   0.0000   0.0000   0.0000
     0.0000   0.0000

          k =-0.5000 0.0000 0.0000 ( 65180 PWs)   bands (ev):

   -92.8658 -92.8127 -92.7192 -92.6715 -92.6143 -92.5720 -92.5546 -92.4341
   -56.2194 -56.1994 -56.0763 -56.0661 -56.0579 -56.0530 -56.0169 -55.9883
   -55.9736 -55.9718 -55.9630 -55.9215 -55.9035 -55.8650 -55.8458 -55.8146
   -55.8055 -55.7598 -55.7584 -55.7569 -55.7484 -55.7092 -55.6847 -55.6009
   -31.4254 -31.4142 -31.2672 -31.1828 -31.0727 -31.0707 -30.9855 -30.9544
   -30.0079 -29.9697 -29.9401 -29.8346 -15.1758 -15.1257 -15.0628 -14.9469
   -14.8498 -14.7044 -14.5618 -14.4033 -14.2921 -14.2752 -14.2682 -14.2053
   -14.1491 -14.1197 -14.0700 -14.0556 -14.0418 -13.9945 -13.9615 -13.8582
   -13.7141 -13.6905 -13.6542 -13.6464 -13.5625 -13.5223 -13.4463 -13.4185
   -13.3953 -13.3578 -13.2064 -13.1936 -13.1679 -13.1577 -13.1083 -13.0898
   -13.0808 -13.0609 -12.9262 -12.8997 -12.8786 -12.8696 -12.8613 -12.8303
   -12.7937 -12.7843 -12.6945 -12.5719 -12.4806 -12.4097 -12.3392 -12.3016
   -11.9738 -11.9402 -11.9189 -11.9118 -11.8985 -11.8801 -11.8385 -11.7754
   -11.7569 -11.7230 -11.6814 -11.6722 -11.6563  -2.7438  -2.7050  -2.5422
    -2.5024  -2.1887  -2.1141  -1.9665  -1.8481  -1.8092  -1.7639  -1.7164
    -1.6912  -1.5669  -1.5231  -1.5074  -1.4255  -1.3889  -1.3746  -1.3429
    -1.2832  -1.2165  -1.1877  -1.1566  -1.0591  -1.0159  -0.9675  -0.9338
    -0.9126  -0.8820  -0.8336  -0.8084  -0.7692  -0.6737  -0.5948  -0.5328
    -0.4694  -0.2948  -0.2626  -0.2159  -0.1820  -0.1086  -0.1063   0.0438
     0.0676   0.1154   0.2790   0.3785   0.4280   0.5200   0.5993   0.7053
     0.7188   0.8518   0.8719   0.9246   0.9547   0.9937   1.0037   1.0506
     1.0711   1.1398   1.1920   1.2379   1.2452   1.5474   1.5585   1.5752
     1.6000   1.6988   1.7132   1.7332   1.7446   1.7689   1.7770   1.8189
     1.8387   1.8736   1.9160   1.9388   1.9843   2.0141   2.0614   2.1787
     2.2820   2.3415   2.3566   2.4335   2.4633   2.4936   2.5589   2.5677
     2.5753   2.6027   2.6107   2.6199   2.6641   2.6881   2.7307   2.7700
     2.8004   2.8390   2.8435   2.8443   2.8585   2.8708   2.8817   2.8949
     2.9001   2.9239   2.9262   2.9482   2.9662   2.9715   3.1033   3.1128
     3.9218   3.9674   4.0344   4.2038   4.6343   4.7137   4.8954   4.9475
     5.3856   5.4223   5.4950   5.5290   5.8724   5.8813   6.2863   6.5886
     6.7473   6.9559   7.2151   7.2639   7.6193   7.6463   7.6520   7.6768
     7.7852   8.0009   8.0415   8.1055   8.2411   8.3878   8.4986   8.6506
     8.7192   8.8016

     occupation numbers 
     1.0000   1.0000   1.0000   1.0000   1.0000   1.0000   1.0000   1.0000
     1.0000   1.0000   1.0000   1.0000   1.0000   1.0000   1.0000   1.0000
     1.0000   1.0000   1.0000   1.0000   1.0000   1.0000   1.0000   1.0000
     1.0000   1.0000   1.0000   1.0000   1.0000   1.0000   1.0000   1.0000
     1.0000   1.0000   1.0000   1.0000   1.0000   1.0000   1.0000   1.0000
     1.0000   1.0000   1.0000   1.0000   1.0000   1.0000   1.0000   1.0000
     1.0000   1.0000   1.0000   1.0000   1.0000   1.0000   1.0000   1.0000
     1.0000   1.0000   1.0000   1.0000   1.0000   1.0000   1.0000   1.0000
     1.0000   1.0000   1.0000   1.0000   1.0000   1.0000   1.0000   1.0000
     1.0000   1.0000   1.0000   1.0000   1.0000   1.0000   1.0000   1.0000
     1.0000   1.0000   1.0000   1.0000   1.0000   1.0000   1.0000   1.0000
     1.0000   1.0000   1.0000   1.0000   1.0000   1.0000   1.0000   1.0000
     1.0000   1.0000   1.0000   1.0000   1.0000   1.0000   1.0000   1.0000
     1.0000   1.0000   1.0000   1.0000   1.0000   1.0000   1.0000   1.0000
     1.0000   1.0000   1.0000   1.0000   1.0000   1.0000   1.0000   1.0000
     1.0000   1.0000   1.0000   1.0000   1.0000   1.0000   1.0000   1.0000
     1.0000   1.0000   1.0000   1.0000   1.0000   1.0000   1.0000   1.0000
     1.0000   1.0000   1.0000   1.0000   1.0000   1.0000   1.0000   1.0000
     1.0000   1.0000   1.0000   1.0000   1.0000   1.0000   1.0000   1.0000
     1.0000   1.0000   1.0000   1.0000   1.0000   1.0000   0.9999   0.9999
     0.9999   0.9997   0.9997   0.9996   0.9995   0.9994   0.9993   0.9991
     0.9991   0.9987   0.9983   0.9979   0.9978   0.9918   0.9914   0.9908
     0.9899   0.9852   0.9843   0.9831   0.9824   0.9808   0.9802   0.9770
     0.9754   0.9722   0.9680   0.9655   0.9600   0.9560   0.9491   0.9281
     0.9046   0.8888   0.8845   0.8607   0.8507   0.8400   0.8152   0.8117
     0.8087   0.7974   0.7940   0.7901   0.7707   0.7598   0.7397   0.7204
     0.7049   0.6849   0.6825   0.6821   0.6745   0.6680   0.6620   0.6548
     0.6520   0.6389   0.6376   0.6252   0.6150   0.6121   0.5354   0.5299
     0.1300   0.1162   0.0979   0.0612   0.0145   0.0107   0.0051   0.0040
     0.0005   0.0004   0.0003   0.0002   0.0000   0.0000   0.0000   0.0000
     0.0000   0.0000   0.0000   0.0000   0.0000   0.0000   0.0000   0.0000
     0.0000   0.0000   0.0000   0.0000   0.0000   0.0000   0.0000   0.0000
     0.0000   0.0000

          k =-0.2500 0.2500 0.0000 ( 65198 PWs)   bands (ev):

   -92.8658 -92.8127 -92.7192 -92.6715 -92.6143 -92.5720 -92.5546 -92.4341
   -56.2194 -56.1994 -56.0763 -56.0661 -56.0579 -56.0530 -56.0169 -55.9883
   -55.9736 -55.9718 -55.9630 -55.9215 -55.9035 -55.8650 -55.8458 -55.8146
   -55.8055 -55.7598 -55.7584 -55.7569 -55.7484 -55.7092 -55.6847 -55.6009
   -31.4275 -31.4118 -31.2678 -31.1825 -31.0770 -31.0658 -30.9868 -30.9537
   -30.0084 -29.9683 -29.9411 -29.8346 -15.1783 -15.1378 -15.0622 -14.9458
   -14.8313 -14.7057 -14.6215 -14.4102 -14.2734 -14.2446 -14.2274 -14.1845
   -14.1582 -14.1384 -14.1195 -14.0632 -13.9936 -13.9821 -13.8286 -13.8030
   -13.7757 -13.7532 -13.7092 -13.6554 -13.5904 -13.5759 -13.4209 -13.3909
   -13.3718 -13.2982 -13.2542 -13.1927 -13.1602 -13.1370 -13.0986 -13.0826
   -13.0723 -12.9987 -12.9673 -12.9258 -12.9151 -12.8993 -12.8796 -12.8469
   -12.8392 -12.8194 -12.6437 -12.5955 -12.5469 -12.4363 -12.2546 -12.2154
   -11.9741 -11.9604 -11.9391 -11.9121 -11.8996 -11.8590 -11.8240 -11.8013
   -11.7791 -11.7567 -11.6731 -11.6277 -11.6183  -2.8284  -2.6205  -2.4993
    -2.4107  -2.2930  -2.2267  -2.0230  -1.8788  -1.8605  -1.8312  -1.7390
    -1.7025  -1.6089  -1.5749  -1.5488  -1.4064  -1.3499  -1.2824  -1.2545
    -1.1939  -1.1718  -1.1322  -1.1035  -1.0636  -0.9997  -0.9514  -0.8893
    -0.8195  -0.7920  -0.7430  -0.7125  -0.6672  -0.6121  -0.5675  -0.5248
    -0.4249  -0.3927  -0.3780  -0.3374  -0.2696  -0.1909  -0.1485  -0.1190
    -0.0395  -0.0122   0.2310   0.3999   0.4403   0.4818   0.5427   0.6082
     0.6625   0.7191   0.7448   1.0245   1.1308   1.1709   1.2035   1.2098
     1.2516   1.2690   1.3132   1.3446   1.3582   1.3837   1.4302   1.4470
     1.4900   1.5069   1.5540   1.6460   1.6687   1.6789   1.7296   1.7472
     1.7898   1.8502   1.9480   2.0464   2.0725   2.1220   2.1430   2.2127
     2.2492   2.2735   2.2995   2.3222   2.4213   2.4547   2.5437   2.6028
     2.6286   2.6768   2.7217   2.7310   2.7432   2.7544   2.7645   2.7780
     2.7846   2.8044   2.8133   2.8255   2.8350   2.8470   2.8566   2.8653
     2.8982   2.9094   2.9157   2.9502   3.2416   3.3244   3.3918   3.4807
     3.4974   3.6840   3.8010   4.1507   4.3732   4.5712   4.8336   5.1399
     5.5161   5.5691   5.6110   5.6741   5.7402   6.1089   6.1238   6.1661
     6.8467   7.0799   7.1496   7.3535   7.4770   7.5028   7.5812   7.7830
     7.8665   8.0047   8.2165   8.2674   8.3263   8.3415   8.4328   8.4536
     8.5570   8.7915

     occupation numbers 
     1.0000   1.0000   1.0000   1.0000   1.0000   1.0000   1.0000   1.0000
     1.0000   1.0000   1.0000   1.0000   1.0000   1.0000   1.0000   1.0000
     1.0000   1.0000   1.0000   1.0000   1.0000   1.0000   1.0000   1.0000
     1.0000   1.0000   1.0000   1.0000   1.0000   1.0000   1.0000   1.0000
     1.0000   1.0000   1.0000   1.0000   1.0000   1.0000   1.0000   1.0000
     1.0000   1.0000   1.0000   1.0000   1.0000   1.0000   1.0000   1.0000
     1.0000   1.0000   1.0000   1.0000   1.0000   1.0000   1.0000   1.0000
     1.0000   1.0000   1.0000   1.0000   1.0000   1.0000   1.0000   1.0000
     1.0000   1.0000   1.0000   1.0000   1.0000   1.0000   1.0000   1.0000
     1.0000   1.0000   1.0000   1.0000   1.0000   1.0000   1.0000   1.0000
     1.0000   1.0000   1.0000   1.0000   1.0000   1.0000   1.0000   1.0000
     1.0000   1.0000   1.0000   1.0000   1.0000   1.0000   1.0000   1.0000
     1.0000   1.0000   1.0000   1.0000   1.0000   1.0000   1.0000   1.0000
     1.0000   1.0000   1.0000   1.0000   1.0000   1.0000   1.0000   1.0000
     1.0000   1.0000   1.0000   1.0000   1.0000   1.0000   1.0000   1.0000
     1.0000   1.0000   1.0000   1.0000   1.0000   1.0000   1.0000   1.0000
     1.0000   1.0000   1.0000   1.0000   1.0000   1.0000   1.0000   1.0000
     1.0000   1.0000   1.0000   1.0000   1.0000   1.0000   1.0000   1.0000
     1.0000   1.0000   1.0000   1.0000   1.0000   1.0000   1.0000   1.0000
     1.0000   1.0000   1.0000   1.0000   1.0000   1.0000   1.0000   0.9999
     0.9999   0.9999   0.9998   0.9993   0.9987   0.9985   0.9982   0.9981
     0.9977   0.9975   0.9970   0.9965   0.9963   0.9959   0.9950   0.9946
     0.9935   0.9930   0.9916   0.9879   0.9868   0.9862   0.9834   0.9823
     0.9793   0.9744   0.9644   0.9514   0.9473   0.9390   0.9351   0.9209
     0.9126   0.9068   0.9002   0.8941   0.8647   0.8536   0.8212   0.7973
     0.7863   0.7650   0.7440   0.7395   0.7336   0.7281   0.7231   0.7164
     0.7130   0.7029   0.6983   0.6920   0.6870   0.6807   0.6756   0.6709
     0.6530   0.6469   0.6434   0.6241   0.4537   0.4054   0.3671   0.3187
     0.3099   0.2197   0.1718   0.0713   0.0362   0.0183   0.0066   0.0017
     0.0002   0.0002   0.0001   0.0001   0.0001   0.0000   0.0000   0.0000
     0.0000   0.0000   0.0000   0.0000   0.0000   0.0000   0.0000   0.0000
     0.0000   0.0000   0.0000   0.0000   0.0000   0.0000   0.0000   0.0000
     0.0000   0.0000

          k =-0.5000 0.2500 0.0000 ( 65138 PWs)   bands (ev):

   -92.8658 -92.8127 -92.7192 -92.6715 -92.6143 -92.5720 -92.5546 -92.4341
   -56.2194 -56.1994 -56.0763 -56.0661 -56.0579 -56.0530 -56.0168 -55.9883
   -55.9736 -55.9718 -55.9630 -55.9215 -55.9035 -55.8650 -55.8458 -55.8146
   -55.8055 -55.7598 -55.7584 -55.7569 -55.7484 -55.7092 -55.6847 -55.6009
   -31.4253 -31.4141 -31.2674 -31.1829 -31.0724 -31.0705 -30.9859 -30.9547
   -30.0073 -29.9694 -29.9407 -29.8350 -15.1433 -15.0991 -15.0201 -14.9152
   -14.8756 -14.7518 -14.6638 -14.5255 -14.2247 -14.1935 -14.1816 -14.1388
   -14.1132 -14.0911 -14.0558 -14.0398 -14.0225 -13.9813 -13.9626 -13.8533
   -13.7948 -13.7475 -13.7446 -13.7300 -13.6243 -13.6064 -13.4786 -13.4169
   -13.3528 -13.3163 -13.2182 -13.1796 -13.1687 -13.1377 -13.1030 -13.0920
   -13.0545 -13.0286 -12.9456 -12.9288 -12.8929 -12.8704 -12.8539 -12.8364
   -12.7751 -12.7677 -12.6925 -12.5539 -12.4758 -12.3883 -12.3306 -12.2963
   -11.9740 -11.9331 -11.9207 -11.9065 -11.8939 -11.8735 -11.8432 -11.7615
   -11.7540 -11.7295 -11.6957 -11.6678 -11.6586  -2.6012  -2.5593  -2.4118
    -2.3688  -2.2076  -2.1326  -1.9907  -1.8539  -1.7984  -1.7709  -1.7324
    -1.6937  -1.6128  -1.4968  -1.4397  -1.4161  -1.3909  -1.3146  -1.2851
    -1.2468  -1.2296  -1.1695  -1.1391  -1.1013  -1.0657  -1.0368  -0.9787
    -0.9505  -0.9081  -0.8741  -0.7704  -0.7424  -0.6555  -0.5881  -0.5617
    -0.5053  -0.4182  -0.3817  -0.2866  -0.2388  -0.1850  -0.1283  -0.1124
    -0.0380  -0.0081   0.0253   0.0707   0.1110   0.4263   0.4889   0.5757
     0.5931   0.8627   0.9168   0.9925   1.0140   1.1917   1.2279   1.2651
     1.2751   1.2942   1.3120   1.3804   1.4264   1.4694   1.4946   1.6288
     1.6589   1.6873   1.7022   1.7508   1.7619   1.7793   1.7949   1.8121
     1.8342   1.8871   1.8940   1.9321   1.9531   1.9900   2.0410   2.1656
     2.2648   2.2889   2.3563   2.3904   2.4490   2.4905   2.4954   2.5343
     2.5654   2.5874   2.6051   2.6213   2.6649   2.6895   2.7254   2.7313
     2.7387   2.7573   2.7794   2.7923   2.8060   2.8213   2.8422   2.8557
     2.8633   2.8724   2.8833   2.8944   3.4258   3.4819   3.6128   3.6365
     3.9260   3.9935   4.0436   4.2716   4.6272   4.7268   4.8918   4.9608
     5.2488   5.2831   5.5054   5.5766   5.6296   5.6531   6.3464   6.3796
     6.4665   6.6961   7.2541   7.6162   7.6846   7.7036   7.7380   7.8007
     7.8756   7.9356   8.2071   8.3313   8.3867   8.4390   8.5157   8.5769
     8.7119   8.7993

     occupation numbers 
     1.0000   1.0000   1.0000   1.0000   1.0000   1.0000   1.0000   1.0000
     1.0000   1.0000   1.0000   1.0000   1.0000   1.0000   1.0000   1.0000
     1.0000   1.0000   1.0000   1.0000   1.0000   1.0000   1.0000   1.0000
     1.0000   1.0000   1.0000   1.0000   1.0000   1.0000   1.0000   1.0000
     1.0000   1.0000   1.0000   1.0000   1.0000   1.0000   1.0000   1.0000
     1.0000   1.0000   1.0000   1.0000   1.0000   1.0000   1.0000   1.0000
     1.0000   1.0000   1.0000   1.0000   1.0000   1.0000   1.0000   1.0000
     1.0000   1.0000   1.0000   1.0000   1.0000   1.0000   1.0000   1.0000
     1.0000   1.0000   1.0000   1.0000   1.0000   1.0000   1.0000   1.0000
     1.0000   1.0000   1.0000   1.0000   1.0000   1.0000   1.0000   1.0000
     1.0000   1.0000   1.0000   1.0000   1.0000   1.0000   1.0000   1.0000
     1.0000   1.0000   1.0000   1.0000   1.0000   1.0000   1.0000   1.0000
     1.0000   1.0000   1.0000   1.0000   1.0000   1.0000   1.0000   1.0000
     1.0000   1.0000   1.0000   1.0000   1.0000   1.0000   1.0000   1.0000
     1.0000   1.0000   1.0000   1.0000   1.0000   1.0000   1.0000   1.0000
     1.0000   1.0000   1.0000   1.0000   1.0000   1.0000   1.0000   1.0000
     1.0000   1.0000   1.0000   1.0000   1.0000   1.0000   1.0000   1.0000
     1.0000   1.0000   1.0000   1.0000   1.0000   1.0000   1.0000   1.0000
     1.0000   1.0000   1.0000   1.0000   1.0000   1.0000   1.0000   1.0000
     1.0000   1.0000   1.0000   1.0000   1.0000   1.0000   1.0000   0.9999
     0.9999   0.9997   0.9996   0.9994   0.9993   0.9983   0.9980   0.9976
     0.9975   0.9972   0.9970   0.9959   0.9950   0.9940   0.9934   0.9886
     0.9872   0.9858   0.9850   0.9820   0.9813   0.9801   0.9789   0.9776
     0.9758   0.9709   0.9703   0.9662   0.9638   0.9592   0.9522   0.9307
     0.9089   0.9029   0.8846   0.8744   0.8555   0.8411   0.8393   0.8248
     0.8126   0.8037   0.7964   0.7895   0.7703   0.7591   0.7422   0.7393
     0.7358   0.7267   0.7156   0.7091   0.7021   0.6942   0.6832   0.6760
     0.6719   0.6671   0.6612   0.6551   0.3483   0.3180   0.2522   0.2411
     0.1287   0.1088   0.0956   0.0499   0.0149   0.0101   0.0051   0.0038
     0.0010   0.0008   0.0003   0.0002   0.0001   0.0001   0.0000   0.0000
     0.0000   0.0000   0.0000   0.0000   0.0000   0.0000   0.0000   0.0000
     0.0000   0.0000   0.0000   0.0000   0.0000   0.0000   0.0000   0.0000
     0.0000   0.0000

     the Fermi energy is     3.1632 ev

!    total energy              =   -4440.29898279 Ry
     estimated scf accuracy    <          8.9E-09 Ry
     smearing contrib. (-TS)   =      -1.20730444 Ry
     internal energy E=F+TS    =   -4439.09167834 Ry

     The total energy is F=E-TS. E is the sum of the following terms:
     one-electron contribution =  -20890.26013485 Ry
     hartree contribution      =   10574.38845687 Ry
     xc contribution           =    -693.24664718 Ry
     ewald contribution        =    6846.21818044 Ry
     one-center paw contrib.   =    -276.19153362 Ry
      -> PAW hartree energy AE =      25.16365070 Ry
      -> PAW hartree energy PS =     -25.04752840 Ry
      -> PAW xc energy AE      =     -16.51763545 Ry
      -> PAW xc energy PS      =       6.87709194 Ry
      -> total E_H with PAW    =   10574.50457917 Ry
      -> total E_XC with PAW   =    -702.88719069 Ry

     convergence has been achieved in  50 iterations

     Writing all to output data dir /bsuhome/zayahcortright/scratch/pwscf.save/
 
     init_run     :      7.29s CPU      8.20s WALL (       1 calls)
     electrons    :    716.59s CPU    750.83s WALL (       1 calls)

     Called by init_run:
     wfcinit      :      5.89s CPU      6.09s WALL (       1 calls)
     wfcinit:atom :      0.05s CPU      0.07s WALL (       5 calls)
     wfcinit:wfcr :      5.57s CPU      5.70s WALL (       5 calls)
     potinit      :      0.17s CPU      0.21s WALL (       1 calls)
     hinit0       :      0.32s CPU      0.70s WALL (       1 calls)

     Called by electrons:
     c_bands      :    570.95s CPU    577.92s WALL (      50 calls)
     sum_band     :    109.09s CPU    124.15s WALL (      50 calls)
     v_of_rho     :      5.40s CPU      5.78s WALL (      51 calls)
     v_h          :      0.47s CPU      0.47s WALL (      51 calls)
     v_xc         :      4.93s CPU      5.31s WALL (      51 calls)
     newd         :     16.60s CPU     28.08s WALL (      51 calls)
     PAW_pot      :      1.61s CPU      1.64s WALL (      51 calls)
     mix_rho      :     12.57s CPU     12.95s WALL (      50 calls)

     Called by c_bands:
     init_us_2    :      7.02s CPU      7.12s WALL (     505 calls)
     init_us_2:cp :      7.02s CPU      7.11s WALL (     505 calls)
     cegterg      :    533.68s CPU    540.27s WALL (     250 calls)

     Called by sum_band:
     sum_band:wei :      0.35s CPU      0.36s WALL (      50 calls)
     sum_band:loo :     90.83s CPU     91.58s WALL (      50 calls)
     sum_band:buf :      1.39s CPU      1.45s WALL (     250 calls)
     sum_band:ini :      3.33s CPU      3.34s WALL (     250 calls)
     sum_band:cal :     19.86s CPU     19.93s WALL (     250 calls)
     sum_band:bec :      0.54s CPU      0.55s WALL (     250 calls)
     addusdens    :     16.24s CPU     30.46s WALL (      50 calls)
                                        0.00s GPU  (      50 calls)
     addusd:skk   :      0.33s CPU      0.98s WALL (     150 calls)
                                        0.00s GPU  (     150 calls)

     Called by *egterg:
     cdiaghg      :     57.06s CPU     57.31s WALL (    1339 calls)
     cegterg:over :     38.60s CPU     38.75s WALL (    1089 calls)
     cegterg:upda :     27.93s CPU     28.49s WALL (    1089 calls)
     cegterg:last :     62.29s CPU     62.50s WALL (     462 calls)
     cdiaghg:chol :      3.27s CPU      3.30s WALL (    1339 calls)
     cdiaghg:inve :      2.93s CPU      2.95s WALL (    1339 calls)
     cdiaghg:para :      7.43s CPU      7.47s WALL (    2678 calls)
     h_psi        :    291.41s CPU    294.54s WALL (    1344 calls)
     s_psi        :     40.48s CPU     40.60s WALL (    1344 calls)
     g_psi        :      1.11s CPU      1.11s WALL (    1089 calls)

     Called by h_psi:
     h_psi:calbec :     44.90s CPU     45.13s WALL (    1344 calls)
     vloc_psi     :    203.27s CPU    205.25s WALL (    1344 calls)
     add_vuspsi   :     40.22s CPU     40.43s WALL (    1344 calls)

     General routines
     calbec       :     64.75s CPU     65.05s WALL (    1594 calls)
     fft          :      3.59s CPU      3.65s WALL (     661 calls)
     ffts         :      4.67s CPU      4.71s WALL (    5406 calls)
     fftw         :    173.56s CPU    175.08s WALL (  336058 calls)
     interpolate  :      0.41s CPU      0.42s WALL (      51 calls)
 
     Parallel routines

     PAW routines
     PAW_pot      :      1.61s CPU      1.64s WALL (      51 calls)
 
     PWSCF        :  12m 5.28s CPU  12m43.29s WALL

 
   This run was terminated on:  22:56: 9  21Jun2024            

=------------------------------------------------------------------------------=
   JOB DONE.
=------------------------------------------------------------------------------=
