
     Program PWSCF v.7.2 starts on 21Jun2024 at 12:21:31 

     This program is part of the open-source Quantum ESPRESSO suite
     for quantum simulation of materials; please cite
         "P. Giannozzi et al., J. Phys.:Condens. Matter 21 395502 (2009);
         "P. Giannozzi et al., J. Phys.:Condens. Matter 29 465901 (2017);
         "P. Giannozzi et al., J. Chem. Phys. 152 154105 (2020);
          URL http://www.quantum-espresso.org", 
     in publications or presentations arising from this work. More details at
     http://www.quantum-espresso.org/quote

     Parallel version (MPI & OpenMP), running on      48 processor cores
     Number of MPI processes:                48
     Threads/MPI process:                     1

     MPI processes distributed on     1 nodes
     180164 MiB available memory on the printing compute node when the environment starts
 
     Reading input from espresso.pwi
Warning: card &CELL ignored
Warning: card / ignored
Warning: card &FCP ignored
Warning: card / ignored
Warning: card &RISM ignored
Warning: card / ignored

     Current dimensions of program PWSCF are:
     Max number of different atomic species (ntypx) = 10
     Max number of k-points (npk) =  40000
     Max angular momentum in pseudopotentials (lmaxx) =  4
     file O.pbe-n-kjpaw_psl.0.1.UPF: wavefunction(s)  2P renormalized
     signal trapping enabled: kill the code with -SIGUSR1 to stop cleanly the simulation 
 
     K-points division:     npool     =       2
     R & G space division:  proc/nbgrp/npool/nimage =      24
     Subspace diagonalization in iterative solution of the eigenvalue problem:
     one sub-group per band group will be used
     scalapack distributed-memory algorithm (size of sub-group:  3*  3 procs)

 
     Parallelization info
     --------------------
     sticks:   dense  smooth     PW     G-vecs:    dense   smooth      PW
     Min         350     175     47                61430    21716    3036
     Max         351     177     48                61449    21727    3041
     Sum        8421    4205   1137              1474595   521381   72913
 
     Using Slab Decomposition
 


     bravais-lattice index     =            0
     lattice parameter (alat)  =      14.8599  a.u.
     unit-cell volume          =    8305.1283 (a.u.)^3
     number of atoms/cell      =           49
     number of atomic types    =            4
     number of electrons       =       425.00
     number of Kohn-Sham states=          256
     kinetic-energy cutoff     =      60.0000  Ry
     charge density cutoff     =     480.0000  Ry
     scf convergence threshold =      1.0E-08
     mixing beta               =       0.1500
     number of iterations used =            8  local-TF  mixing
     Exchange-correlation= PBE
                           (   1   4   3   4   0   0   0)

     celldm(1)=  14.859904  celldm(2)=   0.000000  celldm(3)=   0.000000
     celldm(4)=   0.000000  celldm(5)=   0.000000  celldm(6)=   0.000000

     crystal axes: (cart. coord. in units of alat)
               a(1) = (   1.000000   0.000000   0.000000 )  
               a(2) = (   0.000000   1.000000   0.000000 )  
               a(3) = (   0.000000   0.000000   2.531036 )  

     reciprocal axes: (cart. coord. in units 2 pi/alat)
               b(1) = (  1.000000  0.000000  0.000000 )  
               b(2) = (  0.000000  1.000000  0.000000 )  
               b(3) = (  0.000000  0.000000  0.395095 )  


     PseudoPot. # 1 for Sr read from file:
     /bsuhome/zayahcortright/q-e/pseudo/Sr_pbe_v1.uspp.F.UPF
     MD5 check sum: 6b418c05fbe9db5448babca5e47b7a5b
     Pseudo is Ultrasoft + core correction, Zval = 10.0
     Generated by new atomic code, or converted to UPF format
     Using radial grid of  883 points,  6 beta functions with: 
                l(1) =   0
                l(2) =   0
                l(3) =   1
                l(4) =   1
                l(5) =   2
                l(6) =   2
     Q(r) pseudized with  6 coefficients,  rinner =    1.400   1.400   1.400
                                                       1.400   1.400

     PseudoPot. # 2 for O  read from file:
     /bsuhome/zayahcortright/q-e/pseudo/O.pbe-n-kjpaw_psl.0.1.UPF
     MD5 check sum: 0234752ac141de4415c5fc33072bef88
     Pseudo is Projector augmented-wave + core cor, Zval =  6.0
     Generated using "atomic" code by A. Dal Corso  v.5.0.99 svn rev. 10869
     Shape of augmentation charge: BESSEL
     Using radial grid of 1095 points,  4 beta functions with: 
                l(1) =   0
                l(2) =   0
                l(3) =   1
                l(4) =   1
     Q(r) pseudized with 0 coefficients 


     PseudoPot. # 3 for Co read from file:
     /bsuhome/zayahcortright/q-e/pseudo/Co_pbe_v1.2.uspp.F.UPF
     MD5 check sum: 5f91765df6ddd3222702df6e7b74a16d
     Pseudo is Ultrasoft + core correction, Zval = 17.0
     Generated by new atomic code, or converted to UPF format
     Using radial grid of  863 points,  6 beta functions with: 
                l(1) =   0
                l(2) =   0
                l(3) =   1
                l(4) =   1
                l(5) =   2
                l(6) =   2
     Q(r) pseudized with  8 coefficients,  rinner =    1.200   1.200   1.200
                                                       1.200   1.200

     PseudoPot. # 4 for H  read from file:
     /bsuhome/zayahcortright/q-e/pseudo/H.pbe-rrkjus_psl.1.0.0.UPF
     MD5 check sum: f52b6d4d1c606e5624b1dc7b2218f220
     Pseudo is Ultrasoft, Zval =  1.0
     Generated using "atomic" code by A. Dal Corso  v.5.1
     Using radial grid of  929 points,  2 beta functions with: 
                l(1) =   0
                l(2) =   0
     Q(r) pseudized with 0 coefficients 


     atomic species   valence    mass     pseudopotential
        Sr            10.00    87.62000     Sr( 1.00)
        O              6.00    15.99900     O ( 1.00)
        Co            17.00    58.93319     Co( 1.00)
        H              1.00     1.00800     H ( 1.00)

     No symmetry found


                                    s                        frac. trans.

      isym =  1     identity                                     

 cryst.   s( 1) = (     1          0          0      )
                  (     0          1          0      )
                  (     0          0          1      )

 cart.    s( 1) = (  1.0000000  0.0000000  0.0000000 )
                  (  0.0000000  1.0000000  0.0000000 )
                  (  0.0000000  0.0000000  1.0000000 )


   Cartesian axes

     site n.     atom                  positions (alat units)
         1           Sr  tau(   1) = (   0.2508693   0.7491307   1.7574407  )
         2           O   tau(   2) = (   0.4985141   0.5014859   1.7715967  )
         3           Sr  tau(   3) = (   0.7482398   0.7454518   1.7648669  )
         4           Sr  tau(   4) = (   0.7441748   0.2558252   1.7667843  )
         5           Sr  tau(   5) = (   0.2508693   0.7491307   1.2696799  )
         6           Sr  tau(   6) = (   0.2508693   0.7491307   0.7632319  )
         7           Co  tau(   7) = (   0.4998914   0.5001086   1.0164559  )
         8           Co  tau(   8) = (   0.4936915   0.5063085   1.5135603  )
         9           O   tau(   9) = (   0.4988895   0.7610401   1.0164559  )
        10           O   tau(  10) = (   0.2389599   0.5011105   1.0164559  )
        11           O   tau(  11) = (   0.0070918   0.7374880   1.0164559  )
        12           O   tau(  12) = (   0.0088340   0.7405089   1.5135603  )
        13           O   tau(  13) = (   0.5066944   0.7415376   1.5135603  )
        14           O   tau(  14) = (   0.2584624   0.4933056   1.5135603  )
        15           O   tau(  15) = (   0.4985141   0.5014859   0.7773880  )
        16           O   tau(  16) = (   0.4985141   0.5014859   1.2555238  )
        17           Sr  tau(  17) = (   0.7482398   0.7454518   0.7706582  )
        18           Sr  tau(  18) = (   0.7482398   0.7454518   1.2622536  )
        19           Sr  tau(  19) = (   0.7441748   0.2558252   0.7725755  )
        20           Sr  tau(  20) = (   0.7441748   0.2558252   1.2603363  )
        21           O   tau(  21) = (   0.7322655   0.0078049   1.5135603  )
        22           O   tau(  22) = (   0.7558175   0.4996027   1.5135603  )
        23           O   tau(  23) = (   0.5003973   0.2441825   1.5135603  )
        24           O   tau(  24) = (   0.7527966   0.4978604   1.0164559  )
        25           O   tau(  25) = (   0.5021396   0.2472034   1.0164559  )
        26           O   tau(  26) = (   0.7517679   0.0000000   1.0164559  )
        27           O   tau(  27) = (   0.0114961   0.4948124   1.7455321  )
        28           O   tau(  28) = (   0.0048226   0.0077944   1.7715967  )
        29           Sr  tau(  29) = (   0.2545482   0.2517602   1.7648669  )
        30           O   tau(  30) = (   0.5048017   0.0015068   1.7786929  )
        31           Co  tau(  31) = (   0.0056869   0.5006215   1.0164559  )
        32           Co  tau(  32) = (   0.0065315   0.4997770   1.5135603  )
        33           Co  tau(  33) = (   0.0061999   0.0064171   1.0164559  )
        34           Co  tau(  34) = (   0.0000000   0.0126169   1.5135603  )
        35           O   tau(  35) = (   0.0114961   0.4948124   1.2815885  )
        36           O   tau(  36) = (   0.0114961   0.4948124   0.7513233  )
        37           O   tau(  37) = (   0.0051979   0.2673486   1.0164559  )
        38           O   tau(  38) = (   0.0130029   0.2478461   1.5135603  )
        39           O   tau(  39) = (   0.0048226   0.0077944   0.7773880  )
        40           O   tau(  40) = (   0.0048226   0.0077944   1.2555238  )
        41           Sr  tau(  41) = (   0.2545482   0.2517602   0.7706582  )
        42           Sr  tau(  42) = (   0.2545482   0.2517602   1.2622536  )
        43           Co  tau(  43) = (   0.4989925   0.0073160   1.5135603  )
        44           Co  tau(  44) = (   0.4998370   0.0064714   1.0164559  )
        45           O   tau(  45) = (   0.5048017   0.0015068   0.7844841  )
        46           O   tau(  46) = (   0.5048017   0.0015068   1.2484277  )
        47           O   tau(  47) = (   0.2621260   0.0059111   1.5135603  )
        48           O   tau(  48) = (   0.2591051   0.0041689   1.0164559  )
        49           H   tau(  49) = (   0.0000000   0.2843291   2.1602013  )

   Crystallographic axes

     site n.     atom                  positions (cryst. coord.)
         1           Sr  tau(   1) = (  0.2508693  0.7491307  0.6943562  )
         2           O   tau(   2) = (  0.4985141  0.5014859  0.6999492  )
         3           Sr  tau(   3) = (  0.7482398  0.7454518  0.6972903  )
         4           Sr  tau(   4) = (  0.7441748  0.2558252  0.6980478  )
         5           Sr  tau(   5) = (  0.2508693  0.7491307  0.5016443  )
         6           Sr  tau(   6) = (  0.2508693  0.7491307  0.3015492  )
         7           Co  tau(   7) = (  0.4998914  0.5001086  0.4015968  )
         8           Co  tau(   8) = (  0.4936915  0.5063085  0.5980003  )
         9           O   tau(   9) = (  0.4988895  0.7610401  0.4015968  )
        10           O   tau(  10) = (  0.2389599  0.5011105  0.4015968  )
        11           O   tau(  11) = (  0.0070918  0.7374880  0.4015968  )
        12           O   tau(  12) = (  0.0088340  0.7405089  0.5980003  )
        13           O   tau(  13) = (  0.5066944  0.7415376  0.5980003  )
        14           O   tau(  14) = (  0.2584624  0.4933056  0.5980003  )
        15           O   tau(  15) = (  0.4985141  0.5014859  0.3071422  )
        16           O   tau(  16) = (  0.4985141  0.5014859  0.4960513  )
        17           Sr  tau(  17) = (  0.7482398  0.7454518  0.3044833  )
        18           Sr  tau(  18) = (  0.7482398  0.7454518  0.4987103  )
        19           Sr  tau(  19) = (  0.7441748  0.2558252  0.3052408  )
        20           Sr  tau(  20) = (  0.7441748  0.2558252  0.4979527  )
        21           O   tau(  21) = (  0.7322655  0.0078049  0.5980003  )
        22           O   tau(  22) = (  0.7558175  0.4996027  0.5980003  )
        23           O   tau(  23) = (  0.5003973  0.2441825  0.5980003  )
        24           O   tau(  24) = (  0.7527966  0.4978604  0.4015968  )
        25           O   tau(  25) = (  0.5021396  0.2472034  0.4015968  )
        26           O   tau(  26) = (  0.7517679  0.0000000  0.4015968  )
        27           O   tau(  27) = (  0.0114961  0.4948124  0.6896512  )
        28           O   tau(  28) = (  0.0048226  0.0077944  0.6999492  )
        29           Sr  tau(  29) = (  0.2545482  0.2517602  0.6972903  )
        30           O   tau(  30) = (  0.5048017  0.0015068  0.7027529  )
        31           Co  tau(  31) = (  0.0056869  0.5006215  0.4015968  )
        32           Co  tau(  32) = (  0.0065315  0.4997770  0.5980003  )
        33           Co  tau(  33) = (  0.0061999  0.0064171  0.4015968  )
        34           Co  tau(  34) = (  0.0000000  0.0126169  0.5980003  )
        35           O   tau(  35) = (  0.0114961  0.4948124  0.5063494  )
        36           O   tau(  36) = (  0.0114961  0.4948124  0.2968442  )
        37           O   tau(  37) = (  0.0051979  0.2673486  0.4015968  )
        38           O   tau(  38) = (  0.0130029  0.2478461  0.5980003  )
        39           O   tau(  39) = (  0.0048226  0.0077944  0.3071422  )
        40           O   tau(  40) = (  0.0048226  0.0077944  0.4960513  )
        41           Sr  tau(  41) = (  0.2545482  0.2517602  0.3044833  )
        42           Sr  tau(  42) = (  0.2545482  0.2517602  0.4987103  )
        43           Co  tau(  43) = (  0.4989925  0.0073160  0.5980003  )
        44           Co  tau(  44) = (  0.4998370  0.0064714  0.4015968  )
        45           O   tau(  45) = (  0.5048017  0.0015068  0.3099459  )
        46           O   tau(  46) = (  0.5048017  0.0015068  0.4932477  )
        47           O   tau(  47) = (  0.2621260  0.0059111  0.5980003  )
        48           O   tau(  48) = (  0.2591051  0.0041689  0.4015968  )
        49           H   tau(  49) = (  0.0000000  0.2843291  0.8534850  )

     number of k points=    10  Gaussian smearing, width (Ry)=  0.0700
                       cart. coord. in units 2pi/alat
        k(    1) = (   0.0000000   0.0000000   0.0000000), wk =   0.1250000
        k(    2) = (   0.0000000   0.2500000   0.0000000), wk =   0.2500000
        k(    3) = (   0.0000000  -0.5000000   0.0000000), wk =   0.1250000
        k(    4) = (   0.2500000   0.2500000   0.0000000), wk =   0.2500000
        k(    5) = (   0.2500000  -0.5000000   0.0000000), wk =   0.2500000
        k(    6) = (  -0.5000000  -0.5000000   0.0000000), wk =   0.1250000
        k(    7) = (   0.2500000   0.0000000   0.0000000), wk =   0.2500000
        k(    8) = (  -0.5000000   0.0000000   0.0000000), wk =   0.1250000
        k(    9) = (  -0.2500000   0.2500000   0.0000000), wk =   0.2500000
        k(   10) = (  -0.5000000   0.2500000   0.0000000), wk =   0.2500000

                       cryst. coord.
        k(    1) = (   0.0000000   0.0000000   0.0000000), wk =   0.1250000
        k(    2) = (   0.0000000   0.2500000   0.0000000), wk =   0.2500000
        k(    3) = (   0.0000000  -0.5000000   0.0000000), wk =   0.1250000
        k(    4) = (   0.2500000   0.2500000   0.0000000), wk =   0.2500000
        k(    5) = (   0.2500000  -0.5000000   0.0000000), wk =   0.2500000
        k(    6) = (  -0.5000000  -0.5000000   0.0000000), wk =   0.1250000
        k(    7) = (   0.2500000   0.0000000   0.0000000), wk =   0.2500000
        k(    8) = (  -0.5000000   0.0000000   0.0000000), wk =   0.1250000
        k(    9) = (  -0.2500000   0.2500000   0.0000000), wk =   0.2500000
        k(   10) = (  -0.5000000   0.2500000   0.0000000), wk =   0.2500000

     Dense  grid:  1474595 G-vectors     FFT dimensions: ( 108, 108, 270)

     Smooth grid:   521381 G-vectors     FFT dimensions: (  75,  75, 192)

     Dynamical RAM for                 wfc:      10.61 MB

     Dynamical RAM for     wfc (w. buffer):      63.63 MB

     Dynamical RAM for           str. fact:       3.75 MB

     Dynamical RAM for           local pot:       0.00 MB

     Dynamical RAM for          nlocal pot:      24.28 MB

     Dynamical RAM for                qrad:       7.03 MB

     Dynamical RAM for          rho,v,vnew:       6.02 MB

     Dynamical RAM for               rhoin:       2.01 MB

     Dynamical RAM for            rho*nmix:      15.00 MB

     Dynamical RAM for           G-vectors:       3.68 MB

     Dynamical RAM for          h,s,v(r/c):       1.32 MB

     Dynamical RAM for          <psi|beta>:       2.29 MB

     Dynamical RAM for                 psi:      21.21 MB

     Dynamical RAM for                hpsi:      21.21 MB

     Dynamical RAM for                spsi:      21.21 MB

     Dynamical RAM for      wfcinit/wfcrot:      34.09 MB

     Dynamical RAM for           addusdens:     100.79 MB

     Estimated static dynamical RAM per process >     120.42 MB

     Estimated max dynamical RAM per process >     236.21 MB

     Estimated total dynamical RAM >      10.72 GB

     Check: negative core charge=   -0.000004

     Initial potential from superposition of free atoms

     starting charge     416.5961, renormalised to     425.0000

     negative rho (up, down):  7.827E-01 0.000E+00
     Starting wfcs are  373 randomized atomic wfcs
     Checking if some PAW data can be deallocated... 
       PAW data deallocated on   20 nodes for type:  2

     total cpu time spent up to now is        8.4 secs

     Self-consistent Calculation

     iteration #  1     ecut=    60.00 Ry     beta= 0.15
     Davidson diagonalization with overlap

---- Real-time Memory Report at c_bands before calling an iterative solver
             0 MiB given to the printing process from OS
             0 MiB allocation reported by mallinfo(arena+hblkhd)
        170493 MiB available memory on the node where the printing process lives
------------------
     ethr =  1.00E-02,  avg # of iterations =  2.0

     negative rho (up, down):  7.718E-01 0.000E+00

     total cpu time spent up to now is       22.7 secs

     total energy              =   -4404.75713142 Ry
     estimated scf accuracy    <      42.20118343 Ry

     iteration #  2     ecut=    60.00 Ry     beta= 0.15
     Davidson diagonalization with overlap

---- Real-time Memory Report at c_bands before calling an iterative solver
             0 MiB given to the printing process from OS
             0 MiB allocation reported by mallinfo(arena+hblkhd)
        170720 MiB available memory on the node where the printing process lives
------------------
     ethr =  9.93E-03,  avg # of iterations =  1.0

     negative rho (up, down):  7.532E-01 0.000E+00

     total cpu time spent up to now is       35.2 secs

     total energy              =   -4400.02794919 Ry
     estimated scf accuracy    <      26.65145465 Ry

     iteration #  3     ecut=    60.00 Ry     beta= 0.15
     Davidson diagonalization with overlap

---- Real-time Memory Report at c_bands before calling an iterative solver
             0 MiB given to the printing process from OS
             0 MiB allocation reported by mallinfo(arena+hblkhd)
        169983 MiB available memory on the node where the printing process lives
------------------
     ethr =  6.27E-03,  avg # of iterations =  2.0

     negative rho (up, down):  7.544E-01 0.000E+00

     total cpu time spent up to now is       49.0 secs

     total energy              =   -4402.38802160 Ry
     estimated scf accuracy    <      49.29309284 Ry

     iteration #  4     ecut=    60.00 Ry     beta= 0.15
     Davidson diagonalization with overlap

---- Real-time Memory Report at c_bands before calling an iterative solver
             0 MiB given to the printing process from OS
             0 MiB allocation reported by mallinfo(arena+hblkhd)
        169855 MiB available memory on the node where the printing process lives
------------------
     ethr =  6.27E-03,  avg # of iterations =  1.0

     negative rho (up, down):  7.411E-01 0.000E+00

     total cpu time spent up to now is       61.0 secs

     total energy              =   -4401.64846795 Ry
     estimated scf accuracy    <      29.39593084 Ry

     iteration #  5     ecut=    60.00 Ry     beta= 0.15
     Davidson diagonalization with overlap

---- Real-time Memory Report at c_bands before calling an iterative solver
             0 MiB given to the printing process from OS
             0 MiB allocation reported by mallinfo(arena+hblkhd)
        169839 MiB available memory on the node where the printing process lives
------------------
     ethr =  6.27E-03,  avg # of iterations =  1.0

     negative rho (up, down):  7.472E-01 0.000E+00

     total cpu time spent up to now is       73.1 secs

     total energy              =   -4399.82202265 Ry
     estimated scf accuracy    <      43.91611815 Ry

     iteration #  6     ecut=    60.00 Ry     beta= 0.15
     Davidson diagonalization with overlap

---- Real-time Memory Report at c_bands before calling an iterative solver
             0 MiB given to the printing process from OS
             0 MiB allocation reported by mallinfo(arena+hblkhd)
        169821 MiB available memory on the node where the printing process lives
------------------
     ethr =  6.27E-03,  avg # of iterations =  1.0

     negative rho (up, down):  7.423E-01 0.000E+00

     total cpu time spent up to now is       85.5 secs

     total energy              =   -4400.65258351 Ry
     estimated scf accuracy    <      11.97334638 Ry

     iteration #  7     ecut=    60.00 Ry     beta= 0.15
     Davidson diagonalization with overlap

---- Real-time Memory Report at c_bands before calling an iterative solver
             0 MiB given to the printing process from OS
             0 MiB allocation reported by mallinfo(arena+hblkhd)
        169803 MiB available memory on the node where the printing process lives
------------------
     ethr =  2.82E-03,  avg # of iterations =  1.1

     negative rho (up, down):  7.444E-01 0.000E+00

     total cpu time spent up to now is       97.7 secs

     total energy              =   -4400.81724769 Ry
     estimated scf accuracy    <       4.04822988 Ry

     iteration #  8     ecut=    60.00 Ry     beta= 0.15
     Davidson diagonalization with overlap

---- Real-time Memory Report at c_bands before calling an iterative solver
             0 MiB given to the printing process from OS
             0 MiB allocation reported by mallinfo(arena+hblkhd)
        169784 MiB available memory on the node where the printing process lives
------------------
     ethr =  9.53E-04,  avg # of iterations =  1.5

     negative rho (up, down):  7.538E-01 0.000E+00

     total cpu time spent up to now is      110.2 secs

     total energy              =   -4400.29602863 Ry
     estimated scf accuracy    <       3.37834371 Ry

     iteration #  9     ecut=    60.00 Ry     beta= 0.15
     Davidson diagonalization with overlap

---- Real-time Memory Report at c_bands before calling an iterative solver
             0 MiB given to the printing process from OS
             0 MiB allocation reported by mallinfo(arena+hblkhd)
        169755 MiB available memory on the node where the printing process lives
------------------
     ethr =  7.95E-04,  avg # of iterations =  4.1

     negative rho (up, down):  7.758E-01 0.000E+00

     total cpu time spent up to now is      125.4 secs

     total energy              =   -4399.77534468 Ry
     estimated scf accuracy    <      44.88926592 Ry

     iteration # 10     ecut=    60.00 Ry     beta= 0.15
     Davidson diagonalization with overlap

---- Real-time Memory Report at c_bands before calling an iterative solver
             0 MiB given to the printing process from OS
             0 MiB allocation reported by mallinfo(arena+hblkhd)
        169637 MiB available memory on the node where the printing process lives
------------------
     ethr =  7.95E-04,  avg # of iterations =  9.7

     negative rho (up, down):  7.780E-01 0.000E+00

     total cpu time spent up to now is      143.8 secs

     total energy              =   -4399.83176577 Ry
     estimated scf accuracy    <      11.56646277 Ry

     iteration # 11     ecut=    60.00 Ry     beta= 0.15
     Davidson diagonalization with overlap

---- Real-time Memory Report at c_bands before calling an iterative solver
             0 MiB given to the printing process from OS
             0 MiB allocation reported by mallinfo(arena+hblkhd)
        169295 MiB available memory on the node where the printing process lives
------------------
     ethr =  7.95E-04,  avg # of iterations =  1.1

     negative rho (up, down):  7.812E-01 0.000E+00

     total cpu time spent up to now is      156.3 secs

     total energy              =   -4400.12389800 Ry
     estimated scf accuracy    <       1.33373217 Ry

     iteration # 12     ecut=    60.00 Ry     beta= 0.15
     Davidson diagonalization with overlap

---- Real-time Memory Report at c_bands before calling an iterative solver
             0 MiB given to the printing process from OS
             0 MiB allocation reported by mallinfo(arena+hblkhd)
        169300 MiB available memory on the node where the printing process lives
------------------
     ethr =  3.14E-04,  avg # of iterations =  1.3

     negative rho (up, down):  7.886E-01 0.000E+00

     total cpu time spent up to now is      168.9 secs

     total energy              =   -4400.11044179 Ry
     estimated scf accuracy    <       0.81319223 Ry

     iteration # 13     ecut=    60.00 Ry     beta= 0.15
     Davidson diagonalization with overlap

---- Real-time Memory Report at c_bands before calling an iterative solver
             0 MiB given to the printing process from OS
             0 MiB allocation reported by mallinfo(arena+hblkhd)
        169321 MiB available memory on the node where the printing process lives
------------------
     ethr =  1.91E-04,  avg # of iterations =  6.3

     negative rho (up, down):  8.003E-01 0.000E+00

     total cpu time spent up to now is      184.4 secs

     total energy              =   -4400.10756968 Ry
     estimated scf accuracy    <       1.58994348 Ry

     iteration # 14     ecut=    60.00 Ry     beta= 0.15
     Davidson diagonalization with overlap

---- Real-time Memory Report at c_bands before calling an iterative solver
             0 MiB given to the printing process from OS
             0 MiB allocation reported by mallinfo(arena+hblkhd)
        169281 MiB available memory on the node where the printing process lives
------------------
     ethr =  1.91E-04,  avg # of iterations =  3.4

     negative rho (up, down):  8.040E-01 0.000E+00

     total cpu time spent up to now is      198.3 secs

     total energy              =   -4400.01547714 Ry
     estimated scf accuracy    <       2.03324607 Ry

     iteration # 15     ecut=    60.00 Ry     beta= 0.15
     Davidson diagonalization with overlap

---- Real-time Memory Report at c_bands before calling an iterative solver
             0 MiB given to the printing process from OS
             0 MiB allocation reported by mallinfo(arena+hblkhd)
        169277 MiB available memory on the node where the printing process lives
------------------
     ethr =  1.91E-04,  avg # of iterations =  5.4

     negative rho (up, down):  8.080E-01 0.000E+00

     total cpu time spent up to now is      213.1 secs

     total energy              =   -4400.05289735 Ry
     estimated scf accuracy    <       0.37596788 Ry

     iteration # 16     ecut=    60.00 Ry     beta= 0.15
     Davidson diagonalization with overlap

---- Real-time Memory Report at c_bands before calling an iterative solver
             0 MiB given to the printing process from OS
             0 MiB allocation reported by mallinfo(arena+hblkhd)
        169270 MiB available memory on the node where the printing process lives
------------------
     ethr =  8.85E-05,  avg # of iterations =  6.8

     negative rho (up, down):  8.116E-01 0.000E+00

     total cpu time spent up to now is      228.5 secs

     total energy              =   -4400.02901446 Ry
     estimated scf accuracy    <       0.31677989 Ry

     iteration # 17     ecut=    60.00 Ry     beta= 0.15
     Davidson diagonalization with overlap

---- Real-time Memory Report at c_bands before calling an iterative solver
             0 MiB given to the printing process from OS
             0 MiB allocation reported by mallinfo(arena+hblkhd)
        169215 MiB available memory on the node where the printing process lives
------------------
     ethr =  7.45E-05,  avg # of iterations =  2.4

     negative rho (up, down):  8.202E-01 0.000E+00

     total cpu time spent up to now is      242.3 secs

     total energy              =   -4399.95100572 Ry
     estimated scf accuracy    <       0.26662036 Ry

     iteration # 18     ecut=    60.00 Ry     beta= 0.15
     Davidson diagonalization with overlap

---- Real-time Memory Report at c_bands before calling an iterative solver
             0 MiB given to the printing process from OS
             0 MiB allocation reported by mallinfo(arena+hblkhd)
        169227 MiB available memory on the node where the printing process lives
------------------
     ethr =  6.27E-05,  avg # of iterations = 13.0

     negative rho (up, down):  8.237E-01 0.000E+00

     total cpu time spent up to now is      261.4 secs

     total energy              =   -4399.94801857 Ry
     estimated scf accuracy    <       0.15850264 Ry

     iteration # 19     ecut=    60.00 Ry     beta= 0.15
     Davidson diagonalization with overlap

---- Real-time Memory Report at c_bands before calling an iterative solver
             0 MiB given to the printing process from OS
             0 MiB allocation reported by mallinfo(arena+hblkhd)
        169187 MiB available memory on the node where the printing process lives
------------------
     ethr =  3.73E-05,  avg # of iterations =  3.0

     negative rho (up, down):  8.227E-01 0.000E+00

     total cpu time spent up to now is      275.4 secs

     total energy              =   -4399.94734730 Ry
     estimated scf accuracy    <       0.11988296 Ry

     iteration # 20     ecut=    60.00 Ry     beta= 0.15
     Davidson diagonalization with overlap

---- Real-time Memory Report at c_bands before calling an iterative solver
             0 MiB given to the printing process from OS
             0 MiB allocation reported by mallinfo(arena+hblkhd)
        169174 MiB available memory on the node where the printing process lives
------------------
     ethr =  2.82E-05,  avg # of iterations =  2.1

     negative rho (up, down):  8.114E-01 0.000E+00

     total cpu time spent up to now is      288.6 secs

     total energy              =   -4399.93143501 Ry
     estimated scf accuracy    <       0.08906620 Ry

     iteration # 21     ecut=    60.00 Ry     beta= 0.15
     Davidson diagonalization with overlap

---- Real-time Memory Report at c_bands before calling an iterative solver
             0 MiB given to the printing process from OS
             0 MiB allocation reported by mallinfo(arena+hblkhd)
        169188 MiB available memory on the node where the printing process lives
------------------
     ethr =  2.10E-05,  avg # of iterations =  9.7

     negative rho (up, down):  8.117E-01 0.000E+00

     total cpu time spent up to now is      305.6 secs

     total energy              =   -4399.92464561 Ry
     estimated scf accuracy    <       0.05317207 Ry

     iteration # 22     ecut=    60.00 Ry     beta= 0.15
     Davidson diagonalization with overlap

---- Real-time Memory Report at c_bands before calling an iterative solver
             0 MiB given to the printing process from OS
             0 MiB allocation reported by mallinfo(arena+hblkhd)
        169147 MiB available memory on the node where the printing process lives
------------------
     c_bands:  1 eigenvalues not converged
     ethr =  1.25E-05,  avg # of iterations = 11.5

     negative rho (up, down):  8.046E-01 0.000E+00

     total cpu time spent up to now is      323.9 secs

     total energy              =   -4399.92319238 Ry
     estimated scf accuracy    <       0.02984237 Ry

     iteration # 23     ecut=    60.00 Ry     beta= 0.15
     Davidson diagonalization with overlap

---- Real-time Memory Report at c_bands before calling an iterative solver
             0 MiB given to the printing process from OS
             0 MiB allocation reported by mallinfo(arena+hblkhd)
        169162 MiB available memory on the node where the printing process lives
------------------
     ethr =  7.02E-06,  avg # of iterations =  4.3

     negative rho (up, down):  7.985E-01 0.000E+00

     total cpu time spent up to now is      338.6 secs

     total energy              =   -4399.92086338 Ry
     estimated scf accuracy    <       0.02142231 Ry

     iteration # 24     ecut=    60.00 Ry     beta= 0.15
     Davidson diagonalization with overlap

---- Real-time Memory Report at c_bands before calling an iterative solver
             0 MiB given to the printing process from OS
             0 MiB allocation reported by mallinfo(arena+hblkhd)
        169140 MiB available memory on the node where the printing process lives
------------------
     c_bands:  1 eigenvalues not converged
     ethr =  5.04E-06,  avg # of iterations = 14.2

     negative rho (up, down):  7.968E-01 0.000E+00

     total cpu time spent up to now is      358.0 secs

     total energy              =   -4399.92095768 Ry
     estimated scf accuracy    <       0.01130348 Ry

     iteration # 25     ecut=    60.00 Ry     beta= 0.15
     Davidson diagonalization with overlap

---- Real-time Memory Report at c_bands before calling an iterative solver
             0 MiB given to the printing process from OS
             0 MiB allocation reported by mallinfo(arena+hblkhd)
        169142 MiB available memory on the node where the printing process lives
------------------
     c_bands:  1 eigenvalues not converged
     ethr =  2.66E-06,  avg # of iterations =  4.8

     negative rho (up, down):  7.921E-01 0.000E+00

     total cpu time spent up to now is      373.0 secs

     total energy              =   -4399.92015380 Ry
     estimated scf accuracy    <       0.00880436 Ry

     iteration # 26     ecut=    60.00 Ry     beta= 0.15
     Davidson diagonalization with overlap

---- Real-time Memory Report at c_bands before calling an iterative solver
             0 MiB given to the printing process from OS
             0 MiB allocation reported by mallinfo(arena+hblkhd)
        169139 MiB available memory on the node where the printing process lives
------------------
     ethr =  2.07E-06,  avg # of iterations =  6.1

     negative rho (up, down):  7.911E-01 0.000E+00

     total cpu time spent up to now is      388.5 secs

     total energy              =   -4399.91981694 Ry
     estimated scf accuracy    <       0.00516328 Ry

     iteration # 27     ecut=    60.00 Ry     beta= 0.15
     Davidson diagonalization with overlap

---- Real-time Memory Report at c_bands before calling an iterative solver
             0 MiB given to the printing process from OS
             0 MiB allocation reported by mallinfo(arena+hblkhd)
        169114 MiB available memory on the node where the printing process lives
------------------
     ethr =  1.21E-06,  avg # of iterations =  5.9

     negative rho (up, down):  7.963E-01 0.000E+00

     total cpu time spent up to now is      404.3 secs

     total energy              =   -4399.92002187 Ry
     estimated scf accuracy    <       0.00275337 Ry

     iteration # 28     ecut=    60.00 Ry     beta= 0.15
     Davidson diagonalization with overlap

---- Real-time Memory Report at c_bands before calling an iterative solver
             0 MiB given to the printing process from OS
             0 MiB allocation reported by mallinfo(arena+hblkhd)
        169099 MiB available memory on the node where the printing process lives
------------------
     c_bands:  1 eigenvalues not converged
     ethr =  6.48E-07,  avg # of iterations = 11.1

     negative rho (up, down):  7.940E-01 0.000E+00

     total cpu time spent up to now is      422.5 secs

     total energy              =   -4399.91976646 Ry
     estimated scf accuracy    <       0.00145218 Ry

     iteration # 29     ecut=    60.00 Ry     beta= 0.15
     Davidson diagonalization with overlap

---- Real-time Memory Report at c_bands before calling an iterative solver
             0 MiB given to the printing process from OS
             0 MiB allocation reported by mallinfo(arena+hblkhd)
        169090 MiB available memory on the node where the printing process lives
------------------
     ethr =  3.42E-07,  avg # of iterations =  9.6

     negative rho (up, down):  7.945E-01 0.000E+00

     total cpu time spent up to now is      439.6 secs

     total energy              =   -4399.91964010 Ry
     estimated scf accuracy    <       0.00068691 Ry

     iteration # 30     ecut=    60.00 Ry     beta= 0.15
     Davidson diagonalization with overlap

---- Real-time Memory Report at c_bands before calling an iterative solver
             0 MiB given to the printing process from OS
             0 MiB allocation reported by mallinfo(arena+hblkhd)
        169073 MiB available memory on the node where the printing process lives
------------------
     ethr =  1.62E-07,  avg # of iterations =  9.6

     negative rho (up, down):  7.947E-01 0.000E+00

     total cpu time spent up to now is      459.3 secs

     total energy              =   -4399.91965263 Ry
     estimated scf accuracy    <       0.00018212 Ry

     iteration # 31     ecut=    60.00 Ry     beta= 0.15
     Davidson diagonalization with overlap

---- Real-time Memory Report at c_bands before calling an iterative solver
             0 MiB given to the printing process from OS
             0 MiB allocation reported by mallinfo(arena+hblkhd)
        169081 MiB available memory on the node where the printing process lives
------------------
     ethr =  4.29E-08,  avg # of iterations =  2.9

     negative rho (up, down):  7.942E-01 0.000E+00

     total cpu time spent up to now is      475.8 secs

     total energy              =   -4399.91967531 Ry
     estimated scf accuracy    <       0.00005305 Ry

     iteration # 32     ecut=    60.00 Ry     beta= 0.15
     Davidson diagonalization with overlap

---- Real-time Memory Report at c_bands before calling an iterative solver
             0 MiB given to the printing process from OS
             0 MiB allocation reported by mallinfo(arena+hblkhd)
        169051 MiB available memory on the node where the printing process lives
------------------
     ethr =  1.25E-08,  avg # of iterations =  2.0

     negative rho (up, down):  7.938E-01 0.000E+00

     total cpu time spent up to now is      489.3 secs

     total energy              =   -4399.91967828 Ry
     estimated scf accuracy    <       0.00004528 Ry

     iteration # 33     ecut=    60.00 Ry     beta= 0.15
     Davidson diagonalization with overlap

---- Real-time Memory Report at c_bands before calling an iterative solver
             0 MiB given to the printing process from OS
             0 MiB allocation reported by mallinfo(arena+hblkhd)
        169062 MiB available memory on the node where the printing process lives
------------------
     ethr =  1.07E-08,  avg # of iterations =  1.8

     negative rho (up, down):  7.926E-01 0.000E+00

     total cpu time spent up to now is      503.0 secs

     total energy              =   -4399.91968588 Ry
     estimated scf accuracy    <       0.00003084 Ry

     iteration # 34     ecut=    60.00 Ry     beta= 0.15
     Davidson diagonalization with overlap

---- Real-time Memory Report at c_bands before calling an iterative solver
             0 MiB given to the printing process from OS
             0 MiB allocation reported by mallinfo(arena+hblkhd)
        169073 MiB available memory on the node where the printing process lives
------------------
     ethr =  7.26E-09,  avg # of iterations =  2.6

     negative rho (up, down):  7.927E-01 0.000E+00

     total cpu time spent up to now is      517.8 secs

     total energy              =   -4399.91968798 Ry
     estimated scf accuracy    <       0.00001266 Ry

     iteration # 35     ecut=    60.00 Ry     beta= 0.15
     Davidson diagonalization with overlap

---- Real-time Memory Report at c_bands before calling an iterative solver
             0 MiB given to the printing process from OS
             0 MiB allocation reported by mallinfo(arena+hblkhd)
        169077 MiB available memory on the node where the printing process lives
------------------
     ethr =  2.98E-09,  avg # of iterations =  2.1

     negative rho (up, down):  7.927E-01 0.000E+00

     total cpu time spent up to now is      531.2 secs

     total energy              =   -4399.91968849 Ry
     estimated scf accuracy    <       0.00000992 Ry

     iteration # 36     ecut=    60.00 Ry     beta= 0.15
     Davidson diagonalization with overlap

---- Real-time Memory Report at c_bands before calling an iterative solver
             0 MiB given to the printing process from OS
             0 MiB allocation reported by mallinfo(arena+hblkhd)
        169074 MiB available memory on the node where the printing process lives
------------------
     ethr =  2.34E-09,  avg # of iterations =  2.0

     negative rho (up, down):  7.927E-01 0.000E+00

     total cpu time spent up to now is      544.8 secs

     total energy              =   -4399.91968858 Ry
     estimated scf accuracy    <       0.00000714 Ry

     iteration # 37     ecut=    60.00 Ry     beta= 0.15
     Davidson diagonalization with overlap

---- Real-time Memory Report at c_bands before calling an iterative solver
             0 MiB given to the printing process from OS
             0 MiB allocation reported by mallinfo(arena+hblkhd)
        169076 MiB available memory on the node where the printing process lives
------------------
     ethr =  1.68E-09,  avg # of iterations =  2.1

     negative rho (up, down):  7.927E-01 0.000E+00

     total cpu time spent up to now is      558.4 secs

     total energy              =   -4399.91968946 Ry
     estimated scf accuracy    <       0.00000519 Ry

     iteration # 38     ecut=    60.00 Ry     beta= 0.15
     Davidson diagonalization with overlap

---- Real-time Memory Report at c_bands before calling an iterative solver
             0 MiB given to the printing process from OS
             0 MiB allocation reported by mallinfo(arena+hblkhd)
        169078 MiB available memory on the node where the printing process lives
------------------
     ethr =  1.22E-09,  avg # of iterations =  1.9

     negative rho (up, down):  7.927E-01 0.000E+00

     total cpu time spent up to now is      572.1 secs

     total energy              =   -4399.91969074 Ry
     estimated scf accuracy    <       0.00000457 Ry

     iteration # 39     ecut=    60.00 Ry     beta= 0.15
     Davidson diagonalization with overlap

---- Real-time Memory Report at c_bands before calling an iterative solver
             0 MiB given to the printing process from OS
             0 MiB allocation reported by mallinfo(arena+hblkhd)
        169089 MiB available memory on the node where the printing process lives
------------------
     ethr =  1.07E-09,  avg # of iterations =  2.4

     negative rho (up, down):  7.926E-01 0.000E+00

     total cpu time spent up to now is      585.7 secs

     total energy              =   -4399.91969161 Ry
     estimated scf accuracy    <       0.00000406 Ry

     iteration # 40     ecut=    60.00 Ry     beta= 0.15
     Davidson diagonalization with overlap

---- Real-time Memory Report at c_bands before calling an iterative solver
             0 MiB given to the printing process from OS
             0 MiB allocation reported by mallinfo(arena+hblkhd)
        169091 MiB available memory on the node where the printing process lives
------------------
     ethr =  9.55E-10,  avg # of iterations =  2.1

     negative rho (up, down):  7.926E-01 0.000E+00

     total cpu time spent up to now is      599.3 secs

     total energy              =   -4399.91969238 Ry
     estimated scf accuracy    <       0.00000351 Ry

     iteration # 41     ecut=    60.00 Ry     beta= 0.15
     Davidson diagonalization with overlap

---- Real-time Memory Report at c_bands before calling an iterative solver
             0 MiB given to the printing process from OS
             0 MiB allocation reported by mallinfo(arena+hblkhd)
        169091 MiB available memory on the node where the printing process lives
------------------
     ethr =  8.25E-10,  avg # of iterations =  3.3

     negative rho (up, down):  7.925E-01 0.000E+00

     total cpu time spent up to now is      613.2 secs

     total energy              =   -4399.91969245 Ry
     estimated scf accuracy    <       0.00000236 Ry

     iteration # 42     ecut=    60.00 Ry     beta= 0.15
     Davidson diagonalization with overlap

---- Real-time Memory Report at c_bands before calling an iterative solver
             0 MiB given to the printing process from OS
             0 MiB allocation reported by mallinfo(arena+hblkhd)
        169085 MiB available memory on the node where the printing process lives
------------------
     ethr =  5.54E-10,  avg # of iterations =  2.2

     negative rho (up, down):  7.925E-01 0.000E+00

     total cpu time spent up to now is      626.7 secs

     total energy              =   -4399.91969244 Ry
     estimated scf accuracy    <       0.00000189 Ry

     iteration # 43     ecut=    60.00 Ry     beta= 0.15
     Davidson diagonalization with overlap

---- Real-time Memory Report at c_bands before calling an iterative solver
             0 MiB given to the printing process from OS
             0 MiB allocation reported by mallinfo(arena+hblkhd)
        169088 MiB available memory on the node where the printing process lives
------------------
     ethr =  4.46E-10,  avg # of iterations =  1.1

     negative rho (up, down):  7.924E-01 0.000E+00

     total cpu time spent up to now is      639.2 secs

     total energy              =   -4399.91969251 Ry
     estimated scf accuracy    <       0.00000157 Ry

     iteration # 44     ecut=    60.00 Ry     beta= 0.15
     Davidson diagonalization with overlap

---- Real-time Memory Report at c_bands before calling an iterative solver
             0 MiB given to the printing process from OS
             0 MiB allocation reported by mallinfo(arena+hblkhd)
        169088 MiB available memory on the node where the printing process lives
------------------
     ethr =  3.69E-10,  avg # of iterations =  2.2

     negative rho (up, down):  7.924E-01 0.000E+00

     total cpu time spent up to now is      652.8 secs

     total energy              =   -4399.91969243 Ry
     estimated scf accuracy    <       0.00000083 Ry

     iteration # 45     ecut=    60.00 Ry     beta= 0.15
     Davidson diagonalization with overlap

---- Real-time Memory Report at c_bands before calling an iterative solver
             0 MiB given to the printing process from OS
             0 MiB allocation reported by mallinfo(arena+hblkhd)
        169091 MiB available memory on the node where the printing process lives
------------------
     ethr =  1.96E-10,  avg # of iterations =  2.2

     negative rho (up, down):  7.924E-01 0.000E+00

     total cpu time spent up to now is      666.4 secs

     total energy              =   -4399.91969237 Ry
     estimated scf accuracy    <       0.00000044 Ry

     iteration # 46     ecut=    60.00 Ry     beta= 0.15
     Davidson diagonalization with overlap

---- Real-time Memory Report at c_bands before calling an iterative solver
             0 MiB given to the printing process from OS
             0 MiB allocation reported by mallinfo(arena+hblkhd)
        169089 MiB available memory on the node where the printing process lives
------------------
     ethr =  1.03E-10,  avg # of iterations =  2.9

     negative rho (up, down):  7.924E-01 0.000E+00

     total cpu time spent up to now is      681.1 secs

     total energy              =   -4399.91969239 Ry
     estimated scf accuracy    <       0.00000005 Ry

     iteration # 47     ecut=    60.00 Ry     beta= 0.15
     Davidson diagonalization with overlap

---- Real-time Memory Report at c_bands before calling an iterative solver
             0 MiB given to the printing process from OS
             0 MiB allocation reported by mallinfo(arena+hblkhd)
        169087 MiB available memory on the node where the printing process lives
------------------
     ethr =  1.11E-11,  avg # of iterations =  3.6

     negative rho (up, down):  7.924E-01 0.000E+00

     total cpu time spent up to now is      696.6 secs

     total energy              =   -4399.91969240 Ry
     estimated scf accuracy    <       0.00000003 Ry

     iteration # 48     ecut=    60.00 Ry     beta= 0.15
     Davidson diagonalization with overlap

---- Real-time Memory Report at c_bands before calling an iterative solver
             0 MiB given to the printing process from OS
             0 MiB allocation reported by mallinfo(arena+hblkhd)
        169077 MiB available memory on the node where the printing process lives
------------------
     ethr =  6.67E-12,  avg # of iterations =  1.9

     negative rho (up, down):  7.924E-01 0.000E+00

     total cpu time spent up to now is      710.0 secs

     total energy              =   -4399.91969242 Ry
     estimated scf accuracy    <       0.00000002 Ry

     iteration # 49     ecut=    60.00 Ry     beta= 0.15
     Davidson diagonalization with overlap

---- Real-time Memory Report at c_bands before calling an iterative solver
             0 MiB given to the printing process from OS
             0 MiB allocation reported by mallinfo(arena+hblkhd)
        169080 MiB available memory on the node where the printing process lives
------------------
     ethr =  4.71E-12,  avg # of iterations =  2.8

     negative rho (up, down):  7.924E-01 0.000E+00

     total cpu time spent up to now is      724.6 secs

     End of self-consistent calculation

          k = 0.0000 0.0000 0.0000 ( 65197 PWs)   bands (ev):

   -92.7352 -92.6825 -92.5898 -92.5414 -92.4831 -92.4417 -92.4245 -92.3030
   -56.0886 -56.0684 -55.9469 -55.9359 -55.9294 -55.9227 -55.8868 -55.8588
   -55.8431 -55.8412 -55.8335 -55.7907 -55.7721 -55.7343 -55.7165 -55.6832
   -55.6768 -55.6302 -55.6301 -55.6270 -55.6185 -55.5776 -55.5548 -55.4684
   -31.3111 -31.2916 -31.1735 -31.1493 -31.0624 -30.9760 -30.9222 -30.7072
   -29.8836 -29.8404 -29.8138 -29.7053 -15.1156 -15.0727 -14.9912 -14.8614
   -14.6678 -14.5475 -14.2538 -14.2353 -14.2059 -14.1598 -14.1146 -14.0987
   -14.0925 -14.0750 -14.0607 -14.0171 -13.9662 -13.8141 -13.6319 -13.6027
   -13.5712 -13.5366 -13.5224 -13.4704 -13.4369 -13.3553 -13.2837 -13.1803
   -13.1594 -13.1439 -13.1275 -13.1086 -13.0897 -13.0436 -13.0346 -13.0231
   -12.9880 -12.9597 -12.9583 -12.9462 -12.9223 -12.8821 -12.8445 -12.8163
   -12.8007 -12.6601 -12.6574 -12.6319 -12.3755 -12.2295 -12.0622 -11.9891
   -11.8968 -11.8229 -11.8114 -11.7889 -11.7710 -11.7074 -11.6899 -11.6558
   -11.6265 -11.5141 -11.4346 -11.4311  -2.9763  -2.7440  -2.5145  -2.3669
    -2.3045  -2.1621  -1.8546  -1.8400  -1.8208  -1.7347  -1.7174  -1.6489
    -1.6331  -1.5922  -1.5470  -1.3665  -1.1407  -1.1113  -0.9653  -0.9509
    -0.9056  -0.8855  -0.8410  -0.8254  -0.7689  -0.7417  -0.6700  -0.6584
    -0.5816  -0.4502  -0.4373  -0.4081  -0.3274  -0.3070  -0.2807  -0.2334
    -0.1634  -0.1269  -0.0668  -0.0443   0.0167   0.0966   0.1451   0.1691
     0.1775   0.4350   0.4510   0.6226   0.6883   0.7511   0.8014   0.8888
     0.9008   0.9188   0.9865   1.0142   1.0483   1.1061   1.2388   1.2941
     1.3166   1.3415   1.3506   1.4132   1.4867   1.5914   1.6078   1.6620
     1.6774   1.7204   1.7420   1.7500   1.8039   1.8595   1.8682   1.9024
     1.9329   1.9898   2.1218   2.2041   2.2492   2.2648   2.4116   2.4275
     2.4734   2.4783   2.5891   2.6214   2.6465   2.6683   2.6825   2.7622
     2.7807   2.8720   2.9073   2.9166   2.9237   2.9911   2.9965   3.0188
     3.0269   3.0350   3.0472   3.0547   3.0678   3.0741   3.0879   3.0947
     3.1015   3.1221   3.1432   3.1488   3.1603   3.1824   3.3009   3.4071
     4.0748   4.3896   4.7355   4.8547   5.0022   5.8602   5.9404   5.9558
     5.9779   6.2805   6.3269   6.4658   6.4750   6.7455   6.9885   7.0796
     7.1483   7.2836   7.4095   7.5744   7.6356   7.6526   7.6817   7.8578
     7.9450   8.0920   8.1167   8.2200   8.5531   8.6464   8.7871   8.8605

     occupation numbers 
     1.0000   1.0000   1.0000   1.0000   1.0000   1.0000   1.0000   1.0000
     1.0000   1.0000   1.0000   1.0000   1.0000   1.0000   1.0000   1.0000
     1.0000   1.0000   1.0000   1.0000   1.0000   1.0000   1.0000   1.0000
     1.0000   1.0000   1.0000   1.0000   1.0000   1.0000   1.0000   1.0000
     1.0000   1.0000   1.0000   1.0000   1.0000   1.0000   1.0000   1.0000
     1.0000   1.0000   1.0000   1.0000   1.0000   1.0000   1.0000   1.0000
     1.0000   1.0000   1.0000   1.0000   1.0000   1.0000   1.0000   1.0000
     1.0000   1.0000   1.0000   1.0000   1.0000   1.0000   1.0000   1.0000
     1.0000   1.0000   1.0000   1.0000   1.0000   1.0000   1.0000   1.0000
     1.0000   1.0000   1.0000   1.0000   1.0000   1.0000   1.0000   1.0000
     1.0000   1.0000   1.0000   1.0000   1.0000   1.0000   1.0000   1.0000
     1.0000   1.0000   1.0000   1.0000   1.0000   1.0000   1.0000   1.0000
     1.0000   1.0000   1.0000   1.0000   1.0000   1.0000   1.0000   1.0000
     1.0000   1.0000   1.0000   1.0000   1.0000   1.0000   1.0000   1.0000
     1.0000   1.0000   1.0000   1.0000   1.0000   1.0000   1.0000   1.0000
     1.0000   1.0000   1.0000   1.0000   1.0000   1.0000   1.0000   1.0000
     1.0000   1.0000   1.0000   1.0000   1.0000   1.0000   1.0000   1.0000
     1.0000   1.0000   1.0000   1.0000   1.0000   1.0000   1.0000   1.0000
     1.0000   1.0000   1.0000   1.0000   1.0000   1.0000   1.0000   1.0000
     1.0000   1.0000   1.0000   1.0000   0.9999   0.9999   0.9999   0.9998
     0.9998   0.9998   0.9997   0.9996   0.9996   0.9994   0.9989   0.9985
     0.9983   0.9981   0.9980   0.9974   0.9963   0.9942   0.9938   0.9923
     0.9918   0.9902   0.9893   0.9890   0.9865   0.9833   0.9828   0.9805
     0.9782   0.9735   0.9589   0.9469   0.9393   0.9365   0.9045   0.9005
     0.8880   0.8866   0.8518   0.8404   0.8312   0.8230   0.8174   0.7844
     0.7763   0.7337   0.7163   0.7116   0.7080   0.6727   0.6698   0.6577
     0.6533   0.6488   0.6421   0.6379   0.6306   0.6271   0.6193   0.6154
     0.6116   0.5998   0.5877   0.5844   0.5778   0.5649   0.4949   0.4324
     0.1226   0.0516   0.0161   0.0102   0.0056   0.0001   0.0000   0.0000
     0.0000   0.0000   0.0000   0.0000   0.0000   0.0000   0.0000   0.0000
     0.0000   0.0000   0.0000   0.0000   0.0000   0.0000   0.0000   0.0000
     0.0000   0.0000   0.0000   0.0000   0.0000   0.0000   0.0000   0.0000

          k = 0.0000 0.2500 0.0000 ( 65257 PWs)   bands (ev):

   -92.7352 -92.6825 -92.5898 -92.5414 -92.4831 -92.4417 -92.4245 -92.3030
   -56.0886 -56.0684 -55.9469 -55.9359 -55.9294 -55.9227 -55.8868 -55.8588
   -55.8431 -55.8412 -55.8335 -55.7907 -55.7721 -55.7343 -55.7165 -55.6832
   -55.6768 -55.6302 -55.6301 -55.6270 -55.6185 -55.5776 -55.5548 -55.4684
   -31.3109 -31.2915 -31.1734 -31.1495 -31.0625 -30.9759 -30.9223 -30.7074
   -29.8830 -29.8401 -29.8144 -29.7056 -15.0790 -15.0461 -14.9662 -14.8320
   -14.7101 -14.5367 -14.3991 -14.2196 -14.1862 -14.1656 -14.1353 -14.0792
   -14.0703 -14.0551 -14.0395 -13.9918 -13.8847 -13.8455 -13.6813 -13.6589
   -13.6131 -13.5752 -13.5256 -13.4886 -13.4465 -13.3769 -13.3412 -13.2887
   -13.2217 -13.1811 -13.1499 -13.1398 -13.1147 -13.0205 -12.9947 -12.9682
   -12.9596 -12.9335 -12.9316 -12.9028 -12.8922 -12.8335 -12.8241 -12.7389
   -12.6987 -12.6551 -12.5968 -12.5424 -12.4368 -12.2807 -12.1164 -12.0527
   -11.8623 -11.8198 -11.7915 -11.7630 -11.7465 -11.6993 -11.6879 -11.6653
   -11.6319 -11.5282 -11.4762 -11.4657  -2.8409  -2.6196  -2.4820  -2.2996
    -2.2562  -2.0926  -1.8721  -1.7886  -1.7756  -1.7150  -1.6152  -1.5999
    -1.5653  -1.5388  -1.4949  -1.2976  -1.1685  -1.1572  -1.0793  -1.0705
    -0.9666  -0.9361  -0.8781  -0.8526  -0.8124  -0.7482  -0.7224  -0.6895
    -0.6600  -0.6423  -0.6097  -0.5356  -0.4842  -0.4107  -0.3057  -0.2782
    -0.2407  -0.1291  -0.0942  -0.0295   0.0194   0.0815   0.0966   0.1239
     0.1806   0.4819   0.5702   0.6026   0.6893   0.7355   0.7560   0.8745
     0.8930   0.9874   1.0134   1.0411   1.1561   1.2495   1.2704   1.2958
     1.3164   1.3395   1.3993   1.4266   1.4544   1.5018   1.5361   1.5669
     1.6503   1.6862   1.7153   1.7732   1.8235   1.8586   1.8884   1.9207
     1.9361   2.0289   2.1578   2.2278   2.2482   2.3245   2.3689   2.4084
     2.4148   2.4810   2.5201   2.6052   2.6427   2.6615   2.7647   2.8322
     2.8593   2.8875   2.9087   2.9249   2.9327   2.9394   2.9500   2.9782
     2.9819   3.0002   3.0105   3.0157   3.0316   3.0423   3.0520   3.0734
     3.0837   3.0898   3.1243   3.1406   3.2006   3.5627   3.6170   3.8497
     4.2627   4.3852   4.6784   5.0029   5.0335   5.6136   5.7732   5.9264
     5.9804   6.0603   6.0856   6.1547   6.5818   6.9073   7.0473   7.1037
     7.2551   7.3098   7.4572   7.4750   7.6227   7.7598   7.8138   7.9601
     8.0103   8.1041   8.1838   8.3044   8.3840   8.6727   8.8375   8.8498

     occupation numbers 
     1.0000   1.0000   1.0000   1.0000   1.0000   1.0000   1.0000   1.0000
     1.0000   1.0000   1.0000   1.0000   1.0000   1.0000   1.0000   1.0000
     1.0000   1.0000   1.0000   1.0000   1.0000   1.0000   1.0000   1.0000
     1.0000   1.0000   1.0000   1.0000   1.0000   1.0000   1.0000   1.0000
     1.0000   1.0000   1.0000   1.0000   1.0000   1.0000   1.0000   1.0000
     1.0000   1.0000   1.0000   1.0000   1.0000   1.0000   1.0000   1.0000
     1.0000   1.0000   1.0000   1.0000   1.0000   1.0000   1.0000   1.0000
     1.0000   1.0000   1.0000   1.0000   1.0000   1.0000   1.0000   1.0000
     1.0000   1.0000   1.0000   1.0000   1.0000   1.0000   1.0000   1.0000
     1.0000   1.0000   1.0000   1.0000   1.0000   1.0000   1.0000   1.0000
     1.0000   1.0000   1.0000   1.0000   1.0000   1.0000   1.0000   1.0000
     1.0000   1.0000   1.0000   1.0000   1.0000   1.0000   1.0000   1.0000
     1.0000   1.0000   1.0000   1.0000   1.0000   1.0000   1.0000   1.0000
     1.0000   1.0000   1.0000   1.0000   1.0000   1.0000   1.0000   1.0000
     1.0000   1.0000   1.0000   1.0000   1.0000   1.0000   1.0000   1.0000
     1.0000   1.0000   1.0000   1.0000   1.0000   1.0000   1.0000   1.0000
     1.0000   1.0000   1.0000   1.0000   1.0000   1.0000   1.0000   1.0000
     1.0000   1.0000   1.0000   1.0000   1.0000   1.0000   1.0000   1.0000
     1.0000   1.0000   1.0000   1.0000   1.0000   1.0000   1.0000   1.0000
     1.0000   1.0000   1.0000   1.0000   0.9999   0.9999   0.9999   0.9998
     0.9998   0.9997   0.9996   0.9996   0.9992   0.9988   0.9987   0.9985
     0.9983   0.9981   0.9975   0.9972   0.9968   0.9961   0.9954   0.9948
     0.9926   0.9915   0.9904   0.9880   0.9854   0.9834   0.9815   0.9792
     0.9780   0.9697   0.9540   0.9430   0.9395   0.9247   0.9148   0.9054
     0.9037   0.8859   0.8743   0.8462   0.8326   0.8256   0.7834   0.7528
     0.7399   0.7261   0.7156   0.7073   0.7033   0.6999   0.6944   0.6796
     0.6776   0.6678   0.6622   0.6594   0.6507   0.6448   0.6394   0.6275
     0.6217   0.6182   0.5986   0.5891   0.5542   0.3441   0.3149   0.2040
     0.0748   0.0523   0.0198   0.0055   0.0049   0.0003   0.0001   0.0000
     0.0000   0.0000   0.0000   0.0000   0.0000   0.0000   0.0000   0.0000
     0.0000   0.0000   0.0000   0.0000   0.0000   0.0000   0.0000   0.0000
     0.0000   0.0000   0.0000   0.0000   0.0000   0.0000   0.0000   0.0000

          k = 0.0000-0.5000 0.0000 ( 65180 PWs)   bands (ev):

   -92.7352 -92.6825 -92.5898 -92.5414 -92.4831 -92.4417 -92.4245 -92.3030
   -56.0886 -56.0684 -55.9469 -55.9359 -55.9294 -55.9227 -55.8868 -55.8588
   -55.8431 -55.8412 -55.8335 -55.7907 -55.7721 -55.7343 -55.7165 -55.6832
   -55.6768 -55.6302 -55.6301 -55.6270 -55.6185 -55.5776 -55.5548 -55.4684
   -31.3107 -31.2914 -31.1733 -31.1497 -31.0627 -30.9758 -30.9225 -30.7075
   -29.8824 -29.8398 -29.8150 -29.7059 -15.0437 -14.9960 -14.9406 -14.8173
   -14.7282 -14.5957 -14.4339 -14.3230 -14.1914 -14.1217 -14.0779 -14.0721
   -14.0220 -14.0059 -13.9543 -13.9330 -13.9109 -13.8786 -13.8477 -13.7965
   -13.6174 -13.5584 -13.5295 -13.4903 -13.4452 -13.3922 -13.3558 -13.3164
   -13.3112 -13.2506 -13.1528 -13.1402 -13.1109 -13.0027 -12.9955 -12.9853
   -12.9615 -12.9322 -12.9154 -12.8942 -12.8210 -12.7390 -12.7116 -12.6857
   -12.6817 -12.6534 -12.5477 -12.4803 -12.3588 -12.3555 -12.2089 -12.1618
   -11.8167 -11.8139 -11.7865 -11.7486 -11.7143 -11.7034 -11.6618 -11.6577
   -11.6138 -11.5496 -11.5365 -11.5226  -2.6257  -2.5674  -2.4163  -2.3445
    -2.0613  -1.9794  -1.8510  -1.7150  -1.6727  -1.6578  -1.5790  -1.5492
    -1.4650  -1.4310  -1.3524  -1.3132  -1.2754  -1.2482  -1.1876  -1.1525
    -1.1067  -1.0703  -1.0362  -1.0045  -0.8924  -0.8485  -0.8127  -0.8093
    -0.7249  -0.6932  -0.6724  -0.6237  -0.5343  -0.4670  -0.3774  -0.3415
    -0.2481  -0.2101  -0.0642  -0.0178   0.0009   0.0541   0.1689   0.2263
     0.3574   0.4259   0.4338   0.5607   0.6119   0.7100   0.8396   0.9456
     0.9775   1.0176   1.0263   1.0617   1.0782   1.1128   1.1281   1.1418
     1.2502   1.3117   1.3467   1.3691   1.6366   1.6579   1.6782   1.7717
     1.7984   1.8312   1.8445   1.8748   1.8876   1.8949   1.9250   1.9679
     1.9980   2.0259   2.0341   2.0623   2.1159   2.2035   2.2318   2.4054
     2.5674   2.5731   2.5972   2.6258   2.6388   2.6461   2.6975   2.7108
     2.7569   2.7662   2.7959   2.8619   2.8928   2.9474   2.9571   2.9771
     2.9804   2.9962   2.9996   3.0085   3.0105   3.0200   3.0234   3.0432
     3.0465   3.1097   3.1142   3.1302   3.1851   4.0904   4.1124   4.1423
     4.2286   4.7059   4.8691   4.9982   5.1414   5.3905   5.4410   5.5583
     5.7087   5.9929   6.0121   6.0460   6.8328   6.8609   6.9384   7.1998
     7.2991   7.3900   7.4325   7.4718   7.6603   7.7249   7.7929   7.8815
     8.0979   8.2131   8.4517   8.5378   8.6390   8.7445   8.7901   8.8286

     occupation numbers 
     1.0000   1.0000   1.0000   1.0000   1.0000   1.0000   1.0000   1.0000
     1.0000   1.0000   1.0000   1.0000   1.0000   1.0000   1.0000   1.0000
     1.0000   1.0000   1.0000   1.0000   1.0000   1.0000   1.0000   1.0000
     1.0000   1.0000   1.0000   1.0000   1.0000   1.0000   1.0000   1.0000
     1.0000   1.0000   1.0000   1.0000   1.0000   1.0000   1.0000   1.0000
     1.0000   1.0000   1.0000   1.0000   1.0000   1.0000   1.0000   1.0000
     1.0000   1.0000   1.0000   1.0000   1.0000   1.0000   1.0000   1.0000
     1.0000   1.0000   1.0000   1.0000   1.0000   1.0000   1.0000   1.0000
     1.0000   1.0000   1.0000   1.0000   1.0000   1.0000   1.0000   1.0000
     1.0000   1.0000   1.0000   1.0000   1.0000   1.0000   1.0000   1.0000
     1.0000   1.0000   1.0000   1.0000   1.0000   1.0000   1.0000   1.0000
     1.0000   1.0000   1.0000   1.0000   1.0000   1.0000   1.0000   1.0000
     1.0000   1.0000   1.0000   1.0000   1.0000   1.0000   1.0000   1.0000
     1.0000   1.0000   1.0000   1.0000   1.0000   1.0000   1.0000   1.0000
     1.0000   1.0000   1.0000   1.0000   1.0000   1.0000   1.0000   1.0000
     1.0000   1.0000   1.0000   1.0000   1.0000   1.0000   1.0000   1.0000
     1.0000   1.0000   1.0000   1.0000   1.0000   1.0000   1.0000   1.0000
     1.0000   1.0000   1.0000   1.0000   1.0000   1.0000   1.0000   1.0000
     1.0000   1.0000   1.0000   1.0000   1.0000   1.0000   1.0000   1.0000
     1.0000   1.0000   1.0000   1.0000   1.0000   0.9999   0.9999   0.9998
     0.9997   0.9996   0.9996   0.9995   0.9995   0.9994   0.9993   0.9993
     0.9988   0.9984   0.9981   0.9979   0.9930   0.9924   0.9917   0.9880
     0.9867   0.9850   0.9842   0.9823   0.9815   0.9810   0.9788   0.9754
     0.9727   0.9700   0.9692   0.9661   0.9597   0.9470   0.9423   0.9061
     0.8591   0.8573   0.8490   0.8389   0.8341   0.8314   0.8115   0.8061
     0.7867   0.7827   0.7695   0.7387   0.7235   0.6958   0.6907   0.6802
     0.6784   0.6699   0.6681   0.6633   0.6622   0.6571   0.6552   0.6443
     0.6425   0.6069   0.6043   0.5952   0.5633   0.1180   0.1117   0.1035
     0.0822   0.0179   0.0096   0.0057   0.0030   0.0009   0.0007   0.0004
     0.0002   0.0000   0.0000   0.0000   0.0000   0.0000   0.0000   0.0000
     0.0000   0.0000   0.0000   0.0000   0.0000   0.0000   0.0000   0.0000
     0.0000   0.0000   0.0000   0.0000   0.0000   0.0000   0.0000   0.0000

          k = 0.2500 0.2500 0.0000 ( 65198 PWs)   bands (ev):

   -92.7352 -92.6825 -92.5898 -92.5414 -92.4831 -92.4417 -92.4245 -92.3030
   -56.0886 -56.0684 -55.9469 -55.9359 -55.9294 -55.9227 -55.8868 -55.8588
   -55.8431 -55.8412 -55.8335 -55.7907 -55.7721 -55.7343 -55.7165 -55.6832
   -55.6768 -55.6302 -55.6301 -55.6270 -55.6185 -55.5776 -55.5548 -55.4684
   -31.3092 -31.2932 -31.1732 -31.1491 -31.0629 -30.9761 -30.9222 -30.7075
   -29.8821 -29.8411 -29.8140 -29.7060 -15.0503 -15.0110 -14.9381 -14.8219
   -14.7018 -14.5777 -14.5050 -14.2999 -14.1428 -14.1308 -14.0946 -14.0664
   -14.0422 -14.0123 -13.9857 -13.9530 -13.8755 -13.8592 -13.6972 -13.6839
   -13.6528 -13.6347 -13.5758 -13.5444 -13.4843 -13.4597 -13.3481 -13.3087
   -13.2624 -13.1772 -13.1376 -13.1110 -13.0768 -13.0522 -13.0077 -12.9800
   -12.9639 -12.9444 -12.9042 -12.8535 -12.8392 -12.7894 -12.7763 -12.7469
   -12.7118 -12.6525 -12.5424 -12.4853 -12.4174 -12.3098 -12.1464 -12.1019
   -11.8346 -11.8031 -11.7920 -11.7848 -11.7226 -11.6872 -11.6809 -11.6456
   -11.6376 -11.5450 -11.5045 -11.4871  -2.7026  -2.4939  -2.3761  -2.2810
    -2.1608  -2.0959  -1.8968  -1.7534  -1.7341  -1.7024  -1.6098  -1.5756
    -1.4823  -1.4543  -1.4043  -1.2736  -1.2251  -1.1513  -1.1077  -1.0622
    -1.0393  -1.0151  -0.9724  -0.9575  -0.8669  -0.8171  -0.7493  -0.7022
    -0.6734  -0.6224  -0.6101  -0.5461  -0.4956  -0.4335  -0.4036  -0.3147
    -0.2670  -0.2359  -0.1985  -0.1432  -0.0743  -0.0328  -0.0058   0.0644
     0.1060   0.3738   0.5231   0.5569   0.6131   0.6542   0.7161   0.7630
     0.8286   0.8662   1.1393   1.2054   1.2791   1.3036   1.3546   1.3833
     1.4197   1.4567   1.4738   1.5016   1.5452   1.5556   1.5703   1.6166
     1.6537   1.6932   1.7444   1.7825   1.7968   1.8249   1.8630   1.9171
     1.9439   2.0689   2.1377   2.1748   2.2005   2.2625   2.3300   2.3598
     2.3968   2.4205   2.4320   2.5469   2.5851   2.6735   2.7743   2.8426
     2.8599   2.8650   2.8838   2.8982   2.9110   2.9221   2.9284   2.9397
     2.9544   2.9657   2.9849   2.9937   3.0014   3.0242   3.0360   3.0447
     3.0763   3.3768   3.4691   3.5182   3.5779   3.6016   3.8341   3.9198
     4.2666   4.4754   4.6878   4.9413   5.1564   5.6146   5.6730   5.7397
     5.8043   5.8638   6.0607   6.1368   6.2047   6.7375   6.8820   7.0793
     7.2616   7.5290   7.5785   7.6853   7.7637   7.8454   7.9386   8.0915
     8.1333   8.1901   8.3018   8.3206   8.4181   8.4740   8.7593   8.8849

     occupation numbers 
     1.0000   1.0000   1.0000   1.0000   1.0000   1.0000   1.0000   1.0000
     1.0000   1.0000   1.0000   1.0000   1.0000   1.0000   1.0000   1.0000
     1.0000   1.0000   1.0000   1.0000   1.0000   1.0000   1.0000   1.0000
     1.0000   1.0000   1.0000   1.0000   1.0000   1.0000   1.0000   1.0000
     1.0000   1.0000   1.0000   1.0000   1.0000   1.0000   1.0000   1.0000
     1.0000   1.0000   1.0000   1.0000   1.0000   1.0000   1.0000   1.0000
     1.0000   1.0000   1.0000   1.0000   1.0000   1.0000   1.0000   1.0000
     1.0000   1.0000   1.0000   1.0000   1.0000   1.0000   1.0000   1.0000
     1.0000   1.0000   1.0000   1.0000   1.0000   1.0000   1.0000   1.0000
     1.0000   1.0000   1.0000   1.0000   1.0000   1.0000   1.0000   1.0000
     1.0000   1.0000   1.0000   1.0000   1.0000   1.0000   1.0000   1.0000
     1.0000   1.0000   1.0000   1.0000   1.0000   1.0000   1.0000   1.0000
     1.0000   1.0000   1.0000   1.0000   1.0000   1.0000   1.0000   1.0000
     1.0000   1.0000   1.0000   1.0000   1.0000   1.0000   1.0000   1.0000
     1.0000   1.0000   1.0000   1.0000   1.0000   1.0000   1.0000   1.0000
     1.0000   1.0000   1.0000   1.0000   1.0000   1.0000   1.0000   1.0000
     1.0000   1.0000   1.0000   1.0000   1.0000   1.0000   1.0000   1.0000
     1.0000   1.0000   1.0000   1.0000   1.0000   1.0000   1.0000   1.0000
     1.0000   1.0000   1.0000   1.0000   1.0000   1.0000   1.0000   1.0000
     1.0000   1.0000   1.0000   1.0000   1.0000   1.0000   0.9999   0.9999
     0.9999   0.9998   0.9993   0.9990   0.9986   0.9984   0.9980   0.9977
     0.9973   0.9968   0.9965   0.9961   0.9953   0.9950   0.9947   0.9936
     0.9925   0.9912   0.9892   0.9875   0.9868   0.9853   0.9831   0.9794
     0.9774   0.9654   0.9568   0.9515   0.9475   0.9369   0.9235   0.9169
     0.9082   0.9023   0.8993   0.8659   0.8532   0.8209   0.7791   0.7479
     0.7396   0.7371   0.7280   0.7208   0.7144   0.7088   0.7056   0.6997
     0.6921   0.6862   0.6760   0.6713   0.6671   0.6548   0.6483   0.6435
     0.6258   0.4501   0.3965   0.3687   0.3358   0.3230   0.2106   0.1758
     0.0740   0.0395   0.0191   0.0072   0.0028   0.0003   0.0002   0.0001
     0.0001   0.0001   0.0000   0.0000   0.0000   0.0000   0.0000   0.0000
     0.0000   0.0000   0.0000   0.0000   0.0000   0.0000   0.0000   0.0000
     0.0000   0.0000   0.0000   0.0000   0.0000   0.0000   0.0000   0.0000

          k = 0.2500-0.5000 0.0000 ( 65138 PWs)   bands (ev):

   -92.7352 -92.6825 -92.5898 -92.5414 -92.4831 -92.4417 -92.4245 -92.3030
   -56.0886 -56.0684 -55.9469 -55.9359 -55.9294 -55.9227 -55.8868 -55.8588
   -55.8431 -55.8412 -55.8335 -55.7907 -55.7721 -55.7343 -55.7165 -55.6832
   -55.6768 -55.6302 -55.6301 -55.6270 -55.6185 -55.5776 -55.5548 -55.4684
   -31.3091 -31.2931 -31.1731 -31.1493 -31.0630 -30.9760 -30.9223 -30.7076
   -29.8814 -29.8408 -29.8146 -29.7063 -15.0130 -14.9691 -14.8975 -14.7879
   -14.7511 -14.6353 -14.5394 -14.4179 -14.1074 -14.0554 -14.0296 -14.0056
   -13.9918 -13.9770 -13.9383 -13.9204 -13.8939 -13.8540 -13.8349 -13.7875
   -13.6996 -13.6517 -13.5917 -13.5716 -13.5056 -13.4945 -13.4024 -13.3632
   -13.2403 -13.1753 -13.1593 -13.0958 -13.0634 -13.0227 -13.0072 -12.9766
   -12.9452 -12.9429 -12.9275 -12.8758 -12.8308 -12.7520 -12.7327 -12.6898
   -12.6633 -12.6502 -12.5544 -12.4382 -12.3532 -12.3124 -12.2030 -12.1726
   -11.8103 -11.7982 -11.7871 -11.7598 -11.7288 -11.6996 -11.6595 -11.6312
   -11.6097 -11.5629 -11.5376 -11.5268  -2.4837  -2.4192  -2.2901  -2.2133
    -2.0820  -1.9991  -1.8755  -1.7259  -1.6692  -1.6492  -1.5876  -1.5743
    -1.4756  -1.4106  -1.3254  -1.2745  -1.2659  -1.2027  -1.1588  -1.1260
    -1.0779  -1.0412  -1.0064  -0.9667  -0.9532  -0.9100  -0.8812  -0.8380
    -0.8080  -0.7403  -0.6364  -0.6002  -0.5202  -0.4553  -0.4025  -0.3625
    -0.3449  -0.2875  -0.1302  -0.1233  -0.0066   0.0191   0.0283   0.0742
     0.1050   0.1404   0.1707   0.2408   0.5156   0.6071   0.6754   0.7306
     1.0021   1.0197   1.1105   1.1379   1.3032   1.3390   1.3780   1.4009
     1.4158   1.4371   1.5007   1.5503   1.5829   1.6595   1.7498   1.7870
     1.8079   1.8180   1.8524   1.8701   1.8719   1.9171   1.9301   1.9480
     1.9873   1.9991   2.0254   2.0574   2.1152   2.1575   2.2354   2.3720
     2.5203   2.5371   2.5548   2.5829   2.6045   2.6320   2.6566   2.6676
     2.6933   2.7634   2.8028   2.8407   2.8614   2.8758   2.8883   2.8991
     2.9133   2.9334   2.9387   2.9750   2.9883   2.9982   3.0061   3.0184
     3.0255   3.5442   3.5671   3.7082   3.7589   4.0926   4.1493   4.1568
     4.2846   4.7253   4.8905   5.0320   5.1082   5.2716   5.4087   5.5786
     5.6354   5.7366   5.7599   6.1515   6.3765   6.4777   6.7050   7.0330
     7.4823   7.5166   7.6777   7.7253   7.7905   7.8521   8.0145   8.1733
     8.2600   8.3703   8.4683   8.5004   8.5289   8.6823   8.7203   8.7462

     occupation numbers 
     1.0000   1.0000   1.0000   1.0000   1.0000   1.0000   1.0000   1.0000
     1.0000   1.0000   1.0000   1.0000   1.0000   1.0000   1.0000   1.0000
     1.0000   1.0000   1.0000   1.0000   1.0000   1.0000   1.0000   1.0000
     1.0000   1.0000   1.0000   1.0000   1.0000   1.0000   1.0000   1.0000
     1.0000   1.0000   1.0000   1.0000   1.0000   1.0000   1.0000   1.0000
     1.0000   1.0000   1.0000   1.0000   1.0000   1.0000   1.0000   1.0000
     1.0000   1.0000   1.0000   1.0000   1.0000   1.0000   1.0000   1.0000
     1.0000   1.0000   1.0000   1.0000   1.0000   1.0000   1.0000   1.0000
     1.0000   1.0000   1.0000   1.0000   1.0000   1.0000   1.0000   1.0000
     1.0000   1.0000   1.0000   1.0000   1.0000   1.0000   1.0000   1.0000
     1.0000   1.0000   1.0000   1.0000   1.0000   1.0000   1.0000   1.0000
     1.0000   1.0000   1.0000   1.0000   1.0000   1.0000   1.0000   1.0000
     1.0000   1.0000   1.0000   1.0000   1.0000   1.0000   1.0000   1.0000
     1.0000   1.0000   1.0000   1.0000   1.0000   1.0000   1.0000   1.0000
     1.0000   1.0000   1.0000   1.0000   1.0000   1.0000   1.0000   1.0000
     1.0000   1.0000   1.0000   1.0000   1.0000   1.0000   1.0000   1.0000
     1.0000   1.0000   1.0000   1.0000   1.0000   1.0000   1.0000   1.0000
     1.0000   1.0000   1.0000   1.0000   1.0000   1.0000   1.0000   1.0000
     1.0000   1.0000   1.0000   1.0000   1.0000   1.0000   1.0000   1.0000
     1.0000   1.0000   1.0000   1.0000   1.0000   1.0000   0.9999   0.9999
     0.9997   0.9996   0.9994   0.9993   0.9984   0.9981   0.9978   0.9975
     0.9973   0.9971   0.9961   0.9952   0.9944   0.9923   0.9890   0.9873
     0.9862   0.9857   0.9838   0.9827   0.9825   0.9794   0.9785   0.9770
     0.9737   0.9726   0.9700   0.9667   0.9598   0.9540   0.9417   0.9141
     0.8742   0.8690   0.8633   0.8540   0.8465   0.8366   0.8274   0.8232
     0.8131   0.7839   0.7664   0.7488   0.7389   0.7319   0.7257   0.7204
     0.7133   0.7030   0.7003   0.6813   0.6742   0.6689   0.6646   0.6579
     0.6540   0.3542   0.3417   0.2685   0.2442   0.1174   0.1016   0.0996
     0.0703   0.0167   0.0088   0.0049   0.0035   0.0016   0.0008   0.0003
     0.0003   0.0001   0.0001   0.0000   0.0000   0.0000   0.0000   0.0000
     0.0000   0.0000   0.0000   0.0000   0.0000   0.0000   0.0000   0.0000
     0.0000   0.0000   0.0000   0.0000   0.0000   0.0000   0.0000   0.0000

          k =-0.5000-0.5000 0.0000 ( 65132 PWs)   bands (ev):

   -92.7352 -92.6825 -92.5898 -92.5414 -92.4831 -92.4417 -92.4245 -92.3030
   -56.0886 -56.0684 -55.9469 -55.9359 -55.9294 -55.9227 -55.8868 -55.8588
   -55.8431 -55.8412 -55.8335 -55.7907 -55.7721 -55.7343 -55.7165 -55.6832
   -55.6768 -55.6302 -55.6301 -55.6270 -55.6185 -55.5776 -55.5548 -55.4684
   -31.3069 -31.2953 -31.1730 -31.1489 -31.0634 -30.9761 -30.9222 -30.7078
   -29.8804 -29.8418 -29.8142 -29.7067 -14.9660 -14.9417 -14.8255 -14.8103
   -14.7146 -14.6816 -14.6475 -14.5161 -14.0188 -14.0087 -13.9735 -13.9548
   -13.9356 -13.9153 -13.8953 -13.8840 -13.8642 -13.8633 -13.8473 -13.7674
   -13.7609 -13.7291 -13.6972 -13.6801 -13.5917 -13.5695 -13.4439 -13.4067
   -13.1918 -13.1564 -13.0824 -13.0646 -13.0575 -13.0223 -13.0172 -13.0078
   -12.9891 -12.9153 -12.8818 -12.8586 -12.8468 -12.8037 -12.7733 -12.6687
   -12.6370 -12.6291 -12.5708 -12.4031 -12.3495 -12.2647 -12.1952 -12.1930
   -11.8065 -11.7945 -11.7767 -11.7597 -11.7251 -11.7078 -11.6717 -11.6111
   -11.5917 -11.5856 -11.5356 -11.5327  -2.2586  -2.1844  -2.1761  -2.1017
    -2.0638  -1.9856  -1.9176  -1.7913  -1.6758  -1.6466  -1.6041  -1.5496
    -1.4780  -1.4624  -1.3930  -1.3499  -1.2327  -1.2029  -1.1552  -1.1267
    -1.0624  -1.0159  -0.9982  -0.9860  -0.9303  -0.8871  -0.8709  -0.7591
    -0.7022  -0.6544  -0.6062  -0.5775  -0.5621  -0.5302  -0.4903  -0.4505
    -0.4436  -0.3568  -0.2920  -0.2447  -0.2199  -0.1460  -0.0886  -0.0806
    -0.0201   0.0137   0.0206   0.0344   0.4880   0.5254   0.6197   0.6439
     1.0290   1.0432   1.0787   1.1164   1.3893   1.4076   1.4141   1.4561
     1.5831   1.6764   1.7040   1.7398   1.7610   1.7820   1.7922   1.8233
     1.8333   1.8461   1.8575   1.9129   1.9148   1.9433   1.9530   1.9764
     1.9894   2.0279   2.0567   2.0688   2.1002   2.1319   2.1972   2.2652
     2.5322   2.5638   2.5786   2.6028   2.6125   2.6343   2.6477   2.6667
     2.6746   2.6932   2.7101   2.7261   2.7745   2.7955   2.7999   2.8209
     2.8328   2.8437   2.8658   2.8719   2.8989   2.9849   2.9892   3.0116
     3.0236   3.9838   4.0054   4.0113   4.0388   4.2857   4.3587   4.3843
     4.6244   4.7467   4.8296   4.9590   5.0473   5.0588   5.1742   5.2681
     5.4064   5.8357   5.8698   5.9356   6.0321   6.4328   6.5285   6.6268
     7.7514   7.8670   7.8955   7.9248   7.9393   7.9516   7.9902   8.0619
     8.2402   8.3492   8.4856   8.5567   8.5798   8.5910   8.6352   8.7152

     occupation numbers 
     1.0000   1.0000   1.0000   1.0000   1.0000   1.0000   1.0000   1.0000
     1.0000   1.0000   1.0000   1.0000   1.0000   1.0000   1.0000   1.0000
     1.0000   1.0000   1.0000   1.0000   1.0000   1.0000   1.0000   1.0000
     1.0000   1.0000   1.0000   1.0000   1.0000   1.0000   1.0000   1.0000
     1.0000   1.0000   1.0000   1.0000   1.0000   1.0000   1.0000   1.0000
     1.0000   1.0000   1.0000   1.0000   1.0000   1.0000   1.0000   1.0000
     1.0000   1.0000   1.0000   1.0000   1.0000   1.0000   1.0000   1.0000
     1.0000   1.0000   1.0000   1.0000   1.0000   1.0000   1.0000   1.0000
     1.0000   1.0000   1.0000   1.0000   1.0000   1.0000   1.0000   1.0000
     1.0000   1.0000   1.0000   1.0000   1.0000   1.0000   1.0000   1.0000
     1.0000   1.0000   1.0000   1.0000   1.0000   1.0000   1.0000   1.0000
     1.0000   1.0000   1.0000   1.0000   1.0000   1.0000   1.0000   1.0000
     1.0000   1.0000   1.0000   1.0000   1.0000   1.0000   1.0000   1.0000
     1.0000   1.0000   1.0000   1.0000   1.0000   1.0000   1.0000   1.0000
     1.0000   1.0000   1.0000   1.0000   1.0000   1.0000   1.0000   1.0000
     1.0000   1.0000   1.0000   1.0000   1.0000   1.0000   1.0000   1.0000
     1.0000   1.0000   1.0000   1.0000   1.0000   1.0000   1.0000   1.0000
     1.0000   1.0000   1.0000   1.0000   1.0000   1.0000   1.0000   1.0000
     1.0000   1.0000   1.0000   1.0000   1.0000   1.0000   1.0000   1.0000
     1.0000   1.0000   1.0000   1.0000   1.0000   1.0000   1.0000   1.0000
     0.9996   0.9996   0.9995   0.9994   0.9976   0.9974   0.9974   0.9968
     0.9944   0.9918   0.9908   0.9894   0.9885   0.9875   0.9870   0.9854
     0.9849   0.9841   0.9834   0.9797   0.9796   0.9774   0.9766   0.9747
     0.9735   0.9698   0.9667   0.9654   0.9617   0.9576   0.9480   0.9364
     0.8705   0.8604   0.8554   0.8471   0.8436   0.8357   0.8308   0.8236
     0.8205   0.8132   0.8064   0.7998   0.7791   0.7697   0.7677   0.7580
     0.7525   0.7474   0.7368   0.7338   0.7205   0.6760   0.6737   0.6617
     0.6551   0.1523   0.1449   0.1429   0.1339   0.0701   0.0567   0.0525
     0.0240   0.0154   0.0112   0.0067   0.0046   0.0044   0.0026   0.0017
     0.0008   0.0001   0.0001   0.0000   0.0000   0.0000   0.0000   0.0000
     0.0000   0.0000   0.0000   0.0000   0.0000   0.0000   0.0000   0.0000
     0.0000   0.0000   0.0000   0.0000   0.0000   0.0000   0.0000   0.0000

          k = 0.2500 0.0000 0.0000 ( 65257 PWs)   bands (ev):

   -92.7352 -92.6825 -92.5898 -92.5414 -92.4831 -92.4417 -92.4245 -92.3030
   -56.0886 -56.0684 -55.9469 -55.9359 -55.9294 -55.9227 -55.8868 -55.8588
   -55.8431 -55.8412 -55.8335 -55.7907 -55.7721 -55.7343 -55.7165 -55.6832
[...]
     0.7447   0.7307   0.7160   0.7152   0.7037   0.6987   0.6911   0.6803
     0.6772   0.6627   0.6570   0.6537   0.6464   0.6354   0.6211   0.6195
     0.6152   0.6107   0.6054   0.5990   0.5282   0.3545   0.3194   0.2042
     0.0793   0.0466   0.0218   0.0055   0.0048   0.0003   0.0001   0.0000
     0.0000   0.0000   0.0000   0.0000   0.0000   0.0000   0.0000   0.0000
     0.0000   0.0000   0.0000   0.0000   0.0000   0.0000   0.0000   0.0000
     0.0000   0.0000   0.0000   0.0000   0.0000   0.0000   0.0000   0.0000

          k =-0.5000 0.0000 0.0000 ( 65180 PWs)   bands (ev):

   -92.7352 -92.6825 -92.5898 -92.5414 -92.4831 -92.4417 -92.4245 -92.3030
   -56.0886 -56.0684 -55.9469 -55.9359 -55.9294 -55.9227 -55.8868 -55.8588
   -55.8431 -55.8412 -55.8335 -55.7907 -55.7721 -55.7343 -55.7165 -55.6832
   -55.6768 -55.6302 -55.6301 -55.6270 -55.6185 -55.5776 -55.5548 -55.4684
   -31.3073 -31.2955 -31.1732 -31.1485 -31.0631 -30.9763 -30.9219 -30.7075
   -29.8816 -29.8424 -29.8130 -29.7061 -15.0493 -14.9969 -14.9361 -14.8263
   -14.7235 -14.5788 -14.4355 -14.2897 -14.1668 -14.1565 -14.1423 -14.0879
   -14.0266 -13.9943 -13.9446 -13.9360 -13.9196 -13.8715 -13.8537 -13.7546
   -13.5891 -13.5548 -13.5284 -13.5211 -13.4672 -13.3980 -13.3573 -13.3009
   -13.2773 -13.2714 -13.1299 -13.0874 -13.0734 -13.0484 -13.0368 -13.0178
   -12.9762 -12.9565 -12.9029 -12.8811 -12.8295 -12.7291 -12.7092 -12.6735
   -12.6654 -12.6539 -12.5739 -12.4680 -12.3597 -12.3431 -12.2108 -12.1691
   -11.8137 -11.7921 -11.7854 -11.7708 -11.7529 -11.7118 -11.6481 -11.6305
   -11.5979 -11.5527 -11.5438 -11.5280  -2.6162  -2.5777  -2.4139  -2.3749
    -2.0609  -1.9845  -1.8383  -1.7205  -1.6807  -1.6339  -1.5874  -1.5628
    -1.4396  -1.3955  -1.3794  -1.2972  -1.2624  -1.2462  -1.2152  -1.1571
    -1.0890  -1.0600  -1.0292  -0.9369  -0.8891  -0.8399  -0.8074  -0.7864
    -0.7543  -0.7074  -0.6832  -0.6452  -0.5416  -0.4760  -0.4025  -0.3432
    -0.1901  -0.1432  -0.0913  -0.0493  -0.0011   0.0212   0.1559   0.1898
     0.2364   0.4054   0.5045   0.5514   0.6408   0.6953   0.8247   0.8374
     0.9675   0.9959   1.0507   1.0838   1.1150   1.1267   1.1732   1.1970
     1.2631   1.3129   1.3605   1.3693   1.6636   1.6711   1.6876   1.7132
     1.8194   1.8346   1.8434   1.8529   1.8877   1.8988   1.9338   1.9614
     1.9802   2.0430   2.0538   2.1093   2.1274   2.1865   2.2913   2.3891
     2.4664   2.4811   2.5646   2.5920   2.6146   2.6867   2.6957   2.7055
     2.7300   2.7748   2.8161   2.8565   2.8978   2.9193   2.9670   2.9701
     2.9766   2.9830   2.9981   3.0106   3.0230   3.0309   3.0486   3.0582
     3.0744   3.0948   3.0995   3.2269   3.2376   4.0421   4.0960   4.1557
     4.2757   4.7577   4.8286   5.0156   5.0322   5.4688   5.4838   5.5810
     5.6172   5.9991   6.0108   6.1028   6.5814   6.7780   6.9899   7.2590
     7.2961   7.3574   7.4122   7.5811   7.7473   7.8033   7.8600   7.9797
     8.1121   8.1888   8.4666   8.4897   8.6029   8.7337   8.7358   8.8470

     occupation numbers 
     1.0000   1.0000   1.0000   1.0000   1.0000   1.0000   1.0000   1.0000
     1.0000   1.0000   1.0000   1.0000   1.0000   1.0000   1.0000   1.0000
     1.0000   1.0000   1.0000   1.0000   1.0000   1.0000   1.0000   1.0000
     1.0000   1.0000   1.0000   1.0000   1.0000   1.0000   1.0000   1.0000
     1.0000   1.0000   1.0000   1.0000   1.0000   1.0000   1.0000   1.0000
     1.0000   1.0000   1.0000   1.0000   1.0000   1.0000   1.0000   1.0000
     1.0000   1.0000   1.0000   1.0000   1.0000   1.0000   1.0000   1.0000
     1.0000   1.0000   1.0000   1.0000   1.0000   1.0000   1.0000   1.0000
     1.0000   1.0000   1.0000   1.0000   1.0000   1.0000   1.0000   1.0000
     1.0000   1.0000   1.0000   1.0000   1.0000   1.0000   1.0000   1.0000
     1.0000   1.0000   1.0000   1.0000   1.0000   1.0000   1.0000   1.0000
     1.0000   1.0000   1.0000   1.0000   1.0000   1.0000   1.0000   1.0000
     1.0000   1.0000   1.0000   1.0000   1.0000   1.0000   1.0000   1.0000
     1.0000   1.0000   1.0000   1.0000   1.0000   1.0000   1.0000   1.0000
     1.0000   1.0000   1.0000   1.0000   1.0000   1.0000   1.0000   1.0000
     1.0000   1.0000   1.0000   1.0000   1.0000   1.0000   1.0000   1.0000
     1.0000   1.0000   1.0000   1.0000   1.0000   1.0000   1.0000   1.0000
     1.0000   1.0000   1.0000   1.0000   1.0000   1.0000   1.0000   1.0000
     1.0000   1.0000   1.0000   1.0000   1.0000   1.0000   1.0000   1.0000
     1.0000   1.0000   1.0000   1.0000   1.0000   0.9999   0.9999   0.9999
     0.9997   0.9997   0.9996   0.9995   0.9994   0.9993   0.9992   0.9991
     0.9987   0.9984   0.9979   0.9979   0.9922   0.9920   0.9914   0.9905
     0.9856   0.9848   0.9843   0.9837   0.9815   0.9807   0.9782   0.9759
     0.9743   0.9682   0.9670   0.9605   0.9582   0.9497   0.9314   0.9101
     0.8900   0.8858   0.8601   0.8508   0.8429   0.8158   0.8122   0.8082
     0.7982   0.7789   0.7603   0.7413   0.7210   0.7102   0.6855   0.6839
     0.6804   0.6770   0.6689   0.6622   0.6554   0.6511   0.6413   0.6360
     0.6269   0.6154   0.6127   0.5388   0.5324   0.1328   0.1164   0.0999
     0.0721   0.0148   0.0113   0.0053   0.0049   0.0006   0.0006   0.0003
     0.0003   0.0000   0.0000   0.0000   0.0000   0.0000   0.0000   0.0000
     0.0000   0.0000   0.0000   0.0000   0.0000   0.0000   0.0000   0.0000
     0.0000   0.0000   0.0000   0.0000   0.0000   0.0000   0.0000   0.0000

          k =-0.2500 0.2500 0.0000 ( 65198 PWs)   bands (ev):

   -92.7352 -92.6825 -92.5898 -92.5414 -92.4831 -92.4417 -92.4245 -92.3030
   -56.0886 -56.0684 -55.9469 -55.9359 -55.9294 -55.9227 -55.8868 -55.8588
   -55.8431 -55.8412 -55.8335 -55.7907 -55.7721 -55.7343 -55.7165 -55.6832
   -55.6768 -55.6302 -55.6301 -55.6270 -55.6185 -55.5776 -55.5548 -55.4684
   -31.3092 -31.2932 -31.1732 -31.1491 -31.0629 -30.9761 -30.9222 -30.7075
   -29.8821 -29.8411 -29.8140 -29.7060 -15.0517 -15.0098 -14.9371 -14.8199
   -14.7077 -14.5833 -14.4965 -14.2906 -14.1500 -14.1211 -14.1075 -14.0609
   -14.0366 -14.0139 -13.9981 -13.9590 -13.8709 -13.8599 -13.7063 -13.6802
   -13.6508 -13.6298 -13.5769 -13.5314 -13.4783 -13.4684 -13.3571 -13.3059
   -13.2564 -13.1807 -13.1399 -13.0983 -13.0726 -13.0386 -13.0177 -12.9805
   -12.9613 -12.9522 -12.9144 -12.8791 -12.8284 -12.8045 -12.8000 -12.7255
   -12.6876 -12.6549 -12.5087 -12.4751 -12.4498 -12.3155 -12.1520 -12.0950
   -11.8338 -11.8124 -11.7850 -11.7728 -11.7322 -11.6969 -11.6744 -11.6524
   -11.6301 -11.5447 -11.4999 -11.4904  -2.7009  -2.4928  -2.3719  -2.2827
    -2.1651  -2.0986  -1.8943  -1.7503  -1.7317  -1.7004  -1.6104  -1.5745
    -1.4820  -1.4477  -1.4217  -1.2792  -1.2236  -1.1542  -1.1264  -1.0655
    -1.0455  -1.0049  -0.9763  -0.9361  -0.8734  -0.8256  -0.7609  -0.6937
    -0.6697  -0.6177  -0.5896  -0.5434  -0.4849  -0.4363  -0.3990  -0.2960
    -0.2671  -0.2545  -0.2096  -0.1460  -0.0772  -0.0324   0.0024   0.0680
     0.1039   0.3550   0.5255   0.5648   0.6032   0.6610   0.7143   0.7677
     0.8338   0.8647   1.1471   1.2557   1.2954   1.3301   1.3358   1.3774
     1.3933   1.4384   1.4697   1.4839   1.5097   1.5545   1.5696   1.6122
     1.6333   1.6768   1.7561   1.7746   1.7965   1.8291   1.8606   1.8995
     1.9489   2.0590   2.1666   2.1978   2.2442   2.2634   2.3280   2.3715
     2.3984   2.4207   2.4437   2.5479   2.5838   2.6729   2.7747   2.8495
     2.8570   2.8745   2.8803   2.8926   2.9092   2.9122   2.9302   2.9387
     2.9532   2.9634   2.9753   2.9847   2.9972   3.0263   3.0354   3.0444
     3.0780   3.3701   3.4517   3.5178   3.5934   3.6018   3.8187   3.9282
     4.2657   4.4724   4.6891   4.9522   5.1564   5.6162   5.6695   5.7424
     5.7994   5.8643   6.0555   6.1574   6.1847   6.7744   6.8811   7.0774
     7.2171   7.5426   7.5864   7.6466   7.7645   7.8601   7.9283   8.1142
     8.1537   8.2223   8.2760   8.3181   8.4178   8.4628   8.7590   8.8826

     occupation numbers 
     1.0000   1.0000   1.0000   1.0000   1.0000   1.0000   1.0000   1.0000
     1.0000   1.0000   1.0000   1.0000   1.0000   1.0000   1.0000   1.0000
     1.0000   1.0000   1.0000   1.0000   1.0000   1.0000   1.0000   1.0000
     1.0000   1.0000   1.0000   1.0000   1.0000   1.0000   1.0000   1.0000
     1.0000   1.0000   1.0000   1.0000   1.0000   1.0000   1.0000   1.0000
     1.0000   1.0000   1.0000   1.0000   1.0000   1.0000   1.0000   1.0000
     1.0000   1.0000   1.0000   1.0000   1.0000   1.0000   1.0000   1.0000
     1.0000   1.0000   1.0000   1.0000   1.0000   1.0000   1.0000   1.0000
     1.0000   1.0000   1.0000   1.0000   1.0000   1.0000   1.0000   1.0000
     1.0000   1.0000   1.0000   1.0000   1.0000   1.0000   1.0000   1.0000
     1.0000   1.0000   1.0000   1.0000   1.0000   1.0000   1.0000   1.0000
     1.0000   1.0000   1.0000   1.0000   1.0000   1.0000   1.0000   1.0000
     1.0000   1.0000   1.0000   1.0000   1.0000   1.0000   1.0000   1.0000
     1.0000   1.0000   1.0000   1.0000   1.0000   1.0000   1.0000   1.0000
     1.0000   1.0000   1.0000   1.0000   1.0000   1.0000   1.0000   1.0000
     1.0000   1.0000   1.0000   1.0000   1.0000   1.0000   1.0000   1.0000
     1.0000   1.0000   1.0000   1.0000   1.0000   1.0000   1.0000   1.0000
     1.0000   1.0000   1.0000   1.0000   1.0000   1.0000   1.0000   1.0000
     1.0000   1.0000   1.0000   1.0000   1.0000   1.0000   1.0000   1.0000
     1.0000   1.0000   1.0000   1.0000   1.0000   1.0000   0.9999   0.9999
     0.9999   0.9998   0.9993   0.9988   0.9985   0.9982   0.9982   0.9978
     0.9976   0.9970   0.9966   0.9964   0.9959   0.9951   0.9947   0.9937
     0.9931   0.9918   0.9887   0.9879   0.9868   0.9851   0.9832   0.9807
     0.9770   0.9665   0.9527   0.9479   0.9402   0.9367   0.9239   0.9142
     0.9078   0.9022   0.8962   0.8655   0.8536   0.8212   0.7790   0.7446
     0.7410   0.7325   0.7297   0.7236   0.7153   0.7138   0.7047   0.7003
     0.6927   0.6874   0.6811   0.6761   0.6694   0.6536   0.6486   0.6436
     0.6249   0.4541   0.4065   0.3689   0.3275   0.3229   0.2173   0.1725
     0.0742   0.0399   0.0190   0.0069   0.0028   0.0003   0.0002   0.0001
     0.0001   0.0001   0.0000   0.0000   0.0000   0.0000   0.0000   0.0000
     0.0000   0.0000   0.0000   0.0000   0.0000   0.0000   0.0000   0.0000
     0.0000   0.0000   0.0000   0.0000   0.0000   0.0000   0.0000   0.0000

          k =-0.5000 0.2500 0.0000 ( 65138 PWs)   bands (ev):

   -92.7352 -92.6825 -92.5898 -92.5414 -92.4831 -92.4417 -92.4245 -92.3030
   -56.0886 -56.0684 -55.9469 -55.9359 -55.9294 -55.9227 -55.8868 -55.8588
   -55.8431 -55.8412 -55.8335 -55.7907 -55.7721 -55.7343 -55.7165 -55.6832
   -55.6768 -55.6302 -55.6301 -55.6270 -55.6185 -55.5776 -55.5548 -55.4684
   -31.3071 -31.2954 -31.1731 -31.1487 -31.0633 -30.9762 -30.9221 -30.7077
   -29.8810 -29.8421 -29.8136 -29.7064 -15.0164 -14.9705 -14.8930 -14.7934
   -14.7511 -14.6261 -14.5394 -14.4086 -14.1003 -14.0708 -14.0590 -14.0139
   -13.9929 -13.9662 -13.9306 -13.9217 -13.8986 -13.8591 -13.8505 -13.7458
   -13.6714 -13.6221 -13.6164 -13.6018 -13.5196 -13.5019 -13.3980 -13.3444
   -13.2337 -13.1985 -13.1094 -13.0853 -13.0583 -13.0486 -13.0154 -12.9826
   -12.9722 -12.9645 -12.9012 -12.8697 -12.8319 -12.7666 -12.7417 -12.6633
   -12.6533 -12.6446 -12.5721 -12.4334 -12.3549 -12.3052 -12.2042 -12.1772
   -11.8064 -11.7937 -11.7798 -11.7677 -11.7465 -11.7165 -11.6351 -11.6265
   -11.6036 -11.5671 -11.5395 -11.5304  -2.4737  -2.4318  -2.2835  -2.2416
    -2.0805  -2.0032  -1.8624  -1.7264  -1.6687  -1.6418  -1.6036  -1.5654
    -1.4846  -1.3694  -1.3121  -1.2892  -1.2631  -1.1861  -1.1583  -1.1203
    -1.1026  -1.0420  -1.0115  -0.9740  -0.9389  -0.9101  -0.8517  -0.8249
    -0.7836  -0.7479  -0.6433  -0.6185  -0.5238  -0.4684  -0.4342  -0.3744
    -0.2950  -0.2629  -0.1601  -0.1269  -0.0622  -0.0193   0.0176   0.0840
     0.1134   0.1463   0.1975   0.2350   0.5520   0.6029   0.6686   0.6919
     0.9778   1.0415   1.1128   1.1410   1.3168   1.3518   1.3892   1.4010
     1.4188   1.4366   1.5060   1.5517   1.5903   1.6234   1.7323   1.7760
     1.8097   1.8198   1.8511   1.8815   1.8968   1.9094   1.9282   1.9527
     1.9947   2.0166   2.0502   2.0752   2.1036   2.1643   2.2817   2.3829
     2.4121   2.4793   2.5187   2.5815   2.6122   2.6233   2.6635   2.6940
     2.7181   2.7654   2.8126   2.8543   2.8590   2.8650   2.8856   2.9102
     2.9202   2.9364   2.9480   2.9688   2.9843   2.9915   3.0000   3.0095
     3.0243   3.5578   3.5839   3.7425   3.7601   4.0451   4.1085   4.1689
     4.3644   4.7521   4.8462   5.0162   5.0496   5.3770   5.3999   5.5610
     5.6248   5.7151   5.7628   6.2103   6.3734   6.4734   6.5399   7.0939
     7.4702   7.5420   7.6917   7.7708   7.8296   7.8633   7.9988   8.1690
     8.3190   8.3916   8.4610   8.4987   8.5476   8.6353   8.6852   8.7259

     occupation numbers 
     1.0000   1.0000   1.0000   1.0000   1.0000   1.0000   1.0000   1.0000
     1.0000   1.0000   1.0000   1.0000   1.0000   1.0000   1.0000   1.0000
     1.0000   1.0000   1.0000   1.0000   1.0000   1.0000   1.0000   1.0000
     1.0000   1.0000   1.0000   1.0000   1.0000   1.0000   1.0000   1.0000
     1.0000   1.0000   1.0000   1.0000   1.0000   1.0000   1.0000   1.0000
     1.0000   1.0000   1.0000   1.0000   1.0000   1.0000   1.0000   1.0000
     1.0000   1.0000   1.0000   1.0000   1.0000   1.0000   1.0000   1.0000
     1.0000   1.0000   1.0000   1.0000   1.0000   1.0000   1.0000   1.0000
     1.0000   1.0000   1.0000   1.0000   1.0000   1.0000   1.0000   1.0000
     1.0000   1.0000   1.0000   1.0000   1.0000   1.0000   1.0000   1.0000
     1.0000   1.0000   1.0000   1.0000   1.0000   1.0000   1.0000   1.0000
     1.0000   1.0000   1.0000   1.0000   1.0000   1.0000   1.0000   1.0000
     1.0000   1.0000   1.0000   1.0000   1.0000   1.0000   1.0000   1.0000
     1.0000   1.0000   1.0000   1.0000   1.0000   1.0000   1.0000   1.0000
     1.0000   1.0000   1.0000   1.0000   1.0000   1.0000   1.0000   1.0000
     1.0000   1.0000   1.0000   1.0000   1.0000   1.0000   1.0000   1.0000
     1.0000   1.0000   1.0000   1.0000   1.0000   1.0000   1.0000   1.0000
     1.0000   1.0000   1.0000   1.0000   1.0000   1.0000   1.0000   1.0000
     1.0000   1.0000   1.0000   1.0000   1.0000   1.0000   1.0000   1.0000
     1.0000   1.0000   1.0000   1.0000   1.0000   1.0000   1.0000   0.9999
     0.9997   0.9996   0.9994   0.9993   0.9983   0.9980   0.9976   0.9975
     0.9973   0.9971   0.9960   0.9951   0.9943   0.9934   0.9897   0.9878
     0.9862   0.9856   0.9838   0.9819   0.9809   0.9800   0.9786   0.9767
     0.9730   0.9709   0.9674   0.9647   0.9612   0.9530   0.9333   0.9116
     0.9044   0.8864   0.8747   0.8544   0.8438   0.8398   0.8248   0.8129
     0.8031   0.7830   0.7619   0.7423   0.7400   0.7372   0.7271   0.7148
     0.7098   0.7015   0.6955   0.6845   0.6763   0.6725   0.6679   0.6628
     0.6547   0.3467   0.3326   0.2519   0.2437   0.1319   0.1128   0.0965
     0.0557   0.0151   0.0105   0.0052   0.0045   0.0010   0.0009   0.0004
     0.0003   0.0002   0.0001   0.0000   0.0000   0.0000   0.0000   0.0000
     0.0000   0.0000   0.0000   0.0000   0.0000   0.0000   0.0000   0.0000
     0.0000   0.0000   0.0000   0.0000   0.0000   0.0000   0.0000   0.0000

     the Fermi energy is     3.2924 ev

!    total energy              =   -4399.91969244 Ry
     estimated scf accuracy    <          6.6E-09 Ry
     smearing contrib. (-TS)   =      -1.14686771 Ry
     internal energy E=F+TS    =   -4398.77282473 Ry

     The total energy is F=E-TS. E is the sum of the following terms:
     one-electron contribution =  -21252.31159478 Ry
     hartree contribution      =   10753.77063642 Ry
     xc contribution           =    -686.72668450 Ry
     ewald contribution        =    7053.14002434 Ry
     one-center paw contrib.   =    -266.64520621 Ry
      -> PAW hartree energy AE =      25.17342576 Ry
      -> PAW hartree energy PS =     -25.05721724 Ry
      -> PAW xc energy AE      =     -16.51897906 Ry
      -> PAW xc energy PS      =       6.87851771 Ry
      -> total E_H with PAW    =   10753.88684493 Ry
      -> total E_XC with PAW   =    -696.36714585 Ry

     convergence has been achieved in  49 iterations

     Writing all to output data dir /bsuhome/zayahcortright/scratch/pwscf.save/
 
     init_run     :      7.77s CPU      8.03s WALL (       1 calls)
     electrons    :    704.24s CPU    716.31s WALL (       1 calls)

     Called by init_run:
     wfcinit      :      5.99s CPU      6.10s WALL (       1 calls)
     wfcinit:atom :      0.05s CPU      0.07s WALL (       5 calls)
     wfcinit:wfcr :      5.64s CPU      5.70s WALL (       5 calls)
     potinit      :      0.18s CPU      0.19s WALL (       1 calls)
     hinit0       :      0.68s CPU      0.76s WALL (       1 calls)

     Called by electrons:
     c_bands      :    556.91s CPU    561.59s WALL (      49 calls)
     sum_band     :    110.46s CPU    114.79s WALL (      49 calls)
     v_of_rho     :      5.38s CPU      5.66s WALL (      50 calls)
     v_h          :      0.42s CPU      0.42s WALL (      50 calls)
     v_xc         :      4.96s CPU      5.24s WALL (      50 calls)
     newd         :     16.82s CPU     19.22s WALL (      50 calls)
     PAW_pot      :      1.58s CPU      1.61s WALL (      50 calls)
     mix_rho      :     12.77s CPU     13.03s WALL (      49 calls)

     Called by c_bands:
     init_us_2    :      6.58s CPU      6.63s WALL (     495 calls)
     init_us_2:cp :      6.58s CPU      6.63s WALL (     495 calls)
     cegterg      :    524.41s CPU    528.90s WALL (     245 calls)

     Called by sum_band:
     sum_band:wei :      0.35s CPU      0.36s WALL (      49 calls)
     sum_band:loo :     90.79s CPU     91.43s WALL (      49 calls)
     sum_band:buf :      1.44s CPU      1.46s WALL (     245 calls)
     sum_band:ini :      3.04s CPU      3.05s WALL (     245 calls)
     sum_band:cal :     18.44s CPU     18.49s WALL (     245 calls)
     sum_band:bec :      0.55s CPU      0.56s WALL (     245 calls)
     addusdens    :     18.26s CPU     21.91s WALL (      49 calls)
                                        0.00s GPU  (      49 calls)
     addusd:skk   :      0.33s CPU      0.67s WALL (     196 calls)
                                        0.00s GPU  (     196 calls)

     Called by *egterg:
     cdiaghg      :     55.56s CPU     55.76s WALL (    1295 calls)
     cegterg:over :     39.21s CPU     39.33s WALL (    1050 calls)
     cegterg:upda :     28.44s CPU     28.80s WALL (    1050 calls)
     cegterg:last :     54.39s CPU     54.64s WALL (     432 calls)
     cdiaghg:chol :      3.20s CPU      3.22s WALL (    1295 calls)
     cdiaghg:inve :      3.44s CPU      3.45s WALL (    1295 calls)
     cdiaghg:para :      7.23s CPU      7.26s WALL (    2590 calls)
     h_psi        :    293.58s CPU    296.14s WALL (    1300 calls)
     s_psi        :     37.75s CPU     37.85s WALL (    1300 calls)
     g_psi        :      1.09s CPU      1.09s WALL (    1050 calls)

     Called by h_psi:
     h_psi:calbec :     42.50s CPU     42.62s WALL (    1300 calls)
     vloc_psi     :    210.20s CPU    212.12s WALL (    1300 calls)
     add_vuspsi   :     37.70s CPU     37.83s WALL (    1300 calls)

     General routines
     calbec       :     60.93s CPU     61.11s WALL (    1545 calls)
     fft          :      3.78s CPU      3.82s WALL (     648 calls)
     ffts         :      4.74s CPU      4.77s WALL (    5203 calls)
     fftw         :    181.78s CPU    183.21s WALL (  330188 calls)
     interpolate  :      0.41s CPU      0.42s WALL (      50 calls)
 
     Parallel routines

     PAW routines
     PAW_pot      :      1.58s CPU      1.61s WALL (      50 calls)
 
     PWSCF        :  11m53.54s CPU  12m 8.96s WALL

 
   This run was terminated on:  12:33:40  21Jun2024            

=------------------------------------------------------------------------------=
   JOB DONE.
=------------------------------------------------------------------------------=
