
     Program PWSCF v.7.2 starts on 21Jun2024 at 22:13:54 

     This program is part of the open-source Quantum ESPRESSO suite
     for quantum simulation of materials; please cite
         "P. Giannozzi et al., J. Phys.:Condens. Matter 21 395502 (2009);
         "P. Giannozzi et al., J. Phys.:Condens. Matter 29 465901 (2017);
         "P. Giannozzi et al., J. Chem. Phys. 152 154105 (2020);
          URL http://www.quantum-espresso.org", 
     in publications or presentations arising from this work. More details at
     http://www.quantum-espresso.org/quote

     Parallel version (MPI & OpenMP), running on      48 processor cores
     Number of MPI processes:                48
     Threads/MPI process:                     1

     MPI processes distributed on     1 nodes
     33238 MiB available memory on the printing compute node when the environment starts
 
     Reading input from espresso.pwi
Warning: card &CELL ignored
Warning: card / ignored
Warning: card &FCP ignored
Warning: card / ignored
Warning: card &RISM ignored
Warning: card / ignored

     Current dimensions of program PWSCF are:
     Max number of different atomic species (ntypx) = 10
     Max number of k-points (npk) =  40000
     Max angular momentum in pseudopotentials (lmaxx) =  4
     file O.pbe-n-kjpaw_psl.0.1.UPF: wavefunction(s)  2P renormalized
     signal trapping enabled: kill the code with -SIGUSR1 to stop cleanly the simulation 
 
     K-points division:     npool     =       2
     R & G space division:  proc/nbgrp/npool/nimage =      24
     Subspace diagonalization in iterative solution of the eigenvalue problem:
     one sub-group per band group will be used
     scalapack distributed-memory algorithm (size of sub-group:  3*  3 procs)

 
     Parallelization info
     --------------------
     sticks:   dense  smooth     PW     G-vecs:    dense   smooth      PW
     Min         350     175     47                61430    21716    3036
     Max         351     177     48                61449    21727    3041
     Sum        8421    4205   1137              1474595   521381   72913
 
     Using Slab Decomposition
 


     bravais-lattice index     =            0
     lattice parameter (alat)  =      14.8599  a.u.
     unit-cell volume          =    8305.1283 (a.u.)^3
     number of atoms/cell      =           50
     number of atomic types    =            4
     number of electrons       =       431.00
     number of Kohn-Sham states=          259
     kinetic-energy cutoff     =      60.0000  Ry
     charge density cutoff     =     480.0000  Ry
     scf convergence threshold =      1.0E-08
     mixing beta               =       0.1500
     number of iterations used =            8  local-TF  mixing
     Exchange-correlation= PBE
                           (   1   4   3   4   0   0   0)

     celldm(1)=  14.859904  celldm(2)=   0.000000  celldm(3)=   0.000000
     celldm(4)=   0.000000  celldm(5)=   0.000000  celldm(6)=   0.000000

     crystal axes: (cart. coord. in units of alat)
               a(1) = (   1.000000   0.000000   0.000000 )  
               a(2) = (   0.000000   1.000000   0.000000 )  
               a(3) = (   0.000000   0.000000   2.531036 )  

     reciprocal axes: (cart. coord. in units 2 pi/alat)
               b(1) = (  1.000000  0.000000  0.000000 )  
               b(2) = (  0.000000  1.000000  0.000000 )  
               b(3) = (  0.000000  0.000000  0.395095 )  


     PseudoPot. # 1 for Sr read from file:
     /bsuhome/zayahcortright/q-e/pseudo/Sr_pbe_v1.uspp.F.UPF
     MD5 check sum: 6b418c05fbe9db5448babca5e47b7a5b
     Pseudo is Ultrasoft + core correction, Zval = 10.0
     Generated by new atomic code, or converted to UPF format
     Using radial grid of  883 points,  6 beta functions with: 
                l(1) =   0
                l(2) =   0
                l(3) =   1
                l(4) =   1
                l(5) =   2
                l(6) =   2
     Q(r) pseudized with  6 coefficients,  rinner =    1.400   1.400   1.400
                                                       1.400   1.400

     PseudoPot. # 2 for O  read from file:
     /bsuhome/zayahcortright/q-e/pseudo/O.pbe-n-kjpaw_psl.0.1.UPF
     MD5 check sum: 0234752ac141de4415c5fc33072bef88
     Pseudo is Projector augmented-wave + core cor, Zval =  6.0
     Generated using "atomic" code by A. Dal Corso  v.5.0.99 svn rev. 10869
     Shape of augmentation charge: BESSEL
     Using radial grid of 1095 points,  4 beta functions with: 
                l(1) =   0
                l(2) =   0
                l(3) =   1
                l(4) =   1
     Q(r) pseudized with 0 coefficients 


     PseudoPot. # 3 for Co read from file:
     /bsuhome/zayahcortright/q-e/pseudo/Co_pbe_v1.2.uspp.F.UPF
     MD5 check sum: 5f91765df6ddd3222702df6e7b74a16d
     Pseudo is Ultrasoft + core correction, Zval = 17.0
     Generated by new atomic code, or converted to UPF format
     Using radial grid of  863 points,  6 beta functions with: 
                l(1) =   0
                l(2) =   0
                l(3) =   1
                l(4) =   1
                l(5) =   2
                l(6) =   2
     Q(r) pseudized with  8 coefficients,  rinner =    1.200   1.200   1.200
                                                       1.200   1.200

     PseudoPot. # 4 for H  read from file:
     /bsuhome/zayahcortright/q-e/pseudo/H.pbe-rrkjus_psl.1.0.0.UPF
     MD5 check sum: f52b6d4d1c606e5624b1dc7b2218f220
     Pseudo is Ultrasoft, Zval =  1.0
     Generated using "atomic" code by A. Dal Corso  v.5.1
     Using radial grid of  929 points,  2 beta functions with: 
                l(1) =   0
                l(2) =   0
     Q(r) pseudized with 0 coefficients 


     atomic species   valence    mass     pseudopotential
        Sr            10.00    87.62000     Sr( 1.00)
        O              6.00    15.99900     O ( 1.00)
        Co            17.00    58.93319     Co( 1.00)
        H              1.00     1.00800     H ( 1.00)

     No symmetry found


                                    s                        frac. trans.

      isym =  1     identity                                     

 cryst.   s( 1) = (     1          0          0      )
                  (     0          1          0      )
                  (     0          0          1      )

 cart.    s( 1) = (  1.0000000  0.0000000  0.0000000 )
                  (  0.0000000  1.0000000  0.0000000 )
                  (  0.0000000  0.0000000  1.0000000 )


   Cartesian axes

     site n.     atom                  positions (alat units)
         1           Sr  tau(   1) = (   0.2508693   0.7491307   1.7574407  )
         2           O   tau(   2) = (   0.4985141   0.5014859   1.7715967  )
         3           Sr  tau(   3) = (   0.7482398   0.7454518   1.7648669  )
         4           Sr  tau(   4) = (   0.7441748   0.2558252   1.7667843  )
         5           Sr  tau(   5) = (   0.2508693   0.7491307   1.2696799  )
         6           Sr  tau(   6) = (   0.2508693   0.7491307   0.7632319  )
         7           Co  tau(   7) = (   0.4998914   0.5001086   1.0164559  )
         8           Co  tau(   8) = (   0.4936915   0.5063085   1.5135603  )
         9           O   tau(   9) = (   0.4988895   0.7610401   1.0164559  )
        10           O   tau(  10) = (   0.2389599   0.5011105   1.0164559  )
        11           O   tau(  11) = (   0.0070918   0.7374880   1.0164559  )
        12           O   tau(  12) = (   0.0088340   0.7405089   1.5135603  )
        13           O   tau(  13) = (   0.5066944   0.7415376   1.5135603  )
        14           O   tau(  14) = (   0.2584624   0.4933056   1.5135603  )
        15           O   tau(  15) = (   0.4985141   0.5014859   0.7773880  )
        16           O   tau(  16) = (   0.4985141   0.5014859   1.2555238  )
        17           Sr  tau(  17) = (   0.7482398   0.7454518   0.7706582  )
        18           Sr  tau(  18) = (   0.7482398   0.7454518   1.2622536  )
        19           Sr  tau(  19) = (   0.7441748   0.2558252   0.7725755  )
        20           Sr  tau(  20) = (   0.7441748   0.2558252   1.2603363  )
        21           O   tau(  21) = (   0.7322655   0.0078049   1.5135603  )
        22           O   tau(  22) = (   0.7558175   0.4996027   1.5135603  )
        23           O   tau(  23) = (   0.5003973   0.2441825   1.5135603  )
        24           O   tau(  24) = (   0.7527966   0.4978604   1.0164559  )
        25           O   tau(  25) = (   0.5021396   0.2472034   1.0164559  )
        26           O   tau(  26) = (   0.7517679   0.0000000   1.0164559  )
        27           O   tau(  27) = (   0.0114961   0.4948124   1.7455321  )
        28           O   tau(  28) = (   0.0048226   0.0077944   1.7715967  )
        29           Sr  tau(  29) = (   0.2545482   0.2517602   1.7648669  )
        30           O   tau(  30) = (   0.5048017   0.0015068   1.7786929  )
        31           Co  tau(  31) = (   0.0056869   0.5006215   1.0164559  )
        32           Co  tau(  32) = (   0.0065315   0.4997770   1.5135603  )
        33           Co  tau(  33) = (   0.0061999   0.0064171   1.0164559  )
        34           Co  tau(  34) = (   0.0000000   0.0126169   1.5135603  )
        35           O   tau(  35) = (   0.0114961   0.4948124   1.2815885  )
        36           O   tau(  36) = (   0.0114961   0.4948124   0.7513233  )
        37           O   tau(  37) = (   0.0051979   0.2673486   1.0164559  )
        38           O   tau(  38) = (   0.0130029   0.2478461   1.5135603  )
        39           O   tau(  39) = (   0.0048226   0.0077944   0.7773880  )
        40           O   tau(  40) = (   0.0048226   0.0077944   1.2555238  )
        41           Sr  tau(  41) = (   0.2545482   0.2517602   0.7706582  )
        42           Sr  tau(  42) = (   0.2545482   0.2517602   1.2622536  )
        43           Co  tau(  43) = (   0.4989925   0.0073160   1.5135603  )
        44           Co  tau(  44) = (   0.4998370   0.0064714   1.0164559  )
        45           O   tau(  45) = (   0.5048017   0.0015068   0.7844841  )
        46           O   tau(  46) = (   0.5048017   0.0015068   1.2484277  )
        47           O   tau(  47) = (   0.2621260   0.0059111   1.5135603  )
        48           O   tau(  48) = (   0.2591051   0.0041689   1.0164559  )
        49           O   tau(  49) = (   0.5686583   0.1421646   2.1602013  )
        50           H   tau(  50) = (   0.5686583   0.1421646   2.2847091  )

   Crystallographic axes

     site n.     atom                  positions (cryst. coord.)
         1           Sr  tau(   1) = (  0.2508693  0.7491307  0.6943562  )
         2           O   tau(   2) = (  0.4985141  0.5014859  0.6999492  )
         3           Sr  tau(   3) = (  0.7482398  0.7454518  0.6972903  )
         4           Sr  tau(   4) = (  0.7441748  0.2558252  0.6980478  )
         5           Sr  tau(   5) = (  0.2508693  0.7491307  0.5016443  )
         6           Sr  tau(   6) = (  0.2508693  0.7491307  0.3015492  )
         7           Co  tau(   7) = (  0.4998914  0.5001086  0.4015968  )
         8           Co  tau(   8) = (  0.4936915  0.5063085  0.5980003  )
         9           O   tau(   9) = (  0.4988895  0.7610401  0.4015968  )
        10           O   tau(  10) = (  0.2389599  0.5011105  0.4015968  )
        11           O   tau(  11) = (  0.0070918  0.7374880  0.4015968  )
        12           O   tau(  12) = (  0.0088340  0.7405089  0.5980003  )
        13           O   tau(  13) = (  0.5066944  0.7415376  0.5980003  )
        14           O   tau(  14) = (  0.2584624  0.4933056  0.5980003  )
        15           O   tau(  15) = (  0.4985141  0.5014859  0.3071422  )
        16           O   tau(  16) = (  0.4985141  0.5014859  0.4960513  )
        17           Sr  tau(  17) = (  0.7482398  0.7454518  0.3044833  )
        18           Sr  tau(  18) = (  0.7482398  0.7454518  0.4987103  )
        19           Sr  tau(  19) = (  0.7441748  0.2558252  0.3052408  )
        20           Sr  tau(  20) = (  0.7441748  0.2558252  0.4979527  )
        21           O   tau(  21) = (  0.7322655  0.0078049  0.5980003  )
        22           O   tau(  22) = (  0.7558175  0.4996027  0.5980003  )
        23           O   tau(  23) = (  0.5003973  0.2441825  0.5980003  )
        24           O   tau(  24) = (  0.7527966  0.4978604  0.4015968  )
        25           O   tau(  25) = (  0.5021396  0.2472034  0.4015968  )
        26           O   tau(  26) = (  0.7517679  0.0000000  0.4015968  )
        27           O   tau(  27) = (  0.0114961  0.4948124  0.6896512  )
        28           O   tau(  28) = (  0.0048226  0.0077944  0.6999492  )
        29           Sr  tau(  29) = (  0.2545482  0.2517602  0.6972903  )
        30           O   tau(  30) = (  0.5048017  0.0015068  0.7027529  )
        31           Co  tau(  31) = (  0.0056869  0.5006215  0.4015968  )
        32           Co  tau(  32) = (  0.0065315  0.4997770  0.5980003  )
        33           Co  tau(  33) = (  0.0061999  0.0064171  0.4015968  )
        34           Co  tau(  34) = (  0.0000000  0.0126169  0.5980003  )
        35           O   tau(  35) = (  0.0114961  0.4948124  0.5063494  )
        36           O   tau(  36) = (  0.0114961  0.4948124  0.2968442  )
        37           O   tau(  37) = (  0.0051979  0.2673486  0.4015968  )
        38           O   tau(  38) = (  0.0130029  0.2478461  0.5980003  )
        39           O   tau(  39) = (  0.0048226  0.0077944  0.3071422  )
        40           O   tau(  40) = (  0.0048226  0.0077944  0.4960513  )
        41           Sr  tau(  41) = (  0.2545482  0.2517602  0.3044833  )
        42           Sr  tau(  42) = (  0.2545482  0.2517602  0.4987103  )
        43           Co  tau(  43) = (  0.4989925  0.0073160  0.5980003  )
        44           Co  tau(  44) = (  0.4998370  0.0064714  0.4015968  )
        45           O   tau(  45) = (  0.5048017  0.0015068  0.3099459  )
        46           O   tau(  46) = (  0.5048017  0.0015068  0.4932477  )
        47           O   tau(  47) = (  0.2621260  0.0059111  0.5980003  )
        48           O   tau(  48) = (  0.2591051  0.0041689  0.4015968  )
        49           O   tau(  49) = (  0.5686583  0.1421646  0.8534850  )
        50           H   tau(  50) = (  0.5686583  0.1421646  0.9026774  )

     number of k points=    10  Gaussian smearing, width (Ry)=  0.0700
                       cart. coord. in units 2pi/alat
        k(    1) = (   0.0000000   0.0000000   0.0000000), wk =   0.1250000
        k(    2) = (   0.0000000   0.2500000   0.0000000), wk =   0.2500000
        k(    3) = (   0.0000000  -0.5000000   0.0000000), wk =   0.1250000
        k(    4) = (   0.2500000   0.2500000   0.0000000), wk =   0.2500000
        k(    5) = (   0.2500000  -0.5000000   0.0000000), wk =   0.2500000
        k(    6) = (  -0.5000000  -0.5000000   0.0000000), wk =   0.1250000
        k(    7) = (   0.2500000   0.0000000   0.0000000), wk =   0.2500000
        k(    8) = (  -0.5000000   0.0000000   0.0000000), wk =   0.1250000
        k(    9) = (  -0.2500000   0.2500000   0.0000000), wk =   0.2500000
        k(   10) = (  -0.5000000   0.2500000   0.0000000), wk =   0.2500000

                       cryst. coord.
        k(    1) = (   0.0000000   0.0000000   0.0000000), wk =   0.1250000
        k(    2) = (   0.0000000   0.2500000   0.0000000), wk =   0.2500000
        k(    3) = (   0.0000000  -0.5000000   0.0000000), wk =   0.1250000
        k(    4) = (   0.2500000   0.2500000   0.0000000), wk =   0.2500000
        k(    5) = (   0.2500000  -0.5000000   0.0000000), wk =   0.2500000
        k(    6) = (  -0.5000000  -0.5000000   0.0000000), wk =   0.1250000
        k(    7) = (   0.2500000   0.0000000   0.0000000), wk =   0.2500000
        k(    8) = (  -0.5000000   0.0000000   0.0000000), wk =   0.1250000
        k(    9) = (  -0.2500000   0.2500000   0.0000000), wk =   0.2500000
        k(   10) = (  -0.5000000   0.2500000   0.0000000), wk =   0.2500000

     Dense  grid:  1474595 G-vectors     FFT dimensions: ( 108, 108, 270)

     Smooth grid:   521381 G-vectors     FFT dimensions: (  75,  75, 192)

     Dynamical RAM for                 wfc:      10.73 MB

     Dynamical RAM for     wfc (w. buffer):      64.38 MB

     Dynamical RAM for           str. fact:       3.75 MB

     Dynamical RAM for           local pot:       0.00 MB

     Dynamical RAM for          nlocal pot:      24.61 MB

     Dynamical RAM for                qrad:       7.03 MB

     Dynamical RAM for          rho,v,vnew:       6.02 MB

     Dynamical RAM for               rhoin:       2.01 MB

     Dynamical RAM for            rho*nmix:      15.00 MB

     Dynamical RAM for           G-vectors:       3.68 MB

     Dynamical RAM for          h,s,v(r/c):       1.35 MB

     Dynamical RAM for          <psi|beta>:       2.35 MB

     Dynamical RAM for                 psi:      21.46 MB

     Dynamical RAM for                hpsi:      21.46 MB

     Dynamical RAM for                spsi:      21.46 MB

     Dynamical RAM for      wfcinit/wfcrot:      34.49 MB

     Dynamical RAM for           addusdens:     101.26 MB

     Estimated static dynamical RAM per process >     121.50 MB

     Estimated max dynamical RAM per process >     237.76 MB

     Estimated total dynamical RAM >      10.79 GB

     Check: negative core charge=   -0.000004

     Initial potential from superposition of free atoms

     starting charge     422.5961, renormalised to     431.0000

     negative rho (up, down):  7.820E-01 0.000E+00
     Starting wfcs are  377 randomized atomic wfcs
     Checking if some PAW data can be deallocated... 
       PAW data deallocated on   19 nodes for type:  2

     total cpu time spent up to now is        9.2 secs

     Self-consistent Calculation

     iteration #  1     ecut=    60.00 Ry     beta= 0.15
     Davidson diagonalization with overlap

---- Real-time Memory Report at c_bands before calling an iterative solver
             0 MiB given to the printing process from OS
             0 MiB allocation reported by mallinfo(arena+hblkhd)
         23982 MiB available memory on the node where the printing process lives
------------------
     ethr =  1.00E-02,  avg # of iterations =  2.0

     negative rho (up, down):  7.714E-01 0.000E+00

     total cpu time spent up to now is       25.7 secs

     total energy              =   -4446.57986016 Ry
     estimated scf accuracy    <      44.76840437 Ry

     iteration #  2     ecut=    60.00 Ry     beta= 0.15
     Davidson diagonalization with overlap

---- Real-time Memory Report at c_bands before calling an iterative solver
             0 MiB given to the printing process from OS
             0 MiB allocation reported by mallinfo(arena+hblkhd)
         24263 MiB available memory on the node where the printing process lives
------------------
     ethr =  1.00E-02,  avg # of iterations =  1.0

     negative rho (up, down):  7.580E-01 0.000E+00

     total cpu time spent up to now is       40.1 secs

     total energy              =   -4443.25743705 Ry
     estimated scf accuracy    <      29.44151765 Ry

     iteration #  3     ecut=    60.00 Ry     beta= 0.15
     Davidson diagonalization with overlap

---- Real-time Memory Report at c_bands before calling an iterative solver
             0 MiB given to the printing process from OS
             0 MiB allocation reported by mallinfo(arena+hblkhd)
         23419 MiB available memory on the node where the printing process lives
------------------
     ethr =  6.83E-03,  avg # of iterations =  1.0

     negative rho (up, down):  7.554E-01 0.000E+00

     total cpu time spent up to now is       55.0 secs

     total energy              =   -4444.26313512 Ry
     estimated scf accuracy    <      29.09375959 Ry

     iteration #  4     ecut=    60.00 Ry     beta= 0.15
     Davidson diagonalization with overlap

---- Real-time Memory Report at c_bands before calling an iterative solver
             0 MiB given to the printing process from OS
             0 MiB allocation reported by mallinfo(arena+hblkhd)
         23387 MiB available memory on the node where the printing process lives
------------------
     ethr =  6.75E-03,  avg # of iterations =  1.0

     negative rho (up, down):  7.492E-01 0.000E+00

     total cpu time spent up to now is       69.7 secs

     total energy              =   -4443.05484965 Ry
     estimated scf accuracy    <      20.95665130 Ry

     iteration #  5     ecut=    60.00 Ry     beta= 0.15
     Davidson diagonalization with overlap

---- Real-time Memory Report at c_bands before calling an iterative solver
             0 MiB given to the printing process from OS
             0 MiB allocation reported by mallinfo(arena+hblkhd)
         23378 MiB available memory on the node where the printing process lives
------------------
     ethr =  4.86E-03,  avg # of iterations =  1.0

     negative rho (up, down):  7.408E-01 0.000E+00

     total cpu time spent up to now is       84.5 secs

     total energy              =   -4442.59431214 Ry
     estimated scf accuracy    <       9.99619782 Ry

     iteration #  6     ecut=    60.00 Ry     beta= 0.15
     Davidson diagonalization with overlap

---- Real-time Memory Report at c_bands before calling an iterative solver
             0 MiB given to the printing process from OS
             0 MiB allocation reported by mallinfo(arena+hblkhd)
         23358 MiB available memory on the node where the printing process lives
------------------
     ethr =  2.32E-03,  avg # of iterations =  1.1

     negative rho (up, down):  7.432E-01 0.000E+00

     total cpu time spent up to now is       99.4 secs

     total energy              =   -4442.80454320 Ry
     estimated scf accuracy    <       4.85849167 Ry

     iteration #  7     ecut=    60.00 Ry     beta= 0.15
     Davidson diagonalization with overlap

---- Real-time Memory Report at c_bands before calling an iterative solver
             0 MiB given to the printing process from OS
             0 MiB allocation reported by mallinfo(arena+hblkhd)
         23338 MiB available memory on the node where the printing process lives
------------------
     ethr =  1.13E-03,  avg # of iterations =  1.7

     negative rho (up, down):  7.646E-01 0.000E+00

     total cpu time spent up to now is      114.5 secs

     total energy              =   -4441.65970575 Ry
     estimated scf accuracy    <       3.91530616 Ry

     iteration #  8     ecut=    60.00 Ry     beta= 0.15
     Davidson diagonalization with overlap

---- Real-time Memory Report at c_bands before calling an iterative solver
             0 MiB given to the printing process from OS
             0 MiB allocation reported by mallinfo(arena+hblkhd)
         23318 MiB available memory on the node where the printing process lives
------------------
     ethr =  9.08E-04,  avg # of iterations =  6.3

     negative rho (up, down):  7.722E-01 0.000E+00

     total cpu time spent up to now is      135.7 secs

     total energy              =   -4441.54147987 Ry
     estimated scf accuracy    <      14.07556990 Ry

     iteration #  9     ecut=    60.00 Ry     beta= 0.15
     Davidson diagonalization with overlap

---- Real-time Memory Report at c_bands before calling an iterative solver
             0 MiB given to the printing process from OS
             0 MiB allocation reported by mallinfo(arena+hblkhd)
         23103 MiB available memory on the node where the printing process lives
------------------
     ethr =  9.08E-04,  avg # of iterations =  9.7

     negative rho (up, down):  7.705E-01 0.000E+00

     total cpu time spent up to now is      158.1 secs

     total energy              =   -4441.79470065 Ry
     estimated scf accuracy    <       2.19409042 Ry

     iteration # 10     ecut=    60.00 Ry     beta= 0.15
     Davidson diagonalization with overlap

---- Real-time Memory Report at c_bands before calling an iterative solver
             0 MiB given to the printing process from OS
             0 MiB allocation reported by mallinfo(arena+hblkhd)
         22819 MiB available memory on the node where the printing process lives
------------------
     ethr =  5.09E-04,  avg # of iterations =  1.7

     negative rho (up, down):  7.792E-01 0.000E+00

     total cpu time spent up to now is      175.0 secs

     total energy              =   -4441.92696356 Ry
     estimated scf accuracy    <       1.11011130 Ry

     iteration # 11     ecut=    60.00 Ry     beta= 0.15
     Davidson diagonalization with overlap

---- Real-time Memory Report at c_bands before calling an iterative solver
             0 MiB given to the printing process from OS
             0 MiB allocation reported by mallinfo(arena+hblkhd)
         22809 MiB available memory on the node where the printing process lives
------------------
     ethr =  2.58E-04,  avg # of iterations =  3.4

     negative rho (up, down):  8.082E-01 0.000E+00

     total cpu time spent up to now is      193.6 secs

     total energy              =   -4441.72580138 Ry
     estimated scf accuracy    <       1.39544804 Ry

     iteration # 12     ecut=    60.00 Ry     beta= 0.15
     Davidson diagonalization with overlap

---- Real-time Memory Report at c_bands before calling an iterative solver
             0 MiB given to the printing process from OS
             0 MiB allocation reported by mallinfo(arena+hblkhd)
         22785 MiB available memory on the node where the printing process lives
------------------
     ethr =  2.58E-04,  avg # of iterations =  8.1

     negative rho (up, down):  8.129E-01 0.000E+00

     total cpu time spent up to now is      213.9 secs

     total energy              =   -4441.83842878 Ry
     estimated scf accuracy    <       0.84884787 Ry

     iteration # 13     ecut=    60.00 Ry     beta= 0.15
     Davidson diagonalization with overlap

---- Real-time Memory Report at c_bands before calling an iterative solver
             0 MiB given to the printing process from OS
             0 MiB allocation reported by mallinfo(arena+hblkhd)
         22752 MiB available memory on the node where the printing process lives
------------------
     ethr =  1.97E-04,  avg # of iterations =  2.2

     negative rho (up, down):  8.177E-01 0.000E+00

     total cpu time spent up to now is      230.1 secs

     total energy              =   -4441.79031212 Ry
     estimated scf accuracy    <       0.52683971 Ry

     iteration # 14     ecut=    60.00 Ry     beta= 0.15
     Davidson diagonalization with overlap

---- Real-time Memory Report at c_bands before calling an iterative solver
             0 MiB given to the printing process from OS
             0 MiB allocation reported by mallinfo(arena+hblkhd)
         22756 MiB available memory on the node where the printing process lives
------------------
     ethr =  1.22E-04,  avg # of iterations =  4.0

     negative rho (up, down):  8.270E-01 0.000E+00

     total cpu time spent up to now is      247.8 secs

     total energy              =   -4441.71284790 Ry
     estimated scf accuracy    <       0.36172244 Ry

     iteration # 15     ecut=    60.00 Ry     beta= 0.15
     Davidson diagonalization with overlap

---- Real-time Memory Report at c_bands before calling an iterative solver
             0 MiB given to the printing process from OS
             0 MiB allocation reported by mallinfo(arena+hblkhd)
         22747 MiB available memory on the node where the printing process lives
------------------
     ethr =  8.39E-05,  avg # of iterations = 14.5

     negative rho (up, down):  8.336E-01 0.000E+00

     total cpu time spent up to now is      271.3 secs

     total energy              =   -4441.72504992 Ry
     estimated scf accuracy    <       0.34707677 Ry

     iteration # 16     ecut=    60.00 Ry     beta= 0.15
     Davidson diagonalization with overlap

---- Real-time Memory Report at c_bands before calling an iterative solver
             0 MiB given to the printing process from OS
             0 MiB allocation reported by mallinfo(arena+hblkhd)
         22728 MiB available memory on the node where the printing process lives
------------------
     ethr =  8.05E-05,  avg # of iterations =  1.6

     negative rho (up, down):  8.268E-01 0.000E+00

     total cpu time spent up to now is      287.3 secs

     total energy              =   -4441.70657298 Ry
     estimated scf accuracy    <       0.26938766 Ry

     iteration # 17     ecut=    60.00 Ry     beta= 0.15
     Davidson diagonalization with overlap

---- Real-time Memory Report at c_bands before calling an iterative solver
             0 MiB given to the printing process from OS
             0 MiB allocation reported by mallinfo(arena+hblkhd)
         22732 MiB available memory on the node where the printing process lives
------------------
     c_bands:  1 eigenvalues not converged
     ethr =  6.25E-05,  avg # of iterations =  3.5

     negative rho (up, down):  8.075E-01 0.000E+00

     total cpu time spent up to now is      305.3 secs

     total energy              =   -4441.67105317 Ry
     estimated scf accuracy    <       0.16096796 Ry

     iteration # 18     ecut=    60.00 Ry     beta= 0.15
     Davidson diagonalization with overlap

---- Real-time Memory Report at c_bands before calling an iterative solver
             0 MiB given to the printing process from OS
             0 MiB allocation reported by mallinfo(arena+hblkhd)
         22735 MiB available memory on the node where the printing process lives
------------------
     ethr =  3.73E-05,  avg # of iterations =  9.3

     negative rho (up, down):  8.448E-01 0.000E+00

     total cpu time spent up to now is      326.8 secs

     total energy              =   -4441.66712697 Ry
     estimated scf accuracy    <       0.07354752 Ry

     iteration # 19     ecut=    60.00 Ry     beta= 0.15
     Davidson diagonalization with overlap

---- Real-time Memory Report at c_bands before calling an iterative solver
             0 MiB given to the printing process from OS
             0 MiB allocation reported by mallinfo(arena+hblkhd)
         22637 MiB available memory on the node where the printing process lives
------------------
     ethr =  1.71E-05,  avg # of iterations = 10.5

     negative rho (up, down):  8.341E-01 0.000E+00

     total cpu time spent up to now is      349.3 secs

     total energy              =   -4441.66645016 Ry
     estimated scf accuracy    <       0.04288266 Ry

     iteration # 20     ecut=    60.00 Ry     beta= 0.15
     Davidson diagonalization with overlap

---- Real-time Memory Report at c_bands before calling an iterative solver
             0 MiB given to the printing process from OS
             0 MiB allocation reported by mallinfo(arena+hblkhd)
         22596 MiB available memory on the node where the printing process lives
------------------
     ethr =  9.95E-06,  avg # of iterations =  3.7

     negative rho (up, down):  8.114E-01 0.000E+00

     total cpu time spent up to now is      367.1 secs

     total energy              =   -4441.66267233 Ry
     estimated scf accuracy    <       0.03008401 Ry

     iteration # 21     ecut=    60.00 Ry     beta= 0.15
     Davidson diagonalization with overlap

---- Real-time Memory Report at c_bands before calling an iterative solver
             0 MiB given to the printing process from OS
             0 MiB allocation reported by mallinfo(arena+hblkhd)
         22616 MiB available memory on the node where the printing process lives
------------------
     c_bands:  1 eigenvalues not converged
     c_bands:  1 eigenvalues not converged
     ethr =  6.98E-06,  avg # of iterations =  7.2

     negative rho (up, down):  8.062E-01 0.000E+00

     total cpu time spent up to now is      387.2 secs

     total energy              =   -4441.66151753 Ry
     estimated scf accuracy    <       0.02166902 Ry

     iteration # 22     ecut=    60.00 Ry     beta= 0.15
     Davidson diagonalization with overlap

---- Real-time Memory Report at c_bands before calling an iterative solver
             0 MiB given to the printing process from OS
             0 MiB allocation reported by mallinfo(arena+hblkhd)
         22655 MiB available memory on the node where the printing process lives
------------------
     ethr =  5.03E-06,  avg # of iterations =  3.9

     negative rho (up, down):  7.956E-01 0.000E+00

     total cpu time spent up to now is      405.2 secs

     total energy              =   -4441.65793171 Ry
     estimated scf accuracy    <       0.01746015 Ry

     iteration # 23     ecut=    60.00 Ry     beta= 0.15
     Davidson diagonalization with overlap

---- Real-time Memory Report at c_bands before calling an iterative solver
             0 MiB given to the printing process from OS
             0 MiB allocation reported by mallinfo(arena+hblkhd)
         22660 MiB available memory on the node where the printing process lives
------------------
     ethr =  4.05E-06,  avg # of iterations = 14.0

     negative rho (up, down):  7.984E-01 0.000E+00

     total cpu time spent up to now is      429.9 secs

     total energy              =   -4441.65692333 Ry
     estimated scf accuracy    <       0.00887266 Ry

     iteration # 24     ecut=    60.00 Ry     beta= 0.15
     Davidson diagonalization with overlap

---- Real-time Memory Report at c_bands before calling an iterative solver
             0 MiB given to the printing process from OS
             0 MiB allocation reported by mallinfo(arena+hblkhd)
         22651 MiB available memory on the node where the printing process lives
------------------
     ethr =  2.06E-06,  avg # of iterations =  7.1

     negative rho (up, down):  8.014E-01 0.000E+00

     total cpu time spent up to now is      450.0 secs

     total energy              =   -4441.65711538 Ry
     estimated scf accuracy    <       0.00327197 Ry

     iteration # 25     ecut=    60.00 Ry     beta= 0.15
     Davidson diagonalization with overlap

---- Real-time Memory Report at c_bands before calling an iterative solver
             0 MiB given to the printing process from OS
             0 MiB allocation reported by mallinfo(arena+hblkhd)
         22635 MiB available memory on the node where the printing process lives
------------------
     c_bands:  1 eigenvalues not converged
     ethr =  7.59E-07,  avg # of iterations = 12.2

     negative rho (up, down):  8.022E-01 0.000E+00

     total cpu time spent up to now is      473.8 secs

     total energy              =   -4441.65735466 Ry
     estimated scf accuracy    <       0.00137309 Ry

     iteration # 26     ecut=    60.00 Ry     beta= 0.15
     Davidson diagonalization with overlap

---- Real-time Memory Report at c_bands before calling an iterative solver
             0 MiB given to the printing process from OS
             0 MiB allocation reported by mallinfo(arena+hblkhd)
         22643 MiB available memory on the node where the printing process lives
------------------
     ethr =  3.19E-07,  avg # of iterations =  2.6

     negative rho (up, down):  8.005E-01 0.000E+00

     total cpu time spent up to now is      490.9 secs

     total energy              =   -4441.65731401 Ry
     estimated scf accuracy    <       0.00086770 Ry

     iteration # 27     ecut=    60.00 Ry     beta= 0.15
     Davidson diagonalization with overlap

---- Real-time Memory Report at c_bands before calling an iterative solver
             0 MiB given to the printing process from OS
             0 MiB allocation reported by mallinfo(arena+hblkhd)
         22672 MiB available memory on the node where the printing process lives
------------------
     c_bands:  1 eigenvalues not converged
     ethr =  2.01E-07,  avg # of iterations =  6.9

     negative rho (up, down):  7.965E-01 0.000E+00

     total cpu time spent up to now is      510.1 secs

     total energy              =   -4441.65722653 Ry
     estimated scf accuracy    <       0.00049702 Ry

     iteration # 28     ecut=    60.00 Ry     beta= 0.15
     Davidson diagonalization with overlap

---- Real-time Memory Report at c_bands before calling an iterative solver
             0 MiB given to the printing process from OS
             0 MiB allocation reported by mallinfo(arena+hblkhd)
         22674 MiB available memory on the node where the printing process lives
------------------
     c_bands:  1 eigenvalues not converged
     c_bands:  1 eigenvalues not converged
     ethr =  1.15E-07,  avg # of iterations = 10.8

     negative rho (up, down):  7.946E-01 0.000E+00

     total cpu time spent up to now is      532.6 secs

     total energy              =   -4441.65724282 Ry
     estimated scf accuracy    <       0.00019750 Ry

     iteration # 29     ecut=    60.00 Ry     beta= 0.15
     Davidson diagonalization with overlap

---- Real-time Memory Report at c_bands before calling an iterative solver
             0 MiB given to the printing process from OS
             0 MiB allocation reported by mallinfo(arena+hblkhd)
         22691 MiB available memory on the node where the printing process lives
------------------
     ethr =  4.58E-08,  avg # of iterations =  3.6

     negative rho (up, down):  7.936E-01 0.000E+00

     total cpu time spent up to now is      550.3 secs

     total energy              =   -4441.65724642 Ry
     estimated scf accuracy    <       0.00009617 Ry

     iteration # 30     ecut=    60.00 Ry     beta= 0.15
     Davidson diagonalization with overlap

---- Real-time Memory Report at c_bands before calling an iterative solver
             0 MiB given to the printing process from OS
             0 MiB allocation reported by mallinfo(arena+hblkhd)
         22692 MiB available memory on the node where the printing process lives
------------------
     ethr =  2.23E-08,  avg # of iterations =  3.9

     negative rho (up, down):  7.930E-01 0.000E+00

     total cpu time spent up to now is      568.9 secs

     total energy              =   -4441.65724985 Ry
     estimated scf accuracy    <       0.00004257 Ry

     iteration # 31     ecut=    60.00 Ry     beta= 0.15
     Davidson diagonalization with overlap

---- Real-time Memory Report at c_bands before calling an iterative solver
             0 MiB given to the printing process from OS
             0 MiB allocation reported by mallinfo(arena+hblkhd)
         22680 MiB available memory on the node where the printing process lives
------------------
     ethr =  9.88E-09,  avg # of iterations =  2.9

     negative rho (up, down):  7.924E-01 0.000E+00

     total cpu time spent up to now is      586.3 secs

     total energy              =   -4441.65724979 Ry
     estimated scf accuracy    <       0.00002604 Ry

     iteration # 32     ecut=    60.00 Ry     beta= 0.15
     Davidson diagonalization with overlap

---- Real-time Memory Report at c_bands before calling an iterative solver
             0 MiB given to the printing process from OS
             0 MiB allocation reported by mallinfo(arena+hblkhd)
         22678 MiB available memory on the node where the printing process lives
------------------
     ethr =  6.04E-09,  avg # of iterations =  3.1

     negative rho (up, down):  7.923E-01 0.000E+00

     total cpu time spent up to now is      603.8 secs

     total energy              =   -4441.65724991 Ry
     estimated scf accuracy    <       0.00001400 Ry

     iteration # 33     ecut=    60.00 Ry     beta= 0.15
     Davidson diagonalization with overlap

---- Real-time Memory Report at c_bands before calling an iterative solver
             0 MiB given to the printing process from OS
             0 MiB allocation reported by mallinfo(arena+hblkhd)
         22678 MiB available memory on the node where the printing process lives
------------------
     ethr =  3.25E-09,  avg # of iterations =  2.0

     negative rho (up, down):  7.923E-01 0.000E+00

     total cpu time spent up to now is      620.7 secs

     total energy              =   -4441.65725201 Ry
     estimated scf accuracy    <       0.00000908 Ry

     iteration # 34     ecut=    60.00 Ry     beta= 0.15
     Davidson diagonalization with overlap

---- Real-time Memory Report at c_bands before calling an iterative solver
             0 MiB given to the printing process from OS
             0 MiB allocation reported by mallinfo(arena+hblkhd)
         22687 MiB available memory on the node where the printing process lives
------------------
     ethr =  2.11E-09,  avg # of iterations =  2.2

     negative rho (up, down):  7.923E-01 0.000E+00

     total cpu time spent up to now is      637.7 secs

     total energy              =   -4441.65725406 Ry
     estimated scf accuracy    <       0.00000377 Ry

     iteration # 35     ecut=    60.00 Ry     beta= 0.15
     Davidson diagonalization with overlap

---- Real-time Memory Report at c_bands before calling an iterative solver
             0 MiB given to the printing process from OS
             0 MiB allocation reported by mallinfo(arena+hblkhd)
         22711 MiB available memory on the node where the printing process lives
------------------
     ethr =  8.76E-10,  avg # of iterations =  2.2

     negative rho (up, down):  7.924E-01 0.000E+00

     total cpu time spent up to now is      654.7 secs

     total energy              =   -4441.65725586 Ry
     estimated scf accuracy    <       0.00000275 Ry

     iteration # 36     ecut=    60.00 Ry     beta= 0.15
     Davidson diagonalization with overlap

---- Real-time Memory Report at c_bands before calling an iterative solver
             0 MiB given to the printing process from OS
             0 MiB allocation reported by mallinfo(arena+hblkhd)
         22712 MiB available memory on the node where the printing process lives
------------------
     ethr =  6.38E-10,  avg # of iterations =  2.9

     negative rho (up, down):  7.925E-01 0.000E+00

     total cpu time spent up to now is      672.2 secs

     total energy              =   -4441.65725681 Ry
     estimated scf accuracy    <       0.00000180 Ry

     iteration # 37     ecut=    60.00 Ry     beta= 0.15
     Davidson diagonalization with overlap

---- Real-time Memory Report at c_bands before calling an iterative solver
             0 MiB given to the printing process from OS
             0 MiB allocation reported by mallinfo(arena+hblkhd)
         22722 MiB available memory on the node where the printing process lives
------------------
     ethr =  4.18E-10,  avg # of iterations =  3.3

     negative rho (up, down):  7.926E-01 0.000E+00

     total cpu time spent up to now is      689.8 secs

     total energy              =   -4441.65725749 Ry
     estimated scf accuracy    <       0.00000112 Ry

     iteration # 38     ecut=    60.00 Ry     beta= 0.15
     Davidson diagonalization with overlap

---- Real-time Memory Report at c_bands before calling an iterative solver
             0 MiB given to the printing process from OS
             0 MiB allocation reported by mallinfo(arena+hblkhd)
         22715 MiB available memory on the node where the printing process lives
------------------
     ethr =  2.60E-10,  avg # of iterations =  3.5

     negative rho (up, down):  7.926E-01 0.000E+00

     total cpu time spent up to now is      707.5 secs

     total energy              =   -4441.65725793 Ry
     estimated scf accuracy    <       0.00000082 Ry

     iteration # 39     ecut=    60.00 Ry     beta= 0.15
     Davidson diagonalization with overlap

---- Real-time Memory Report at c_bands before calling an iterative solver
             0 MiB given to the printing process from OS
             0 MiB allocation reported by mallinfo(arena+hblkhd)
         22719 MiB available memory on the node where the printing process lives
------------------
     ethr =  1.90E-10,  avg # of iterations =  3.3

     negative rho (up, down):  7.926E-01 0.000E+00

     total cpu time spent up to now is      725.1 secs

     total energy              =   -4441.65725797 Ry
     estimated scf accuracy    <       0.00000043 Ry

     iteration # 40     ecut=    60.00 Ry     beta= 0.15
     Davidson diagonalization with overlap

---- Real-time Memory Report at c_bands before calling an iterative solver
             0 MiB given to the printing process from OS
             0 MiB allocation reported by mallinfo(arena+hblkhd)
         22724 MiB available memory on the node where the printing process lives
------------------
     ethr =  1.00E-10,  avg # of iterations =  3.4

     negative rho (up, down):  7.925E-01 0.000E+00

     total cpu time spent up to now is      742.9 secs

     total energy              =   -4441.65725793 Ry
     estimated scf accuracy    <       0.00000029 Ry

     iteration # 41     ecut=    60.00 Ry     beta= 0.15
     Davidson diagonalization with overlap

---- Real-time Memory Report at c_bands before calling an iterative solver
             0 MiB given to the printing process from OS
             0 MiB allocation reported by mallinfo(arena+hblkhd)
         22724 MiB available memory on the node where the printing process lives
------------------
     ethr =  6.65E-11,  avg # of iterations =  2.9

     negative rho (up, down):  7.925E-01 0.000E+00

     total cpu time spent up to now is      760.2 secs

     total energy              =   -4441.65725797 Ry
     estimated scf accuracy    <       0.00000020 Ry

     iteration # 42     ecut=    60.00 Ry     beta= 0.15
     Davidson diagonalization with overlap

---- Real-time Memory Report at c_bands before calling an iterative solver
             0 MiB given to the printing process from OS
             0 MiB allocation reported by mallinfo(arena+hblkhd)
         22733 MiB available memory on the node where the printing process lives
------------------
     ethr =  4.58E-11,  avg # of iterations =  3.1

     negative rho (up, down):  7.925E-01 0.000E+00

     total cpu time spent up to now is      777.6 secs

     total energy              =   -4441.65725801 Ry
     estimated scf accuracy    <       0.00000008 Ry

     iteration # 43     ecut=    60.00 Ry     beta= 0.15
     Davidson diagonalization with overlap

---- Real-time Memory Report at c_bands before calling an iterative solver
             0 MiB given to the printing process from OS
             0 MiB allocation reported by mallinfo(arena+hblkhd)
         22734 MiB available memory on the node where the printing process lives
------------------
     ethr =  1.89E-11,  avg # of iterations =  2.6

     negative rho (up, down):  7.925E-01 0.000E+00

     total cpu time spent up to now is      794.9 secs

     total energy              =   -4441.65725804 Ry
     estimated scf accuracy    <       0.00000004 Ry

     iteration # 44     ecut=    60.00 Ry     beta= 0.15
     Davidson diagonalization with overlap

---- Real-time Memory Report at c_bands before calling an iterative solver
             0 MiB given to the printing process from OS
             0 MiB allocation reported by mallinfo(arena+hblkhd)
         22736 MiB available memory on the node where the printing process lives
------------------
     ethr =  8.28E-12,  avg # of iterations =  3.5

     negative rho (up, down):  7.925E-01 0.000E+00

     total cpu time spent up to now is      812.7 secs

     total energy              =   -4441.65725803 Ry
     estimated scf accuracy    <       0.00000002 Ry

     iteration # 45     ecut=    60.00 Ry     beta= 0.15
     Davidson diagonalization with overlap

---- Real-time Memory Report at c_bands before calling an iterative solver
             0 MiB given to the printing process from OS
             0 MiB allocation reported by mallinfo(arena+hblkhd)
         22730 MiB available memory on the node where the printing process lives
------------------
     ethr =  3.57E-12,  avg # of iterations =  4.0

     negative rho (up, down):  7.925E-01 0.000E+00

     total cpu time spent up to now is      830.3 secs

     End of self-consistent calculation

          k = 0.0000 0.0000 0.0000 ( 65197 PWs)   bands (ev):

   -92.6846 -92.6305 -92.5379 -92.4927 -92.4336 -92.3908 -92.3731 -92.2521
   -56.0381 -56.0171 -55.8954 -55.8851 -55.8774 -55.8720 -55.8347 -55.8072
   -55.7916 -55.7904 -55.7816 -55.7405 -55.7252 -55.6843 -55.6642 -55.6340
   -55.6275 -55.5788 -55.5779 -55.5760 -55.5675 -55.5270 -55.5035 -55.4186
   -31.2619 -31.2426 -31.1006 -31.0796 -31.0139 -30.9122 -30.7824 -30.7027
   -29.8316 -29.7889 -29.7622 -29.6537 -15.0646 -15.0207 -14.9393 -14.8099
   -14.6164 -14.4938 -14.2022 -14.1836 -14.1538 -14.1057 -14.0607 -14.0482
   -14.0407 -14.0216 -14.0050 -13.9585 -13.9470 -13.9138 -13.7611 -13.5855
   -13.5497 -13.5193 -13.4900 -13.4721 -13.4143 -13.3804 -13.3066 -13.2342
   -13.0977 -13.0910 -13.0810 -13.0588 -13.0575 -13.0393 -12.9879 -12.9781
   -12.9698 -12.9354 -12.9074 -12.8870 -12.8685 -12.8478 -12.8196 -12.7410
   -12.7345 -12.6954 -12.6371 -12.6022 -12.5809 -12.3264 -12.1807 -11.9832
   -11.9263 -11.8450 -11.7711 -11.7596 -11.7372 -11.7195 -11.6557 -11.6381
   -11.6041 -11.5744 -11.4625 -11.3830 -11.3795  -2.9248  -2.6924  -2.4631
    -2.3159  -2.2529  -2.1109  -1.8037  -1.7897  -1.7701  -1.6864  -1.6662
    -1.5983  -1.5816  -1.5406  -1.4976  -1.3148  -1.1246  -1.0880  -1.0604
    -0.9142  -0.8996  -0.8541  -0.8336  -0.7891  -0.7710  -0.7175  -0.6901
    -0.6151  -0.6034  -0.5301  -0.3972  -0.3852  -0.3569  -0.2755  -0.2648
    -0.2522  -0.1845  -0.1118  -0.0455  -0.0132   0.0278   0.0854   0.1510
     0.1987   0.2192   0.2330   0.4890   0.5050   0.6826   0.7471   0.8220
     0.8537   0.9436   0.9574   0.9713   1.0420   1.0673   1.1013   1.1604
     1.2904   1.3523   1.3695   1.3884   1.4031   1.4685   1.5387   1.6457
     1.6565   1.7256   1.7433   1.7800   1.7937   1.8016   1.8614   1.9147
     1.9429   1.9863   2.0145   2.0456   2.1771   2.2642   2.3024   2.3205
     2.4541   2.4817   2.4872   2.5108   2.5310   2.5408   2.6413   2.6755
     2.7003   2.7188   2.7327   2.8156   2.9237   2.9552   2.9679   2.9744
     3.0426   3.0471   3.0702   3.0780   3.0862   3.0992   3.1060   3.1193
     3.1248   3.1378   3.1458   3.1536   3.1736   3.1947   3.1996   3.2119
     3.2472   3.3530   3.4266   4.1223   4.4598   4.7887   4.8768   5.0602
     5.7434   5.9561   6.0059   6.0211   6.3311   6.3778   6.4892   6.5015
     6.7294   7.0183   7.0972   7.3323   7.4566   7.5530   7.6692   7.6804
     7.7138   7.8810   7.9764   8.0681   8.1244   8.1957   8.4100   8.4555
     8.7210   8.8552   8.8716

     occupation numbers 
     1.0000   1.0000   1.0000   1.0000   1.0000   1.0000   1.0000   1.0000
     1.0000   1.0000   1.0000   1.0000   1.0000   1.0000   1.0000   1.0000
     1.0000   1.0000   1.0000   1.0000   1.0000   1.0000   1.0000   1.0000
     1.0000   1.0000   1.0000   1.0000   1.0000   1.0000   1.0000   1.0000
     1.0000   1.0000   1.0000   1.0000   1.0000   1.0000   1.0000   1.0000
     1.0000   1.0000   1.0000   1.0000   1.0000   1.0000   1.0000   1.0000
     1.0000   1.0000   1.0000   1.0000   1.0000   1.0000   1.0000   1.0000
     1.0000   1.0000   1.0000   1.0000   1.0000   1.0000   1.0000   1.0000
     1.0000   1.0000   1.0000   1.0000   1.0000   1.0000   1.0000   1.0000
     1.0000   1.0000   1.0000   1.0000   1.0000   1.0000   1.0000   1.0000
     1.0000   1.0000   1.0000   1.0000   1.0000   1.0000   1.0000   1.0000
     1.0000   1.0000   1.0000   1.0000   1.0000   1.0000   1.0000   1.0000
     1.0000   1.0000   1.0000   1.0000   1.0000   1.0000   1.0000   1.0000
     1.0000   1.0000   1.0000   1.0000   1.0000   1.0000   1.0000   1.0000
     1.0000   1.0000   1.0000   1.0000   1.0000   1.0000   1.0000   1.0000
     1.0000   1.0000   1.0000   1.0000   1.0000   1.0000   1.0000   1.0000
     1.0000   1.0000   1.0000   1.0000   1.0000   1.0000   1.0000   1.0000
     1.0000   1.0000   1.0000   1.0000   1.0000   1.0000   1.0000   1.0000
     1.0000   1.0000   1.0000   1.0000   1.0000   1.0000   1.0000   1.0000
     1.0000   1.0000   1.0000   1.0000   1.0000   1.0000   0.9999   0.9999
     0.9999   0.9998   0.9998   0.9998   0.9997   0.9996   0.9996   0.9994
     0.9988   0.9984   0.9983   0.9982   0.9980   0.9973   0.9963   0.9941
     0.9939   0.9919   0.9913   0.9899   0.9893   0.9890   0.9861   0.9831
     0.9812   0.9781   0.9758   0.9730   0.9583   0.9455   0.9389   0.9356
     0.9067   0.8997   0.8982   0.8919   0.8862   0.8833   0.8514   0.8394
     0.8302   0.8232   0.8177   0.7834   0.7335   0.7179   0.7114   0.7081
     0.6725   0.6700   0.6575   0.6533   0.6487   0.6415   0.6378   0.6303
     0.6273   0.6199   0.6154   0.6110   0.5995   0.5874   0.5846   0.5774
     0.5568   0.4943   0.4508   0.1237   0.0487   0.0159   0.0114   0.0054
     0.0002   0.0001   0.0000   0.0000   0.0000   0.0000   0.0000   0.0000
     0.0000   0.0000   0.0000   0.0000   0.0000   0.0000   0.0000   0.0000
     0.0000   0.0000   0.0000   0.0000   0.0000   0.0000   0.0000   0.0000
     0.0000   0.0000   0.0000

          k = 0.0000 0.2500 0.0000 ( 65257 PWs)   bands (ev):

   -92.6846 -92.6305 -92.5379 -92.4927 -92.4336 -92.3908 -92.3731 -92.2521
   -56.0381 -56.0171 -55.8954 -55.8851 -55.8774 -55.8720 -55.8347 -55.8072
   -55.7916 -55.7904 -55.7816 -55.7405 -55.7252 -55.6843 -55.6642 -55.6340
   -55.6275 -55.5788 -55.5779 -55.5760 -55.5675 -55.5270 -55.5035 -55.4186
   -31.2618 -31.2425 -31.1008 -31.0795 -31.0140 -30.9120 -30.7826 -30.7029
   -29.8310 -29.7886 -29.7628 -29.6541 -15.0281 -14.9945 -14.9140 -14.7806
   -14.6579 -14.4840 -14.3475 -14.1684 -14.1345 -14.1128 -14.0814 -14.0267
   -14.0161 -14.0036 -13.9868 -13.9511 -13.9273 -13.8328 -13.7928 -13.6313
   -13.6092 -13.5611 -13.5251 -13.4827 -13.4348 -13.3809 -13.3261 -13.2915
   -13.1923 -13.1541 -13.1316 -13.0934 -13.0810 -13.0452 -12.9689 -12.9439
   -12.9179 -12.8904 -12.8715 -12.8522 -12.8502 -12.8262 -12.7816 -12.7054
   -12.6519 -12.6274 -12.6078 -12.5499 -12.4896 -12.3877 -12.2319 -12.0369
   -11.9900 -11.8105 -11.7679 -11.7394 -11.7115 -11.6950 -11.6477 -11.6362
   -11.6134 -11.5799 -11.4767 -11.4246 -11.4141  -2.7894  -2.5681  -2.4306
    -2.2485  -2.2049  -2.0411  -1.8223  -1.7373  -1.7244  -1.6678  -1.5640
    -1.5482  -1.5154  -1.4875  -1.4441  -1.2460  -1.1303  -1.1115  -1.1024
    -1.0285  -1.0191  -0.9148  -0.8849  -0.8259  -0.8012  -0.7612  -0.6979
    -0.6707  -0.6389  -0.6033  -0.5871  -0.5561  -0.4816  -0.4323  -0.3707
    -0.2538  -0.2389  -0.1912  -0.0695  -0.0277   0.0337   0.0789   0.1339
     0.1510   0.1801   0.2467   0.5410   0.6268   0.6584   0.7469   0.7949
     0.8201   0.9273   0.9462   1.0478   1.0687   1.0940   1.2074   1.3005
     1.3268   1.3489   1.3640   1.3923   1.4526   1.4792   1.5086   1.5547
     1.5916   1.6220   1.7086   1.7364   1.7854   1.8253   1.8875   1.9447
     1.9602   1.9781   2.0023   2.0962   2.2134   2.2851   2.3017   2.3767
     2.4246   2.4478   2.4769   2.4962   2.5050   2.5350   2.5713   2.6577
     2.6927   2.7090   2.8817   2.9044   2.9380   2.9580   2.9755   2.9836
     2.9911   3.0008   3.0298   3.0314   3.0507   3.0531   3.0651   3.0838
     3.0948   3.1029   3.1248   3.1352   3.1400   3.1756   3.1924   3.2528
     3.6325   3.6542   3.8950   4.3117   4.4581   4.7285   5.0286   5.0833
     5.6569   5.7975   5.9254   6.0063   6.0986   6.1202   6.2002   6.6085
     6.8207   7.1053   7.1415   7.3427   7.4974   7.5121   7.5450   7.6557
     7.8420   7.9478   8.0143   8.1876   8.3161   8.3642   8.4261   8.4533
     8.5890   8.8462   8.9570

     occupation numbers 
     1.0000   1.0000   1.0000   1.0000   1.0000   1.0000   1.0000   1.0000
     1.0000   1.0000   1.0000   1.0000   1.0000   1.0000   1.0000   1.0000
     1.0000   1.0000   1.0000   1.0000   1.0000   1.0000   1.0000   1.0000
     1.0000   1.0000   1.0000   1.0000   1.0000   1.0000   1.0000   1.0000
     1.0000   1.0000   1.0000   1.0000   1.0000   1.0000   1.0000   1.0000
     1.0000   1.0000   1.0000   1.0000   1.0000   1.0000   1.0000   1.0000
     1.0000   1.0000   1.0000   1.0000   1.0000   1.0000   1.0000   1.0000
     1.0000   1.0000   1.0000   1.0000   1.0000   1.0000   1.0000   1.0000
     1.0000   1.0000   1.0000   1.0000   1.0000   1.0000   1.0000   1.0000
     1.0000   1.0000   1.0000   1.0000   1.0000   1.0000   1.0000   1.0000
     1.0000   1.0000   1.0000   1.0000   1.0000   1.0000   1.0000   1.0000
     1.0000   1.0000   1.0000   1.0000   1.0000   1.0000   1.0000   1.0000
     1.0000   1.0000   1.0000   1.0000   1.0000   1.0000   1.0000   1.0000
     1.0000   1.0000   1.0000   1.0000   1.0000   1.0000   1.0000   1.0000
     1.0000   1.0000   1.0000   1.0000   1.0000   1.0000   1.0000   1.0000
     1.0000   1.0000   1.0000   1.0000   1.0000   1.0000   1.0000   1.0000
     1.0000   1.0000   1.0000   1.0000   1.0000   1.0000   1.0000   1.0000
     1.0000   1.0000   1.0000   1.0000   1.0000   1.0000   1.0000   1.0000
     1.0000   1.0000   1.0000   1.0000   1.0000   1.0000   1.0000   1.0000
     1.0000   1.0000   1.0000   1.0000   1.0000   1.0000   0.9999   0.9999
     0.9999   0.9998   0.9998   0.9997   0.9996   0.9996   0.9992   0.9988
     0.9986   0.9985   0.9984   0.9981   0.9975   0.9972   0.9968   0.9960
     0.9954   0.9947   0.9924   0.9915   0.9897   0.9879   0.9847   0.9811
     0.9800   0.9787   0.9768   0.9680   0.9533   0.9420   0.9391   0.9244
     0.9138   0.9082   0.9009   0.8958   0.8934   0.8850   0.8742   0.8457
     0.8331   0.8269   0.7535   0.7428   0.7264   0.7164   0.7076   0.7034
     0.6996   0.6946   0.6793   0.6784   0.6681   0.6668   0.6603   0.6501
     0.6440   0.6395   0.6273   0.6214   0.6187   0.5984   0.5887   0.5535
     0.3339   0.3222   0.2064   0.0753   0.0489   0.0199   0.0062   0.0049
     0.0003   0.0001   0.0001   0.0000   0.0000   0.0000   0.0000   0.0000
     0.0000   0.0000   0.0000   0.0000   0.0000   0.0000   0.0000   0.0000
     0.0000   0.0000   0.0000   0.0000   0.0000   0.0000   0.0000   0.0000
     0.0000   0.0000   0.0000

          k = 0.0000-0.5000 0.0000 ( 65180 PWs)   bands (ev):

   -92.6846 -92.6305 -92.5379 -92.4927 -92.4336 -92.3908 -92.3731 -92.2521
   -56.0381 -56.0171 -55.8954 -55.8851 -55.8774 -55.8720 -55.8347 -55.8072
   -55.7916 -55.7904 -55.7816 -55.7405 -55.7252 -55.6843 -55.6642 -55.6340
   -55.6275 -55.5788 -55.5779 -55.5760 -55.5675 -55.5270 -55.5035 -55.4186
   -31.2616 -31.2424 -31.1010 -31.0794 -31.0142 -30.9119 -30.7827 -30.7031
   -29.8304 -29.7883 -29.7634 -29.6544 -14.9929 -14.9447 -14.8893 -14.7632
   -14.6772 -14.5443 -14.3829 -14.2689 -14.1409 -14.0634 -14.0246 -14.0197
   -13.9712 -13.9549 -13.9505 -13.9009 -13.8853 -13.8569 -13.8276 -13.7924
   -13.7339 -13.5664 -13.5085 -13.4895 -13.4401 -13.3632 -13.3423 -13.2801
   -13.2674 -13.2345 -13.2019 -13.0947 -13.0829 -13.0421 -12.9519 -12.9402
   -12.9129 -12.9043 -12.8667 -12.8539 -12.8232 -12.6972 -12.6896 -12.6499
   -12.6349 -12.6118 -12.6019 -12.4986 -12.4256 -12.3071 -12.2939 -12.1366
   -12.0918 -11.7649 -11.7621 -11.7342 -11.6971 -11.6627 -11.6515 -11.6100
   -11.6059 -11.5618 -11.4982 -11.4849 -11.4710  -2.5750  -2.5152  -2.3650
    -2.2931  -2.0121  -1.9271  -1.8000  -1.6635  -1.6272  -1.6061  -1.5285
    -1.4975  -1.4136  -1.3792  -1.3018  -1.2621  -1.2240  -1.1970  -1.1390
    -1.1233  -1.0953  -1.0552  -1.0186  -0.9845  -0.9520  -0.8411  -0.7971
    -0.7604  -0.7597  -0.6737  -0.6435  -0.6193  -0.5685  -0.4871  -0.4099
    -0.3301  -0.3012  -0.1884  -0.1417  -0.0127   0.0192   0.0546   0.1081
     0.2547   0.3022   0.4087   0.4787   0.4857   0.6129   0.6637   0.7842
     0.8948   1.0016   1.0314   1.0721   1.0759   1.1136   1.1318   1.1679
     1.1890   1.1997   1.3058   1.3706   1.3914   1.4151   1.6801   1.7204
     1.7470   1.8400   1.8626   1.8904   1.9074   1.9301   1.9560   1.9708
     1.9939   2.0184   2.0553   2.0820   2.0853   2.1183   2.1707   2.2540
     2.2894   2.4488   2.4834   2.4979   2.6193   2.6325   2.6500   2.6848
     2.6920   2.7018   2.7536   2.7625   2.8162   2.8372   2.9138   2.9280
     2.9956   3.0061   3.0269   3.0280   3.0471   3.0536   3.0548   3.0604
     3.0630   3.0772   3.0946   3.0966   3.1612   3.1653   3.1819   3.2365
     4.1442   4.1963   4.2103   4.2693   4.7516   4.9237   5.0404   5.1726
     5.4279   5.4794   5.5976   5.7331   6.0348   6.0679   6.2455   6.5230
     6.8634   6.9645   7.2350   7.3553   7.3694   7.4588   7.6079   7.7693
     7.9226   7.9849   8.1758   8.3032   8.3880   8.4921   8.5288   8.6889
     8.8263   8.8358   8.8883

     occupation numbers 
     1.0000   1.0000   1.0000   1.0000   1.0000   1.0000   1.0000   1.0000
     1.0000   1.0000   1.0000   1.0000   1.0000   1.0000   1.0000   1.0000
     1.0000   1.0000   1.0000   1.0000   1.0000   1.0000   1.0000   1.0000
     1.0000   1.0000   1.0000   1.0000   1.0000   1.0000   1.0000   1.0000
     1.0000   1.0000   1.0000   1.0000   1.0000   1.0000   1.0000   1.0000
     1.0000   1.0000   1.0000   1.0000   1.0000   1.0000   1.0000   1.0000
     1.0000   1.0000   1.0000   1.0000   1.0000   1.0000   1.0000   1.0000
     1.0000   1.0000   1.0000   1.0000   1.0000   1.0000   1.0000   1.0000
     1.0000   1.0000   1.0000   1.0000   1.0000   1.0000   1.0000   1.0000
     1.0000   1.0000   1.0000   1.0000   1.0000   1.0000   1.0000   1.0000
     1.0000   1.0000   1.0000   1.0000   1.0000   1.0000   1.0000   1.0000
     1.0000   1.0000   1.0000   1.0000   1.0000   1.0000   1.0000   1.0000
     1.0000   1.0000   1.0000   1.0000   1.0000   1.0000   1.0000   1.0000
     1.0000   1.0000   1.0000   1.0000   1.0000   1.0000   1.0000   1.0000
     1.0000   1.0000   1.0000   1.0000   1.0000   1.0000   1.0000   1.0000
     1.0000   1.0000   1.0000   1.0000   1.0000   1.0000   1.0000   1.0000
     1.0000   1.0000   1.0000   1.0000   1.0000   1.0000   1.0000   1.0000
     1.0000   1.0000   1.0000   1.0000   1.0000   1.0000   1.0000   1.0000
     1.0000   1.0000   1.0000   1.0000   1.0000   1.0000   1.0000   1.0000
     1.0000   1.0000   1.0000   1.0000   1.0000   1.0000   1.0000   0.9999
     0.9999   0.9997   0.9997   0.9996   0.9996   0.9995   0.9995   0.9994
     0.9993   0.9993   0.9988   0.9983   0.9981   0.9979   0.9932   0.9920
     0.9911   0.9872   0.9861   0.9845   0.9835   0.9821   0.9803   0.9792
     0.9775   0.9754   0.9721   0.9695   0.9691   0.9656   0.9592   0.9471
     0.9412   0.9080   0.8992   0.8954   0.8589   0.8544   0.8484   0.8360
     0.8333   0.8297   0.8095   0.8058   0.7831   0.7739   0.7382   0.7314
     0.6972   0.6918   0.6809   0.6803   0.6700   0.6665   0.6659   0.6628
     0.6614   0.6537   0.6441   0.6430   0.6067   0.6043   0.5948   0.5631
     0.1172   0.1027   0.0990   0.0846   0.0183   0.0095   0.0059   0.0033
     0.0010   0.0008   0.0004   0.0002   0.0000   0.0000   0.0000   0.0000
     0.0000   0.0000   0.0000   0.0000   0.0000   0.0000   0.0000   0.0000
     0.0000   0.0000   0.0000   0.0000   0.0000   0.0000   0.0000   0.0000
     0.0000   0.0000   0.0000

          k = 0.2500 0.2500 0.0000 ( 65198 PWs)   bands (ev):

   -92.6846 -92.6305 -92.5379 -92.4927 -92.4336 -92.3908 -92.3731 -92.2521
   -56.0381 -56.0171 -55.8954 -55.8851 -55.8774 -55.8720 -55.8347 -55.8072
   -55.7916 -55.7904 -55.7816 -55.7405 -55.7252 -55.6843 -55.6642 -55.6340
   -55.6275 -55.5788 -55.5779 -55.5760 -55.5675 -55.5270 -55.5035 -55.4186
   -31.2600 -31.2442 -31.1004 -31.0794 -31.0144 -30.9122 -30.7822 -30.7033
   -29.8300 -29.7896 -29.7624 -29.6545 -14.9993 -14.9601 -14.8859 -14.7701
   -14.6498 -14.5244 -14.4532 -14.2464 -14.0920 -14.0793 -14.0414 -14.0143
   -13.9885 -13.9637 -13.9494 -13.9321 -13.8908 -13.8228 -13.8069 -13.6462
   -13.6316 -13.6019 -13.5834 -13.5368 -13.4935 -13.4117 -13.4049 -13.2693
   -13.2311 -13.2087 -13.1269 -13.0863 -13.0410 -13.0152 -13.0020 -12.9561
   -12.9308 -12.9008 -12.8714 -12.8306 -12.7808 -12.7312 -12.7239 -12.6981
   -12.6913 -12.6427 -12.6385 -12.4594 -12.4362 -12.3665 -12.2611 -12.0704
   -12.0358 -11.7828 -11.7514 -11.7401 -11.7328 -11.6710 -11.6356 -11.6293
   -11.5938 -11.5855 -11.4935 -11.4530 -11.4354  -2.6512  -2.4423  -2.3245
    -2.2302  -2.1093  -2.0445  -1.8473  -1.7020  -1.6831  -1.6544  -1.5591
    -1.5256  -1.4308  -1.4033  -1.3531  -1.2228  -1.1738  -1.1243  -1.0978
    -1.0532  -1.0120  -0.9882  -0.9640  -0.9200  -0.9059  -0.8156  -0.7644
    -0.7007  -0.6509  -0.6181  -0.5700  -0.5539  -0.4927  -0.4450  -0.3893
    -0.3538  -0.2696  -0.2128  -0.1853  -0.1464  -0.0919  -0.0013   0.0272
     0.0463   0.1336   0.1604   0.4276   0.5746   0.6095   0.6712   0.7134
     0.7765   0.8413   0.8940   0.9212   1.1902   1.2573   1.3309   1.3579
     1.4037   1.4365   1.4710   1.5098   1.5258   1.5537   1.6010   1.6077
     1.6215   1.6639   1.7054   1.7456   1.8107   1.8499   1.8564   1.9116
     1.9275   1.9805   2.0175   2.1359   2.1956   2.2289   2.2518   2.3167
     2.3936   2.4091   2.4481   2.4605   2.4754   2.4998   2.5105   2.6016
     2.6341   2.7219   2.8932   2.9099   2.9163   2.9327   2.9474   2.9601
     2.9728   2.9800   2.9906   3.0033   3.0150   3.0345   3.0407   3.0526
     3.0744   3.0864   3.0958   3.1269   3.4278   3.5228   3.5625   3.6354
     3.6739   3.8702   3.9708   4.3256   4.5421   4.7342   4.9991   5.1757
     5.6624   5.7152   5.7692   5.8547   5.9120   6.0726   6.1697   6.2255
     6.9083   6.9117   7.1126   7.2593   7.5648   7.6136   7.7239   7.8525
     7.9026   8.0342   8.1632   8.2196   8.3267   8.3760   8.4555   8.4662
     8.6114   8.7349   8.9146

     occupation numbers 
     1.0000   1.0000   1.0000   1.0000   1.0000   1.0000   1.0000   1.0000
     1.0000   1.0000   1.0000   1.0000   1.0000   1.0000   1.0000   1.0000
     1.0000   1.0000   1.0000   1.0000   1.0000   1.0000   1.0000   1.0000
     1.0000   1.0000   1.0000   1.0000   1.0000   1.0000   1.0000   1.0000
     1.0000   1.0000   1.0000   1.0000   1.0000   1.0000   1.0000   1.0000
     1.0000   1.0000   1.0000   1.0000   1.0000   1.0000   1.0000   1.0000
     1.0000   1.0000   1.0000   1.0000   1.0000   1.0000   1.0000   1.0000
     1.0000   1.0000   1.0000   1.0000   1.0000   1.0000   1.0000   1.0000
     1.0000   1.0000   1.0000   1.0000   1.0000   1.0000   1.0000   1.0000
     1.0000   1.0000   1.0000   1.0000   1.0000   1.0000   1.0000   1.0000
     1.0000   1.0000   1.0000   1.0000   1.0000   1.0000   1.0000   1.0000
     1.0000   1.0000   1.0000   1.0000   1.0000   1.0000   1.0000   1.0000
     1.0000   1.0000   1.0000   1.0000   1.0000   1.0000   1.0000   1.0000
     1.0000   1.0000   1.0000   1.0000   1.0000   1.0000   1.0000   1.0000
     1.0000   1.0000   1.0000   1.0000   1.0000   1.0000   1.0000   1.0000
     1.0000   1.0000   1.0000   1.0000   1.0000   1.0000   1.0000   1.0000
     1.0000   1.0000   1.0000   1.0000   1.0000   1.0000   1.0000   1.0000
     1.0000   1.0000   1.0000   1.0000   1.0000   1.0000   1.0000   1.0000
     1.0000   1.0000   1.0000   1.0000   1.0000   1.0000   1.0000   1.0000
     1.0000   1.0000   1.0000   1.0000   1.0000   1.0000   1.0000   1.0000
     0.9999   0.9999   0.9999   0.9998   0.9993   0.9990   0.9986   0.9984
     0.9980   0.9977   0.9973   0.9968   0.9965   0.9961   0.9952   0.9950
     0.9947   0.9937   0.9925   0.9912   0.9886   0.9867   0.9864   0.9833
     0.9822   0.9785   0.9755   0.9635   0.9558   0.9510   0.9475   0.9363
     0.9208   0.9173   0.9082   0.9051   0.9013   0.8948   0.8919   0.8647
     0.8539   0.8220   0.7481   0.7401   0.7371   0.7290   0.7217   0.7154
     0.7089   0.7053   0.6998   0.6933   0.6871   0.6768   0.6734   0.6671
     0.6552   0.6486   0.6434   0.6261   0.4501   0.3950   0.3725   0.3323
     0.3118   0.2171   0.1758   0.0724   0.0375   0.0195   0.0070   0.0033
     0.0003   0.0002   0.0002   0.0001   0.0001   0.0000   0.0000   0.0000
     0.0000   0.0000   0.0000   0.0000   0.0000   0.0000   0.0000   0.0000
     0.0000   0.0000   0.0000   0.0000   0.0000   0.0000   0.0000   0.0000
     0.0000   0.0000   0.0000

          k = 0.2500-0.5000 0.0000 ( 65138 PWs)   bands (ev):

   -92.6846 -92.6305 -92.5379 -92.4927 -92.4336 -92.3908 -92.3731 -92.2521
   -56.0381 -56.0171 -55.8954 -55.8851 -55.8774 -55.8720 -55.8347 -55.8072
   -55.7916 -55.7904 -55.7816 -55.7405 -55.7252 -55.6843 -55.6642 -55.6340
   -55.6275 -55.5788 -55.5779 -55.5760 -55.5675 -55.5270 -55.5035 -55.4186
   -31.2599 -31.2441 -31.1006 -31.0793 -31.0145 -30.9121 -30.7823 -30.7035
   -29.8294 -29.7893 -29.7630 -29.6548 -14.9623 -14.9178 -14.8466 -14.7342
   -14.6992 -14.5840 -14.4868 -14.3639 -14.0559 -14.0014 -13.9774 -13.9540
   -13.9503 -13.9388 -13.9257 -13.8852 -13.8731 -13.8403 -13.8037 -13.7813
   -13.7255 -13.6491 -13.6009 -13.5517 -13.5218 -13.4528 -13.4163 -13.3187
   -13.2825 -13.1910 -13.1262 -13.1066 -13.0245 -13.0044 -12.9736 -12.9570
   -12.9272 -12.8955 -12.8633 -12.8519 -12.8031 -12.7096 -12.6725 -12.6532
   -12.6415 -12.6340 -12.6062 -12.5052 -12.3793 -12.3047 -12.2448 -12.1341
   -12.0998 -11.7585 -11.7464 -11.7353 -11.7078 -11.6770 -11.6479 -11.6075
   -11.5797 -11.5579 -11.5114 -11.4860 -11.4753  -2.4333  -2.3668  -2.2388
    -2.1618  -2.0325  -1.9474  -1.8244  -1.6751  -1.6214  -1.5990  -1.5364
    -1.5232  -1.4243  -1.3589  -1.2740  -1.2241  -1.2147  -1.1520  -1.1202
    -1.1081  -1.0733  -1.0267  -0.9901  -0.9547  -0.9149  -0.9007  -0.8580
    -0.8285  -0.7877  -0.7553  -0.6899  -0.5892  -0.5453  -0.4694  -0.4035
    -0.3551  -0.3111  -0.2904  -0.2346  -0.0718  -0.0598   0.0318   0.0753
     0.0838   0.1238   0.1607   0.2087   0.2360   0.2924   0.5687   0.6653
     0.7442   0.8191   1.0531   1.0791   1.1631   1.1948   1.3549   1.3868
     1.4314   1.4543   1.4693   1.4887   1.5507   1.5963   1.6322   1.7126
     1.8110   1.8524   1.8651   1.8814   1.9163   1.9282   1.9410   1.9843
     1.9904   2.0218   2.0444   2.0662   2.0785   2.1137   2.1704   2.2089
     2.2890   2.4218   2.4721   2.4939   2.5732   2.5903   2.6076   2.6356
     2.6610   2.6904   2.7092   2.7252   2.7530   2.8427   2.8921   2.9122
     2.9139   2.9294   2.9501   2.9635   2.9833   2.9896   3.0228   3.0343
     3.0491   3.0574   3.0660   3.0773   3.6054   3.6118   3.7597   3.8125
     4.1660   4.2094   4.2238   4.3310   4.7718   4.9453   5.0768   5.1478
     5.3236   5.4460   5.6148   5.6407   5.7843   5.8064   6.3335   6.4106
     6.5023   6.6607   7.1994   7.3895   7.5426   7.7152   7.8090   7.8679
     7.8970   8.0547   8.2998   8.3883   8.4833   8.5445   8.5613   8.5745
     8.7223   8.7676   8.7982

     occupation numbers 
     1.0000   1.0000   1.0000   1.0000   1.0000   1.0000   1.0000   1.0000
     1.0000   1.0000   1.0000   1.0000   1.0000   1.0000   1.0000   1.0000
     1.0000   1.0000   1.0000   1.0000   1.0000   1.0000   1.0000   1.0000
     1.0000   1.0000   1.0000   1.0000   1.0000   1.0000   1.0000   1.0000
     1.0000   1.0000   1.0000   1.0000   1.0000   1.0000   1.0000   1.0000
     1.0000   1.0000   1.0000   1.0000   1.0000   1.0000   1.0000   1.0000
     1.0000   1.0000   1.0000   1.0000   1.0000   1.0000   1.0000   1.0000
     1.0000   1.0000   1.0000   1.0000   1.0000   1.0000   1.0000   1.0000
     1.0000   1.0000   1.0000   1.0000   1.0000   1.0000   1.0000   1.0000
     1.0000   1.0000   1.0000   1.0000   1.0000   1.0000   1.0000   1.0000
     1.0000   1.0000   1.0000   1.0000   1.0000   1.0000   1.0000   1.0000
     1.0000   1.0000   1.0000   1.0000   1.0000   1.0000   1.0000   1.0000
     1.0000   1.0000   1.0000   1.0000   1.0000   1.0000   1.0000   1.0000
     1.0000   1.0000   1.0000   1.0000   1.0000   1.0000   1.0000   1.0000
     1.0000   1.0000   1.0000   1.0000   1.0000   1.0000   1.0000   1.0000
     1.0000   1.0000   1.0000   1.0000   1.0000   1.0000   1.0000   1.0000
     1.0000   1.0000   1.0000   1.0000   1.0000   1.0000   1.0000   1.0000
     1.0000   1.0000   1.0000   1.0000   1.0000   1.0000   1.0000   1.0000
     1.0000   1.0000   1.0000   1.0000   1.0000   1.0000   1.0000   1.0000
     1.0000   1.0000   1.0000   1.0000   1.0000   1.0000   1.0000   1.0000
     0.9999   0.9999   0.9997   0.9996   0.9994   0.9993   0.9984   0.9982
     0.9977   0.9975   0.9973   0.9971   0.9961   0.9953   0.9945   0.9923
     0.9886   0.9866   0.9859   0.9850   0.9830   0.9822   0.9814   0.9782
     0.9777   0.9751   0.9731   0.9711   0.9698   0.9661   0.9592   0.9540
     0.9413   0.9144   0.9021   0.8964   0.8736   0.8683   0.8627   0.8534
     0.8445   0.8339   0.8268   0.8207   0.8097   0.7714   0.7486   0.7390
     0.7382   0.7306   0.7204   0.7137   0.7036   0.7003   0.6830   0.6769
     0.6690   0.6645   0.6598   0.6536   0.3487   0.3452   0.2683   0.2431
     0.1110   0.0992   0.0956   0.0713   0.0170   0.0087   0.0050   0.0037
     0.0016   0.0009   0.0004   0.0003   0.0001   0.0001   0.0000   0.0000
     0.0000   0.0000   0.0000   0.0000   0.0000   0.0000   0.0000   0.0000
     0.0000   0.0000   0.0000   0.0000   0.0000   0.0000   0.0000   0.0000
     0.0000   0.0000   0.0000

          k =-0.5000-0.5000 0.0000 ( 65132 PWs)   bands (ev):

   -92.6846 -92.6305 -92.5379 -92.4927 -92.4336 -92.3908 -92.3731 -92.2521
   -56.0381 -56.0171 -55.8954 -55.8851 -55.8774 -55.8720 -55.8347 -55.8072
   -55.7916 -55.7904 -55.7816 -55.7405 -55.7252 -55.6843 -55.6642 -55.6340
   -55.6275 -55.5788 -55.5779 -55.5760 -55.5675 -55.5270 -55.5035 -55.4186
   -31.2577 -31.2463 -31.1003 -31.0791 -31.0149 -30.9122 -30.7819 -30.7039
   -29.8283 -29.7903 -29.7626 -29.6552 -14.9159 -14.8905 -14.7738 -14.7598
   -14.6606 -14.6310 -14.5925 -14.4621 -13.9668 -13.9562 -13.9508 -13.9220
   -13.9024 -13.8827 -13.8685 -13.8442 -13.8328 -13.8122 -13.8104 -13.7941
   -13.7155 -13.7094 -13.6724 -13.6471 -13.6428 -13.5429 -13.4843 -13.3553
   -13.3218 -13.1424 -13.1036 -13.0329 -13.0093 -12.9826 -12.9713 -12.9680
   -12.9582 -12.9394 -12.8548 -12.7982 -12.7839 -12.7305 -12.7244 -12.6723
   -12.6598 -12.5879 -12.5810 -12.5215 -12.3434 -12.3010 -12.1903 -12.1449
   -12.1062 -11.7549 -11.7425 -11.7247 -11.7078 -11.6730 -11.6562 -11.6198
   -11.5598 -11.5400 -11.5341 -11.4839 -11.4810  -2.2095  -2.1337  -2.1214
    -2.0515  -2.0131  -1.9344  -1.8664  -1.7412  -1.6251  -1.5946  -1.5567
    -1.4984  -1.4268  -1.4110  -1.3417  -1.2985  -1.1814  -1.1535  -1.1210
    -1.0998  -1.0755  -1.0111  -0.9651  -0.9453  -0.9339  -0.8804  -0.8362
    -0.8209  -0.7073  -0.6508  -0.6034  -0.5536  -0.5267  -0.5172  -0.4795
    -0.4338  -0.4020  -0.3876  -0.3043  -0.2360  -0.1933  -0.1644  -0.0938
    -0.0349  -0.0076   0.0392   0.0535   0.0742   0.0859   0.5355   0.5942
     0.6828   0.7563   1.0852   1.0977   1.1352   1.1670   1.4394   1.4588
     1.4658   1.5013   1.6345   1.7279   1.7564   1.7924   1.8191   1.8400
     1.8476   1.8775   1.8921   1.9126   1.9246   1.9635   1.9677   1.9961
     2.0302   2.0462   2.0631   2.0934   2.1146   2.1260   2.1579   2.1821
     2.2486   2.3155   2.4614   2.4876   2.5891   2.6175   2.6375   2.6546
     2.6693   2.6959   2.7017   2.7209   2.7329   2.7482   2.7670   2.7794
     2.8441   2.8473   2.8691   2.8826   2.8943   2.9137   2.9185   2.9281
     3.0311   3.0361   3.0623   3.0722   4.0200   4.0478   4.1043   4.1293
     4.3359   4.4081   4.4352   4.6767   4.7980   4.8807   5.0094   5.0995
     5.1080   5.2224   5.3241   5.4076   5.8684   5.8959   5.9656   6.0420
     6.5343   6.8382   6.9858   7.1088   7.8928   7.9365   7.9527   7.9691
     7.9922   8.0386   8.1024   8.2841   8.5264   8.5991   8.6189   8.6327
     8.6750   8.7563   8.7716

     occupation numbers 
     1.0000   1.0000   1.0000   1.0000   1.0000   1.0000   1.0000   1.0000
     1.0000   1.0000   1.0000   1.0000   1.0000   1.0000   1.0000   1.0000
     1.0000   1.0000   1.0000   1.0000   1.0000   1.0000   1.0000   1.0000
     1.0000   1.0000   1.0000   1.0000   1.0000   1.0000   1.0000   1.0000
     1.0000   1.0000   1.0000   1.0000   1.0000   1.0000   1.0000   1.0000
     1.0000   1.0000   1.0000   1.0000   1.0000   1.0000   1.0000   1.0000
     1.0000   1.0000   1.0000   1.0000   1.0000   1.0000   1.0000   1.0000
     1.0000   1.0000   1.0000   1.0000   1.0000   1.0000   1.0000   1.0000
     1.0000   1.0000   1.0000   1.0000   1.0000   1.0000   1.0000   1.0000
     1.0000   1.0000   1.0000   1.0000   1.0000   1.0000   1.0000   1.0000
     1.0000   1.0000   1.0000   1.0000   1.0000   1.0000   1.0000   1.0000
     1.0000   1.0000   1.0000   1.0000   1.0000   1.0000   1.0000   1.0000
     1.0000   1.0000   1.0000   1.0000   1.0000   1.0000   1.0000   1.0000
     1.0000   1.0000   1.0000   1.0000   1.0000   1.0000   1.0000   1.0000
     1.0000   1.0000   1.0000   1.0000   1.0000   1.0000   1.0000   1.0000
     1.0000   1.0000   1.0000   1.0000   1.0000   1.0000   1.0000   1.0000
     1.0000   1.0000   1.0000   1.0000   1.0000   1.0000   1.0000   1.0000
     1.0000   1.0000   1.0000   1.0000   1.0000   1.0000   1.0000   1.0000
     1.0000   1.0000   1.0000   1.0000   1.0000   1.0000   1.0000   1.0000
     1.0000   1.0000   1.0000   1.0000   1.0000   1.0000   1.0000   1.0000
     1.0000   0.9999   0.9996   0.9996   0.9995   0.9994   0.9977   0.9974
     0.9973   0.9969   0.9944   0.9918   0.9908   0.9894   0.9882   0.9872
     0.9868   0.9853   0.9844   0.9832   0.9824   0.9798   0.9795   0.9773
     0.9744   0.9730   0.9714   0.9683   0.9660   0.9647   0.9608   0.9577
     0.9480   0.9365   0.9049   0.8981   0.8687   0.8595   0.8527   0.8468
     0.8416   0.8319   0.8297   0.8224   0.8177   0.8116   0.8040   0.7988
     0.7708   0.7694   0.7594   0.7531   0.7476   0.7383   0.7360   0.7313
     0.6786   0.6759   0.6618   0.6565   0.1575   0.1478   0.1293   0.1216
     0.0703   0.0570   0.0525   0.0239   0.0154   0.0112   0.0067   0.0046
     0.0044   0.0026   0.0016   0.0011   0.0001   0.0001   0.0000   0.0000
     0.0000   0.0000   0.0000   0.0000   0.0000   0.0000   0.0000   0.0000
     0.0000   0.0000   0.0000   0.0000   0.0000   0.0000   0.0000   0.0000
     0.0000   0.0000   0.0000

          k = 0.2500 0.0000 0.0000 ( 65257 PWs)   bands (ev):

   -92.6846 -92.6305 -92.5379 -92.4927 -92.4336 -92.3908 -92.3731 -92.2521
   -56.0381 -56.0171 -55.8954 -55.8851 -55.8774 -55.8720 -55.8347 -55.8072
   -55.7916 -55.7904 -55.7816 -55.7405 -55.7252 -55.6843 -55.6642 -55.6340
   -55.6275 -55.5788 -55.5779 -55.5760 -55.5675 -55.5270 -55.5035 -55.4186
   -31.2602 -31.2443 -31.1002 -31.0795 -31.0143 -30.9124 -30.7821 -30.7031
   -29.8306 -29.7899 -29.7618 -29.6541 -15.0317 -14.9903 -14.9198 -14.7732
   -14.6658 -14.4727 -14.3377 -14.1601 -14.1419 -14.1113 -14.0809 -14.0568
   -14.0206 -14.0055 -13.9872 -13.9516 -13.9322 -13.8227 -13.7909 -13.6429
   -13.5709 -13.5665 -13.5054 -13.4756 -13.4631 -13.3941 -13.3284 -13.2969
   -13.1920 -13.1443 -13.1411 -13.0529 -13.0441 -13.0259 -13.0085 -12.9888
   -12.9541 -12.9186 -12.8837 -12.8042 -12.8026 -12.7994 -12.7552 -12.7216
   -12.6913 -12.6742 -12.6362 -12.5169 -12.4557 -12.3899 -12.2329 -12.0376
   -11.9933 -11.8099 -11.7576 -11.7408 -11.7277 -11.7008 -11.6499 -11.6269
   -11.6185 -11.5675 -11.4785 -11.4230 -11.4170  -2.7890  -2.5672  -2.4373
    -2.2646  -2.2010  -2.0311  -1.8238  -1.7465  -1.7026  -1.6682  -1.5668
    -1.5527  -1.5180  -1.4989  -1.4294  -1.2492  -1.1432  -1.1212  -1.0976
    -1.0029  -0.9915  -0.9127  -0.8861  -0.8355  -0.7931  -0.7417  -0.7138
    -0.6637  -0.6361  -0.6150  -0.5624  -0.5465  -0.4567  -0.4486  -0.3848
    -0.2906  -0.2391  -0.1096  -0.0992  -0.0405   0.0231   0.0650   0.0924
     0.1292   0.1917   0.2305   0.5128   0.6474   0.6784   0.7649   0.8048
     0.8292   0.8695   0.9254   1.0362   1.0832   1.1075   1.1484   1.2925
     1.3286   1.3611   1.3674   1.4101   1.4559   1.4962   1.5322   1.5843
     1.6337   1.6500   1.7026   1.7551   1.7961   1.8151   1.9012   1.9216
     1.9402   1.9852   1.9991   2.1202   2.1793   2.2464   2.3168   2.3308
     2.4082   2.4662   2.4810   2.4980   2.5133   2.5565   2.5668   2.5835
     2.6361   2.7590   2.8759   2.8975   2.9297   2.9542   2.9619   2.9821
     2.9925   3.0067   3.0273   3.0335   3.0587   3.0702   3.0767   3.0898
     3.1102   3.1349   3.1391   3.1472   3.1536   3.1639   3.1732   3.3039
     3.6024   3.6408   3.8991   4.2944   4.4938   4.7054   5.0307   5.0847
     5.6503   5.8142   5.9229   6.0254   6.0849   6.1101   6.1994   6.5944
[...]
     0.3503   0.3294   0.2046   0.0790   0.0438   0.0216   0.0061   0.0049
     0.0003   0.0001   0.0001   0.0000   0.0000   0.0000   0.0000   0.0000
     0.0000   0.0000   0.0000   0.0000   0.0000   0.0000   0.0000   0.0000
     0.0000   0.0000   0.0000   0.0000   0.0000   0.0000   0.0000   0.0000
     0.0000   0.0000   0.0000

          k =-0.5000 0.0000 0.0000 ( 65180 PWs)   bands (ev):

   -92.6846 -92.6305 -92.5379 -92.4927 -92.4336 -92.3908 -92.3731 -92.2521
   -56.0381 -56.0171 -55.8954 -55.8851 -55.8774 -55.8720 -55.8347 -55.8072
   -55.7916 -55.7904 -55.7816 -55.7405 -55.7252 -55.6843 -55.6642 -55.6340
   -55.6275 -55.5788 -55.5779 -55.5760 -55.5675 -55.5270 -55.5035 -55.4186
   -31.2580 -31.2465 -31.0999 -31.0793 -31.0146 -30.9125 -30.7817 -30.7036
   -29.8295 -29.7910 -29.7614 -29.6546 -14.9980 -14.9468 -14.8847 -14.7722
   -14.6716 -14.5278 -14.3830 -14.2345 -14.1160 -14.1038 -14.0918 -14.0318
   -13.9754 -13.9510 -13.9424 -13.8939 -13.8839 -13.8663 -13.8215 -13.7952
   -13.6882 -13.5381 -13.5160 -13.4789 -13.4707 -13.3905 -13.3483 -13.2871
   -13.2518 -13.2285 -13.1979 -13.0426 -13.0380 -13.0212 -12.9984 -12.9823
   -12.9420 -12.9246 -12.9031 -12.7920 -12.7884 -12.7223 -12.6798 -12.6509
   -12.6450 -12.6240 -12.6146 -12.5248 -12.3869 -12.3111 -12.2533 -12.1472
   -12.1095 -11.7618 -11.7404 -11.7334 -11.7194 -11.7014 -11.6600 -11.5965
   -11.5785 -11.5454 -11.5014 -11.4923 -11.4765  -2.5648  -2.5262  -2.3627
    -2.3232  -2.0100  -1.9359  -1.7869  -1.6689  -1.6303  -1.5856  -1.5370
    -1.5118  -1.3880  -1.3440  -1.3289  -1.2467  -1.2108  -1.1961  -1.1641
    -1.1228  -1.1035  -1.0374  -1.0092  -0.9781  -0.8795  -0.8372  -0.7888
    -0.7556  -0.7334  -0.7047  -0.6557  -0.6312  -0.5895  -0.4981  -0.4188
    -0.3600  -0.2964  -0.1101  -0.0917  -0.0379  -0.0085   0.0692   0.0772
     0.2205   0.2471   0.2821   0.4583   0.5568   0.6071   0.6840   0.7855
     0.8785   0.9058   1.0334   1.0493   1.1013   1.1268   1.1660   1.1833
     1.2261   1.2488   1.3168   1.3655   1.4124   1.4188   1.7237   1.7333
     1.7467   1.7859   1.8771   1.8885   1.9106   1.9222   1.9419   1.9545
     1.9977   2.0151   2.0542   2.0943   2.1139   2.1618   2.1884   2.2380
     2.3437   2.4491   2.4839   2.4859   2.5276   2.5410   2.6232   2.6432
     2.6745   2.7395   2.7468   2.7554   2.7839   2.8538   2.9007   2.9425
     2.9756   3.0164   3.0208   3.0222   3.0345   3.0479   3.0599   3.0742
     3.0780   3.1025   3.1038   3.1269   3.1460   3.1513   3.2813   3.2891
     4.0812   4.1411   4.2127   4.3721   4.8081   4.8823   5.0539   5.0707
     5.4988   5.5224   5.6101   5.6704   6.0412   6.0546   6.2841   6.4571
     6.8089   7.0144   7.2724   7.2986   7.3373   7.4525   7.7487   7.7924
     7.9021   8.0548   8.1569   8.2931   8.3943   8.4423   8.5385   8.6438
     8.7751   8.8341   8.9483

     occupation numbers 
     1.0000   1.0000   1.0000   1.0000   1.0000   1.0000   1.0000   1.0000
     1.0000   1.0000   1.0000   1.0000   1.0000   1.0000   1.0000   1.0000
     1.0000   1.0000   1.0000   1.0000   1.0000   1.0000   1.0000   1.0000
     1.0000   1.0000   1.0000   1.0000   1.0000   1.0000   1.0000   1.0000
     1.0000   1.0000   1.0000   1.0000   1.0000   1.0000   1.0000   1.0000
     1.0000   1.0000   1.0000   1.0000   1.0000   1.0000   1.0000   1.0000
     1.0000   1.0000   1.0000   1.0000   1.0000   1.0000   1.0000   1.0000
     1.0000   1.0000   1.0000   1.0000   1.0000   1.0000   1.0000   1.0000
     1.0000   1.0000   1.0000   1.0000   1.0000   1.0000   1.0000   1.0000
     1.0000   1.0000   1.0000   1.0000   1.0000   1.0000   1.0000   1.0000
     1.0000   1.0000   1.0000   1.0000   1.0000   1.0000   1.0000   1.0000
     1.0000   1.0000   1.0000   1.0000   1.0000   1.0000   1.0000   1.0000
     1.0000   1.0000   1.0000   1.0000   1.0000   1.0000   1.0000   1.0000
     1.0000   1.0000   1.0000   1.0000   1.0000   1.0000   1.0000   1.0000
     1.0000   1.0000   1.0000   1.0000   1.0000   1.0000   1.0000   1.0000
     1.0000   1.0000   1.0000   1.0000   1.0000   1.0000   1.0000   1.0000
     1.0000   1.0000   1.0000   1.0000   1.0000   1.0000   1.0000   1.0000
     1.0000   1.0000   1.0000   1.0000   1.0000   1.0000   1.0000   1.0000
     1.0000   1.0000   1.0000   1.0000   1.0000   1.0000   1.0000   1.0000
     1.0000   1.0000   1.0000   1.0000   1.0000   1.0000   1.0000   0.9999
     0.9999   0.9999   0.9997   0.9997   0.9996   0.9995   0.9994   0.9993
     0.9992   0.9991   0.9987   0.9983   0.9979   0.9979   0.9919   0.9916
     0.9911   0.9896   0.9853   0.9846   0.9833   0.9826   0.9813   0.9804
     0.9772   0.9757   0.9722   0.9682   0.9661   0.9603   0.9568   0.9496
     0.9312   0.9079   0.8991   0.8986   0.8871   0.8833   0.8576   0.8508
     0.8397   0.8151   0.8122   0.8087   0.7969   0.7664   0.7445   0.7242
     0.7075   0.6864   0.6840   0.6833   0.6768   0.6696   0.6631   0.6554
     0.6532   0.6397   0.6390   0.6261   0.6153   0.6123   0.5368   0.5321
     0.1366   0.1181   0.0984   0.0633   0.0148   0.0112   0.0055   0.0052
     0.0007   0.0006   0.0004   0.0003   0.0000   0.0000   0.0000   0.0000
     0.0000   0.0000   0.0000   0.0000   0.0000   0.0000   0.0000   0.0000
     0.0000   0.0000   0.0000   0.0000   0.0000   0.0000   0.0000   0.0000
     0.0000   0.0000   0.0000

          k =-0.2500 0.2500 0.0000 ( 65198 PWs)   bands (ev):

   -92.6846 -92.6305 -92.5379 -92.4927 -92.4336 -92.3908 -92.3731 -92.2521
   -56.0381 -56.0171 -55.8954 -55.8851 -55.8774 -55.8720 -55.8347 -55.8072
   -55.7916 -55.7904 -55.7816 -55.7405 -55.7252 -55.6843 -55.6642 -55.6340
   -55.6275 -55.5788 -55.5779 -55.5760 -55.5675 -55.5270 -55.5035 -55.4186
   -31.2600 -31.2442 -31.1004 -31.0794 -31.0144 -30.9122 -30.7822 -30.7033
   -29.8300 -29.7896 -29.7624 -29.6545 -15.0006 -14.9588 -14.8848 -14.7683
   -14.6557 -14.5295 -14.4448 -14.2374 -14.0983 -14.0699 -14.0557 -14.0084
   -13.9838 -13.9612 -13.9559 -13.9410 -13.8961 -13.8183 -13.8074 -13.6559
   -13.6279 -13.6000 -13.5787 -13.5379 -13.4801 -13.4196 -13.4049 -13.2603
   -13.2364 -13.2058 -13.1309 -13.0882 -13.0260 -13.0141 -12.9859 -12.9669
   -12.9291 -12.9106 -12.8777 -12.8357 -12.7952 -12.7555 -12.7269 -12.6872
   -12.6762 -12.6510 -12.6231 -12.4532 -12.4260 -12.3697 -12.2668 -12.0666
   -12.0403 -11.7820 -11.7605 -11.7333 -11.7210 -11.6805 -11.6454 -11.6227
   -11.6005 -11.5781 -11.4932 -11.4483 -11.4387  -2.6496  -2.4412  -2.3204
    -2.2319  -2.1136  -2.0472  -1.8449  -1.6988  -1.6808  -1.6525  -1.5597
    -1.5245  -1.4304  -1.3969  -1.3705  -1.2279  -1.1736  -1.1191  -1.1041
    -1.0747  -1.0146  -0.9929  -0.9535  -0.9246  -0.8845  -0.8221  -0.7724
    -0.7128  -0.6418  -0.6137  -0.5646  -0.5356  -0.4896  -0.4353  -0.3919
    -0.3487  -0.2502  -0.2150  -0.2016  -0.1605  -0.0927  -0.0066   0.0314
     0.0558   0.1343   0.1591   0.4091   0.5755   0.6182   0.6590   0.7223
     0.7777   0.8473   0.8929   0.9221   1.1982   1.3074   1.3493   1.3804
     1.3854   1.4300   1.4475   1.4907   1.5224   1.5363   1.5617   1.6065
     1.6240   1.6645   1.6806   1.7267   1.8263   1.8423   1.8567   1.9056
     1.9226   1.9655   2.0306   2.1263   2.2251   2.2506   2.2966   2.3165
     2.3838   2.4248   2.4534   2.4662   2.4841   2.5013   2.5070   2.6010
     2.6325   2.7222   2.8996   2.9084   2.9219   2.9321   2.9431   2.9570
     2.9626   2.9813   2.9889   3.0044   3.0133   3.0261   3.0355   3.0429
     3.0759   3.0865   3.0951   3.1287   3.4210   3.5035   3.5671   3.6505
     3.6706   3.8546   3.9796   4.3246   4.5412   4.7346   5.0090   5.1756
     5.6638   5.7122   5.7715   5.8512   5.9129   6.0744   6.1821   6.2111
     6.8973   6.9256   7.1001   7.2777   7.5782   7.6216   7.6825   7.8713
     7.9076   7.9968   8.2045   8.2334   8.3242   8.3817   8.4328   8.4647
     8.5558   8.7930   8.9289

     occupation numbers 
     1.0000   1.0000   1.0000   1.0000   1.0000   1.0000   1.0000   1.0000
     1.0000   1.0000   1.0000   1.0000   1.0000   1.0000   1.0000   1.0000
     1.0000   1.0000   1.0000   1.0000   1.0000   1.0000   1.0000   1.0000
     1.0000   1.0000   1.0000   1.0000   1.0000   1.0000   1.0000   1.0000
     1.0000   1.0000   1.0000   1.0000   1.0000   1.0000   1.0000   1.0000
     1.0000   1.0000   1.0000   1.0000   1.0000   1.0000   1.0000   1.0000
     1.0000   1.0000   1.0000   1.0000   1.0000   1.0000   1.0000   1.0000
     1.0000   1.0000   1.0000   1.0000   1.0000   1.0000   1.0000   1.0000
     1.0000   1.0000   1.0000   1.0000   1.0000   1.0000   1.0000   1.0000
     1.0000   1.0000   1.0000   1.0000   1.0000   1.0000   1.0000   1.0000
     1.0000   1.0000   1.0000   1.0000   1.0000   1.0000   1.0000   1.0000
     1.0000   1.0000   1.0000   1.0000   1.0000   1.0000   1.0000   1.0000
     1.0000   1.0000   1.0000   1.0000   1.0000   1.0000   1.0000   1.0000
     1.0000   1.0000   1.0000   1.0000   1.0000   1.0000   1.0000   1.0000
     1.0000   1.0000   1.0000   1.0000   1.0000   1.0000   1.0000   1.0000
     1.0000   1.0000   1.0000   1.0000   1.0000   1.0000   1.0000   1.0000
     1.0000   1.0000   1.0000   1.0000   1.0000   1.0000   1.0000   1.0000
     1.0000   1.0000   1.0000   1.0000   1.0000   1.0000   1.0000   1.0000
     1.0000   1.0000   1.0000   1.0000   1.0000   1.0000   1.0000   1.0000
     1.0000   1.0000   1.0000   1.0000   1.0000   1.0000   1.0000   1.0000
     0.9999   0.9999   0.9999   0.9998   0.9993   0.9987   0.9985   0.9982
     0.9982   0.9978   0.9976   0.9970   0.9966   0.9964   0.9959   0.9950
     0.9947   0.9937   0.9932   0.9918   0.9879   0.9871   0.9864   0.9836
     0.9826   0.9796   0.9744   0.9646   0.9516   0.9477   0.9400   0.9363
     0.9229   0.9137   0.9069   0.9036   0.8990   0.8944   0.8929   0.8649
     0.8544   0.8219   0.7451   0.7408   0.7343   0.7293   0.7239   0.7170
     0.7141   0.7046   0.7007   0.6927   0.6880   0.6812   0.6763   0.6723
     0.6544   0.6486   0.6439   0.6251   0.4541   0.4060   0.3699   0.3242
     0.3135   0.2239   0.1724   0.0726   0.0377   0.0194   0.0067   0.0033
     0.0003   0.0002   0.0002   0.0001   0.0001   0.0000   0.0000   0.0000
     0.0000   0.0000   0.0000   0.0000   0.0000   0.0000   0.0000   0.0000
     0.0000   0.0000   0.0000   0.0000   0.0000   0.0000   0.0000   0.0000
     0.0000   0.0000   0.0000

          k =-0.5000 0.2500 0.0000 ( 65138 PWs)   bands (ev):

   -92.6846 -92.6305 -92.5379 -92.4927 -92.4336 -92.3908 -92.3731 -92.2521
   -56.0381 -56.0171 -55.8954 -55.8851 -55.8774 -55.8720 -55.8347 -55.8072
   -55.7916 -55.7904 -55.7816 -55.7405 -55.7252 -55.6843 -55.6642 -55.6340
   -55.6275 -55.5788 -55.5779 -55.5760 -55.5675 -55.5270 -55.5035 -55.4186
   -31.2578 -31.2464 -31.1001 -31.0792 -31.0148 -30.9124 -30.7818 -30.7037
   -29.8289 -29.7907 -29.7620 -29.6549 -14.9652 -14.9204 -14.8418 -14.7399
   -14.6985 -14.5751 -14.4864 -14.3542 -14.0489 -14.0188 -14.0072 -13.9625
   -13.9508 -13.9399 -13.9144 -13.8798 -13.8698 -13.8464 -13.8073 -13.7940
   -13.6836 -13.6204 -13.5733 -13.5707 -13.5580 -13.4532 -13.4376 -13.3210
   -13.2615 -13.1844 -13.1484 -13.0530 -13.0154 -13.0026 -12.9977 -12.9633
   -12.9313 -12.9222 -12.8930 -12.7998 -12.7876 -12.7252 -12.7022 -12.6576
   -12.6529 -12.6052 -12.5980 -12.5230 -12.3642 -12.3064 -12.2238 -12.1427
   -12.1090 -11.7545 -11.7419 -11.7280 -11.7156 -11.6949 -11.6648 -11.5832
   -11.5750 -11.5515 -11.5157 -11.4880 -11.4788  -2.4224  -2.3806  -2.2323
    -2.1897  -2.0290  -1.9545  -1.8112  -1.6750  -1.6195  -1.5923  -1.5531
    -1.5142  -1.4333  -1.3179  -1.2611  -1.2378  -1.2128  -1.1370  -1.1246
    -1.1014  -1.0682  -1.0502  -0.9904  -0.9604  -0.9226  -0.8872  -0.8583
    -0.8006  -0.7722  -0.7292  -0.6963  -0.5934  -0.5636  -0.4797  -0.4131
    -0.3851  -0.3304  -0.2419  -0.2037  -0.1093  -0.0557  -0.0108   0.0469
     0.0690   0.1413   0.1645   0.1955   0.2481   0.2898   0.5958   0.6722
     0.7305   0.7953   1.0412   1.0882   1.1677   1.1891   1.3672   1.4041
     1.4411   1.4526   1.4713   1.4893   1.5581   1.6019   1.6465   1.6694
     1.8116   1.8351   1.8604   1.8732   1.9323   1.9398   1.9561   1.9704
     1.9898   2.0138   2.0641   2.0728   2.1082   2.1290   2.1648   2.2162
     2.3351   2.4400   2.4553   2.4774   2.4989   2.5405   2.5701   2.6398
     2.6704   2.6763   2.7132   2.7459   2.7690   2.8532   2.8965   2.9087
     2.9138   2.9353   2.9577   2.9704   2.9851   2.9989   3.0200   3.0321
     3.0421   3.0496   3.0601   3.0716   3.5980   3.6592   3.7906   3.8162
     4.0883   4.1693   4.2204   4.4433   4.8026   4.9004   5.0522   5.0984
     5.4193   5.4479   5.6027   5.6365   5.7658   5.7971   6.3693   6.4039
     6.5107   6.5843   7.2850   7.3283   7.5876   7.7264   7.8103   7.8396
     7.9074   8.0402   8.2997   8.4285   8.4811   8.5474   8.5835   8.5900
     8.6791   8.7193   8.7748

     occupation numbers 
     1.0000   1.0000   1.0000   1.0000   1.0000   1.0000   1.0000   1.0000
     1.0000   1.0000   1.0000   1.0000   1.0000   1.0000   1.0000   1.0000
     1.0000   1.0000   1.0000   1.0000   1.0000   1.0000   1.0000   1.0000
     1.0000   1.0000   1.0000   1.0000   1.0000   1.0000   1.0000   1.0000
     1.0000   1.0000   1.0000   1.0000   1.0000   1.0000   1.0000   1.0000
     1.0000   1.0000   1.0000   1.0000   1.0000   1.0000   1.0000   1.0000
     1.0000   1.0000   1.0000   1.0000   1.0000   1.0000   1.0000   1.0000
     1.0000   1.0000   1.0000   1.0000   1.0000   1.0000   1.0000   1.0000
     1.0000   1.0000   1.0000   1.0000   1.0000   1.0000   1.0000   1.0000
     1.0000   1.0000   1.0000   1.0000   1.0000   1.0000   1.0000   1.0000
     1.0000   1.0000   1.0000   1.0000   1.0000   1.0000   1.0000   1.0000
     1.0000   1.0000   1.0000   1.0000   1.0000   1.0000   1.0000   1.0000
     1.0000   1.0000   1.0000   1.0000   1.0000   1.0000   1.0000   1.0000
     1.0000   1.0000   1.0000   1.0000   1.0000   1.0000   1.0000   1.0000
     1.0000   1.0000   1.0000   1.0000   1.0000   1.0000   1.0000   1.0000
     1.0000   1.0000   1.0000   1.0000   1.0000   1.0000   1.0000   1.0000
     1.0000   1.0000   1.0000   1.0000   1.0000   1.0000   1.0000   1.0000
     1.0000   1.0000   1.0000   1.0000   1.0000   1.0000   1.0000   1.0000
     1.0000   1.0000   1.0000   1.0000   1.0000   1.0000   1.0000   1.0000
     1.0000   1.0000   1.0000   1.0000   1.0000   1.0000   1.0000   1.0000
     0.9999   0.9999   0.9997   0.9996   0.9994   0.9993   0.9983   0.9980
     0.9976   0.9975   0.9973   0.9970   0.9960   0.9951   0.9941   0.9935
     0.9885   0.9874   0.9862   0.9855   0.9819   0.9814   0.9803   0.9793
     0.9778   0.9758   0.9713   0.9704   0.9667   0.9643   0.9600   0.9529
     0.9328   0.9101   0.9064   0.9008   0.8951   0.8834   0.8746   0.8519
     0.8412   0.8391   0.8253   0.8125   0.8032   0.7667   0.7465   0.7407
     0.7382   0.7277   0.7166   0.7102   0.7027   0.6956   0.6845   0.6781
     0.6727   0.6687   0.6630   0.6568   0.3527   0.3196   0.2534   0.2414
     0.1344   0.1100   0.0964   0.0512   0.0151   0.0104   0.0056   0.0046
     0.0010   0.0009   0.0004   0.0003   0.0002   0.0001   0.0000   0.0000
     0.0000   0.0000   0.0000   0.0000   0.0000   0.0000   0.0000   0.0000
     0.0000   0.0000   0.0000   0.0000   0.0000   0.0000   0.0000   0.0000
     0.0000   0.0000   0.0000

     the Fermi energy is     3.3434 ev

!    total energy              =   -4441.65725802 Ry
     estimated scf accuracy    <          5.3E-09 Ry
     smearing contrib. (-TS)   =      -1.15480547 Ry
     internal energy E=F+TS    =   -4440.50245255 Ry

     The total energy is F=E-TS. E is the sum of the following terms:
     one-electron contribution =  -20805.44308490 Ry
     hartree contribution      =   10534.95427592 Ry
     xc contribution           =    -694.18234592 Ry
     ewald contribution        =    6800.33897600 Ry
     one-center paw contrib.   =    -276.17027365 Ry
      -> PAW hartree energy AE =      25.14769317 Ry
      -> PAW hartree energy PS =     -25.03175121 Ry
      -> PAW xc energy AE      =     -16.51532419 Ry
      -> PAW xc energy PS      =       6.87468616 Ry
      -> total E_H with PAW    =   10535.07021788 Ry
      -> total E_XC with PAW   =    -703.82298396 Ry

     convergence has been achieved in  45 iterations

     Writing all to output data dir /bsuhome/zayahcortright/scratch/pwscf.save/
 
     init_run     :      7.89s CPU      8.62s WALL (       1 calls)
     electrons    :    739.93s CPU    821.33s WALL (       1 calls)

     Called by init_run:
     wfcinit      :      6.25s CPU      6.47s WALL (       1 calls)
     wfcinit:atom :      0.05s CPU      0.07s WALL (       5 calls)
     wfcinit:wfcr :      5.93s CPU      6.06s WALL (       5 calls)
     potinit      :      0.17s CPU      0.20s WALL (       1 calls)
     hinit0       :      0.53s CPU      0.78s WALL (       1 calls)

     Called by electrons:
     c_bands      :    595.68s CPU    608.38s WALL (      45 calls)
     sum_band     :    105.79s CPU    144.30s WALL (      45 calls)
     v_of_rho     :      5.01s CPU      5.48s WALL (      46 calls)
     v_h          :      0.45s CPU      0.45s WALL (      46 calls)
     v_xc         :      4.57s CPU      5.03s WALL (      46 calls)
     newd         :     18.01s CPU     47.17s WALL (      46 calls)
     PAW_pot      :      1.49s CPU      1.52s WALL (      46 calls)
     mix_rho      :     13.71s CPU     14.23s WALL (      45 calls)

     Called by c_bands:
     init_us_2    :      6.28s CPU      6.37s WALL (     455 calls)
     init_us_2:cp :      6.27s CPU      6.37s WALL (     455 calls)
     cegterg      :    566.73s CPU    579.07s WALL (     225 calls)

     Called by sum_band:
     sum_band:wei :      0.32s CPU      0.32s WALL (      45 calls)
     sum_band:loo :     87.32s CPU     88.04s WALL (      45 calls)
     sum_band:buf :      1.45s CPU      1.49s WALL (     225 calls)
     sum_band:ini :      2.95s CPU      2.96s WALL (     225 calls)
     sum_band:cal :     18.18s CPU     18.24s WALL (     225 calls)
     sum_band:bec :      0.52s CPU      0.55s WALL (     225 calls)
     addusdens    :     16.57s CPU     54.29s WALL (      45 calls)
                                        0.00s GPU  (      45 calls)
     addusd:skk   :      0.31s CPU      2.10s WALL (     180 calls)
                                        0.00s GPU  (     180 calls)

     Called by *egterg:
     cdiaghg      :     57.01s CPU     57.27s WALL (    1274 calls)
     cegterg:over :     47.50s CPU     47.82s WALL (    1049 calls)
     cegterg:upda :     51.48s CPU     52.59s WALL (    1049 calls)
     cegterg:last :     67.33s CPU     67.59s WALL (     412 calls)
     cdiaghg:chol :      3.14s CPU      3.17s WALL (    1274 calls)
     cdiaghg:inve :      3.38s CPU      3.40s WALL (    1274 calls)
     cdiaghg:para :      7.40s CPU      7.45s WALL (    2548 calls)
     h_psi        :    279.22s CPU    283.93s WALL (    1279 calls)
     s_psi        :     37.64s CPU     37.80s WALL (    1279 calls)
     g_psi        :      2.63s CPU      2.65s WALL (    1049 calls)

     Called by h_psi:
     h_psi:calbec :     42.54s CPU     42.75s WALL (    1279 calls)
     vloc_psi     :    193.16s CPU    195.12s WALL (    1279 calls)
     add_vuspsi   :     37.39s CPU     37.60s WALL (    1279 calls)

     General routines
     calbec       :     60.70s CPU     60.98s WALL (    1504 calls)
     fft          :      3.82s CPU      3.88s WALL (     596 calls)
     ffts         :      4.24s CPU      4.28s WALL (    4831 calls)
     fftw         :    162.71s CPU    164.09s WALL (  305993 calls)
     interpolate  :      0.38s CPU      0.39s WALL (      46 calls)
 
     Parallel routines

     PAW routines
     PAW_pot      :      1.49s CPU      1.52s WALL (      46 calls)
 
     PWSCF        :  12m29.69s CPU  13m55.60s WALL

 
   This run was terminated on:  22:27:50  21Jun2024            

=------------------------------------------------------------------------------=
   JOB DONE.
=------------------------------------------------------------------------------=
