
     Program PWSCF v.7.2 starts on 22Jun2024 at  1:16:49 

     This program is part of the open-source Quantum ESPRESSO suite
     for quantum simulation of materials; please cite
         "P. Giannozzi et al., J. Phys.:Condens. Matter 21 395502 (2009);
         "P. Giannozzi et al., J. Phys.:Condens. Matter 29 465901 (2017);
         "P. Giannozzi et al., J. Chem. Phys. 152 154105 (2020);
          URL http://www.quantum-espresso.org", 
     in publications or presentations arising from this work. More details at
     http://www.quantum-espresso.org/quote

     Parallel version (MPI & OpenMP), running on      48 processor cores
     Number of MPI processes:                48
     Threads/MPI process:                     1

     MPI processes distributed on     1 nodes
     60563 MiB available memory on the printing compute node when the environment starts
 
     Reading input from espresso.pwi
Warning: card &CELL ignored
Warning: card / ignored
Warning: card &FCP ignored
Warning: card / ignored
Warning: card &RISM ignored
Warning: card / ignored

     Current dimensions of program PWSCF are:
     Max number of different atomic species (ntypx) = 10
     Max number of k-points (npk) =  40000
     Max angular momentum in pseudopotentials (lmaxx) =  4
     file O.pbe-n-kjpaw_psl.0.1.UPF: wavefunction(s)  2P renormalized
     signal trapping enabled: kill the code with -SIGUSR1 to stop cleanly the simulation 
 
     K-points division:     npool     =       2
     R & G space division:  proc/nbgrp/npool/nimage =      24
     Subspace diagonalization in iterative solution of the eigenvalue problem:
     one sub-group per band group will be used
     scalapack distributed-memory algorithm (size of sub-group:  3*  3 procs)

 
     Parallelization info
     --------------------
     sticks:   dense  smooth     PW     G-vecs:    dense   smooth      PW
     Min         350     175     47                61430    21716    3036
     Max         351     177     48                61449    21727    3041
     Sum        8421    4205   1137              1474595   521381   72913
 
     Using Slab Decomposition
 


     bravais-lattice index     =            0
     lattice parameter (alat)  =      14.8599  a.u.
     unit-cell volume          =    8305.1283 (a.u.)^3
     number of atoms/cell      =           49
     number of atomic types    =            3
     number of electrons       =       430.00
     number of Kohn-Sham states=          258
     kinetic-energy cutoff     =      60.0000  Ry
     charge density cutoff     =     480.0000  Ry
     scf convergence threshold =      1.0E-08
     mixing beta               =       0.1500
     number of iterations used =            8  local-TF  mixing
     Exchange-correlation= SLA  PW   PBE  PBE
                           (   1   4   3   4   0   0   0)

     celldm(1)=  14.859904  celldm(2)=   0.000000  celldm(3)=   0.000000
     celldm(4)=   0.000000  celldm(5)=   0.000000  celldm(6)=   0.000000

     crystal axes: (cart. coord. in units of alat)
               a(1) = (   1.000000   0.000000   0.000000 )  
               a(2) = (   0.000000   1.000000   0.000000 )  
               a(3) = (   0.000000   0.000000   2.531036 )  

     reciprocal axes: (cart. coord. in units 2 pi/alat)
               b(1) = (  1.000000  0.000000  0.000000 )  
               b(2) = (  0.000000  1.000000  0.000000 )  
               b(3) = (  0.000000  0.000000  0.395095 )  


     PseudoPot. # 1 for Sr read from file:
     /bsuhome/zayahcortright/q-e/pseudo/Sr_pbe_v1.uspp.F.UPF
     MD5 check sum: 6b418c05fbe9db5448babca5e47b7a5b
     Pseudo is Ultrasoft + core correction, Zval = 10.0
     Generated by new atomic code, or converted to UPF format
     Using radial grid of  883 points,  6 beta functions with: 
                l(1) =   0
                l(2) =   0
                l(3) =   1
                l(4) =   1
                l(5) =   2
                l(6) =   2
     Q(r) pseudized with  6 coefficients,  rinner =    1.400   1.400   1.400
                                                       1.400   1.400

     PseudoPot. # 2 for O  read from file:
     /bsuhome/zayahcortright/q-e/pseudo/O.pbe-n-kjpaw_psl.0.1.UPF
     MD5 check sum: 0234752ac141de4415c5fc33072bef88
     Pseudo is Projector augmented-wave + core cor, Zval =  6.0
     Generated using "atomic" code by A. Dal Corso  v.5.0.99 svn rev. 10869
     Shape of augmentation charge: BESSEL
     Using radial grid of 1095 points,  4 beta functions with: 
                l(1) =   0
                l(2) =   0
                l(3) =   1
                l(4) =   1
     Q(r) pseudized with 0 coefficients 


     PseudoPot. # 3 for Co read from file:
     /bsuhome/zayahcortright/q-e/pseudo/Co_pbe_v1.2.uspp.F.UPF
     MD5 check sum: 5f91765df6ddd3222702df6e7b74a16d
     Pseudo is Ultrasoft + core correction, Zval = 17.0
     Generated by new atomic code, or converted to UPF format
     Using radial grid of  863 points,  6 beta functions with: 
                l(1) =   0
                l(2) =   0
                l(3) =   1
                l(4) =   1
                l(5) =   2
                l(6) =   2
     Q(r) pseudized with  8 coefficients,  rinner =    1.200   1.200   1.200
                                                       1.200   1.200

     atomic species   valence    mass     pseudopotential
        Sr            10.00    87.62000     Sr( 1.00)
        O              6.00    15.99900     O ( 1.00)
        Co            17.00    58.93319     Co( 1.00)

     No symmetry found


                                    s                        frac. trans.

      isym =  1     identity                                     

 cryst.   s( 1) = (     1          0          0      )
                  (     0          1          0      )
                  (     0          0          1      )

 cart.    s( 1) = (  1.0000000  0.0000000  0.0000000 )
                  (  0.0000000  1.0000000  0.0000000 )
                  (  0.0000000  0.0000000  1.0000000 )


   Cartesian axes

     site n.     atom                  positions (alat units)
         1           Sr  tau(   1) = (   0.2508693   0.7491307   1.7574407  )
         2           O   tau(   2) = (   0.4985141   0.5014859   1.7715967  )
         3           Sr  tau(   3) = (   0.7482398   0.7454518   1.7648669  )
         4           Sr  tau(   4) = (   0.7441748   0.2558252   1.7667843  )
         5           Sr  tau(   5) = (   0.2508693   0.7491307   1.2696799  )
         6           Sr  tau(   6) = (   0.2508693   0.7491307   0.7632319  )
         7           Co  tau(   7) = (   0.4998914   0.5001086   1.0164559  )
         8           Co  tau(   8) = (   0.4936915   0.5063085   1.5135603  )
         9           O   tau(   9) = (   0.4988895   0.7610401   1.0164559  )
        10           O   tau(  10) = (   0.2389599   0.5011105   1.0164559  )
        11           O   tau(  11) = (   0.0070918   0.7374880   1.0164559  )
        12           O   tau(  12) = (   0.0088340   0.7405089   1.5135603  )
        13           O   tau(  13) = (   0.5066944   0.7415376   1.5135603  )
        14           O   tau(  14) = (   0.2584624   0.4933056   1.5135603  )
        15           O   tau(  15) = (   0.4985141   0.5014859   0.7773880  )
        16           O   tau(  16) = (   0.4985141   0.5014859   1.2555238  )
        17           Sr  tau(  17) = (   0.7482398   0.7454518   0.7706582  )
        18           Sr  tau(  18) = (   0.7482398   0.7454518   1.2622536  )
        19           Sr  tau(  19) = (   0.7441748   0.2558252   0.7725755  )
        20           Sr  tau(  20) = (   0.7441748   0.2558252   1.2603363  )
        21           O   tau(  21) = (   0.7322655   0.0078049   1.5135603  )
        22           O   tau(  22) = (   0.7558175   0.4996027   1.5135603  )
        23           O   tau(  23) = (   0.5003973   0.2441825   1.5135603  )
        24           O   tau(  24) = (   0.7527966   0.4978604   1.0164559  )
        25           O   tau(  25) = (   0.5021396   0.2472034   1.0164559  )
        26           O   tau(  26) = (   0.7517679   0.0000000   1.0164559  )
        27           O   tau(  27) = (   0.0114961   0.4948124   1.7455321  )
        28           O   tau(  28) = (   0.0048226   0.0077944   1.7715967  )
        29           Sr  tau(  29) = (   0.2545482   0.2517602   1.7648669  )
        30           O   tau(  30) = (   0.5048017   0.0015068   1.7786929  )
        31           Co  tau(  31) = (   0.0056869   0.5006215   1.0164559  )
        32           Co  tau(  32) = (   0.0065315   0.4997770   1.5135603  )
        33           Co  tau(  33) = (   0.0061999   0.0064171   1.0164559  )
        34           Co  tau(  34) = (   0.0000000   0.0126169   1.5135603  )
        35           O   tau(  35) = (   0.0114961   0.4948124   1.2815885  )
        36           O   tau(  36) = (   0.0114961   0.4948124   0.7513233  )
        37           O   tau(  37) = (   0.0051979   0.2673486   1.0164559  )
        38           O   tau(  38) = (   0.0130029   0.2478461   1.5135603  )
        39           O   tau(  39) = (   0.0048226   0.0077944   0.7773880  )
        40           O   tau(  40) = (   0.0048226   0.0077944   1.2555238  )
        41           Sr  tau(  41) = (   0.2545482   0.2517602   0.7706582  )
        42           Sr  tau(  42) = (   0.2545482   0.2517602   1.2622536  )
        43           Co  tau(  43) = (   0.4989925   0.0073160   1.5135603  )
        44           Co  tau(  44) = (   0.4998370   0.0064714   1.0164559  )
        45           O   tau(  45) = (   0.5048017   0.0015068   0.7844841  )
        46           O   tau(  46) = (   0.5048017   0.0015068   1.2484277  )
        47           O   tau(  47) = (   0.2621260   0.0059111   1.5135603  )
        48           O   tau(  48) = (   0.2591051   0.0041689   1.0164559  )
        49           O   tau(  49) = (   0.8529874   0.5686583   2.1602013  )

   Crystallographic axes

     site n.     atom                  positions (cryst. coord.)
         1           Sr  tau(   1) = (  0.2508693  0.7491307  0.6943562  )
         2           O   tau(   2) = (  0.4985141  0.5014859  0.6999492  )
         3           Sr  tau(   3) = (  0.7482398  0.7454518  0.6972903  )
         4           Sr  tau(   4) = (  0.7441748  0.2558252  0.6980478  )
         5           Sr  tau(   5) = (  0.2508693  0.7491307  0.5016443  )
         6           Sr  tau(   6) = (  0.2508693  0.7491307  0.3015492  )
         7           Co  tau(   7) = (  0.4998914  0.5001086  0.4015968  )
         8           Co  tau(   8) = (  0.4936915  0.5063085  0.5980003  )
         9           O   tau(   9) = (  0.4988895  0.7610401  0.4015968  )
        10           O   tau(  10) = (  0.2389599  0.5011105  0.4015968  )
        11           O   tau(  11) = (  0.0070918  0.7374880  0.4015968  )
        12           O   tau(  12) = (  0.0088340  0.7405089  0.5980003  )
        13           O   tau(  13) = (  0.5066944  0.7415376  0.5980003  )
        14           O   tau(  14) = (  0.2584624  0.4933056  0.5980003  )
        15           O   tau(  15) = (  0.4985141  0.5014859  0.3071422  )
        16           O   tau(  16) = (  0.4985141  0.5014859  0.4960513  )
        17           Sr  tau(  17) = (  0.7482398  0.7454518  0.3044833  )
        18           Sr  tau(  18) = (  0.7482398  0.7454518  0.4987103  )
        19           Sr  tau(  19) = (  0.7441748  0.2558252  0.3052408  )
        20           Sr  tau(  20) = (  0.7441748  0.2558252  0.4979527  )
        21           O   tau(  21) = (  0.7322655  0.0078049  0.5980003  )
        22           O   tau(  22) = (  0.7558175  0.4996027  0.5980003  )
        23           O   tau(  23) = (  0.5003973  0.2441825  0.5980003  )
        24           O   tau(  24) = (  0.7527966  0.4978604  0.4015968  )
        25           O   tau(  25) = (  0.5021396  0.2472034  0.4015968  )
        26           O   tau(  26) = (  0.7517679  0.0000000  0.4015968  )
        27           O   tau(  27) = (  0.0114961  0.4948124  0.6896512  )
        28           O   tau(  28) = (  0.0048226  0.0077944  0.6999492  )
        29           Sr  tau(  29) = (  0.2545482  0.2517602  0.6972903  )
        30           O   tau(  30) = (  0.5048017  0.0015068  0.7027529  )
        31           Co  tau(  31) = (  0.0056869  0.5006215  0.4015968  )
        32           Co  tau(  32) = (  0.0065315  0.4997770  0.5980003  )
        33           Co  tau(  33) = (  0.0061999  0.0064171  0.4015968  )
        34           Co  tau(  34) = (  0.0000000  0.0126169  0.5980003  )
        35           O   tau(  35) = (  0.0114961  0.4948124  0.5063494  )
        36           O   tau(  36) = (  0.0114961  0.4948124  0.2968442  )
        37           O   tau(  37) = (  0.0051979  0.2673486  0.4015968  )
        38           O   tau(  38) = (  0.0130029  0.2478461  0.5980003  )
        39           O   tau(  39) = (  0.0048226  0.0077944  0.3071422  )
        40           O   tau(  40) = (  0.0048226  0.0077944  0.4960513  )
        41           Sr  tau(  41) = (  0.2545482  0.2517602  0.3044833  )
        42           Sr  tau(  42) = (  0.2545482  0.2517602  0.4987103  )
        43           Co  tau(  43) = (  0.4989925  0.0073160  0.5980003  )
        44           Co  tau(  44) = (  0.4998370  0.0064714  0.4015968  )
        45           O   tau(  45) = (  0.5048017  0.0015068  0.3099459  )
        46           O   tau(  46) = (  0.5048017  0.0015068  0.4932477  )
        47           O   tau(  47) = (  0.2621260  0.0059111  0.5980003  )
        48           O   tau(  48) = (  0.2591051  0.0041689  0.4015968  )
        49           O   tau(  49) = (  0.8529874  0.5686583  0.8534850  )

     number of k points=    10  Gaussian smearing, width (Ry)=  0.0700
                       cart. coord. in units 2pi/alat
        k(    1) = (   0.0000000   0.0000000   0.0000000), wk =   0.1250000
        k(    2) = (   0.0000000   0.2500000   0.0000000), wk =   0.2500000
        k(    3) = (   0.0000000  -0.5000000   0.0000000), wk =   0.1250000
        k(    4) = (   0.2500000   0.2500000   0.0000000), wk =   0.2500000
        k(    5) = (   0.2500000  -0.5000000   0.0000000), wk =   0.2500000
        k(    6) = (  -0.5000000  -0.5000000   0.0000000), wk =   0.1250000
        k(    7) = (   0.2500000   0.0000000   0.0000000), wk =   0.2500000
        k(    8) = (  -0.5000000   0.0000000   0.0000000), wk =   0.1250000
        k(    9) = (  -0.2500000   0.2500000   0.0000000), wk =   0.2500000
        k(   10) = (  -0.5000000   0.2500000   0.0000000), wk =   0.2500000

                       cryst. coord.
        k(    1) = (   0.0000000   0.0000000   0.0000000), wk =   0.1250000
        k(    2) = (   0.0000000   0.2500000   0.0000000), wk =   0.2500000
        k(    3) = (   0.0000000  -0.5000000   0.0000000), wk =   0.1250000
        k(    4) = (   0.2500000   0.2500000   0.0000000), wk =   0.2500000
        k(    5) = (   0.2500000  -0.5000000   0.0000000), wk =   0.2500000
        k(    6) = (  -0.5000000  -0.5000000   0.0000000), wk =   0.1250000
        k(    7) = (   0.2500000   0.0000000   0.0000000), wk =   0.2500000
        k(    8) = (  -0.5000000   0.0000000   0.0000000), wk =   0.1250000
        k(    9) = (  -0.2500000   0.2500000   0.0000000), wk =   0.2500000
        k(   10) = (  -0.5000000   0.2500000   0.0000000), wk =   0.2500000

     Dense  grid:  1474595 G-vectors     FFT dimensions: ( 108, 108, 270)

     Smooth grid:   521381 G-vectors     FFT dimensions: (  75,  75, 192)

     Dynamical RAM for                 wfc:      10.69 MB

     Dynamical RAM for     wfc (w. buffer):      64.13 MB

     Dynamical RAM for           str. fact:       2.81 MB

     Dynamical RAM for           local pot:       0.00 MB

     Dynamical RAM for          nlocal pot:      24.53 MB

     Dynamical RAM for                qrad:       5.27 MB

     Dynamical RAM for          rho,v,vnew:       6.02 MB

     Dynamical RAM for               rhoin:       2.01 MB

     Dynamical RAM for            rho*nmix:      15.00 MB

     Dynamical RAM for           G-vectors:       3.68 MB

     Dynamical RAM for          h,s,v(r/c):       1.35 MB

     Dynamical RAM for          <psi|beta>:       2.33 MB

     Dynamical RAM for                 psi:      21.38 MB

     Dynamical RAM for                hpsi:      21.38 MB

     Dynamical RAM for                spsi:      21.38 MB

     Dynamical RAM for      wfcinit/wfcrot:      34.39 MB

     Dynamical RAM for           addusdens:     101.26 MB

     Estimated static dynamical RAM per process >     117.53 MB

     Estimated max dynamical RAM per process >     233.79 MB

     Estimated total dynamical RAM >      10.61 GB

     Check: negative core charge=   -0.000004

     Initial potential from superposition of free atoms

     starting charge     421.5961, renormalised to     430.0000

     negative rho (up, down):  7.826E-01 0.000E+00
     Starting wfcs are  376 randomized atomic wfcs
     Checking if some PAW data can be deallocated... 
       PAW data deallocated on   19 nodes for type:  2

     total cpu time spent up to now is        9.1 secs

     Self-consistent Calculation

     iteration #  1     ecut=    60.00 Ry     beta= 0.15
     Davidson diagonalization with overlap

---- Real-time Memory Report at c_bands before calling an iterative solver
             0 MiB given to the printing process from OS
             0 MiB allocation reported by mallinfo(arena+hblkhd)
         51476 MiB available memory on the node where the printing process lives
------------------
     ethr =  1.00E-02,  avg # of iterations =  2.0

     negative rho (up, down):  7.718E-01 0.000E+00

     total cpu time spent up to now is       24.5 secs

     total energy              =   -4445.24991477 Ry
     estimated scf accuracy    <      54.02640952 Ry

     iteration #  2     ecut=    60.00 Ry     beta= 0.15
     Davidson diagonalization with overlap

---- Real-time Memory Report at c_bands before calling an iterative solver
             0 MiB given to the printing process from OS
             0 MiB allocation reported by mallinfo(arena+hblkhd)
         51837 MiB available memory on the node where the printing process lives
------------------
     ethr =  1.00E-02,  avg # of iterations =  1.0

     negative rho (up, down):  7.591E-01 0.000E+00

     total cpu time spent up to now is       37.4 secs

     total energy              =   -4441.91857602 Ry
     estimated scf accuracy    <      28.51161505 Ry

     iteration #  3     ecut=    60.00 Ry     beta= 0.15
     Davidson diagonalization with overlap

---- Real-time Memory Report at c_bands before calling an iterative solver
             0 MiB given to the printing process from OS
             0 MiB allocation reported by mallinfo(arena+hblkhd)
         51070 MiB available memory on the node where the printing process lives
------------------
     ethr =  6.63E-03,  avg # of iterations =  1.0

     negative rho (up, down):  7.531E-01 0.000E+00

     total cpu time spent up to now is       50.1 secs

     total energy              =   -4442.61056675 Ry
     estimated scf accuracy    <      29.21423763 Ry

     iteration #  4     ecut=    60.00 Ry     beta= 0.15
     Davidson diagonalization with overlap

---- Real-time Memory Report at c_bands before calling an iterative solver
             0 MiB given to the printing process from OS
             0 MiB allocation reported by mallinfo(arena+hblkhd)
         51020 MiB available memory on the node where the printing process lives
------------------
     ethr =  6.63E-03,  avg # of iterations =  1.0

     negative rho (up, down):  7.538E-01 0.000E+00

     total cpu time spent up to now is       62.9 secs

     total energy              =   -4442.62625705 Ry
     estimated scf accuracy    <      27.39957601 Ry

     iteration #  5     ecut=    60.00 Ry     beta= 0.15
     Davidson diagonalization with overlap

---- Real-time Memory Report at c_bands before calling an iterative solver
             0 MiB given to the printing process from OS
             0 MiB allocation reported by mallinfo(arena+hblkhd)
         51002 MiB available memory on the node where the printing process lives
------------------
     ethr =  6.37E-03,  avg # of iterations =  1.0

     negative rho (up, down):  7.382E-01 0.000E+00

     total cpu time spent up to now is       76.2 secs

     total energy              =   -4441.90031746 Ry
     estimated scf accuracy    <      21.25009613 Ry

     iteration #  6     ecut=    60.00 Ry     beta= 0.15
     Davidson diagonalization with overlap

---- Real-time Memory Report at c_bands before calling an iterative solver
             0 MiB given to the printing process from OS
             0 MiB allocation reported by mallinfo(arena+hblkhd)
         50975 MiB available memory on the node where the printing process lives
------------------
     ethr =  4.94E-03,  avg # of iterations =  1.0

     negative rho (up, down):  7.399E-01 0.000E+00

     total cpu time spent up to now is       89.3 secs

     total energy              =   -4444.04726243 Ry
     estimated scf accuracy    <      64.58841309 Ry

     iteration #  7     ecut=    60.00 Ry     beta= 0.15
     Davidson diagonalization with overlap

---- Real-time Memory Report at c_bands before calling an iterative solver
             0 MiB given to the printing process from OS
             0 MiB allocation reported by mallinfo(arena+hblkhd)
         50962 MiB available memory on the node where the printing process lives
------------------
     ethr =  4.94E-03,  avg # of iterations =  1.0

     negative rho (up, down):  7.452E-01 0.000E+00

     total cpu time spent up to now is      102.3 secs

     total energy              =   -4441.38747539 Ry
     estimated scf accuracy    <      62.48866681 Ry

     iteration #  8     ecut=    60.00 Ry     beta= 0.15
     Davidson diagonalization with overlap

---- Real-time Memory Report at c_bands before calling an iterative solver
             0 MiB given to the printing process from OS
             0 MiB allocation reported by mallinfo(arena+hblkhd)
         50954 MiB available memory on the node where the printing process lives
------------------
     ethr =  4.94E-03,  avg # of iterations =  1.0

     negative rho (up, down):  7.495E-01 0.000E+00

     total cpu time spent up to now is      114.9 secs

     total energy              =   -4441.56752349 Ry
     estimated scf accuracy    <      13.23319428 Ry

     iteration #  9     ecut=    60.00 Ry     beta= 0.15
     Davidson diagonalization with overlap

---- Real-time Memory Report at c_bands before calling an iterative solver
             0 MiB given to the printing process from OS
             0 MiB allocation reported by mallinfo(arena+hblkhd)
         50928 MiB available memory on the node where the printing process lives
------------------
     ethr =  3.08E-03,  avg # of iterations =  1.1

     negative rho (up, down):  7.581E-01 0.000E+00

     total cpu time spent up to now is      127.8 secs

     total energy              =   -4440.54205681 Ry
     estimated scf accuracy    <       6.38438748 Ry

     iteration # 10     ecut=    60.00 Ry     beta= 0.15
     Davidson diagonalization with overlap

---- Real-time Memory Report at c_bands before calling an iterative solver
             0 MiB given to the printing process from OS
             0 MiB allocation reported by mallinfo(arena+hblkhd)
         50908 MiB available memory on the node where the printing process lives
------------------
     ethr =  1.48E-03,  avg # of iterations =  6.4

     negative rho (up, down):  7.670E-01 0.000E+00

     total cpu time spent up to now is      144.1 secs

     total energy              =   -4440.41231927 Ry
     estimated scf accuracy    <       8.06858953 Ry

     iteration # 11     ecut=    60.00 Ry     beta= 0.15
     Davidson diagonalization with overlap

---- Real-time Memory Report at c_bands before calling an iterative solver
             0 MiB given to the printing process from OS
             0 MiB allocation reported by mallinfo(arena+hblkhd)
         50740 MiB available memory on the node where the printing process lives
------------------
     ethr =  1.48E-03,  avg # of iterations =  2.0

     negative rho (up, down):  7.819E-01 0.000E+00

     total cpu time spent up to now is      158.1 secs

     total energy              =   -4439.88030892 Ry
     estimated scf accuracy    <      21.55240731 Ry

     iteration # 12     ecut=    60.00 Ry     beta= 0.15
     Davidson diagonalization with overlap

---- Real-time Memory Report at c_bands before calling an iterative solver
             0 MiB given to the printing process from OS
             0 MiB allocation reported by mallinfo(arena+hblkhd)
         50771 MiB available memory on the node where the printing process lives
------------------
     ethr =  1.48E-03,  avg # of iterations =  3.8

     negative rho (up, down):  7.832E-01 0.000E+00

     total cpu time spent up to now is      173.0 secs

     total energy              =   -4440.53806665 Ry
     estimated scf accuracy    <       2.98851945 Ry

     iteration # 13     ecut=    60.00 Ry     beta= 0.15
     Davidson diagonalization with overlap

---- Real-time Memory Report at c_bands before calling an iterative solver
             0 MiB given to the printing process from OS
             0 MiB allocation reported by mallinfo(arena+hblkhd)
         50747 MiB available memory on the node where the printing process lives
------------------
     ethr =  6.95E-04,  avg # of iterations =  8.1

     negative rho (up, down):  7.852E-01 0.000E+00

     total cpu time spent up to now is      190.5 secs

     total energy              =   -4440.53242643 Ry
     estimated scf accuracy    <       1.07938772 Ry

     iteration # 14     ecut=    60.00 Ry     beta= 0.15
     Davidson diagonalization with overlap

---- Real-time Memory Report at c_bands before calling an iterative solver
             0 MiB given to the printing process from OS
             0 MiB allocation reported by mallinfo(arena+hblkhd)
         50601 MiB available memory on the node where the printing process lives
------------------
     ethr =  2.51E-04,  avg # of iterations =  8.4

     negative rho (up, down):  7.988E-01 0.000E+00

     total cpu time spent up to now is      208.6 secs

     total energy              =   -4440.41988363 Ry
     estimated scf accuracy    <       0.70799201 Ry

     iteration # 15     ecut=    60.00 Ry     beta= 0.15
     Davidson diagonalization with overlap

---- Real-time Memory Report at c_bands before calling an iterative solver
             0 MiB given to the printing process from OS
             0 MiB allocation reported by mallinfo(arena+hblkhd)
         50461 MiB available memory on the node where the printing process lives
------------------
     ethr =  1.65E-04,  avg # of iterations =  4.7

     negative rho (up, down):  8.134E-01 0.000E+00

     total cpu time spent up to now is      223.5 secs

     total energy              =   -4440.40204584 Ry
     estimated scf accuracy    <       1.49013232 Ry

     iteration # 16     ecut=    60.00 Ry     beta= 0.15
     Davidson diagonalization with overlap

---- Real-time Memory Report at c_bands before calling an iterative solver
             0 MiB given to the printing process from OS
             0 MiB allocation reported by mallinfo(arena+hblkhd)
         50459 MiB available memory on the node where the printing process lives
------------------
     ethr =  1.65E-04,  avg # of iterations =  7.9

     negative rho (up, down):  8.246E-01 0.000E+00

     total cpu time spent up to now is      240.4 secs

     total energy              =   -4440.38326353 Ry
     estimated scf accuracy    <       0.39984918 Ry

     iteration # 17     ecut=    60.00 Ry     beta= 0.15
     Davidson diagonalization with overlap

---- Real-time Memory Report at c_bands before calling an iterative solver
             0 MiB given to the printing process from OS
             0 MiB allocation reported by mallinfo(arena+hblkhd)
         50473 MiB available memory on the node where the printing process lives
------------------
     c_bands:  1 eigenvalues not converged
     ethr =  9.30E-05,  avg # of iterations = 10.3

     negative rho (up, down):  8.182E-01 0.000E+00

     total cpu time spent up to now is      258.5 secs

     total energy              =   -4440.37122814 Ry
     estimated scf accuracy    <       0.37362536 Ry

     iteration # 18     ecut=    60.00 Ry     beta= 0.15
     Davidson diagonalization with overlap

---- Real-time Memory Report at c_bands before calling an iterative solver
             0 MiB given to the printing process from OS
             0 MiB allocation reported by mallinfo(arena+hblkhd)
         50489 MiB available memory on the node where the printing process lives
------------------
     ethr =  8.69E-05,  avg # of iterations =  1.9

     negative rho (up, down):  8.179E-01 0.000E+00

     total cpu time spent up to now is      272.3 secs

     total energy              =   -4440.35762937 Ry
     estimated scf accuracy    <       0.23592257 Ry

     iteration # 19     ecut=    60.00 Ry     beta= 0.15
     Davidson diagonalization with overlap

---- Real-time Memory Report at c_bands before calling an iterative solver
             0 MiB given to the printing process from OS
             0 MiB allocation reported by mallinfo(arena+hblkhd)
         50488 MiB available memory on the node where the printing process lives
------------------
     ethr =  5.49E-05,  avg # of iterations =  3.7

     negative rho (up, down):  8.059E-01 0.000E+00

     total cpu time spent up to now is      287.0 secs

     total energy              =   -4440.33799476 Ry
     estimated scf accuracy    <       0.37488918 Ry

     iteration # 20     ecut=    60.00 Ry     beta= 0.15
     Davidson diagonalization with overlap

---- Real-time Memory Report at c_bands before calling an iterative solver
             0 MiB given to the printing process from OS
             0 MiB allocation reported by mallinfo(arena+hblkhd)
         50499 MiB available memory on the node where the printing process lives
------------------
     ethr =  5.49E-05,  avg # of iterations =  5.4

     negative rho (up, down):  8.177E-01 0.000E+00

     total cpu time spent up to now is      302.6 secs

     total energy              =   -4440.32568314 Ry
     estimated scf accuracy    <       0.10101746 Ry

     iteration # 21     ecut=    60.00 Ry     beta= 0.15
     Davidson diagonalization with overlap

---- Real-time Memory Report at c_bands before calling an iterative solver
             0 MiB given to the printing process from OS
             0 MiB allocation reported by mallinfo(arena+hblkhd)
         50522 MiB available memory on the node where the printing process lives
------------------
     c_bands:  1 eigenvalues not converged
     ethr =  2.35E-05,  avg # of iterations = 10.4

     negative rho (up, down):  8.216E-01 0.000E+00

     total cpu time spent up to now is      321.0 secs

     total energy              =   -4440.32260126 Ry
     estimated scf accuracy    <       0.08633091 Ry

     iteration # 22     ecut=    60.00 Ry     beta= 0.15
     Davidson diagonalization with overlap

---- Real-time Memory Report at c_bands before calling an iterative solver
             0 MiB given to the printing process from OS
             0 MiB allocation reported by mallinfo(arena+hblkhd)
         50366 MiB available memory on the node where the printing process lives
------------------
     ethr =  2.01E-05,  avg # of iterations =  2.8

     negative rho (up, down):  8.263E-01 0.000E+00

     total cpu time spent up to now is      335.3 secs

     total energy              =   -4440.32068951 Ry
     estimated scf accuracy    <       0.07961052 Ry

     iteration # 23     ecut=    60.00 Ry     beta= 0.15
     Davidson diagonalization with overlap

---- Real-time Memory Report at c_bands before calling an iterative solver
             0 MiB given to the printing process from OS
             0 MiB allocation reported by mallinfo(arena+hblkhd)
         50398 MiB available memory on the node where the printing process lives
------------------
     ethr =  1.85E-05,  avg # of iterations =  3.5

     negative rho (up, down):  8.140E-01 0.000E+00

     total cpu time spent up to now is      349.8 secs

     total energy              =   -4440.31361653 Ry
     estimated scf accuracy    <       0.06061874 Ry

     iteration # 24     ecut=    60.00 Ry     beta= 0.15
     Davidson diagonalization with overlap

---- Real-time Memory Report at c_bands before calling an iterative solver
             0 MiB given to the printing process from OS
             0 MiB allocation reported by mallinfo(arena+hblkhd)
         50418 MiB available memory on the node where the printing process lives
------------------
     ethr =  1.41E-05,  avg # of iterations =  9.1

     negative rho (up, down):  8.022E-01 0.000E+00

     total cpu time spent up to now is      367.1 secs

     total energy              =   -4440.31183003 Ry
     estimated scf accuracy    <       0.02627999 Ry

     iteration # 25     ecut=    60.00 Ry     beta= 0.15
     Davidson diagonalization with overlap

---- Real-time Memory Report at c_bands before calling an iterative solver
             0 MiB given to the printing process from OS
             0 MiB allocation reported by mallinfo(arena+hblkhd)
         50413 MiB available memory on the node where the printing process lives
------------------
     ethr =  6.11E-06,  avg # of iterations =  6.1

     negative rho (up, down):  7.990E-01 0.000E+00

     total cpu time spent up to now is      383.3 secs

     total energy              =   -4440.31043403 Ry
     estimated scf accuracy    <       0.01321575 Ry

     iteration # 26     ecut=    60.00 Ry     beta= 0.15
     Davidson diagonalization with overlap

---- Real-time Memory Report at c_bands before calling an iterative solver
             0 MiB given to the printing process from OS
             0 MiB allocation reported by mallinfo(arena+hblkhd)
         50386 MiB available memory on the node where the printing process lives
------------------
     c_bands:  1 eigenvalues not converged
     c_bands:  1 eigenvalues not converged
     ethr =  3.07E-06,  avg # of iterations = 12.0

     negative rho (up, down):  7.898E-01 0.000E+00

     total cpu time spent up to now is      402.3 secs

     total energy              =   -4440.30964977 Ry
     estimated scf accuracy    <       0.00585490 Ry

     iteration # 27     ecut=    60.00 Ry     beta= 0.15
     Davidson diagonalization with overlap

---- Real-time Memory Report at c_bands before calling an iterative solver
             0 MiB given to the printing process from OS
             0 MiB allocation reported by mallinfo(arena+hblkhd)
         50403 MiB available memory on the node where the printing process lives
------------------
     c_bands:  1 eigenvalues not converged
     ethr =  1.36E-06,  avg # of iterations =  7.5

     negative rho (up, down):  7.912E-01 0.000E+00

     total cpu time spent up to now is      419.7 secs

     total energy              =   -4440.30968039 Ry
     estimated scf accuracy    <       0.00334434 Ry

     iteration # 28     ecut=    60.00 Ry     beta= 0.15
     Davidson diagonalization with overlap

---- Real-time Memory Report at c_bands before calling an iterative solver
             0 MiB given to the printing process from OS
             0 MiB allocation reported by mallinfo(arena+hblkhd)
         50287 MiB available memory on the node where the printing process lives
------------------
     ethr =  7.78E-07,  avg # of iterations =  2.0

     negative rho (up, down):  7.909E-01 0.000E+00

     total cpu time spent up to now is      433.7 secs

     total energy              =   -4440.30952382 Ry
     estimated scf accuracy    <       0.00225045 Ry

     iteration # 29     ecut=    60.00 Ry     beta= 0.15
     Davidson diagonalization with overlap

---- Real-time Memory Report at c_bands before calling an iterative solver
             0 MiB given to the printing process from OS
             0 MiB allocation reported by mallinfo(arena+hblkhd)
         50289 MiB available memory on the node where the printing process lives
------------------
     ethr =  5.23E-07,  avg # of iterations =  4.4

     negative rho (up, down):  7.936E-01 0.000E+00

     total cpu time spent up to now is      448.9 secs

     total energy              =   -4440.30951165 Ry
     estimated scf accuracy    <       0.00112651 Ry

     iteration # 30     ecut=    60.00 Ry     beta= 0.15
     Davidson diagonalization with overlap

---- Real-time Memory Report at c_bands before calling an iterative solver
             0 MiB given to the printing process from OS
             0 MiB allocation reported by mallinfo(arena+hblkhd)
         50308 MiB available memory on the node where the printing process lives
------------------
     c_bands:  1 eigenvalues not converged
     ethr =  2.62E-07,  avg # of iterations = 10.1

     negative rho (up, down):  7.952E-01 0.000E+00

     total cpu time spent up to now is      468.2 secs

     total energy              =   -4440.30960927 Ry
     estimated scf accuracy    <       0.00034399 Ry

     iteration # 31     ecut=    60.00 Ry     beta= 0.15
     Davidson diagonalization with overlap

---- Real-time Memory Report at c_bands before calling an iterative solver
             0 MiB given to the printing process from OS
             0 MiB allocation reported by mallinfo(arena+hblkhd)
         50203 MiB available memory on the node where the printing process lives
------------------
     ethr =  8.00E-08,  avg # of iterations =  3.8

     negative rho (up, down):  7.945E-01 0.000E+00

     total cpu time spent up to now is      482.9 secs

     total energy              =   -4440.30962580 Ry
     estimated scf accuracy    <       0.00019157 Ry

     iteration # 32     ecut=    60.00 Ry     beta= 0.15
     Davidson diagonalization with overlap

---- Real-time Memory Report at c_bands before calling an iterative solver
             0 MiB given to the printing process from OS
             0 MiB allocation reported by mallinfo(arena+hblkhd)
         50203 MiB available memory on the node where the printing process lives
------------------
     ethr =  4.46E-08,  avg # of iterations =  2.0

     negative rho (up, down):  7.946E-01 0.000E+00

     total cpu time spent up to now is      496.8 secs

     total energy              =   -4440.30966466 Ry
     estimated scf accuracy    <       0.00009154 Ry

     iteration # 33     ecut=    60.00 Ry     beta= 0.15
     Davidson diagonalization with overlap

---- Real-time Memory Report at c_bands before calling an iterative solver
             0 MiB given to the printing process from OS
             0 MiB allocation reported by mallinfo(arena+hblkhd)
         50287 MiB available memory on the node where the printing process lives
------------------
     ethr =  2.13E-08,  avg # of iterations =  2.0

     negative rho (up, down):  7.936E-01 0.000E+00

     total cpu time spent up to now is      510.7 secs

     total energy              =   -4440.30968549 Ry
     estimated scf accuracy    <       0.00003984 Ry

     iteration # 34     ecut=    60.00 Ry     beta= 0.15
     Davidson diagonalization with overlap

---- Real-time Memory Report at c_bands before calling an iterative solver
             0 MiB given to the printing process from OS
             0 MiB allocation reported by mallinfo(arena+hblkhd)
         50275 MiB available memory on the node where the printing process lives
------------------
     ethr =  9.26E-09,  avg # of iterations =  2.7

     negative rho (up, down):  7.933E-01 0.000E+00

     total cpu time spent up to now is      525.0 secs

     total energy              =   -4440.30969554 Ry
     estimated scf accuracy    <       0.00002214 Ry

     iteration # 35     ecut=    60.00 Ry     beta= 0.15
     Davidson diagonalization with overlap

---- Real-time Memory Report at c_bands before calling an iterative solver
             0 MiB given to the printing process from OS
             0 MiB allocation reported by mallinfo(arena+hblkhd)
         50295 MiB available memory on the node where the printing process lives
------------------
     ethr =  5.15E-09,  avg # of iterations =  2.4

     negative rho (up, down):  7.929E-01 0.000E+00

     total cpu time spent up to now is      539.3 secs

     total energy              =   -4440.30969819 Ry
     estimated scf accuracy    <       0.00001405 Ry

     iteration # 36     ecut=    60.00 Ry     beta= 0.15
     Davidson diagonalization with overlap

---- Real-time Memory Report at c_bands before calling an iterative solver
             0 MiB given to the printing process from OS
             0 MiB allocation reported by mallinfo(arena+hblkhd)
         50289 MiB available memory on the node where the printing process lives
------------------
     ethr =  3.27E-09,  avg # of iterations =  2.0

     negative rho (up, down):  7.925E-01 0.000E+00

     total cpu time spent up to now is      553.5 secs

     total energy              =   -4440.30970000 Ry
     estimated scf accuracy    <       0.00000906 Ry

     iteration # 37     ecut=    60.00 Ry     beta= 0.15
     Davidson diagonalization with overlap

---- Real-time Memory Report at c_bands before calling an iterative solver
             0 MiB given to the printing process from OS
             0 MiB allocation reported by mallinfo(arena+hblkhd)
         50286 MiB available memory on the node where the printing process lives
------------------
     ethr =  2.11E-09,  avg # of iterations =  2.8

     negative rho (up, down):  7.925E-01 0.000E+00

     total cpu time spent up to now is      568.6 secs

     total energy              =   -4440.30970063 Ry
     estimated scf accuracy    <       0.00000521 Ry

     iteration # 38     ecut=    60.00 Ry     beta= 0.15
     Davidson diagonalization with overlap

---- Real-time Memory Report at c_bands before calling an iterative solver
             0 MiB given to the printing process from OS
             0 MiB allocation reported by mallinfo(arena+hblkhd)
         50309 MiB available memory on the node where the printing process lives
------------------
     ethr =  1.21E-09,  avg # of iterations =  2.0

     negative rho (up, down):  7.925E-01 0.000E+00

     total cpu time spent up to now is      583.3 secs

     total energy              =   -4440.30970101 Ry
     estimated scf accuracy    <       0.00000433 Ry

     iteration # 39     ecut=    60.00 Ry     beta= 0.15
     Davidson diagonalization with overlap

---- Real-time Memory Report at c_bands before calling an iterative solver
             0 MiB given to the printing process from OS
             0 MiB allocation reported by mallinfo(arena+hblkhd)
         50311 MiB available memory on the node where the printing process lives
------------------
     ethr =  1.01E-09,  avg # of iterations =  1.0

     negative rho (up, down):  7.925E-01 0.000E+00

     total cpu time spent up to now is      596.6 secs

     total energy              =   -4440.30970096 Ry
     estimated scf accuracy    <       0.00000387 Ry

     iteration # 40     ecut=    60.00 Ry     beta= 0.15
     Davidson diagonalization with overlap

---- Real-time Memory Report at c_bands before calling an iterative solver
             0 MiB given to the printing process from OS
             0 MiB allocation reported by mallinfo(arena+hblkhd)
         50308 MiB available memory on the node where the printing process lives
------------------
     ethr =  9.00E-10,  avg # of iterations =  2.0

     negative rho (up, down):  7.925E-01 0.000E+00

     total cpu time spent up to now is      611.2 secs

     total energy              =   -4440.30970076 Ry
     estimated scf accuracy    <       0.00000299 Ry

     iteration # 41     ecut=    60.00 Ry     beta= 0.15
     Davidson diagonalization with overlap

---- Real-time Memory Report at c_bands before calling an iterative solver
             0 MiB given to the printing process from OS
             0 MiB allocation reported by mallinfo(arena+hblkhd)
         50322 MiB available memory on the node where the printing process lives
------------------
     ethr =  6.96E-10,  avg # of iterations =  2.0

     negative rho (up, down):  7.925E-01 0.000E+00

     total cpu time spent up to now is      625.9 secs

     total energy              =   -4440.30970055 Ry
     estimated scf accuracy    <       0.00000213 Ry

     iteration # 42     ecut=    60.00 Ry     beta= 0.15
     Davidson diagonalization with overlap

---- Real-time Memory Report at c_bands before calling an iterative solver
             0 MiB given to the printing process from OS
             0 MiB allocation reported by mallinfo(arena+hblkhd)
         50325 MiB available memory on the node where the printing process lives
------------------
     ethr =  4.95E-10,  avg # of iterations =  1.9

     negative rho (up, down):  7.926E-01 0.000E+00

     total cpu time spent up to now is      640.0 secs

     total energy              =   -4440.30970044 Ry
     estimated scf accuracy    <       0.00000127 Ry

     iteration # 43     ecut=    60.00 Ry     beta= 0.15
     Davidson diagonalization with overlap

---- Real-time Memory Report at c_bands before calling an iterative solver
             0 MiB given to the printing process from OS
             0 MiB allocation reported by mallinfo(arena+hblkhd)
         50326 MiB available memory on the node where the printing process lives
------------------
     ethr =  2.96E-10,  avg # of iterations =  2.0

     negative rho (up, down):  7.926E-01 0.000E+00

     total cpu time spent up to now is      654.2 secs

     total energy              =   -4440.30970048 Ry
     estimated scf accuracy    <       0.00000088 Ry

     iteration # 44     ecut=    60.00 Ry     beta= 0.15
     Davidson diagonalization with overlap

---- Real-time Memory Report at c_bands before calling an iterative solver
             0 MiB given to the printing process from OS
             0 MiB allocation reported by mallinfo(arena+hblkhd)
         50332 MiB available memory on the node where the printing process lives
------------------
     ethr =  2.06E-10,  avg # of iterations =  2.0

     negative rho (up, down):  7.927E-01 0.000E+00

     total cpu time spent up to now is      668.5 secs

     total energy              =   -4440.30970048 Ry
     estimated scf accuracy    <       0.00000045 Ry

     iteration # 45     ecut=    60.00 Ry     beta= 0.15
     Davidson diagonalization with overlap

---- Real-time Memory Report at c_bands before calling an iterative solver
             0 MiB given to the printing process from OS
             0 MiB allocation reported by mallinfo(arena+hblkhd)
         50332 MiB available memory on the node where the printing process lives
------------------
     ethr =  1.04E-10,  avg # of iterations =  2.8

     negative rho (up, down):  7.926E-01 0.000E+00

     total cpu time spent up to now is      683.5 secs

     total energy              =   -4440.30970059 Ry
     estimated scf accuracy    <       0.00000034 Ry

     iteration # 46     ecut=    60.00 Ry     beta= 0.15
     Davidson diagonalization with overlap

---- Real-time Memory Report at c_bands before calling an iterative solver
             0 MiB given to the printing process from OS
             0 MiB allocation reported by mallinfo(arena+hblkhd)
         50327 MiB available memory on the node where the printing process lives
------------------
     ethr =  7.96E-11,  avg # of iterations =  1.9

     negative rho (up, down):  7.926E-01 0.000E+00

     total cpu time spent up to now is      697.8 secs

     total energy              =   -4440.30970070 Ry
     estimated scf accuracy    <       0.00000024 Ry

     iteration # 47     ecut=    60.00 Ry     beta= 0.15
     Davidson diagonalization with overlap

---- Real-time Memory Report at c_bands before calling an iterative solver
             0 MiB given to the printing process from OS
             0 MiB allocation reported by mallinfo(arena+hblkhd)
         50332 MiB available memory on the node where the printing process lives
------------------
     ethr =  5.64E-11,  avg # of iterations =  2.6

     negative rho (up, down):  7.926E-01 0.000E+00

     total cpu time spent up to now is      712.2 secs

     total energy              =   -4440.30970073 Ry
     estimated scf accuracy    <       0.00000016 Ry

     iteration # 48     ecut=    60.00 Ry     beta= 0.15
     Davidson diagonalization with overlap

---- Real-time Memory Report at c_bands before calling an iterative solver
             0 MiB given to the printing process from OS
             0 MiB allocation reported by mallinfo(arena+hblkhd)
         50331 MiB available memory on the node where the printing process lives
------------------
     ethr =  3.79E-11,  avg # of iterations =  2.0

     negative rho (up, down):  7.926E-01 0.000E+00

     total cpu time spent up to now is      726.2 secs

     total energy              =   -4440.30970075 Ry
     estimated scf accuracy    <       0.00000013 Ry

     iteration # 49     ecut=    60.00 Ry     beta= 0.15
     Davidson diagonalization with overlap

---- Real-time Memory Report at c_bands before calling an iterative solver
             0 MiB given to the printing process from OS
             0 MiB allocation reported by mallinfo(arena+hblkhd)
         50334 MiB available memory on the node where the printing process lives
------------------
     ethr =  3.08E-11,  avg # of iterations =  2.0

     negative rho (up, down):  7.926E-01 0.000E+00

     total cpu time spent up to now is      740.2 secs

     total energy              =   -4440.30970073 Ry
     estimated scf accuracy    <       0.00000007 Ry

     iteration # 50     ecut=    60.00 Ry     beta= 0.15
     Davidson diagonalization with overlap

---- Real-time Memory Report at c_bands before calling an iterative solver
             0 MiB given to the printing process from OS
             0 MiB allocation reported by mallinfo(arena+hblkhd)
         50333 MiB available memory on the node where the printing process lives
------------------
     ethr =  1.55E-11,  avg # of iterations =  2.3

     negative rho (up, down):  7.926E-01 0.000E+00

     total cpu time spent up to now is      754.4 secs

     total energy              =   -4440.30970071 Ry
     estimated scf accuracy    <       0.00000004 Ry

     iteration # 51     ecut=    60.00 Ry     beta= 0.15
     Davidson diagonalization with overlap

---- Real-time Memory Report at c_bands before calling an iterative solver
             0 MiB given to the printing process from OS
             0 MiB allocation reported by mallinfo(arena+hblkhd)
         50333 MiB available memory on the node where the printing process lives
------------------
     ethr =  8.25E-12,  avg # of iterations =  2.0

     negative rho (up, down):  7.926E-01 0.000E+00

     total cpu time spent up to now is      768.6 secs

     total energy              =   -4440.30970069 Ry
     estimated scf accuracy    <       0.00000002 Ry

     iteration # 52     ecut=    60.00 Ry     beta= 0.15
     Davidson diagonalization with overlap

---- Real-time Memory Report at c_bands before calling an iterative solver
             0 MiB given to the printing process from OS
             0 MiB allocation reported by mallinfo(arena+hblkhd)
         50334 MiB available memory on the node where the printing process lives
------------------
     ethr =  4.59E-12,  avg # of iterations =  3.1

     negative rho (up, down):  7.926E-01 0.000E+00

     total cpu time spent up to now is      782.9 secs

     End of self-consistent calculation

          k = 0.0000 0.0000 0.0000 ( 65197 PWs)   bands (ev):

   -92.8986 -92.8508 -92.7533 -92.7061 -92.6497 -92.6056 -92.5877 -92.4669
   -56.2522 -56.2371 -56.1099 -56.0990 -56.0931 -56.0859 -56.0532 -56.0220
   -56.0066 -56.0055 -56.0015 -55.9564 -55.9366 -55.9000 -55.8803 -55.8497
   -55.8416 -55.7930 -55.7929 -55.7903 -55.7819 -55.7422 -55.7178 -55.6322
   -31.4607 -31.4414 -31.2997 -31.2136 -31.0787 -31.0589 -30.9798 -30.9746
   -30.0422 -29.9993 -29.9735 -29.8665 -15.2748 -15.2275 -15.1478 -15.0191
   -14.8161 -14.6978 -14.4102 -14.3834 -14.3605 -14.3126 -14.2652 -14.2534
   -14.2432 -14.2224 -14.1995 -14.1502 -14.1226 -13.9679 -13.7808 -13.7554
   -13.7272 -13.6868 -13.6714 -13.6156 -13.5828 -13.5035 -13.4358 -13.2961
   -13.2881 -13.2815 -13.2588 -13.2409 -13.1856 -13.1786 -13.1618 -13.1373
   -13.1144 -13.1066 -13.0835 -12.9712 -12.9558 -12.9373 -12.9092 -12.8738
   -12.8656 -12.8592 -12.8497 -12.8341 -12.5278 -12.3814 -12.1916 -12.1165
   -12.0555 -11.9979 -11.9817 -11.9706 -11.9477 -11.9300 -11.8668 -11.8496
   -11.8144 -11.7846 -11.6745 -11.5947 -11.5912  -3.1352  -2.9042  -2.6747
    -2.5256  -2.4650  -2.3234  -2.0149  -1.9997  -1.9820  -1.8930  -1.8755
    -1.8077  -1.7903  -1.7507  -1.7074  -1.5252  -1.2974  -1.2666  -1.1256
    -1.1105  -1.0621  -1.0417  -0.9952  -0.9789  -0.9285  -0.9008  -0.8239
    -0.8140  -0.7413  -0.6061  -0.5929  -0.5637  -0.4850  -0.4556  -0.4118
    -0.3845  -0.3199  -0.2655  -0.2162  -0.1955  -0.1215  -0.0570  -0.0137
     0.0120   0.0227   0.2858   0.2995   0.4767   0.5338   0.5998   0.6511
     0.7375   0.7481   0.7652   0.8326   0.8597   0.8920   0.9497   1.0790
     1.1406   1.1619   1.1894   1.2035   1.2615   1.3250   1.4443   1.4624
     1.5201   1.5237   1.5715   1.5899   1.6014   1.6562   1.7230   1.7269
     1.7661   1.7907   1.8355   1.9686   2.0592   2.0960   2.1161   2.2609
     2.2757   2.3159   2.3244   2.4283   2.4645   2.4867   2.5030   2.5173
     2.5633   2.6037   2.6167   2.6410   2.7147   2.7525   2.7571   2.7622
     2.8297   2.8418   2.8586   2.8650   2.8751   2.8891   2.8956   2.9107
     2.9170   2.9257   2.9335   2.9412   2.9611   2.9828   2.9871   2.9998
     3.0246   3.1400   3.2415   3.9220   4.2394   4.5961   4.8203   4.8538
     5.7610   5.7999   5.8210   5.9294   6.1213   6.1653   6.4243   6.4344
     6.9317   6.9899   7.0844   7.1482   7.5017   7.5310   7.5452   7.5670
     7.7082   7.8644   7.9792   8.0207   8.0267   8.1563   8.3154   8.4604
     8.7606   8.9229

     occupation numbers 
     1.0000   1.0000   1.0000   1.0000   1.0000   1.0000   1.0000   1.0000
     1.0000   1.0000   1.0000   1.0000   1.0000   1.0000   1.0000   1.0000
     1.0000   1.0000   1.0000   1.0000   1.0000   1.0000   1.0000   1.0000
     1.0000   1.0000   1.0000   1.0000   1.0000   1.0000   1.0000   1.0000
     1.0000   1.0000   1.0000   1.0000   1.0000   1.0000   1.0000   1.0000
     1.0000   1.0000   1.0000   1.0000   1.0000   1.0000   1.0000   1.0000
     1.0000   1.0000   1.0000   1.0000   1.0000   1.0000   1.0000   1.0000
     1.0000   1.0000   1.0000   1.0000   1.0000   1.0000   1.0000   1.0000
     1.0000   1.0000   1.0000   1.0000   1.0000   1.0000   1.0000   1.0000
     1.0000   1.0000   1.0000   1.0000   1.0000   1.0000   1.0000   1.0000
     1.0000   1.0000   1.0000   1.0000   1.0000   1.0000   1.0000   1.0000
     1.0000   1.0000   1.0000   1.0000   1.0000   1.0000   1.0000   1.0000
     1.0000   1.0000   1.0000   1.0000   1.0000   1.0000   1.0000   1.0000
     1.0000   1.0000   1.0000   1.0000   1.0000   1.0000   1.0000   1.0000
     1.0000   1.0000   1.0000   1.0000   1.0000   1.0000   1.0000   1.0000
     1.0000   1.0000   1.0000   1.0000   1.0000   1.0000   1.0000   1.0000
     1.0000   1.0000   1.0000   1.0000   1.0000   1.0000   1.0000   1.0000
     1.0000   1.0000   1.0000   1.0000   1.0000   1.0000   1.0000   1.0000
     1.0000   1.0000   1.0000   1.0000   1.0000   1.0000   1.0000   1.0000
     1.0000   1.0000   1.0000   1.0000   1.0000   0.9999   0.9999   0.9999
     0.9998   0.9998   0.9998   0.9997   0.9996   0.9996   0.9994   0.9988
     0.9984   0.9983   0.9980   0.9979   0.9972   0.9963   0.9938   0.9934
     0.9916   0.9915   0.9897   0.9889   0.9884   0.9857   0.9817   0.9814
     0.9786   0.9766   0.9727   0.9577   0.9441   0.9377   0.9339   0.9016
     0.8977   0.8867   0.8842   0.8513   0.8385   0.8303   0.8241   0.8186
     0.8000   0.7828   0.7771   0.7662   0.7313   0.7125   0.7101   0.7076
     0.6722   0.6657   0.6565   0.6531   0.6475   0.6398   0.6361   0.6277
     0.6242   0.6192   0.6148   0.6104   0.5991   0.5865   0.5841   0.5767
     0.5622   0.4941   0.4343   0.1198   0.0498   0.0147   0.0060   0.0052
     0.0000   0.0000   0.0000   0.0000   0.0000   0.0000   0.0000   0.0000
     0.0000   0.0000   0.0000   0.0000   0.0000   0.0000   0.0000   0.0000
     0.0000   0.0000   0.0000   0.0000   0.0000   0.0000   0.0000   0.0000
     0.0000   0.0000

          k = 0.0000 0.2500 0.0000 ( 65257 PWs)   bands (ev):

   -92.8986 -92.8508 -92.7533 -92.7061 -92.6497 -92.6056 -92.5877 -92.4669
   -56.2522 -56.2371 -56.1099 -56.0990 -56.0931 -56.0859 -56.0532 -56.0220
   -56.0066 -56.0055 -56.0015 -55.9564 -55.9366 -55.9000 -55.8803 -55.8497
   -55.8416 -55.7930 -55.7929 -55.7903 -55.7819 -55.7422 -55.7178 -55.6322
   -31.4605 -31.4412 -31.3000 -31.2137 -31.0783 -31.0586 -30.9800 -30.9751
   -30.0416 -29.9989 -29.9741 -29.8669 -15.2384 -15.2014 -15.1230 -14.9892
   -14.8608 -14.6856 -14.5562 -14.3760 -14.3340 -14.3152 -14.2876 -14.2293
   -14.2226 -14.2087 -14.1802 -14.1187 -14.0414 -13.9981 -13.8366 -13.8042
   -13.7677 -13.7308 -13.6695 -13.6402 -13.5797 -13.5291 -13.4893 -13.3972
   -13.3345 -13.3281 -13.2918 -13.2721 -13.1703 -13.1456 -13.1185 -13.1098
   -13.0854 -13.0512 -13.0055 -12.9838 -12.9284 -12.9175 -12.8949 -12.8761
   -12.8533 -12.8273 -12.7470 -12.6610 -12.5891 -12.4326 -12.2497 -12.1846
   -12.0211 -11.9980 -11.9785 -11.9502 -11.9224 -11.9059 -11.8584 -11.8471
   -11.8242 -11.7896 -11.6890 -11.6364 -11.6259  -2.9997  -2.7800  -2.6417
    -2.4592  -2.4159  -2.2534  -2.0301  -1.9501  -1.9369  -1.8732  -1.7744
    -1.7583  -1.7255  -1.6969  -1.6530  -1.4564  -1.3256  -1.3148  -1.2374
    -1.2281  -1.1247  -1.0958  -1.0350  -1.0078  -0.9719  -0.9055  -0.8771
    -0.8462  -0.8140  -0.7982  -0.7652  -0.6913  -0.6417  -0.5619  -0.4548
    -0.4255  -0.3840  -0.2797  -0.2360  -0.1755  -0.1284  -0.0703  -0.0593
    -0.0313   0.0286   0.3327   0.4200   0.4580   0.5399   0.5864   0.6082
     0.7176   0.7355   0.8367   0.8609   0.8843   0.9978   1.0982   1.1169
     1.1437   1.1640   1.1826   1.2419   1.2715   1.2998   1.3450   1.3842
     1.4190   1.5109   1.5442   1.5709   1.6252   1.6807   1.7252   1.7488
     1.7690   1.7829   1.8886   2.0079   2.0811   2.0996   2.1668   2.2137
     2.2571   2.2637   2.3238   2.3601   2.4456   2.4745   2.5024   2.5615
     2.6030   2.6363   2.6738   2.6941   2.7269   2.7510   2.7651   2.7747
     2.7791   2.7880   2.8181   2.8208   2.8379   2.8490   2.8522   2.8774
     2.8847   2.8954   2.9124   2.9232   2.9293   2.9639   2.9804   3.0395
     3.4138   3.4572   3.6879   4.1129   4.2364   4.5379   4.8705   4.9821
     5.5020   5.6394   5.7977   5.8994   5.9461   6.0516   6.0932   6.5386
     7.0203   7.1165   7.2173   7.2368   7.3347   7.3944   7.5343   7.7146
     7.7583   8.0155   8.0593   8.2371   8.2811   8.3007   8.3131   8.4099
     8.5058   8.8069

     occupation numbers 
     1.0000   1.0000   1.0000   1.0000   1.0000   1.0000   1.0000   1.0000
     1.0000   1.0000   1.0000   1.0000   1.0000   1.0000   1.0000   1.0000
     1.0000   1.0000   1.0000   1.0000   1.0000   1.0000   1.0000   1.0000
     1.0000   1.0000   1.0000   1.0000   1.0000   1.0000   1.0000   1.0000
     1.0000   1.0000   1.0000   1.0000   1.0000   1.0000   1.0000   1.0000
     1.0000   1.0000   1.0000   1.0000   1.0000   1.0000   1.0000   1.0000
     1.0000   1.0000   1.0000   1.0000   1.0000   1.0000   1.0000   1.0000
     1.0000   1.0000   1.0000   1.0000   1.0000   1.0000   1.0000   1.0000
     1.0000   1.0000   1.0000   1.0000   1.0000   1.0000   1.0000   1.0000
     1.0000   1.0000   1.0000   1.0000   1.0000   1.0000   1.0000   1.0000
     1.0000   1.0000   1.0000   1.0000   1.0000   1.0000   1.0000   1.0000
     1.0000   1.0000   1.0000   1.0000   1.0000   1.0000   1.0000   1.0000
     1.0000   1.0000   1.0000   1.0000   1.0000   1.0000   1.0000   1.0000
     1.0000   1.0000   1.0000   1.0000   1.0000   1.0000   1.0000   1.0000
     1.0000   1.0000   1.0000   1.0000   1.0000   1.0000   1.0000   1.0000
     1.0000   1.0000   1.0000   1.0000   1.0000   1.0000   1.0000   1.0000
     1.0000   1.0000   1.0000   1.0000   1.0000   1.0000   1.0000   1.0000
     1.0000   1.0000   1.0000   1.0000   1.0000   1.0000   1.0000   1.0000
     1.0000   1.0000   1.0000   1.0000   1.0000   1.0000   1.0000   1.0000
     1.0000   1.0000   1.0000   1.0000   1.0000   0.9999   0.9999   0.9999
     0.9998   0.9998   0.9997   0.9996   0.9996   0.9992   0.9987   0.9986
     0.9984   0.9982   0.9981   0.9975   0.9971   0.9967   0.9960   0.9952
     0.9945   0.9919   0.9907   0.9897   0.9873   0.9843   0.9815   0.9799
     0.9784   0.9773   0.9674   0.9522   0.9403   0.9370   0.9237   0.9132
     0.9026   0.9009   0.8844   0.8736   0.8453   0.8348   0.8244   0.8008
     0.7831   0.7683   0.7510   0.7413   0.7253   0.7133   0.7061   0.7012
     0.6989   0.6943   0.6784   0.6770   0.6678   0.6618   0.6601   0.6462
     0.6422   0.6363   0.6267   0.6207   0.6172   0.5974   0.5880   0.5535
     0.3368   0.3136   0.2037   0.0722   0.0502   0.0183   0.0049   0.0030
     0.0002   0.0001   0.0000   0.0000   0.0000   0.0000   0.0000   0.0000
     0.0000   0.0000   0.0000   0.0000   0.0000   0.0000   0.0000   0.0000
     0.0000   0.0000   0.0000   0.0000   0.0000   0.0000   0.0000   0.0000
     0.0000   0.0000

          k = 0.0000-0.5000 0.0000 ( 65180 PWs)   bands (ev):

   -92.8986 -92.8508 -92.7533 -92.7061 -92.6497 -92.6056 -92.5877 -92.4669
   -56.2522 -56.2371 -56.1099 -56.0990 -56.0931 -56.0859 -56.0532 -56.0220
   -56.0066 -56.0055 -56.0015 -55.9564 -55.9366 -55.9000 -55.8803 -55.8497
   -55.8416 -55.7930 -55.7929 -55.7903 -55.7819 -55.7422 -55.7178 -55.6322
   -31.4603 -31.4411 -31.3002 -31.2139 -31.0780 -31.0583 -30.9802 -30.9756
   -30.0409 -29.9986 -29.9747 -29.8672 -15.2019 -15.1532 -15.0998 -14.9654
   -14.8876 -14.7483 -14.5916 -14.4632 -14.3496 -14.2662 -14.2326 -14.2200
   -14.1720 -14.1602 -14.1135 -14.0817 -14.0640 -14.0255 -13.9663 -13.9429
   -13.7754 -13.7159 -13.6702 -13.6479 -13.5584 -13.5480 -13.4812 -13.4653
   -13.4265 -13.4001 -13.2926 -13.2724 -13.1539 -13.1423 -13.1131 -13.0783
   -13.0759 -13.0598 -12.9313 -12.9071 -12.8908 -12.8848 -12.8644 -12.8568
   -12.8381 -12.8340 -12.7000 -12.5841 -12.5074 -12.4356 -12.3564 -12.3244
   -11.9982 -11.9754 -11.9725 -11.9451 -11.9088 -11.8737 -11.8623 -11.8197
   -11.8157 -11.7712 -11.7111 -11.6974 -11.6834  -2.7846  -2.7267  -2.5770
    -2.5052  -2.2192  -2.1384  -2.0116  -1.8756  -1.8314  -1.8176  -1.7403
    -1.7060  -1.6265  -1.5901  -1.5099  -1.4726  -1.4355  -1.4076  -1.3466
    -1.3112  -1.2622  -1.2251  -1.1961  -1.1609  -1.0519  -1.0081  -0.9696
    -0.9651  -0.8795  -0.8507  -0.8278  -0.7805  -0.6895  -0.6187  -0.5252
    -0.4826  -0.3891  -0.3615  -0.2238  -0.1590  -0.1469  -0.1007   0.0213
     0.0880   0.1975   0.2696   0.2818   0.4039   0.4772   0.5589   0.6848
     0.7885   0.8226   0.8631   0.8792   0.9093   0.9234   0.9580   0.9758
     0.9929   1.0979   1.1580   1.1926   1.2225   1.4968   1.5116   1.5380
     1.6268   1.6476   1.6850   1.7022   1.7202   1.7508   1.7524   1.7715
     1.8155   1.8418   1.8744   1.8776   1.9075   1.9599   2.0539   2.0921
     2.2513   2.4071   2.4158   2.4383   2.4712   2.4767   2.4867   2.5316
     2.5485   2.5610   2.6018   2.6037   2.6255   2.6383   2.7078   2.7259
     2.7893   2.7936   2.8213   2.8228   2.8351   2.8385   2.8428   2.8507
     2.8543   2.8703   2.8828   2.8874   2.9493   2.9529   2.9701   3.0261
     3.9352   3.9536   4.0046   4.0875   4.5468   4.7218   4.8907   5.0040
     5.2711   5.3551   5.4784   5.5851   5.8518   5.8589   6.4237   6.6421
     6.7803   6.8853   7.1322   7.2989   7.5702   7.6521   7.7422   7.7624
     7.8516   8.0275   8.1419   8.2089   8.2593   8.3256   8.3662   8.5063
     8.6752   8.7249

     occupation numbers 
     1.0000   1.0000   1.0000   1.0000   1.0000   1.0000   1.0000   1.0000
     1.0000   1.0000   1.0000   1.0000   1.0000   1.0000   1.0000   1.0000
     1.0000   1.0000   1.0000   1.0000   1.0000   1.0000   1.0000   1.0000
     1.0000   1.0000   1.0000   1.0000   1.0000   1.0000   1.0000   1.0000
     1.0000   1.0000   1.0000   1.0000   1.0000   1.0000   1.0000   1.0000
     1.0000   1.0000   1.0000   1.0000   1.0000   1.0000   1.0000   1.0000
     1.0000   1.0000   1.0000   1.0000   1.0000   1.0000   1.0000   1.0000
     1.0000   1.0000   1.0000   1.0000   1.0000   1.0000   1.0000   1.0000
     1.0000   1.0000   1.0000   1.0000   1.0000   1.0000   1.0000   1.0000
     1.0000   1.0000   1.0000   1.0000   1.0000   1.0000   1.0000   1.0000
     1.0000   1.0000   1.0000   1.0000   1.0000   1.0000   1.0000   1.0000
     1.0000   1.0000   1.0000   1.0000   1.0000   1.0000   1.0000   1.0000
     1.0000   1.0000   1.0000   1.0000   1.0000   1.0000   1.0000   1.0000
     1.0000   1.0000   1.0000   1.0000   1.0000   1.0000   1.0000   1.0000
     1.0000   1.0000   1.0000   1.0000   1.0000   1.0000   1.0000   1.0000
     1.0000   1.0000   1.0000   1.0000   1.0000   1.0000   1.0000   1.0000
     1.0000   1.0000   1.0000   1.0000   1.0000   1.0000   1.0000   1.0000
     1.0000   1.0000   1.0000   1.0000   1.0000   1.0000   1.0000   1.0000
     1.0000   1.0000   1.0000   1.0000   1.0000   1.0000   1.0000   1.0000
     1.0000   1.0000   1.0000   1.0000   1.0000   1.0000   0.9999   0.9999
     0.9997   0.9997   0.9996   0.9996   0.9995   0.9995   0.9994   0.9993
     0.9992   0.9987   0.9983   0.9980   0.9977   0.9924   0.9919   0.9910
     0.9872   0.9861   0.9841   0.9830   0.9818   0.9797   0.9796   0.9782
     0.9745   0.9721   0.9689   0.9685   0.9653   0.9589   0.9450   0.9384
     0.9040   0.8585   0.8556   0.8478   0.8361   0.8340   0.8303   0.8129
     0.8061   0.8009   0.7836   0.7828   0.7732   0.7674   0.7347   0.7258
     0.6936   0.6913   0.6767   0.6759   0.6693   0.6675   0.6652   0.6609
     0.6589   0.6501   0.6433   0.6407   0.6058   0.6038   0.5939   0.5614
     0.1159   0.1107   0.0970   0.0776   0.0177   0.0091   0.0045   0.0027
     0.0007   0.0005   0.0002   0.0001   0.0000   0.0000   0.0000   0.0000
     0.0000   0.0000   0.0000   0.0000   0.0000   0.0000   0.0000   0.0000
     0.0000   0.0000   0.0000   0.0000   0.0000   0.0000   0.0000   0.0000
     0.0000   0.0000

          k = 0.2500 0.2500 0.0000 ( 65198 PWs)   bands (ev):

   -92.8986 -92.8508 -92.7533 -92.7061 -92.6497 -92.6056 -92.5877 -92.4669
   -56.2522 -56.2371 -56.1099 -56.0990 -56.0931 -56.0859 -56.0532 -56.0220
   -56.0066 -56.0055 -56.0015 -55.9564 -55.9366 -55.9000 -55.8803 -55.8497
   -55.8416 -55.7930 -55.7929 -55.7903 -55.7819 -55.7422 -55.7178 -55.6322
   -31.4588 -31.4429 -31.2996 -31.2141 -31.0780 -31.0582 -30.9804 -30.9755
   -30.0406 -29.9999 -29.9737 -29.8673 -15.2094 -15.1672 -15.0950 -14.9785
   -14.8529 -14.7290 -14.6614 -14.4468 -14.2986 -14.2825 -14.2467 -14.2164
   -14.1965 -14.1683 -14.1261 -14.0805 -14.0297 -14.0109 -13.8516 -13.8373
   -13.8077 -13.7885 -13.7088 -13.6978 -13.6136 -13.6006 -13.4571 -13.4207
   -13.4045 -13.3250 -13.2846 -13.2327 -13.2021 -13.1591 -13.1320 -13.1004
   -13.0602 -13.0179 -12.9494 -12.9352 -12.9279 -12.8992 -12.8952 -12.8713
   -12.8557 -12.8221 -12.6809 -12.6375 -12.5404 -12.4616 -12.2779 -12.2402
   -11.9983 -11.9931 -11.9621 -11.9508 -11.9435 -11.8813 -11.8463 -11.8401
   -11.8048 -11.7958 -11.7058 -11.6647 -11.6474  -2.8612  -2.6542  -2.5355
    -2.4395  -2.3212  -2.2568  -2.0546  -1.9144  -1.8957  -1.8611  -1.7688
    -1.7362  -1.6407  -1.6131  -1.5625  -1.4322  -1.3840  -1.3090  -1.2655
    -1.2194  -1.1970  -1.1741  -1.1306  -1.1164  -1.0248  -0.9744  -0.9034
    -0.8562  -0.8273  -0.7819  -0.7657  -0.7011  -0.6517  -0.5849  -0.5590
    -0.4638  -0.4192  -0.3869  -0.3523  -0.2968  -0.2121  -0.1852  -0.1510
    -0.0788  -0.0471   0.2209   0.3734   0.4030   0.4680   0.5079   0.5669
     0.6098   0.6809   0.7195   0.9898   1.0504   1.1233   1.1468   1.2045
     1.2271   1.2649   1.3027   1.3181   1.3455   1.3955   1.4008   1.4198
     1.4658   1.5003   1.5399   1.6085   1.6405   1.6539   1.6864   1.7192
     1.7759   1.7966   1.9254   1.9887   2.0241   2.0402   2.1158   2.1755
     2.2036   2.2383   2.2675   2.2767   2.3894   2.4252   2.5061   2.5577
     2.5972   2.6341   2.6824   2.7024   2.7056   2.7224   2.7391   2.7520
     2.7629   2.7676   2.7814   2.7936   2.8102   2.8233   2.8293   2.8421
     2.8696   2.8762   2.8843   2.9156   3.2151   3.3079   3.3619   3.4290
     3.4467   3.6746   3.7590   4.1192   4.3264   4.5439   4.7939   5.1213
     5.4885   5.5507   5.6070   5.6450   5.7080   6.0822   6.1475   6.2283
     6.8268   7.1719   7.2631   7.3869   7.4421   7.4716   7.5810   7.7476
     7.9100   8.0290   8.1946   8.3126   8.3217   8.4005   8.4480   8.4808
     8.5441   8.6262

     occupation numbers 
     1.0000   1.0000   1.0000   1.0000   1.0000   1.0000   1.0000   1.0000
     1.0000   1.0000   1.0000   1.0000   1.0000   1.0000   1.0000   1.0000
     1.0000   1.0000   1.0000   1.0000   1.0000   1.0000   1.0000   1.0000
     1.0000   1.0000   1.0000   1.0000   1.0000   1.0000   1.0000   1.0000
     1.0000   1.0000   1.0000   1.0000   1.0000   1.0000   1.0000   1.0000
     1.0000   1.0000   1.0000   1.0000   1.0000   1.0000   1.0000   1.0000
     1.0000   1.0000   1.0000   1.0000   1.0000   1.0000   1.0000   1.0000
     1.0000   1.0000   1.0000   1.0000   1.0000   1.0000   1.0000   1.0000
     1.0000   1.0000   1.0000   1.0000   1.0000   1.0000   1.0000   1.0000
     1.0000   1.0000   1.0000   1.0000   1.0000   1.0000   1.0000   1.0000
     1.0000   1.0000   1.0000   1.0000   1.0000   1.0000   1.0000   1.0000
     1.0000   1.0000   1.0000   1.0000   1.0000   1.0000   1.0000   1.0000
     1.0000   1.0000   1.0000   1.0000   1.0000   1.0000   1.0000   1.0000
     1.0000   1.0000   1.0000   1.0000   1.0000   1.0000   1.0000   1.0000
     1.0000   1.0000   1.0000   1.0000   1.0000   1.0000   1.0000   1.0000
     1.0000   1.0000   1.0000   1.0000   1.0000   1.0000   1.0000   1.0000
     1.0000   1.0000   1.0000   1.0000   1.0000   1.0000   1.0000   1.0000
     1.0000   1.0000   1.0000   1.0000   1.0000   1.0000   1.0000   1.0000
     1.0000   1.0000   1.0000   1.0000   1.0000   1.0000   1.0000   1.0000
     1.0000   1.0000   1.0000   1.0000   1.0000   1.0000   1.0000   0.9999
     0.9999   0.9999   0.9998   0.9993   0.9990   0.9986   0.9984   0.9979
     0.9976   0.9972   0.9967   0.9964   0.9960   0.9950   0.9949   0.9945
     0.9933   0.9922   0.9909   0.9881   0.9865   0.9858   0.9840   0.9819
     0.9778   0.9762   0.9632   0.9549   0.9497   0.9472   0.9340   0.9218
     0.9155   0.9073   0.8999   0.8975   0.8643   0.8524   0.8229   0.8023
     0.7856   0.7693   0.7469   0.7373   0.7358   0.7275   0.7192   0.7128
     0.7072   0.7048   0.6977   0.6913   0.6826   0.6756   0.6724   0.6655
     0.6505   0.6469   0.6424   0.6249   0.4498   0.3959   0.3653   0.3286
     0.3191   0.2094   0.1752   0.0709   0.0378   0.0179   0.0067   0.0016
     0.0002   0.0002   0.0001   0.0001   0.0001   0.0000   0.0000   0.0000
     0.0000   0.0000   0.0000   0.0000   0.0000   0.0000   0.0000   0.0000
     0.0000   0.0000   0.0000   0.0000   0.0000   0.0000   0.0000   0.0000
     0.0000   0.0000

          k = 0.2500-0.5000 0.0000 ( 65138 PWs)   bands (ev):

   -92.8986 -92.8508 -92.7533 -92.7061 -92.6497 -92.6056 -92.5877 -92.4669
   -56.2522 -56.2371 -56.1099 -56.0990 -56.0931 -56.0859 -56.0532 -56.0220
   -56.0066 -56.0055 -56.0015 -55.9564 -55.9366 -55.9000 -55.8803 -55.8497
   -55.8416 -55.7930 -55.7929 -55.7903 -55.7819 -55.7422 -55.7178 -55.6322
   -31.4586 -31.4428 -31.2998 -31.2142 -31.0776 -31.0579 -30.9806 -30.9759
   -30.0399 -29.9996 -29.9743 -29.8676 -15.1715 -15.1265 -15.0570 -14.9370
   -14.9082 -14.7900 -14.6938 -14.5622 -14.2639 -14.2050 -14.1827 -14.1580
   -14.1396 -14.1338 -14.0972 -14.0718 -14.0374 -14.0073 -13.9705 -13.9235
   -13.8562 -13.8069 -13.7295 -13.7228 -13.6546 -13.5989 -13.5118 -13.4803
   -13.3911 -13.3258 -13.3019 -13.2176 -13.1743 -13.1584 -13.1288 -13.0972
   -13.0491 -13.0280 -12.9427 -12.9197 -12.9086 -12.8826 -12.8510 -12.8411
   -12.8330 -12.8086 -12.7064 -12.5666 -12.5048 -12.4186 -12.3421 -12.3213
   -11.9982 -11.9691 -11.9568 -11.9462 -11.9188 -11.8870 -11.8589 -11.8167
   -11.7908 -11.7679 -11.7242 -11.6986 -11.6875  -2.6418  -2.5783  -2.4507
    -2.3737  -2.2397  -2.1582  -2.0359  -1.8861  -1.8290  -1.8082  -1.7470
    -1.7342  -1.6371  -1.5688  -1.4855  -1.4328  -1.4228  -1.3626  -1.3177
    -1.2852  -1.2360  -1.1982  -1.1640  -1.1260  -1.1125  -1.0681  -1.0382
    -0.9923  -0.9642  -0.8967  -0.7910  -0.7564  -0.6745  -0.6076  -0.5526
    -0.5164  -0.4992  -0.4315  -0.2823  -0.2700  -0.1495  -0.1359  -0.1263
    -0.0834  -0.0425  -0.0115   0.0205   0.0834   0.3823   0.4736   0.5259
     0.5778   0.8590   0.8708   0.9623   0.9866   1.1475   1.1881   1.2227
     1.2476   1.2574   1.2809   1.3466   1.3994   1.4332   1.5041   1.6139
     1.6417   1.6612   1.6671   1.7070   1.7179   1.7319   1.7718   1.7821
     1.8020   1.8366   1.8482   1.8680   1.9037   1.9602   2.0082   2.0887
     2.2164   2.3598   2.3783   2.3964   2.4234   2.4505   2.4732   2.4947
     2.5076   2.5278   2.5522   2.5969   2.6294   2.6358   2.6871   2.7038
     2.7138   2.7198   2.7386   2.7518   2.7717   2.7806   2.8263   2.8307
     2.8396   2.8460   2.8562   2.8655   3.3844   3.4150   3.5470   3.6032
     3.9382   3.9976   4.0103   4.1368   4.5658   4.7419   4.9097   4.9608
     5.1194   5.2977   5.4975   5.5321   5.6183   5.6597   6.3335   6.4373
     6.5261   6.7480   7.3934   7.5745   7.6555   7.7038   7.7504   7.7944
     7.9051   7.9384   8.3067   8.3448   8.3957   8.4473   8.5374   8.5754
     8.5912   8.6259

     occupation numbers 
     1.0000   1.0000   1.0000   1.0000   1.0000   1.0000   1.0000   1.0000
     1.0000   1.0000   1.0000   1.0000   1.0000   1.0000   1.0000   1.0000
     1.0000   1.0000   1.0000   1.0000   1.0000   1.0000   1.0000   1.0000
     1.0000   1.0000   1.0000   1.0000   1.0000   1.0000   1.0000   1.0000
     1.0000   1.0000   1.0000   1.0000   1.0000   1.0000   1.0000   1.0000
     1.0000   1.0000   1.0000   1.0000   1.0000   1.0000   1.0000   1.0000
     1.0000   1.0000   1.0000   1.0000   1.0000   1.0000   1.0000   1.0000
     1.0000   1.0000   1.0000   1.0000   1.0000   1.0000   1.0000   1.0000
     1.0000   1.0000   1.0000   1.0000   1.0000   1.0000   1.0000   1.0000
     1.0000   1.0000   1.0000   1.0000   1.0000   1.0000   1.0000   1.0000
     1.0000   1.0000   1.0000   1.0000   1.0000   1.0000   1.0000   1.0000
     1.0000   1.0000   1.0000   1.0000   1.0000   1.0000   1.0000   1.0000
     1.0000   1.0000   1.0000   1.0000   1.0000   1.0000   1.0000   1.0000
     1.0000   1.0000   1.0000   1.0000   1.0000   1.0000   1.0000   1.0000
     1.0000   1.0000   1.0000   1.0000   1.0000   1.0000   1.0000   1.0000
     1.0000   1.0000   1.0000   1.0000   1.0000   1.0000   1.0000   1.0000
     1.0000   1.0000   1.0000   1.0000   1.0000   1.0000   1.0000   1.0000
     1.0000   1.0000   1.0000   1.0000   1.0000   1.0000   1.0000   1.0000
     1.0000   1.0000   1.0000   1.0000   1.0000   1.0000   1.0000   1.0000
     1.0000   1.0000   1.0000   1.0000   1.0000   1.0000   1.0000   0.9999
     0.9999   0.9996   0.9996   0.9994   0.9993   0.9984   0.9980   0.9977
     0.9974   0.9973   0.9970   0.9960   0.9949   0.9941   0.9921   0.9878
     0.9865   0.9854   0.9851   0.9827   0.9820   0.9811   0.9781   0.9773
     0.9757   0.9726   0.9715   0.9695   0.9657   0.9588   0.9521   0.9390
     0.9126   0.8736   0.8679   0.8620   0.8530   0.8436   0.8353   0.8273
     0.8223   0.8144   0.8046   0.7857   0.7714   0.7685   0.7446   0.7366
     0.7318   0.7288   0.7195   0.7128   0.7027   0.6981   0.6740   0.6717
     0.6669   0.6634   0.6579   0.6528   0.3529   0.3361   0.2679   0.2412
     0.1151   0.0988   0.0956   0.0675   0.0165   0.0083   0.0041   0.0033
     0.0016   0.0006   0.0002   0.0002   0.0001   0.0001   0.0000   0.0000
     0.0000   0.0000   0.0000   0.0000   0.0000   0.0000   0.0000   0.0000
     0.0000   0.0000   0.0000   0.0000   0.0000   0.0000   0.0000   0.0000
     0.0000   0.0000

          k =-0.5000-0.5000 0.0000 ( 65132 PWs)   bands (ev):

   -92.8986 -92.8508 -92.7533 -92.7061 -92.6497 -92.6056 -92.5877 -92.4669
   -56.2522 -56.2371 -56.1099 -56.0990 -56.0931 -56.0859 -56.0532 -56.0220
   -56.0066 -56.0055 -56.0015 -55.9564 -55.9366 -55.9000 -55.8803 -55.8497
   -55.8416 -55.7930 -55.7929 -55.7903 -55.7819 -55.7422 -55.7178 -55.6322
   -31.4564 -31.4450 -31.2994 -31.2146 -31.0773 -31.0575 -30.9810 -30.9762
   -30.0389 -30.0007 -29.9739 -29.8681 -15.1254 -15.0996 -14.9817 -14.9686
   -14.8681 -14.8397 -14.7936 -14.6625 -14.1757 -14.1592 -14.1280 -14.1077
   -14.0940 -14.0694 -14.0517 -14.0405 -14.0218 -14.0092 -13.9875 -13.9216
   -13.9147 -13.8688 -13.8475 -13.8093 -13.7408 -13.6460 -13.5470 -13.5241
   -13.3418 -13.2987 -13.2339 -13.2100 -13.1742 -13.1689 -13.1596 -13.1410
   -13.0158 -12.9983 -12.9467 -12.9436 -12.9054 -12.8890 -12.8603 -12.8511
   -12.7901 -12.7821 -12.7225 -12.5500 -12.5010 -12.4007 -12.3263 -12.3200
   -11.9982 -11.9661 -11.9532 -11.9349 -11.9185 -11.8828 -11.8656 -11.8305
   -11.7714 -11.7502 -11.7465 -11.6963 -11.6934  -2.4147  -2.3425  -2.3343
    -2.2624  -2.2237  -2.1454  -2.0775  -1.9500  -1.8366  -1.8069  -1.7632
    -1.7108  -1.6374  -1.6230  -1.5528  -1.5100  -1.3905  -1.3591  -1.3116
    -1.2877  -1.2230  -1.1743  -1.1563  -1.1431  -1.0875  -1.0477  -1.0243
    -0.9163  -0.8604  -0.8149  -0.7632  -0.7325  -0.7152  -0.6849  -0.6444
    -0.6031  -0.5962  -0.5138  -0.4436  -0.4047  -0.3726  -0.3028  -0.2333
    -0.2309  -0.1678  -0.1388  -0.1273  -0.1087   0.3596   0.3988   0.4773
     0.4889   0.8847   0.8951   0.9320   0.9694   1.2356   1.2543   1.2614
     1.3064   1.4255   1.5191   1.5477   1.5840   1.6196   1.6298   1.6403
     1.6715   1.6897   1.7098   1.7138   1.7567   1.7610   1.7886   1.8120
     1.8254   1.8405   1.8790   1.9037   1.9197   1.9472   1.9838   2.0419
     2.1098   2.3738   2.4018   2.4217   2.4413   2.4544   2.4778   2.4852
     2.5020   2.5151   2.5323   2.5378   2.5636   2.5662   2.5958   2.6246
     2.6338   2.6422   2.6584   2.6706   2.6978   2.7084   2.7145   2.7253
     2.8264   2.8413   2.8510   2.8658   3.8160   3.8619   3.8679   3.9119
     4.1230   4.1991   4.2222   4.4627   4.5857   4.6676   4.8012   4.9077
     4.9185   5.0145   5.1494   5.2818   5.8054   5.8361   5.8805   6.0050
     6.7290   6.9107   7.0251   7.4958   7.8248   7.8397   7.9183   8.0613
     8.1490   8.2083   8.2221   8.3085   8.4514   8.4782   8.4919   8.5203
     8.5994   8.6191

     occupation numbers 
     1.0000   1.0000   1.0000   1.0000   1.0000   1.0000   1.0000   1.0000
     1.0000   1.0000   1.0000   1.0000   1.0000   1.0000   1.0000   1.0000
     1.0000   1.0000   1.0000   1.0000   1.0000   1.0000   1.0000   1.0000
     1.0000   1.0000   1.0000   1.0000   1.0000   1.0000   1.0000   1.0000
     1.0000   1.0000   1.0000   1.0000   1.0000   1.0000   1.0000   1.0000
     1.0000   1.0000   1.0000   1.0000   1.0000   1.0000   1.0000   1.0000
     1.0000   1.0000   1.0000   1.0000   1.0000   1.0000   1.0000   1.0000
     1.0000   1.0000   1.0000   1.0000   1.0000   1.0000   1.0000   1.0000
     1.0000   1.0000   1.0000   1.0000   1.0000   1.0000   1.0000   1.0000
     1.0000   1.0000   1.0000   1.0000   1.0000   1.0000   1.0000   1.0000
     1.0000   1.0000   1.0000   1.0000   1.0000   1.0000   1.0000   1.0000
[...]
     0.6326   0.6211   0.6185   0.6143   0.6093   0.6047   0.5990   0.5253
     0.3525   0.3163   0.2022   0.0761   0.0445   0.0204   0.0049   0.0029
     0.0002   0.0001   0.0000   0.0000   0.0000   0.0000   0.0000   0.0000
     0.0000   0.0000   0.0000   0.0000   0.0000   0.0000   0.0000   0.0000
     0.0000   0.0000   0.0000   0.0000   0.0000   0.0000   0.0000   0.0000
     0.0000   0.0000

          k =-0.5000 0.0000 0.0000 ( 65180 PWs)   bands (ev):

   -92.8986 -92.8508 -92.7533 -92.7061 -92.6497 -92.6056 -92.5877 -92.4669
   -56.2522 -56.2371 -56.1099 -56.0990 -56.0931 -56.0859 -56.0532 -56.0220
   -56.0066 -56.0055 -56.0015 -55.9564 -55.9366 -55.9000 -55.8803 -55.8497
   -55.8416 -55.7930 -55.7929 -55.7903 -55.7819 -55.7422 -55.7178 -55.6322
   -31.4568 -31.4453 -31.2990 -31.2144 -31.0779 -31.0583 -30.9804 -30.9754
   -30.0401 -30.0013 -29.9727 -29.8674 -15.2079 -15.1549 -15.0932 -14.9753
   -14.8816 -14.7358 -14.5913 -14.4294 -14.3243 -14.3020 -14.2983 -14.2315
   -14.1803 -14.1509 -14.0985 -14.0786 -14.0699 -14.0237 -13.9841 -13.8918
   -13.7471 -13.7000 -13.6846 -13.6745 -13.5710 -13.5534 -13.4845 -13.4500
   -13.4264 -13.3965 -13.2379 -13.2248 -13.1996 -13.1894 -13.1319 -13.1110
   -13.0829 -13.0750 -12.9257 -12.9015 -12.8778 -12.8716 -12.8669 -12.8281
   -12.8258 -12.8162 -12.7261 -12.5819 -12.5113 -12.4330 -12.3607 -12.3262
   -11.9980 -11.9724 -11.9508 -11.9439 -11.9303 -11.9115 -11.8700 -11.8078
   -11.7892 -11.7554 -11.7137 -11.7046 -11.6888  -2.7750  -2.7369  -2.5747
    -2.5349  -2.2193  -2.1426  -1.9993  -1.8805  -1.8400  -1.7933  -1.7479
    -1.7239  -1.5992  -1.5557  -1.5383  -1.4573  -1.4213  -1.4039  -1.3751
    -1.3128  -1.2474  -1.2202  -1.1843  -1.0897  -1.0477  -0.9976  -0.9650
    -0.9448  -0.9095  -0.8640  -0.8395  -0.7998  -0.6925  -0.6315  -0.5504
    -0.4922  -0.3309  -0.2945  -0.2492  -0.1912  -0.1407  -0.1311   0.0126
     0.0407   0.0809   0.2463   0.3467   0.3965   0.4946   0.5559   0.6689
     0.6822   0.8171   0.8408   0.8947   0.9316   0.9644   0.9721   1.0232
     1.0409   1.1134   1.1607   1.2051   1.2237   1.5177   1.5326   1.5520
     1.5753   1.6714   1.6850   1.6980   1.7085   1.7381   1.7499   1.7848
     1.8050   1.8331   1.8835   1.9046   1.9546   1.9773   2.0320   2.1439
     2.2423   2.3101   2.3254   2.4027   2.4304   2.4541   2.5214   2.5309
     2.5418   2.5581   2.5799   2.6050   2.6385   2.6417   2.6888   2.7544
     2.7614   2.8054   2.8117   2.8170   2.8219   2.8418   2.8513   2.8622
     2.8715   2.8893   2.8913   2.9159   2.9334   2.9386   3.0683   3.0752
     3.8743   3.9494   4.0145   4.1355   4.6029   4.6873   4.8816   4.9129
     5.3632   5.3938   5.4728   5.5142   5.8467   5.8658   6.3846   6.7113
     6.7235   6.9390   7.1907   7.2468   7.6115   7.6543   7.6770   7.7389
     7.7935   8.0234   8.1268   8.1811   8.2907   8.3577   8.4360   8.4719
     8.6234   8.7927

     occupation numbers 
     1.0000   1.0000   1.0000   1.0000   1.0000   1.0000   1.0000   1.0000
     1.0000   1.0000   1.0000   1.0000   1.0000   1.0000   1.0000   1.0000
     1.0000   1.0000   1.0000   1.0000   1.0000   1.0000   1.0000   1.0000
     1.0000   1.0000   1.0000   1.0000   1.0000   1.0000   1.0000   1.0000
     1.0000   1.0000   1.0000   1.0000   1.0000   1.0000   1.0000   1.0000
     1.0000   1.0000   1.0000   1.0000   1.0000   1.0000   1.0000   1.0000
     1.0000   1.0000   1.0000   1.0000   1.0000   1.0000   1.0000   1.0000
     1.0000   1.0000   1.0000   1.0000   1.0000   1.0000   1.0000   1.0000
     1.0000   1.0000   1.0000   1.0000   1.0000   1.0000   1.0000   1.0000
     1.0000   1.0000   1.0000   1.0000   1.0000   1.0000   1.0000   1.0000
     1.0000   1.0000   1.0000   1.0000   1.0000   1.0000   1.0000   1.0000
     1.0000   1.0000   1.0000   1.0000   1.0000   1.0000   1.0000   1.0000
     1.0000   1.0000   1.0000   1.0000   1.0000   1.0000   1.0000   1.0000
     1.0000   1.0000   1.0000   1.0000   1.0000   1.0000   1.0000   1.0000
     1.0000   1.0000   1.0000   1.0000   1.0000   1.0000   1.0000   1.0000
     1.0000   1.0000   1.0000   1.0000   1.0000   1.0000   1.0000   1.0000
     1.0000   1.0000   1.0000   1.0000   1.0000   1.0000   1.0000   1.0000
     1.0000   1.0000   1.0000   1.0000   1.0000   1.0000   1.0000   1.0000
     1.0000   1.0000   1.0000   1.0000   1.0000   1.0000   1.0000   1.0000
     1.0000   1.0000   1.0000   1.0000   1.0000   1.0000   0.9999   0.9999
     0.9999   0.9997   0.9997   0.9995   0.9995   0.9993   0.9993   0.9991
     0.9990   0.9986   0.9983   0.9979   0.9977   0.9917   0.9912   0.9904
     0.9895   0.9848   0.9841   0.9833   0.9826   0.9806   0.9798   0.9771
     0.9754   0.9729   0.9679   0.9656   0.9595   0.9565   0.9485   0.9284
     0.9063   0.8883   0.8839   0.8600   0.8506   0.8423   0.8170   0.8132
     0.8088   0.8022   0.7930   0.7822   0.7673   0.7659   0.7439   0.7115
     0.7080   0.6851   0.6818   0.6790   0.6764   0.6657   0.6606   0.6546
     0.6495   0.6397   0.6385   0.6248   0.6149   0.6119   0.5366   0.5325
     0.1346   0.1119   0.0945   0.0677   0.0144   0.0104   0.0047   0.0041
     0.0005   0.0004   0.0003   0.0002   0.0000   0.0000   0.0000   0.0000
     0.0000   0.0000   0.0000   0.0000   0.0000   0.0000   0.0000   0.0000
     0.0000   0.0000   0.0000   0.0000   0.0000   0.0000   0.0000   0.0000
     0.0000   0.0000

          k =-0.2500 0.2500 0.0000 ( 65198 PWs)   bands (ev):

   -92.8986 -92.8508 -92.7533 -92.7061 -92.6497 -92.6056 -92.5877 -92.4669
   -56.2522 -56.2371 -56.1099 -56.0990 -56.0931 -56.0859 -56.0532 -56.0220
   -56.0066 -56.0055 -56.0015 -55.9564 -55.9366 -55.9000 -55.8803 -55.8497
   -55.8416 -55.7930 -55.7929 -55.7903 -55.7819 -55.7422 -55.7178 -55.6322
   -31.4588 -31.4429 -31.2996 -31.2141 -31.0780 -31.0582 -30.9804 -30.9755
   -30.0406 -29.9999 -29.9737 -29.8673 -15.2107 -15.1662 -15.0933 -14.9776
   -14.8580 -14.7348 -14.6532 -14.4370 -14.3046 -14.2762 -14.2571 -14.2145
   -14.1874 -14.1685 -14.1387 -14.0889 -14.0246 -14.0107 -13.8601 -13.8343
   -13.8023 -13.7844 -13.7140 -13.6874 -13.6211 -13.5877 -13.4591 -13.4267
   -13.4043 -13.3294 -13.2854 -13.2237 -13.1911 -13.1687 -13.1307 -13.1119
   -13.0666 -13.0101 -12.9571 -12.9524 -12.9319 -12.8925 -12.8772 -12.8707
   -12.8528 -12.8247 -12.6453 -12.6273 -12.5777 -12.4672 -12.2895 -12.2255
   -11.9985 -11.9919 -11.9711 -11.9442 -11.9318 -11.8906 -11.8561 -11.8331
   -11.8112 -11.7890 -11.7055 -11.6601 -11.6508  -2.8596  -2.6531  -2.5316
    -2.4408  -2.3255  -2.2596  -2.0521  -1.9115  -1.8933  -1.8591  -1.7695
    -1.7351  -1.6407  -1.6061  -1.5797  -1.4390  -1.3813  -1.3115  -1.2846
    -1.2230  -1.2037  -1.1638  -1.1353  -1.0950  -1.0306  -0.9827  -0.9122
    -0.8494  -0.8235  -0.7753  -0.7455  -0.6998  -0.6408  -0.5868  -0.5550
    -0.4461  -0.4227  -0.4034  -0.3621  -0.3002  -0.2177  -0.1848  -0.1402
    -0.0743  -0.0492   0.2004   0.3782   0.4102   0.4567   0.5145   0.5658
     0.6148   0.6886   0.7159   0.9976   1.1013   1.1412   1.1737   1.1840
     1.2208   1.2366   1.2842   1.3155   1.3263   1.3527   1.4042   1.4210
     1.4580   1.4831   1.5258   1.6201   1.6328   1.6551   1.6869   1.7171
     1.7582   1.8050   1.9142   2.0207   2.0428   2.0909   2.1114   2.1738
     2.2144   2.2415   2.2678   2.2874   2.3892   2.4224   2.5153   2.5483
     2.5997   2.6328   2.6898   2.6981   2.7123   2.7203   2.7322   2.7457
     2.7564   2.7726   2.7854   2.7934   2.8074   2.8147   2.8240   2.8337
     2.8673   2.8774   2.8833   2.9176   3.2085   3.2896   3.3640   3.4317
     3.4570   3.6598   3.7675   4.1186   4.3238   4.5459   4.8027   5.1215
     5.4900   5.5479   5.6104   5.6412   5.7089   6.0980   6.1298   6.2292
     6.8279   7.1620   7.2751   7.3900   7.4531   7.4761   7.5583   7.7581
     7.8958   8.0257   8.1931   8.3089   8.3177   8.4179   8.4590   8.4854
     8.5584   8.5954

     occupation numbers 
     1.0000   1.0000   1.0000   1.0000   1.0000   1.0000   1.0000   1.0000
     1.0000   1.0000   1.0000   1.0000   1.0000   1.0000   1.0000   1.0000
     1.0000   1.0000   1.0000   1.0000   1.0000   1.0000   1.0000   1.0000
     1.0000   1.0000   1.0000   1.0000   1.0000   1.0000   1.0000   1.0000
     1.0000   1.0000   1.0000   1.0000   1.0000   1.0000   1.0000   1.0000
     1.0000   1.0000   1.0000   1.0000   1.0000   1.0000   1.0000   1.0000
     1.0000   1.0000   1.0000   1.0000   1.0000   1.0000   1.0000   1.0000
     1.0000   1.0000   1.0000   1.0000   1.0000   1.0000   1.0000   1.0000
     1.0000   1.0000   1.0000   1.0000   1.0000   1.0000   1.0000   1.0000
     1.0000   1.0000   1.0000   1.0000   1.0000   1.0000   1.0000   1.0000
     1.0000   1.0000   1.0000   1.0000   1.0000   1.0000   1.0000   1.0000
     1.0000   1.0000   1.0000   1.0000   1.0000   1.0000   1.0000   1.0000
     1.0000   1.0000   1.0000   1.0000   1.0000   1.0000   1.0000   1.0000
     1.0000   1.0000   1.0000   1.0000   1.0000   1.0000   1.0000   1.0000
     1.0000   1.0000   1.0000   1.0000   1.0000   1.0000   1.0000   1.0000
     1.0000   1.0000   1.0000   1.0000   1.0000   1.0000   1.0000   1.0000
     1.0000   1.0000   1.0000   1.0000   1.0000   1.0000   1.0000   1.0000
     1.0000   1.0000   1.0000   1.0000   1.0000   1.0000   1.0000   1.0000
     1.0000   1.0000   1.0000   1.0000   1.0000   1.0000   1.0000   1.0000
     1.0000   1.0000   1.0000   1.0000   1.0000   1.0000   0.9999   0.9999
     0.9999   0.9999   0.9998   0.9992   0.9987   0.9984   0.9982   0.9981
     0.9977   0.9975   0.9969   0.9965   0.9963   0.9958   0.9948   0.9944
     0.9935   0.9928   0.9914   0.9875   0.9869   0.9857   0.9839   0.9821
     0.9792   0.9754   0.9645   0.9502   0.9468   0.9386   0.9348   0.9222
     0.9130   0.9065   0.8998   0.8946   0.8643   0.8533   0.8194   0.8062
     0.7845   0.7699   0.7434   0.7394   0.7325   0.7285   0.7227   0.7159
     0.7105   0.7022   0.6956   0.6915   0.6841   0.6802   0.6753   0.6701
     0.6518   0.6462   0.6430   0.6238   0.4537   0.4064   0.3642   0.3271
     0.3137   0.2158   0.1719   0.0711   0.0381   0.0178   0.0065   0.0016
     0.0002   0.0002   0.0001   0.0001   0.0001   0.0000   0.0000   0.0000
     0.0000   0.0000   0.0000   0.0000   0.0000   0.0000   0.0000   0.0000
     0.0000   0.0000   0.0000   0.0000   0.0000   0.0000   0.0000   0.0000
     0.0000   0.0000

          k =-0.5000 0.2500 0.0000 ( 65138 PWs)   bands (ev):

   -92.8986 -92.8508 -92.7533 -92.7061 -92.6497 -92.6056 -92.5877 -92.4669
   -56.2522 -56.2371 -56.1099 -56.0990 -56.0931 -56.0859 -56.0532 -56.0220
   -56.0066 -56.0055 -56.0015 -55.9564 -55.9366 -55.9000 -55.8803 -55.8497
   -55.8416 -55.7930 -55.7929 -55.7903 -55.7819 -55.7422 -55.7178 -55.6322
   -31.4566 -31.4451 -31.2992 -31.2145 -31.0776 -31.0579 -30.9807 -30.9758
   -30.0395 -30.0010 -29.9733 -29.8677 -15.1750 -15.1286 -15.0505 -14.9442
   -14.9067 -14.7835 -14.6929 -14.5523 -14.2559 -14.2241 -14.2106 -14.1692
   -14.1414 -14.1225 -14.0852 -14.0606 -14.0508 -14.0119 -13.9862 -13.8858
   -13.8274 -13.7785 -13.7702 -13.7372 -13.6554 -13.6096 -13.5152 -13.4612
   -13.3840 -13.3478 -13.2497 -13.2107 -13.2001 -13.1690 -13.1345 -13.1234
   -13.0489 -13.0369 -12.9411 -12.9168 -12.9017 -12.8865 -12.8531 -12.8334
   -12.8068 -12.7992 -12.7240 -12.5655 -12.5065 -12.4172 -12.3450 -12.3217
   -11.9981 -11.9653 -11.9528 -11.9383 -11.9260 -11.9050 -11.8747 -11.7937
   -11.7864 -11.7616 -11.7282 -11.7002 -11.6912  -2.6319  -2.5907  -2.4442
    -2.4014  -2.2389  -2.1612  -2.0234  -1.8860  -1.8280  -1.8015  -1.7637
    -1.7267  -1.6453  -1.5290  -1.4718  -1.4485  -1.4210  -1.3435  -1.3171
    -1.2768  -1.2615  -1.2013  -1.1674  -1.1323  -1.0975  -1.0685  -1.0092
    -0.9812  -0.9394  -0.9033  -0.7985  -0.7732  -0.6742  -0.6227  -0.5891
    -0.5248  -0.4511  -0.4145  -0.3153  -0.2709  -0.2133  -0.1607  -0.1222
    -0.0681  -0.0414  -0.0087   0.0386   0.0796   0.4132   0.4725   0.5242
     0.5355   0.8313   0.8935   0.9648   0.9921   1.1628   1.1971   1.2352
     1.2443   1.2626   1.2802   1.3500   1.3995   1.4405   1.4748   1.5963
     1.6401   1.6592   1.6703   1.7056   1.7345   1.7522   1.7611   1.7781
     1.8045   1.8462   1.8596   1.8970   1.9220   1.9561   2.0078   2.1343
     2.2282   2.2578   2.3237   2.3572   2.4206   2.4509   2.4613   2.5016
     2.5314   2.5492   2.5597   2.5965   2.6346   2.6430   2.6900   2.6991
     2.7091   2.7324   2.7465   2.7582   2.7749   2.7895   2.8145   2.8242
     2.8349   2.8435   2.8498   2.8621   3.3965   3.4365   3.5808   3.6000
     3.8833   3.9637   4.0207   4.2169   4.5954   4.6998   4.8702   4.9270
     5.2290   5.2523   5.4785   5.5737   5.6004   5.6420   6.3226   6.4482
     6.4908   6.8276   7.3157   7.5911   7.6611   7.7183   7.7597   7.8032
     7.8669   7.9480   8.2572   8.3904   8.4075   8.4337   8.4901   8.5501
     8.6155   8.6901

     occupation numbers 
     1.0000   1.0000   1.0000   1.0000   1.0000   1.0000   1.0000   1.0000
     1.0000   1.0000   1.0000   1.0000   1.0000   1.0000   1.0000   1.0000
     1.0000   1.0000   1.0000   1.0000   1.0000   1.0000   1.0000   1.0000
     1.0000   1.0000   1.0000   1.0000   1.0000   1.0000   1.0000   1.0000
     1.0000   1.0000   1.0000   1.0000   1.0000   1.0000   1.0000   1.0000
     1.0000   1.0000   1.0000   1.0000   1.0000   1.0000   1.0000   1.0000
     1.0000   1.0000   1.0000   1.0000   1.0000   1.0000   1.0000   1.0000
     1.0000   1.0000   1.0000   1.0000   1.0000   1.0000   1.0000   1.0000
     1.0000   1.0000   1.0000   1.0000   1.0000   1.0000   1.0000   1.0000
     1.0000   1.0000   1.0000   1.0000   1.0000   1.0000   1.0000   1.0000
     1.0000   1.0000   1.0000   1.0000   1.0000   1.0000   1.0000   1.0000
     1.0000   1.0000   1.0000   1.0000   1.0000   1.0000   1.0000   1.0000
     1.0000   1.0000   1.0000   1.0000   1.0000   1.0000   1.0000   1.0000
     1.0000   1.0000   1.0000   1.0000   1.0000   1.0000   1.0000   1.0000
     1.0000   1.0000   1.0000   1.0000   1.0000   1.0000   1.0000   1.0000
     1.0000   1.0000   1.0000   1.0000   1.0000   1.0000   1.0000   1.0000
     1.0000   1.0000   1.0000   1.0000   1.0000   1.0000   1.0000   1.0000
     1.0000   1.0000   1.0000   1.0000   1.0000   1.0000   1.0000   1.0000
     1.0000   1.0000   1.0000   1.0000   1.0000   1.0000   1.0000   1.0000
     1.0000   1.0000   1.0000   1.0000   1.0000   1.0000   1.0000   0.9999
     0.9999   0.9997   0.9996   0.9993   0.9993   0.9983   0.9979   0.9976
     0.9974   0.9972   0.9970   0.9959   0.9949   0.9939   0.9930   0.9886
     0.9865   0.9855   0.9849   0.9828   0.9809   0.9796   0.9790   0.9777
     0.9755   0.9717   0.9704   0.9664   0.9636   0.9594   0.9522   0.9304
     0.9097   0.9024   0.8844   0.8744   0.8540   0.8434   0.8397   0.8247
     0.8130   0.8058   0.8015   0.7859   0.7691   0.7652   0.7433   0.7389
     0.7341   0.7226   0.7155   0.7096   0.7011   0.6935   0.6803   0.6751
     0.6694   0.6648   0.6614   0.6546   0.3462   0.3245   0.2517   0.2427
     0.1317   0.1079   0.0930   0.0533   0.0148   0.0099   0.0049   0.0038
     0.0009   0.0008   0.0002   0.0001   0.0001   0.0001   0.0000   0.0000
     0.0000   0.0000   0.0000   0.0000   0.0000   0.0000   0.0000   0.0000
     0.0000   0.0000   0.0000   0.0000   0.0000   0.0000   0.0000   0.0000
     0.0000   0.0000

     the Fermi energy is     3.1301 ev

!    total energy              =   -4440.30970069 Ry
     estimated scf accuracy    <          7.7E-09 Ry
     smearing contrib. (-TS)   =      -1.20810912 Ry
     internal energy E=F+TS    =   -4439.10159157 Ry

     The total energy is F=E-TS. E is the sum of the following terms:
     one-electron contribution =  -20888.60310892 Ry
     hartree contribution      =   10573.09799558 Ry
     xc contribution           =    -693.24819733 Ry
     ewald contribution        =    6845.84266305 Ry
     one-center paw contrib.   =    -276.19094395 Ry
      -> PAW hartree energy AE =      25.13205614 Ry
      -> PAW hartree energy PS =     -25.01626254 Ry
      -> PAW xc energy AE      =     -16.51313486 Ry
      -> PAW xc energy PS      =       6.87237875 Ry
      -> total E_H with PAW    =   10573.21378918 Ry
      -> total E_XC with PAW   =    -702.88895343 Ry

     convergence has been achieved in  52 iterations

     Writing all to output data dir /bsuhome/zayahcortright/scratch/pwscf.save/
 
     init_run     :      7.80s CPU      8.45s WALL (       1 calls)
     electrons    :    738.43s CPU    774.14s WALL (       1 calls)

     Called by init_run:
     wfcinit      :      6.18s CPU      6.39s WALL (       1 calls)
     wfcinit:atom :      0.04s CPU      0.06s WALL (       5 calls)
     wfcinit:wfcr :      5.88s CPU      6.00s WALL (       5 calls)
     potinit      :      0.22s CPU      0.25s WALL (       1 calls)
     hinit0       :      0.53s CPU      0.67s WALL (       1 calls)

     Called by electrons:
     c_bands      :    583.52s CPU    590.79s WALL (      52 calls)
     sum_band     :    115.90s CPU    131.69s WALL (      52 calls)
     v_of_rho     :      5.79s CPU      6.13s WALL (      53 calls)
     v_h          :      0.50s CPU      0.50s WALL (      53 calls)
     v_xc         :      5.30s CPU      5.63s WALL (      53 calls)
     newd         :     17.37s CPU     29.21s WALL (      53 calls)
     PAW_pot      :      1.75s CPU      1.78s WALL (      53 calls)
     mix_rho      :     13.66s CPU     14.07s WALL (      52 calls)

     Called by c_bands:
     init_us_2    :      7.16s CPU      7.25s WALL (     525 calls)
     init_us_2:cp :      7.15s CPU      7.25s WALL (     525 calls)
     cegterg      :    553.05s CPU    559.97s WALL (     260 calls)

     Called by sum_band:
     sum_band:wei :      0.37s CPU      0.38s WALL (      52 calls)
     sum_band:loo :     96.76s CPU     97.58s WALL (      52 calls)
     sum_band:buf :      1.41s CPU      1.49s WALL (     260 calls)
     sum_band:ini :      3.30s CPU      3.31s WALL (     260 calls)
     sum_band:cal :     20.41s CPU     20.51s WALL (     260 calls)
     sum_band:bec :      0.57s CPU      0.58s WALL (     260 calls)
     addusdens    :     16.69s CPU     31.57s WALL (      52 calls)
                                        0.00s GPU  (      52 calls)
     addusd:skk   :      0.33s CPU      1.02s WALL (     156 calls)
                                        0.00s GPU  (     156 calls)

     Called by *egterg:
     cdiaghg      :     58.00s CPU     58.28s WALL (    1267 calls)
     cegterg:over :     39.79s CPU     39.94s WALL (    1007 calls)
     cegterg:upda :     28.74s CPU     29.31s WALL (    1007 calls)
     cegterg:last :     62.69s CPU     62.95s WALL (     474 calls)
     cdiaghg:chol :      3.39s CPU      3.41s WALL (    1267 calls)
     cdiaghg:inve :      3.15s CPU      3.17s WALL (    1267 calls)
     cdiaghg:para :      7.29s CPU      7.34s WALL (    2534 calls)
     h_psi        :    306.17s CPU    309.54s WALL (    1272 calls)
     s_psi        :     41.26s CPU     41.38s WALL (    1272 calls)
     g_psi        :      1.09s CPU      1.10s WALL (    1007 calls)

     Called by h_psi:
     h_psi:calbec :     46.15s CPU     46.37s WALL (    1272 calls)
     vloc_psi     :    215.97s CPU    218.20s WALL (    1272 calls)
     add_vuspsi   :     41.08s CPU     41.28s WALL (    1272 calls)

     General routines
     calbec       :     66.55s CPU     66.88s WALL (    1532 calls)
     fft          :      4.25s CPU      4.30s WALL (     687 calls)
     ffts         :      4.97s CPU      5.03s WALL (    5722 calls)
     fftw         :    188.33s CPU    189.99s WALL (  348306 calls)
     interpolate  :      0.45s CPU      0.45s WALL (      53 calls)
 
     Parallel routines

     PAW routines
     PAW_pot      :      1.75s CPU      1.78s WALL (      53 calls)
 
     PWSCF        :  12m27.85s CPU  13m 8.23s WALL

 
   This run was terminated on:   1:29:57  22Jun2024            

=------------------------------------------------------------------------------=
   JOB DONE.
=------------------------------------------------------------------------------=
