
     Program PWSCF v.7.2 starts on 21Jun2024 at 18:56:12 

     This program is part of the open-source Quantum ESPRESSO suite
     for quantum simulation of materials; please cite
         "P. Giannozzi et al., J. Phys.:Condens. Matter 21 395502 (2009);
         "P. Giannozzi et al., J. Phys.:Condens. Matter 29 465901 (2017);
         "P. Giannozzi et al., J. Chem. Phys. 152 154105 (2020);
          URL http://www.quantum-espresso.org", 
     in publications or presentations arising from this work. More details at
     http://www.quantum-espresso.org/quote

     Parallel version (MPI & OpenMP), running on      48 processor cores
     Number of MPI processes:                48
     Threads/MPI process:                     1

     MPI processes distributed on     1 nodes
     60578 MiB available memory on the printing compute node when the environment starts
 
     Reading input from espresso.pwi
Warning: card &CELL ignored
Warning: card / ignored
Warning: card &FCP ignored
Warning: card / ignored
Warning: card &RISM ignored
Warning: card / ignored

     Current dimensions of program PWSCF are:
     Max number of different atomic species (ntypx) = 10
     Max number of k-points (npk) =  40000
     Max angular momentum in pseudopotentials (lmaxx) =  4
     file O.pbe-n-kjpaw_psl.0.1.UPF: wavefunction(s)  2P renormalized
     signal trapping enabled: kill the code with -SIGUSR1 to stop cleanly the simulation 
 
     K-points division:     npool     =       2
     R & G space division:  proc/nbgrp/npool/nimage =      24
     Subspace diagonalization in iterative solution of the eigenvalue problem:
     one sub-group per band group will be used
     scalapack distributed-memory algorithm (size of sub-group:  3*  3 procs)

 
     Parallelization info
     --------------------
     sticks:   dense  smooth     PW     G-vecs:    dense   smooth      PW
     Min         350     175     47                61430    21716    3036
     Max         351     177     48                61449    21727    3041
     Sum        8421    4205   1137              1474595   521381   72913
 
     Using Slab Decomposition
 


     bravais-lattice index     =            0
     lattice parameter (alat)  =      14.8599  a.u.
     unit-cell volume          =    8305.1283 (a.u.)^3
     number of atoms/cell      =           49
     number of atomic types    =            3
     number of electrons       =       430.00
     number of Kohn-Sham states=          258
     kinetic-energy cutoff     =      60.0000  Ry
     charge density cutoff     =     480.0000  Ry
     scf convergence threshold =      1.0E-08
     mixing beta               =       0.1500
     number of iterations used =            8  local-TF  mixing
     Exchange-correlation= SLA  PW   PBE  PBE
                           (   1   4   3   4   0   0   0)

     celldm(1)=  14.859904  celldm(2)=   0.000000  celldm(3)=   0.000000
     celldm(4)=   0.000000  celldm(5)=   0.000000  celldm(6)=   0.000000

     crystal axes: (cart. coord. in units of alat)
               a(1) = (   1.000000   0.000000   0.000000 )  
               a(2) = (   0.000000   1.000000   0.000000 )  
               a(3) = (   0.000000   0.000000   2.531036 )  

     reciprocal axes: (cart. coord. in units 2 pi/alat)
               b(1) = (  1.000000  0.000000  0.000000 )  
               b(2) = (  0.000000  1.000000  0.000000 )  
               b(3) = (  0.000000  0.000000  0.395095 )  


     PseudoPot. # 1 for Sr read from file:
     /bsuhome/zayahcortright/q-e/pseudo/Sr_pbe_v1.uspp.F.UPF
     MD5 check sum: 6b418c05fbe9db5448babca5e47b7a5b
     Pseudo is Ultrasoft + core correction, Zval = 10.0
     Generated by new atomic code, or converted to UPF format
     Using radial grid of  883 points,  6 beta functions with: 
                l(1) =   0
                l(2) =   0
                l(3) =   1
                l(4) =   1
                l(5) =   2
                l(6) =   2
     Q(r) pseudized with  6 coefficients,  rinner =    1.400   1.400   1.400
                                                       1.400   1.400

     PseudoPot. # 2 for O  read from file:
     /bsuhome/zayahcortright/q-e/pseudo/O.pbe-n-kjpaw_psl.0.1.UPF
     MD5 check sum: 0234752ac141de4415c5fc33072bef88
     Pseudo is Projector augmented-wave + core cor, Zval =  6.0
     Generated using "atomic" code by A. Dal Corso  v.5.0.99 svn rev. 10869
     Shape of augmentation charge: BESSEL
     Using radial grid of 1095 points,  4 beta functions with: 
                l(1) =   0
                l(2) =   0
                l(3) =   1
                l(4) =   1
     Q(r) pseudized with 0 coefficients 


     PseudoPot. # 3 for Co read from file:
     /bsuhome/zayahcortright/q-e/pseudo/Co_pbe_v1.2.uspp.F.UPF
     MD5 check sum: 5f91765df6ddd3222702df6e7b74a16d
     Pseudo is Ultrasoft + core correction, Zval = 17.0
     Generated by new atomic code, or converted to UPF format
     Using radial grid of  863 points,  6 beta functions with: 
                l(1) =   0
                l(2) =   0
                l(3) =   1
                l(4) =   1
                l(5) =   2
                l(6) =   2
     Q(r) pseudized with  8 coefficients,  rinner =    1.200   1.200   1.200
                                                       1.200   1.200

     atomic species   valence    mass     pseudopotential
        Sr            10.00    87.62000     Sr( 1.00)
        O              6.00    15.99900     O ( 1.00)
        Co            17.00    58.93319     Co( 1.00)

     No symmetry found


                                    s                        frac. trans.

      isym =  1     identity                                     

 cryst.   s( 1) = (     1          0          0      )
                  (     0          1          0      )
                  (     0          0          1      )

 cart.    s( 1) = (  1.0000000  0.0000000  0.0000000 )
                  (  0.0000000  1.0000000  0.0000000 )
                  (  0.0000000  0.0000000  1.0000000 )


   Cartesian axes

     site n.     atom                  positions (alat units)
         1           Sr  tau(   1) = (   0.2508693   0.7491307   1.7574407  )
         2           O   tau(   2) = (   0.4985141   0.5014859   1.7715967  )
         3           Sr  tau(   3) = (   0.7482398   0.7454518   1.7648669  )
         4           Sr  tau(   4) = (   0.7441748   0.2558252   1.7667843  )
         5           Sr  tau(   5) = (   0.2508693   0.7491307   1.2696799  )
         6           Sr  tau(   6) = (   0.2508693   0.7491307   0.7632319  )
         7           Co  tau(   7) = (   0.4998914   0.5001086   1.0164559  )
         8           Co  tau(   8) = (   0.4936915   0.5063085   1.5135603  )
         9           O   tau(   9) = (   0.4988895   0.7610401   1.0164559  )
        10           O   tau(  10) = (   0.2389599   0.5011105   1.0164559  )
        11           O   tau(  11) = (   0.0070918   0.7374880   1.0164559  )
        12           O   tau(  12) = (   0.0088340   0.7405089   1.5135603  )
        13           O   tau(  13) = (   0.5066944   0.7415376   1.5135603  )
        14           O   tau(  14) = (   0.2584624   0.4933056   1.5135603  )
        15           O   tau(  15) = (   0.4985141   0.5014859   0.7773880  )
        16           O   tau(  16) = (   0.4985141   0.5014859   1.2555238  )
        17           Sr  tau(  17) = (   0.7482398   0.7454518   0.7706582  )
        18           Sr  tau(  18) = (   0.7482398   0.7454518   1.2622536  )
        19           Sr  tau(  19) = (   0.7441748   0.2558252   0.7725755  )
        20           Sr  tau(  20) = (   0.7441748   0.2558252   1.2603363  )
        21           O   tau(  21) = (   0.7322655   0.0078049   1.5135603  )
        22           O   tau(  22) = (   0.7558175   0.4996027   1.5135603  )
        23           O   tau(  23) = (   0.5003973   0.2441825   1.5135603  )
        24           O   tau(  24) = (   0.7527966   0.4978604   1.0164559  )
        25           O   tau(  25) = (   0.5021396   0.2472034   1.0164559  )
        26           O   tau(  26) = (   0.7517679   0.0000000   1.0164559  )
        27           O   tau(  27) = (   0.0114961   0.4948124   1.7455321  )
        28           O   tau(  28) = (   0.0048226   0.0077944   1.7715967  )
        29           Sr  tau(  29) = (   0.2545482   0.2517602   1.7648669  )
        30           O   tau(  30) = (   0.5048017   0.0015068   1.7786929  )
        31           Co  tau(  31) = (   0.0056869   0.5006215   1.0164559  )
        32           Co  tau(  32) = (   0.0065315   0.4997770   1.5135603  )
        33           Co  tau(  33) = (   0.0061999   0.0064171   1.0164559  )
        34           Co  tau(  34) = (   0.0000000   0.0126169   1.5135603  )
        35           O   tau(  35) = (   0.0114961   0.4948124   1.2815885  )
        36           O   tau(  36) = (   0.0114961   0.4948124   0.7513233  )
        37           O   tau(  37) = (   0.0051979   0.2673486   1.0164559  )
        38           O   tau(  38) = (   0.0130029   0.2478461   1.5135603  )
        39           O   tau(  39) = (   0.0048226   0.0077944   0.7773880  )
        40           O   tau(  40) = (   0.0048226   0.0077944   1.2555238  )
        41           Sr  tau(  41) = (   0.2545482   0.2517602   0.7706582  )
        42           Sr  tau(  42) = (   0.2545482   0.2517602   1.2622536  )
        43           Co  tau(  43) = (   0.4989925   0.0073160   1.5135603  )
        44           Co  tau(  44) = (   0.4998370   0.0064714   1.0164559  )
        45           O   tau(  45) = (   0.5048017   0.0015068   0.7844841  )
        46           O   tau(  46) = (   0.5048017   0.0015068   1.2484277  )
        47           O   tau(  47) = (   0.2621260   0.0059111   1.5135603  )
        48           O   tau(  48) = (   0.2591051   0.0041689   1.0164559  )
        49           O   tau(  49) = (   0.2843291   0.8529874   2.1602013  )

   Crystallographic axes

     site n.     atom                  positions (cryst. coord.)
         1           Sr  tau(   1) = (  0.2508693  0.7491307  0.6943562  )
         2           O   tau(   2) = (  0.4985141  0.5014859  0.6999492  )
         3           Sr  tau(   3) = (  0.7482398  0.7454518  0.6972903  )
         4           Sr  tau(   4) = (  0.7441748  0.2558252  0.6980478  )
         5           Sr  tau(   5) = (  0.2508693  0.7491307  0.5016443  )
         6           Sr  tau(   6) = (  0.2508693  0.7491307  0.3015492  )
         7           Co  tau(   7) = (  0.4998914  0.5001086  0.4015968  )
         8           Co  tau(   8) = (  0.4936915  0.5063085  0.5980003  )
         9           O   tau(   9) = (  0.4988895  0.7610401  0.4015968  )
        10           O   tau(  10) = (  0.2389599  0.5011105  0.4015968  )
        11           O   tau(  11) = (  0.0070918  0.7374880  0.4015968  )
        12           O   tau(  12) = (  0.0088340  0.7405089  0.5980003  )
        13           O   tau(  13) = (  0.5066944  0.7415376  0.5980003  )
        14           O   tau(  14) = (  0.2584624  0.4933056  0.5980003  )
        15           O   tau(  15) = (  0.4985141  0.5014859  0.3071422  )
        16           O   tau(  16) = (  0.4985141  0.5014859  0.4960513  )
        17           Sr  tau(  17) = (  0.7482398  0.7454518  0.3044833  )
        18           Sr  tau(  18) = (  0.7482398  0.7454518  0.4987103  )
        19           Sr  tau(  19) = (  0.7441748  0.2558252  0.3052408  )
        20           Sr  tau(  20) = (  0.7441748  0.2558252  0.4979527  )
        21           O   tau(  21) = (  0.7322655  0.0078049  0.5980003  )
        22           O   tau(  22) = (  0.7558175  0.4996027  0.5980003  )
        23           O   tau(  23) = (  0.5003973  0.2441825  0.5980003  )
        24           O   tau(  24) = (  0.7527966  0.4978604  0.4015968  )
        25           O   tau(  25) = (  0.5021396  0.2472034  0.4015968  )
        26           O   tau(  26) = (  0.7517679  0.0000000  0.4015968  )
        27           O   tau(  27) = (  0.0114961  0.4948124  0.6896512  )
        28           O   tau(  28) = (  0.0048226  0.0077944  0.6999492  )
        29           Sr  tau(  29) = (  0.2545482  0.2517602  0.6972903  )
        30           O   tau(  30) = (  0.5048017  0.0015068  0.7027529  )
        31           Co  tau(  31) = (  0.0056869  0.5006215  0.4015968  )
        32           Co  tau(  32) = (  0.0065315  0.4997770  0.5980003  )
        33           Co  tau(  33) = (  0.0061999  0.0064171  0.4015968  )
        34           Co  tau(  34) = (  0.0000000  0.0126169  0.5980003  )
        35           O   tau(  35) = (  0.0114961  0.4948124  0.5063494  )
        36           O   tau(  36) = (  0.0114961  0.4948124  0.2968442  )
        37           O   tau(  37) = (  0.0051979  0.2673486  0.4015968  )
        38           O   tau(  38) = (  0.0130029  0.2478461  0.5980003  )
        39           O   tau(  39) = (  0.0048226  0.0077944  0.3071422  )
        40           O   tau(  40) = (  0.0048226  0.0077944  0.4960513  )
        41           Sr  tau(  41) = (  0.2545482  0.2517602  0.3044833  )
        42           Sr  tau(  42) = (  0.2545482  0.2517602  0.4987103  )
        43           Co  tau(  43) = (  0.4989925  0.0073160  0.5980003  )
        44           Co  tau(  44) = (  0.4998370  0.0064714  0.4015968  )
        45           O   tau(  45) = (  0.5048017  0.0015068  0.3099459  )
        46           O   tau(  46) = (  0.5048017  0.0015068  0.4932477  )
        47           O   tau(  47) = (  0.2621260  0.0059111  0.5980003  )
        48           O   tau(  48) = (  0.2591051  0.0041689  0.4015968  )
        49           O   tau(  49) = (  0.2843291  0.8529874  0.8534850  )

     number of k points=    10  Gaussian smearing, width (Ry)=  0.0700
                       cart. coord. in units 2pi/alat
        k(    1) = (   0.0000000   0.0000000   0.0000000), wk =   0.1250000
        k(    2) = (   0.0000000   0.2500000   0.0000000), wk =   0.2500000
        k(    3) = (   0.0000000  -0.5000000   0.0000000), wk =   0.1250000
        k(    4) = (   0.2500000   0.2500000   0.0000000), wk =   0.2500000
        k(    5) = (   0.2500000  -0.5000000   0.0000000), wk =   0.2500000
        k(    6) = (  -0.5000000  -0.5000000   0.0000000), wk =   0.1250000
        k(    7) = (   0.2500000   0.0000000   0.0000000), wk =   0.2500000
        k(    8) = (  -0.5000000   0.0000000   0.0000000), wk =   0.1250000
        k(    9) = (  -0.2500000   0.2500000   0.0000000), wk =   0.2500000
        k(   10) = (  -0.5000000   0.2500000   0.0000000), wk =   0.2500000

                       cryst. coord.
        k(    1) = (   0.0000000   0.0000000   0.0000000), wk =   0.1250000
        k(    2) = (   0.0000000   0.2500000   0.0000000), wk =   0.2500000
        k(    3) = (   0.0000000  -0.5000000   0.0000000), wk =   0.1250000
        k(    4) = (   0.2500000   0.2500000   0.0000000), wk =   0.2500000
        k(    5) = (   0.2500000  -0.5000000   0.0000000), wk =   0.2500000
        k(    6) = (  -0.5000000  -0.5000000   0.0000000), wk =   0.1250000
        k(    7) = (   0.2500000   0.0000000   0.0000000), wk =   0.2500000
        k(    8) = (  -0.5000000   0.0000000   0.0000000), wk =   0.1250000
        k(    9) = (  -0.2500000   0.2500000   0.0000000), wk =   0.2500000
        k(   10) = (  -0.5000000   0.2500000   0.0000000), wk =   0.2500000

     Dense  grid:  1474595 G-vectors     FFT dimensions: ( 108, 108, 270)

     Smooth grid:   521381 G-vectors     FFT dimensions: (  75,  75, 192)

     Dynamical RAM for                 wfc:      10.69 MB

     Dynamical RAM for     wfc (w. buffer):      64.13 MB

     Dynamical RAM for           str. fact:       2.81 MB

     Dynamical RAM for           local pot:       0.00 MB

     Dynamical RAM for          nlocal pot:      24.53 MB

     Dynamical RAM for                qrad:       5.27 MB

     Dynamical RAM for          rho,v,vnew:       6.02 MB

     Dynamical RAM for               rhoin:       2.01 MB

     Dynamical RAM for            rho*nmix:      15.00 MB

     Dynamical RAM for           G-vectors:       3.68 MB

     Dynamical RAM for          h,s,v(r/c):       1.35 MB

     Dynamical RAM for          <psi|beta>:       2.33 MB

     Dynamical RAM for                 psi:      21.38 MB

     Dynamical RAM for                hpsi:      21.38 MB

     Dynamical RAM for                spsi:      21.38 MB

     Dynamical RAM for      wfcinit/wfcrot:      34.39 MB

     Dynamical RAM for           addusdens:     101.26 MB

     Estimated static dynamical RAM per process >     117.53 MB

     Estimated max dynamical RAM per process >     233.79 MB

     Estimated total dynamical RAM >      10.61 GB

     Check: negative core charge=   -0.000004

     Initial potential from superposition of free atoms

     starting charge     421.5961, renormalised to     430.0000

     negative rho (up, down):  7.826E-01 0.000E+00
     Starting wfcs are  376 randomized atomic wfcs
     Checking if some PAW data can be deallocated... 
       PAW data deallocated on   19 nodes for type:  2

     total cpu time spent up to now is        8.7 secs

     Self-consistent Calculation

     iteration #  1     ecut=    60.00 Ry     beta= 0.15
     Davidson diagonalization with overlap

---- Real-time Memory Report at c_bands before calling an iterative solver
             0 MiB given to the printing process from OS
             0 MiB allocation reported by mallinfo(arena+hblkhd)
         51482 MiB available memory on the node where the printing process lives
------------------
     ethr =  1.00E-02,  avg # of iterations =  2.0

     negative rho (up, down):  7.718E-01 0.000E+00

     total cpu time spent up to now is       24.0 secs

     total energy              =   -4445.25553818 Ry
     estimated scf accuracy    <      53.81048738 Ry

     iteration #  2     ecut=    60.00 Ry     beta= 0.15
     Davidson diagonalization with overlap

---- Real-time Memory Report at c_bands before calling an iterative solver
             0 MiB given to the printing process from OS
             0 MiB allocation reported by mallinfo(arena+hblkhd)
         51832 MiB available memory on the node where the printing process lives
------------------
     ethr =  1.00E-02,  avg # of iterations =  1.0

     negative rho (up, down):  7.592E-01 0.000E+00

     total cpu time spent up to now is       36.5 secs

     total energy              =   -4441.93089344 Ry
     estimated scf accuracy    <      28.41481331 Ry

     iteration #  3     ecut=    60.00 Ry     beta= 0.15
     Davidson diagonalization with overlap

---- Real-time Memory Report at c_bands before calling an iterative solver
             0 MiB given to the printing process from OS
             0 MiB allocation reported by mallinfo(arena+hblkhd)
         51084 MiB available memory on the node where the printing process lives
------------------
     ethr =  6.61E-03,  avg # of iterations =  1.0

     negative rho (up, down):  7.531E-01 0.000E+00

     total cpu time spent up to now is       49.1 secs

     total energy              =   -4442.60579212 Ry
     estimated scf accuracy    <      30.02316459 Ry

     iteration #  4     ecut=    60.00 Ry     beta= 0.15
     Davidson diagonalization with overlap

---- Real-time Memory Report at c_bands before calling an iterative solver
             0 MiB given to the printing process from OS
             0 MiB allocation reported by mallinfo(arena+hblkhd)
         51035 MiB available memory on the node where the printing process lives
------------------
     ethr =  6.61E-03,  avg # of iterations =  1.0

     negative rho (up, down):  7.538E-01 0.000E+00

     total cpu time spent up to now is       61.8 secs

     total energy              =   -4442.63067937 Ry
     estimated scf accuracy    <      27.99209056 Ry

     iteration #  5     ecut=    60.00 Ry     beta= 0.15
     Davidson diagonalization with overlap

---- Real-time Memory Report at c_bands before calling an iterative solver
             0 MiB given to the printing process from OS
             0 MiB allocation reported by mallinfo(arena+hblkhd)
         51016 MiB available memory on the node where the printing process lives
------------------
     ethr =  6.51E-03,  avg # of iterations =  1.0

     negative rho (up, down):  7.392E-01 0.000E+00

     total cpu time spent up to now is       74.6 secs

     total energy              =   -4441.83787172 Ry
     estimated scf accuracy    <      21.75249549 Ry

     iteration #  6     ecut=    60.00 Ry     beta= 0.15
     Davidson diagonalization with overlap

---- Real-time Memory Report at c_bands before calling an iterative solver
             0 MiB given to the printing process from OS
             0 MiB allocation reported by mallinfo(arena+hblkhd)
         50995 MiB available memory on the node where the printing process lives
------------------
     ethr =  5.06E-03,  avg # of iterations =  1.0

     negative rho (up, down):  7.461E-01 0.000E+00

     total cpu time spent up to now is       87.1 secs

     total energy              =   -4442.18541476 Ry
     estimated scf accuracy    <      54.10574761 Ry

     iteration #  7     ecut=    60.00 Ry     beta= 0.15
     Davidson diagonalization with overlap

---- Real-time Memory Report at c_bands before calling an iterative solver
             0 MiB given to the printing process from OS
             0 MiB allocation reported by mallinfo(arena+hblkhd)
         50978 MiB available memory on the node where the printing process lives
------------------
     ethr =  5.06E-03,  avg # of iterations =  1.0

     negative rho (up, down):  7.480E-01 0.000E+00

     total cpu time spent up to now is       99.7 secs

     total energy              =   -4440.37268294 Ry
     estimated scf accuracy    <      31.62441801 Ry

     iteration #  8     ecut=    60.00 Ry     beta= 0.15
     Davidson diagonalization with overlap

---- Real-time Memory Report at c_bands before calling an iterative solver
             0 MiB given to the printing process from OS
             0 MiB allocation reported by mallinfo(arena+hblkhd)
         50968 MiB available memory on the node where the printing process lives
------------------
     ethr =  5.06E-03,  avg # of iterations =  1.0

     negative rho (up, down):  7.448E-01 0.000E+00

     total cpu time spent up to now is      112.2 secs

     total energy              =   -4440.94030401 Ry
     estimated scf accuracy    <       5.80692827 Ry

     iteration #  9     ecut=    60.00 Ry     beta= 0.15
     Davidson diagonalization with overlap

---- Real-time Memory Report at c_bands before calling an iterative solver
             0 MiB given to the printing process from OS
             0 MiB allocation reported by mallinfo(arena+hblkhd)
         50943 MiB available memory on the node where the printing process lives
------------------
     ethr =  1.35E-03,  avg # of iterations =  1.6

     negative rho (up, down):  7.594E-01 0.000E+00

     total cpu time spent up to now is      125.5 secs

     total energy              =   -4441.03650504 Ry
     estimated scf accuracy    <      13.16292917 Ry

     iteration # 10     ecut=    60.00 Ry     beta= 0.15
     Davidson diagonalization with overlap

---- Real-time Memory Report at c_bands before calling an iterative solver
             0 MiB given to the printing process from OS
             0 MiB allocation reported by mallinfo(arena+hblkhd)
         50915 MiB available memory on the node where the printing process lives
------------------
     ethr =  1.35E-03,  avg # of iterations =  2.0

     negative rho (up, down):  7.683E-01 0.000E+00

     total cpu time spent up to now is      139.4 secs

     total energy              =   -4439.71978015 Ry
     estimated scf accuracy    <      46.20597674 Ry

     iteration # 11     ecut=    60.00 Ry     beta= 0.15
     Davidson diagonalization with overlap

---- Real-time Memory Report at c_bands before calling an iterative solver
             0 MiB given to the printing process from OS
             0 MiB allocation reported by mallinfo(arena+hblkhd)
         50913 MiB available memory on the node where the printing process lives
------------------
     ethr =  1.35E-03,  avg # of iterations =  8.2

     negative rho (up, down):  7.752E-01 0.000E+00

     total cpu time spent up to now is      155.9 secs

     total energy              =   -4440.45355578 Ry
     estimated scf accuracy    <       3.02302997 Ry

     iteration # 12     ecut=    60.00 Ry     beta= 0.15
     Davidson diagonalization with overlap

---- Real-time Memory Report at c_bands before calling an iterative solver
             0 MiB given to the printing process from OS
             0 MiB allocation reported by mallinfo(arena+hblkhd)
         50707 MiB available memory on the node where the printing process lives
------------------
     ethr =  7.03E-04,  avg # of iterations =  8.1

     negative rho (up, down):  7.809E-01 0.000E+00

     total cpu time spent up to now is      172.9 secs

     total energy              =   -4440.49559538 Ry
     estimated scf accuracy    <       1.55907476 Ry

     iteration # 13     ecut=    60.00 Ry     beta= 0.15
     Davidson diagonalization with overlap

---- Real-time Memory Report at c_bands before calling an iterative solver
             0 MiB given to the printing process from OS
             0 MiB allocation reported by mallinfo(arena+hblkhd)
         50690 MiB available memory on the node where the printing process lives
------------------
     ethr =  3.63E-04,  avg # of iterations =  8.9

     negative rho (up, down):  7.969E-01 0.000E+00

     total cpu time spent up to now is      191.1 secs

     total energy              =   -4440.49478592 Ry
     estimated scf accuracy    <       1.06741486 Ry

     iteration # 14     ecut=    60.00 Ry     beta= 0.15
     Davidson diagonalization with overlap

---- Real-time Memory Report at c_bands before calling an iterative solver
             0 MiB given to the printing process from OS
             0 MiB allocation reported by mallinfo(arena+hblkhd)
         50500 MiB available memory on the node where the printing process lives
------------------
     ethr =  2.48E-04,  avg # of iterations =  4.1

     negative rho (up, down):  8.060E-01 0.000E+00

     total cpu time spent up to now is      205.9 secs

     total energy              =   -4440.35522731 Ry
     estimated scf accuracy    <       3.57723332 Ry

     iteration # 15     ecut=    60.00 Ry     beta= 0.15
     Davidson diagonalization with overlap

---- Real-time Memory Report at c_bands before calling an iterative solver
             0 MiB given to the printing process from OS
             0 MiB allocation reported by mallinfo(arena+hblkhd)
         50502 MiB available memory on the node where the printing process lives
------------------
     ethr =  2.48E-04,  avg # of iterations =  5.5

     negative rho (up, down):  8.187E-01 0.000E+00

     total cpu time spent up to now is      221.4 secs

     total energy              =   -4440.41218825 Ry
     estimated scf accuracy    <       0.76608487 Ry

     iteration # 16     ecut=    60.00 Ry     beta= 0.15
     Davidson diagonalization with overlap

---- Real-time Memory Report at c_bands before calling an iterative solver
             0 MiB given to the printing process from OS
             0 MiB allocation reported by mallinfo(arena+hblkhd)
         50523 MiB available memory on the node where the printing process lives
------------------
     ethr =  1.78E-04,  avg # of iterations =  5.5

     negative rho (up, down):  8.200E-01 0.000E+00

     total cpu time spent up to now is      237.8 secs

     total energy              =   -4440.38717422 Ry
     estimated scf accuracy    <       0.42501090 Ry

     iteration # 17     ecut=    60.00 Ry     beta= 0.15
     Davidson diagonalization with overlap

---- Real-time Memory Report at c_bands before calling an iterative solver
             0 MiB given to the printing process from OS
             0 MiB allocation reported by mallinfo(arena+hblkhd)
         50512 MiB available memory on the node where the printing process lives
------------------
     c_bands:  1 eigenvalues not converged
     ethr =  9.88E-05,  avg # of iterations =  9.1

     negative rho (up, down):  8.191E-01 0.000E+00

     total cpu time spent up to now is      255.6 secs

     total energy              =   -4440.36637143 Ry
     estimated scf accuracy    <       0.30697119 Ry

     iteration # 18     ecut=    60.00 Ry     beta= 0.15
     Davidson diagonalization with overlap

---- Real-time Memory Report at c_bands before calling an iterative solver
             0 MiB given to the printing process from OS
             0 MiB allocation reported by mallinfo(arena+hblkhd)
         50551 MiB available memory on the node where the printing process lives
------------------
     c_bands:  1 eigenvalues not converged
     ethr =  7.14E-05,  avg # of iterations =  5.7

     negative rho (up, down):  8.175E-01 0.000E+00

     total cpu time spent up to now is      272.3 secs

     total energy              =   -4440.35555731 Ry
     estimated scf accuracy    <       0.27717338 Ry

     iteration # 19     ecut=    60.00 Ry     beta= 0.15
     Davidson diagonalization with overlap

---- Real-time Memory Report at c_bands before calling an iterative solver
             0 MiB given to the printing process from OS
             0 MiB allocation reported by mallinfo(arena+hblkhd)
         50590 MiB available memory on the node where the printing process lives
------------------
     c_bands:  1 eigenvalues not converged
     ethr =  6.45E-05,  avg # of iterations =  7.0

     negative rho (up, down):  8.119E-01 0.000E+00

     total cpu time spent up to now is      288.5 secs

     total energy              =   -4440.34327955 Ry
     estimated scf accuracy    <       0.17067600 Ry

     iteration # 20     ecut=    60.00 Ry     beta= 0.15
     Davidson diagonalization with overlap

---- Real-time Memory Report at c_bands before calling an iterative solver
             0 MiB given to the printing process from OS
             0 MiB allocation reported by mallinfo(arena+hblkhd)
         50607 MiB available memory on the node where the printing process lives
------------------
     c_bands:  1 eigenvalues not converged
     ethr =  3.97E-05,  avg # of iterations = 13.1

     negative rho (up, down):  8.116E-01 0.000E+00

     total cpu time spent up to now is      307.7 secs

     total energy              =   -4440.32048551 Ry
     estimated scf accuracy    <       0.11613206 Ry

     iteration # 21     ecut=    60.00 Ry     beta= 0.15
     Davidson diagonalization with overlap

---- Real-time Memory Report at c_bands before calling an iterative solver
             0 MiB given to the printing process from OS
             0 MiB allocation reported by mallinfo(arena+hblkhd)
         50571 MiB available memory on the node where the printing process lives
------------------
     ethr =  2.70E-05,  avg # of iterations = 10.0

     negative rho (up, down):  8.182E-01 0.000E+00

     total cpu time spent up to now is      326.5 secs

     total energy              =   -4440.31406449 Ry
     estimated scf accuracy    <       0.07879671 Ry

     iteration # 22     ecut=    60.00 Ry     beta= 0.15
     Davidson diagonalization with overlap

---- Real-time Memory Report at c_bands before calling an iterative solver
             0 MiB given to the printing process from OS
             0 MiB allocation reported by mallinfo(arena+hblkhd)
         50434 MiB available memory on the node where the printing process lives
------------------
     ethr =  1.83E-05,  avg # of iterations =  7.3

     negative rho (up, down):  8.285E-01 0.000E+00

     total cpu time spent up to now is      343.3 secs

     total energy              =   -4440.31122021 Ry
     estimated scf accuracy    <       0.04058045 Ry

     iteration # 23     ecut=    60.00 Ry     beta= 0.15
     Davidson diagonalization with overlap

---- Real-time Memory Report at c_bands before calling an iterative solver
             0 MiB given to the printing process from OS
             0 MiB allocation reported by mallinfo(arena+hblkhd)
         50461 MiB available memory on the node where the printing process lives
------------------
     ethr =  9.44E-06,  avg # of iterations =  9.2

     negative rho (up, down):  8.207E-01 0.000E+00

     total cpu time spent up to now is      361.4 secs

     total energy              =   -4440.30987730 Ry
     estimated scf accuracy    <       0.02685521 Ry

     iteration # 24     ecut=    60.00 Ry     beta= 0.15
     Davidson diagonalization with overlap

---- Real-time Memory Report at c_bands before calling an iterative solver
             0 MiB given to the printing process from OS
             0 MiB allocation reported by mallinfo(arena+hblkhd)
         50443 MiB available memory on the node where the printing process lives
------------------
     ethr =  6.25E-06,  avg # of iterations =  2.1

     negative rho (up, down):  8.005E-01 0.000E+00

     total cpu time spent up to now is      375.5 secs

     total energy              =   -4440.30689290 Ry
     estimated scf accuracy    <       0.01962715 Ry

     iteration # 25     ecut=    60.00 Ry     beta= 0.15
     Davidson diagonalization with overlap

---- Real-time Memory Report at c_bands before calling an iterative solver
             0 MiB given to the printing process from OS
             0 MiB allocation reported by mallinfo(arena+hblkhd)
         50437 MiB available memory on the node where the printing process lives
------------------
     c_bands:  1 eigenvalues not converged
     ethr =  4.56E-06,  avg # of iterations =  4.3

     negative rho (up, down):  7.938E-01 0.000E+00

     total cpu time spent up to now is      390.8 secs

     total energy              =   -4440.30479986 Ry
     estimated scf accuracy    <       0.01173375 Ry

     iteration # 26     ecut=    60.00 Ry     beta= 0.15
     Davidson diagonalization with overlap

---- Real-time Memory Report at c_bands before calling an iterative solver
             0 MiB given to the printing process from OS
             0 MiB allocation reported by mallinfo(arena+hblkhd)
         50447 MiB available memory on the node where the printing process lives
------------------
     ethr =  2.73E-06,  avg # of iterations = 12.6

     negative rho (up, down):  7.941E-01 0.000E+00

     total cpu time spent up to now is      410.5 secs

     total energy              =   -4440.30455923 Ry
     estimated scf accuracy    <       0.00514148 Ry

     iteration # 27     ecut=    60.00 Ry     beta= 0.15
     Davidson diagonalization with overlap

---- Real-time Memory Report at c_bands before calling an iterative solver
             0 MiB given to the printing process from OS
             0 MiB allocation reported by mallinfo(arena+hblkhd)
         50366 MiB available memory on the node where the printing process lives
------------------
     ethr =  1.20E-06,  avg # of iterations =  4.2

     negative rho (up, down):  7.947E-01 0.000E+00

     total cpu time spent up to now is      425.7 secs

     total energy              =   -4440.30453814 Ry
     estimated scf accuracy    <       0.00237761 Ry

     iteration # 28     ecut=    60.00 Ry     beta= 0.15
     Davidson diagonalization with overlap

---- Real-time Memory Report at c_bands before calling an iterative solver
             0 MiB given to the printing process from OS
             0 MiB allocation reported by mallinfo(arena+hblkhd)
         50370 MiB available memory on the node where the printing process lives
------------------
     ethr =  5.53E-07,  avg # of iterations =  8.6

     negative rho (up, down):  7.988E-01 0.000E+00

     total cpu time spent up to now is      442.8 secs

     total energy              =   -4440.30475630 Ry
     estimated scf accuracy    <       0.00092895 Ry

     iteration # 29     ecut=    60.00 Ry     beta= 0.15
     Davidson diagonalization with overlap

---- Real-time Memory Report at c_bands before calling an iterative solver
             0 MiB given to the printing process from OS
             0 MiB allocation reported by mallinfo(arena+hblkhd)
         50436 MiB available memory on the node where the printing process lives
------------------
     c_bands:  1 eigenvalues not converged
     ethr =  2.16E-07,  avg # of iterations =  9.1

     negative rho (up, down):  7.975E-01 0.000E+00

     total cpu time spent up to now is      460.3 secs

     total energy              =   -4440.30475393 Ry
     estimated scf accuracy    <       0.00053125 Ry

     iteration # 30     ecut=    60.00 Ry     beta= 0.15
     Davidson diagonalization with overlap

---- Real-time Memory Report at c_bands before calling an iterative solver
             0 MiB given to the printing process from OS
             0 MiB allocation reported by mallinfo(arena+hblkhd)
         50350 MiB available memory on the node where the printing process lives
------------------
     ethr =  1.24E-07,  avg # of iterations =  2.3

     negative rho (up, down):  7.982E-01 0.000E+00

     total cpu time spent up to now is      474.9 secs

     total energy              =   -4440.30478397 Ry
     estimated scf accuracy    <       0.00028252 Ry

     iteration # 31     ecut=    60.00 Ry     beta= 0.15
     Davidson diagonalization with overlap

---- Real-time Memory Report at c_bands before calling an iterative solver
             0 MiB given to the printing process from OS
             0 MiB allocation reported by mallinfo(arena+hblkhd)
         50351 MiB available memory on the node where the printing process lives
------------------
     ethr =  6.57E-08,  avg # of iterations =  5.6

     negative rho (up, down):  7.949E-01 0.000E+00

     total cpu time spent up to now is      490.7 secs

     total energy              =   -4440.30474137 Ry
     estimated scf accuracy    <       0.00012118 Ry

     iteration # 32     ecut=    60.00 Ry     beta= 0.15
     Davidson diagonalization with overlap

---- Real-time Memory Report at c_bands before calling an iterative solver
             0 MiB given to the printing process from OS
             0 MiB allocation reported by mallinfo(arena+hblkhd)
         50392 MiB available memory on the node where the printing process lives
------------------
     ethr =  2.82E-08,  avg # of iterations =  5.8

     negative rho (up, down):  7.935E-01 0.000E+00

     total cpu time spent up to now is      506.9 secs

     total energy              =   -4440.30472829 Ry
     estimated scf accuracy    <       0.00007325 Ry

     iteration # 33     ecut=    60.00 Ry     beta= 0.15
     Davidson diagonalization with overlap

---- Real-time Memory Report at c_bands before calling an iterative solver
             0 MiB given to the printing process from OS
             0 MiB allocation reported by mallinfo(arena+hblkhd)
         50367 MiB available memory on the node where the printing process lives
------------------
     ethr =  1.70E-08,  avg # of iterations =  2.2

     negative rho (up, down):  7.927E-01 0.000E+00

     total cpu time spent up to now is      521.4 secs

     total energy              =   -4440.30473534 Ry
     estimated scf accuracy    <       0.00002983 Ry

     iteration # 34     ecut=    60.00 Ry     beta= 0.15
     Davidson diagonalization with overlap

---- Real-time Memory Report at c_bands before calling an iterative solver
             0 MiB given to the printing process from OS
             0 MiB allocation reported by mallinfo(arena+hblkhd)
         50400 MiB available memory on the node where the printing process lives
------------------
     ethr =  6.94E-09,  avg # of iterations =  2.5

     negative rho (up, down):  7.925E-01 0.000E+00

     total cpu time spent up to now is      535.8 secs

     total energy              =   -4440.30473715 Ry
     estimated scf accuracy    <       0.00001606 Ry

     iteration # 35     ecut=    60.00 Ry     beta= 0.15
     Davidson diagonalization with overlap

---- Real-time Memory Report at c_bands before calling an iterative solver
             0 MiB given to the printing process from OS
             0 MiB allocation reported by mallinfo(arena+hblkhd)
         50392 MiB available memory on the node where the printing process lives
------------------
     ethr =  3.73E-09,  avg # of iterations =  2.0

     negative rho (up, down):  7.922E-01 0.000E+00

     total cpu time spent up to now is      549.9 secs

     total energy              =   -4440.30473745 Ry
     estimated scf accuracy    <       0.00001303 Ry

     iteration # 36     ecut=    60.00 Ry     beta= 0.15
     Davidson diagonalization with overlap

---- Real-time Memory Report at c_bands before calling an iterative solver
             0 MiB given to the printing process from OS
             0 MiB allocation reported by mallinfo(arena+hblkhd)
         50396 MiB available memory on the node where the printing process lives
------------------
     ethr =  3.03E-09,  avg # of iterations =  2.3

     negative rho (up, down):  7.922E-01 0.000E+00

     total cpu time spent up to now is      564.2 secs

     total energy              =   -4440.30473659 Ry
     estimated scf accuracy    <       0.00000925 Ry

     iteration # 37     ecut=    60.00 Ry     beta= 0.15
     Davidson diagonalization with overlap

---- Real-time Memory Report at c_bands before calling an iterative solver
             0 MiB given to the printing process from OS
             0 MiB allocation reported by mallinfo(arena+hblkhd)
         50407 MiB available memory on the node where the printing process lives
------------------
     ethr =  2.15E-09,  avg # of iterations =  2.0

     negative rho (up, down):  7.922E-01 0.000E+00

     total cpu time spent up to now is      578.4 secs

     total energy              =   -4440.30473628 Ry
     estimated scf accuracy    <       0.00000796 Ry

     iteration # 38     ecut=    60.00 Ry     beta= 0.15
     Davidson diagonalization with overlap

---- Real-time Memory Report at c_bands before calling an iterative solver
             0 MiB given to the printing process from OS
             0 MiB allocation reported by mallinfo(arena+hblkhd)
         50423 MiB available memory on the node where the printing process lives
------------------
     ethr =  1.85E-09,  avg # of iterations =  1.0

     negative rho (up, down):  7.924E-01 0.000E+00

     total cpu time spent up to now is      591.6 secs

     total energy              =   -4440.30473576 Ry
     estimated scf accuracy    <       0.00000717 Ry

     iteration # 39     ecut=    60.00 Ry     beta= 0.15
     Davidson diagonalization with overlap

---- Real-time Memory Report at c_bands before calling an iterative solver
             0 MiB given to the printing process from OS
             0 MiB allocation reported by mallinfo(arena+hblkhd)
         50424 MiB available memory on the node where the printing process lives
------------------
     ethr =  1.67E-09,  avg # of iterations =  2.0

     negative rho (up, down):  7.924E-01 0.000E+00

     total cpu time spent up to now is      606.1 secs

     total energy              =   -4440.30473744 Ry
     estimated scf accuracy    <       0.00000385 Ry

     iteration # 40     ecut=    60.00 Ry     beta= 0.15
     Davidson diagonalization with overlap

---- Real-time Memory Report at c_bands before calling an iterative solver
             0 MiB given to the printing process from OS
             0 MiB allocation reported by mallinfo(arena+hblkhd)
         50433 MiB available memory on the node where the printing process lives
------------------
     ethr =  8.96E-10,  avg # of iterations =  1.9

     negative rho (up, down):  7.926E-01 0.000E+00

     total cpu time spent up to now is      620.7 secs

     total energy              =   -4440.30473777 Ry
     estimated scf accuracy    <       0.00000347 Ry

     iteration # 41     ecut=    60.00 Ry     beta= 0.15
     Davidson diagonalization with overlap

---- Real-time Memory Report at c_bands before calling an iterative solver
             0 MiB given to the printing process from OS
             0 MiB allocation reported by mallinfo(arena+hblkhd)
         50440 MiB available memory on the node where the printing process lives
------------------
     ethr =  8.07E-10,  avg # of iterations =  2.7

     negative rho (up, down):  7.928E-01 0.000E+00

     total cpu time spent up to now is      635.6 secs

     total energy              =   -4440.30473764 Ry
     estimated scf accuracy    <       0.00000154 Ry

     iteration # 42     ecut=    60.00 Ry     beta= 0.15
     Davidson diagonalization with overlap

---- Real-time Memory Report at c_bands before calling an iterative solver
             0 MiB given to the printing process from OS
             0 MiB allocation reported by mallinfo(arena+hblkhd)
         50439 MiB available memory on the node where the printing process lives
------------------
     ethr =  3.57E-10,  avg # of iterations =  2.8

     negative rho (up, down):  7.928E-01 0.000E+00

     total cpu time spent up to now is      650.5 secs

     total energy              =   -4440.30473751 Ry
     estimated scf accuracy    <       0.00000100 Ry

     iteration # 43     ecut=    60.00 Ry     beta= 0.15
     Davidson diagonalization with overlap

---- Real-time Memory Report at c_bands before calling an iterative solver
             0 MiB given to the printing process from OS
             0 MiB allocation reported by mallinfo(arena+hblkhd)
         50441 MiB available memory on the node where the printing process lives
------------------
     ethr =  2.33E-10,  avg # of iterations =  1.8

     negative rho (up, down):  7.927E-01 0.000E+00

     total cpu time spent up to now is      664.8 secs

     total energy              =   -4440.30473773 Ry
     estimated scf accuracy    <       0.00000072 Ry

     iteration # 44     ecut=    60.00 Ry     beta= 0.15
     Davidson diagonalization with overlap

---- Real-time Memory Report at c_bands before calling an iterative solver
             0 MiB given to the printing process from OS
             0 MiB allocation reported by mallinfo(arena+hblkhd)
         50439 MiB available memory on the node where the printing process lives
------------------
     ethr =  1.67E-10,  avg # of iterations =  2.0

     negative rho (up, down):  7.927E-01 0.000E+00

     total cpu time spent up to now is      679.6 secs

     total energy              =   -4440.30473786 Ry
     estimated scf accuracy    <       0.00000035 Ry

     iteration # 45     ecut=    60.00 Ry     beta= 0.15
     Davidson diagonalization with overlap

---- Real-time Memory Report at c_bands before calling an iterative solver
             0 MiB given to the printing process from OS
             0 MiB allocation reported by mallinfo(arena+hblkhd)
         50444 MiB available memory on the node where the printing process lives
------------------
     ethr =  8.25E-11,  avg # of iterations =  2.5

     negative rho (up, down):  7.926E-01 0.000E+00

     total cpu time spent up to now is      693.9 secs

     total energy              =   -4440.30473810 Ry
     estimated scf accuracy    <       0.00000019 Ry

     iteration # 46     ecut=    60.00 Ry     beta= 0.15
     Davidson diagonalization with overlap

---- Real-time Memory Report at c_bands before calling an iterative solver
             0 MiB given to the printing process from OS
             0 MiB allocation reported by mallinfo(arena+hblkhd)
         50442 MiB available memory on the node where the printing process lives
------------------
     ethr =  4.31E-11,  avg # of iterations =  3.9

     negative rho (up, down):  7.926E-01 0.000E+00

     total cpu time spent up to now is      709.4 secs

     total energy              =   -4440.30473812 Ry
     estimated scf accuracy    <       0.00000005 Ry

     iteration # 47     ecut=    60.00 Ry     beta= 0.15
     Davidson diagonalization with overlap

---- Real-time Memory Report at c_bands before calling an iterative solver
             0 MiB given to the printing process from OS
             0 MiB allocation reported by mallinfo(arena+hblkhd)
         50422 MiB available memory on the node where the printing process lives
------------------
     ethr =  1.27E-11,  avg # of iterations =  2.0

     negative rho (up, down):  7.926E-01 0.000E+00

     total cpu time spent up to now is      723.7 secs

     total energy              =   -4440.30473809 Ry
     estimated scf accuracy    <       0.00000003 Ry

     iteration # 48     ecut=    60.00 Ry     beta= 0.15
     Davidson diagonalization with overlap

---- Real-time Memory Report at c_bands before calling an iterative solver
             0 MiB given to the printing process from OS
             0 MiB allocation reported by mallinfo(arena+hblkhd)
         50438 MiB available memory on the node where the printing process lives
------------------
     ethr =  7.54E-12,  avg # of iterations =  2.0

     negative rho (up, down):  7.926E-01 0.000E+00

     total cpu time spent up to now is      738.2 secs

     total energy              =   -4440.30473808 Ry
     estimated scf accuracy    <       0.00000001 Ry

     iteration # 49     ecut=    60.00 Ry     beta= 0.15
     Davidson diagonalization with overlap

---- Real-time Memory Report at c_bands before calling an iterative solver
             0 MiB given to the printing process from OS
             0 MiB allocation reported by mallinfo(arena+hblkhd)
         50431 MiB available memory on the node where the printing process lives
------------------
     ethr =  2.87E-12,  avg # of iterations =  2.5

     negative rho (up, down):  7.926E-01 0.000E+00

     total cpu time spent up to now is      752.8 secs

     End of self-consistent calculation

          k = 0.0000 0.0000 0.0000 ( 65197 PWs)   bands (ev):

   -92.8761 -92.8246 -92.7298 -92.6828 -92.6266 -92.5824 -92.5651 -92.4444
   -56.2297 -56.2113 -56.0867 -56.0764 -56.0693 -56.0633 -56.0288 -55.9988
   -55.9840 -55.9823 -55.9745 -55.9333 -55.9139 -55.8775 -55.8564 -55.8264
   -55.8177 -55.7703 -55.7689 -55.7673 -55.7589 -55.7195 -55.6951 -55.6110
   -31.4396 -31.4189 -31.2793 -31.2447 -31.2049 -31.1914 -30.9041 -30.6760
   -30.0198 -29.9759 -29.9528 -29.8424 -15.2521 -15.2024 -15.1267 -14.9963
   -14.7984 -14.6733 -14.3872 -14.3686 -14.3376 -14.2933 -14.2462 -14.2350
   -14.2235 -14.2036 -14.1729 -14.1514 -14.1002 -13.9482 -13.7681 -13.7358
   -13.7056 -13.6747 -13.6569 -13.5977 -13.5663 -13.4820 -13.4147 -13.2894
   -13.2715 -13.2669 -13.2393 -13.2371 -13.2200 -13.1740 -13.1650 -13.1410
   -13.1193 -13.0858 -13.0818 -13.0614 -13.0602 -13.0418 -12.9217 -12.8863
   -12.8648 -12.6759 -12.6410 -12.5891 -12.5060 -12.3602 -12.1329 -12.0651
   -12.0329 -11.9671 -11.9585 -11.9486 -11.9240 -11.9071 -11.8436 -11.8268
   -11.7907 -11.7633 -11.6506 -11.5717 -11.5680  -3.1131  -2.8814  -2.6519
    -2.5043  -2.4421  -2.3005  -1.9927  -1.9786  -1.9599  -1.8744  -1.8535
    -1.7858  -1.7693  -1.7288  -1.6852  -1.5021  -1.2776  -1.2476  -1.1031
    -1.0883  -1.0386  -1.0230  -0.9757  -0.9579  -0.9056  -0.8790  -0.8024
    -0.7896  -0.7190  -0.5833  -0.5698  -0.5439  -0.4627  -0.4366  -0.4312
    -0.3661  -0.2978  -0.2391  -0.1996  -0.1667  -0.0989  -0.0309   0.0095
     0.0369   0.0461   0.3043   0.3215   0.4946   0.5571   0.6271   0.6777
     0.7570   0.7723   0.7887   0.8549   0.8805   0.9166   0.9720   1.1014
     1.1655   1.1848   1.2071   1.2190   1.2823   1.3479   1.4614   1.4738
     1.5437   1.5513   1.5947   1.6103   1.6194   1.6768   1.7340   1.7522
     1.7917   1.8343   1.8590   1.9904   2.0795   2.1164   2.1417   2.2901
     2.3059   2.3389   2.3448   2.4525   2.4865   2.5128   2.5321   2.5460
     2.5547   2.6282   2.6524   2.6605   2.7417   2.7673   2.7789   2.7849
     2.8537   2.8587   2.8804   2.8880   2.8980   2.9132   2.9173   2.9315
     2.9369   2.9490   2.9578   2.9665   2.9843   3.0049   3.0099   3.0223
     3.0584   3.1631   3.2556   3.9453   4.2670   4.6184   4.8313   4.8766
     5.7516   5.7866   5.8329   5.8610   6.1412   6.1881   6.4371   6.4476
     6.9453   6.9760   7.0802   7.1663   7.3454   7.5257   7.5534   7.5712
     7.7138   7.7993   7.8873   7.9025   8.0357   8.1345   8.3494   8.6043
     8.7554   8.9357

     occupation numbers 
     1.0000   1.0000   1.0000   1.0000   1.0000   1.0000   1.0000   1.0000
     1.0000   1.0000   1.0000   1.0000   1.0000   1.0000   1.0000   1.0000
     1.0000   1.0000   1.0000   1.0000   1.0000   1.0000   1.0000   1.0000
     1.0000   1.0000   1.0000   1.0000   1.0000   1.0000   1.0000   1.0000
     1.0000   1.0000   1.0000   1.0000   1.0000   1.0000   1.0000   1.0000
     1.0000   1.0000   1.0000   1.0000   1.0000   1.0000   1.0000   1.0000
     1.0000   1.0000   1.0000   1.0000   1.0000   1.0000   1.0000   1.0000
     1.0000   1.0000   1.0000   1.0000   1.0000   1.0000   1.0000   1.0000
     1.0000   1.0000   1.0000   1.0000   1.0000   1.0000   1.0000   1.0000
     1.0000   1.0000   1.0000   1.0000   1.0000   1.0000   1.0000   1.0000
     1.0000   1.0000   1.0000   1.0000   1.0000   1.0000   1.0000   1.0000
     1.0000   1.0000   1.0000   1.0000   1.0000   1.0000   1.0000   1.0000
     1.0000   1.0000   1.0000   1.0000   1.0000   1.0000   1.0000   1.0000
     1.0000   1.0000   1.0000   1.0000   1.0000   1.0000   1.0000   1.0000
     1.0000   1.0000   1.0000   1.0000   1.0000   1.0000   1.0000   1.0000
     1.0000   1.0000   1.0000   1.0000   1.0000   1.0000   1.0000   1.0000
     1.0000   1.0000   1.0000   1.0000   1.0000   1.0000   1.0000   1.0000
     1.0000   1.0000   1.0000   1.0000   1.0000   1.0000   1.0000   1.0000
     1.0000   1.0000   1.0000   1.0000   1.0000   1.0000   1.0000   1.0000
     1.0000   1.0000   1.0000   1.0000   1.0000   0.9999   0.9999   0.9999
     0.9998   0.9998   0.9998   0.9997   0.9996   0.9996   0.9994   0.9988
     0.9984   0.9983   0.9981   0.9980   0.9973   0.9963   0.9940   0.9937
     0.9916   0.9913   0.9897   0.9890   0.9886   0.9858   0.9824   0.9812
     0.9784   0.9749   0.9726   0.9578   0.9445   0.9381   0.9334   0.8999
     0.8957   0.8866   0.8849   0.8508   0.8388   0.8290   0.8217   0.8162
     0.8128   0.7820   0.7713   0.7677   0.7293   0.7165   0.7106   0.7076
     0.6715   0.6689   0.6571   0.6530   0.6474   0.6390   0.6367   0.6288
     0.6258   0.6190   0.6140   0.6090   0.5988   0.5869   0.5840   0.5768
     0.5558   0.4939   0.4393   0.1197   0.0490   0.0148   0.0063   0.0052
     0.0001   0.0000   0.0000   0.0000   0.0000   0.0000   0.0000   0.0000
     0.0000   0.0000   0.0000   0.0000   0.0000   0.0000   0.0000   0.0000
     0.0000   0.0000   0.0000   0.0000   0.0000   0.0000   0.0000   0.0000
     0.0000   0.0000

          k = 0.0000 0.2500 0.0000 ( 65257 PWs)   bands (ev):

   -92.8761 -92.8246 -92.7298 -92.6828 -92.6266 -92.5824 -92.5651 -92.4444
   -56.2297 -56.2113 -56.0867 -56.0764 -56.0693 -56.0633 -56.0288 -55.9988
   -55.9840 -55.9823 -55.9745 -55.9333 -55.9139 -55.8775 -55.8564 -55.8264
   -55.8177 -55.7703 -55.7689 -55.7673 -55.7589 -55.7195 -55.6951 -55.6110
   -31.4394 -31.4188 -31.2795 -31.2439 -31.2057 -31.1915 -30.9039 -30.6762
   -30.0192 -29.9756 -29.9535 -29.8427 -15.2158 -15.1763 -15.1014 -14.9671
   -14.8393 -14.6657 -14.5339 -14.3544 -14.3147 -14.2970 -14.2692 -14.2098
   -14.2018 -14.1871 -14.1642 -14.1157 -14.0187 -13.9770 -13.8151 -13.7917
   -13.7464 -13.7110 -13.6652 -13.6199 -13.5726 -13.5080 -13.4682 -13.3980
   -13.3316 -13.3092 -13.2710 -13.2580 -13.2185 -13.1571 -13.1352 -13.1043
   -13.0911 -13.0637 -13.0296 -12.9910 -12.9617 -12.9508 -12.9131 -12.8800
   -12.8470 -12.6283 -12.5679 -12.5651 -12.5359 -12.4114 -12.1881 -12.1304
   -11.9986 -11.9671 -11.9553 -11.9274 -11.9003 -11.8837 -11.8351 -11.8244
   -11.8018 -11.7661 -11.6654 -11.6133 -11.6027  -2.9777  -2.7571  -2.6190
    -2.4371  -2.3938  -2.2307  -2.0101  -1.9273  -1.9143  -1.8557  -1.7531
    -1.7355  -1.7032  -1.6753  -1.6311  -1.4336  -1.3048  -1.2930  -1.2166
    -1.2060  -1.1024  -1.0735  -1.0152  -0.9887  -0.9501  -0.8844  -0.8563
    -0.8257  -0.7911  -0.7749  -0.7421  -0.6684  -0.6191  -0.5502  -0.4362
    -0.4173  -0.3739  -0.2581  -0.2168  -0.1532  -0.1115  -0.0406  -0.0323
    -0.0087   0.0546   0.3540   0.4400   0.4720   0.5638   0.6115   0.6348
     0.7419   0.7619   0.8561   0.8838   0.9061   1.0203   1.1188   1.1391
     1.1628   1.1821   1.2056   1.2641   1.2925   1.3199   1.3669   1.4064
     1.4362   1.5227   1.5582   1.5992   1.6440   1.7024   1.7524   1.7779
     1.7976   1.8167   1.9106   2.0264   2.1022   2.1227   2.1892   2.2393
     2.2822   2.2929   2.3478   2.3823   2.4687   2.5077   2.5239   2.5545
     2.6461   2.6628   2.6944   2.7187   2.7489   2.7705   2.7864   2.7942
     2.8021   2.8139   2.8413   2.8430   2.8627   2.8668   2.8757   2.8946
     2.9084   2.9131   2.9350   2.9468   2.9512   2.9862   3.0028   3.0631
     3.4440   3.4785   3.7095   4.1357   4.2679   4.5520   4.8948   4.9945
     5.5179   5.6361   5.8149   5.9120   5.9499   5.9881   6.0709   6.5524
     7.0067   7.0341   7.1988   7.2462   7.3513   7.4099   7.5488   7.5899
     7.7650   7.8891   8.0743   8.1530   8.2935   8.2999   8.3279   8.4075
     8.6188   8.8212

     occupation numbers 
     1.0000   1.0000   1.0000   1.0000   1.0000   1.0000   1.0000   1.0000
     1.0000   1.0000   1.0000   1.0000   1.0000   1.0000   1.0000   1.0000
     1.0000   1.0000   1.0000   1.0000   1.0000   1.0000   1.0000   1.0000
     1.0000   1.0000   1.0000   1.0000   1.0000   1.0000   1.0000   1.0000
     1.0000   1.0000   1.0000   1.0000   1.0000   1.0000   1.0000   1.0000
     1.0000   1.0000   1.0000   1.0000   1.0000   1.0000   1.0000   1.0000
     1.0000   1.0000   1.0000   1.0000   1.0000   1.0000   1.0000   1.0000
     1.0000   1.0000   1.0000   1.0000   1.0000   1.0000   1.0000   1.0000
     1.0000   1.0000   1.0000   1.0000   1.0000   1.0000   1.0000   1.0000
     1.0000   1.0000   1.0000   1.0000   1.0000   1.0000   1.0000   1.0000
     1.0000   1.0000   1.0000   1.0000   1.0000   1.0000   1.0000   1.0000
     1.0000   1.0000   1.0000   1.0000   1.0000   1.0000   1.0000   1.0000
     1.0000   1.0000   1.0000   1.0000   1.0000   1.0000   1.0000   1.0000
     1.0000   1.0000   1.0000   1.0000   1.0000   1.0000   1.0000   1.0000
     1.0000   1.0000   1.0000   1.0000   1.0000   1.0000   1.0000   1.0000
     1.0000   1.0000   1.0000   1.0000   1.0000   1.0000   1.0000   1.0000
     1.0000   1.0000   1.0000   1.0000   1.0000   1.0000   1.0000   1.0000
     1.0000   1.0000   1.0000   1.0000   1.0000   1.0000   1.0000   1.0000
     1.0000   1.0000   1.0000   1.0000   1.0000   1.0000   1.0000   1.0000
     1.0000   1.0000   1.0000   1.0000   1.0000   0.9999   0.9999   0.9999
     0.9998   0.9998   0.9997   0.9996   0.9996   0.9992   0.9987   0.9986
     0.9984   0.9983   0.9981   0.9975   0.9971   0.9968   0.9960   0.9952
     0.9946   0.9923   0.9911   0.9895   0.9875   0.9844   0.9812   0.9794
     0.9779   0.9764   0.9674   0.9528   0.9406   0.9369   0.9238   0.9125
     0.9020   0.8992   0.8840   0.8737   0.8452   0.8309   0.8248   0.8128
     0.7741   0.7666   0.7520   0.7404   0.7257   0.7149   0.7068   0.7028
     0.6987   0.6926   0.6782   0.6773   0.6667   0.6645   0.6597   0.6493
     0.6417   0.6391   0.6269   0.6202   0.6177   0.5977   0.5881   0.5530
     0.3327   0.3144   0.2042   0.0722   0.0489   0.0189   0.0048   0.0031
     0.0002   0.0001   0.0000   0.0000   0.0000   0.0000   0.0000   0.0000
     0.0000   0.0000   0.0000   0.0000   0.0000   0.0000   0.0000   0.0000
     0.0000   0.0000   0.0000   0.0000   0.0000   0.0000   0.0000   0.0000
     0.0000   0.0000

          k = 0.0000-0.5000 0.0000 ( 65180 PWs)   bands (ev):

   -92.8761 -92.8246 -92.7298 -92.6828 -92.6266 -92.5824 -92.5651 -92.4444
   -56.2297 -56.2113 -56.0867 -56.0764 -56.0693 -56.0633 -56.0288 -55.9988
   -55.9840 -55.9823 -55.9745 -55.9333 -55.9139 -55.8775 -55.8564 -55.8264
   -55.8177 -55.7703 -55.7689 -55.7673 -55.7589 -55.7195 -55.6951 -55.6110
   -31.4392 -31.4186 -31.2797 -31.2431 -31.2065 -31.1917 -30.9038 -30.6763
   -30.0185 -29.9753 -29.9541 -29.8431 -15.1787 -15.1295 -15.0768 -14.9425
   -14.8672 -14.7249 -14.5757 -14.4395 -14.3273 -14.2545 -14.2107 -14.2053
   -14.1522 -14.1385 -14.0923 -14.0671 -14.0450 -14.0054 -13.9540 -13.9265
   -13.7534 -13.6945 -13.6712 -13.6256 -13.5690 -13.5260 -13.4716 -13.4435
   -13.4145 -13.3789 -13.2719 -13.2591 -13.1830 -13.1792 -13.1305 -13.1115
   -13.0913 -13.0457 -12.9659 -12.9386 -12.9088 -12.8713 -12.8653 -12.8285
   -12.8150 -12.6784 -12.6091 -12.4866 -12.4610 -12.3546 -12.2846 -12.2706
   -11.9685 -11.9523 -11.9490 -11.9224 -11.8872 -11.8520 -11.8407 -11.7967
   -11.7927 -11.7461 -11.6880 -11.6742 -11.6598  -2.7634  -2.7034  -2.5539
    -2.4822  -2.1999  -2.1153  -1.9902  -1.8527  -1.8153  -1.7955  -1.7174
    -1.6837  -1.6040  -1.5674  -1.4894  -1.4504  -1.4122  -1.3845  -1.3253
    -1.2902  -1.2382  -1.2059  -1.1746  -1.1366  -1.0307  -0.9856  -0.9486
    -0.9479  -0.8604  -0.8286  -0.8054  -0.7547  -0.6718  -0.5959  -0.5096
    -0.4832  -0.3728  -0.3312  -0.2005  -0.1545  -0.1329  -0.0686   0.0642
     0.1052   0.2202   0.2924   0.2988   0.4258   0.4846   0.5996   0.7069
     0.8147   0.8460   0.8852   0.8934   0.9337   0.9458   0.9806   1.0011
     1.0066   1.1205   1.1818   1.2099   1.2359   1.4999   1.5315   1.5585
     1.6533   1.6821   1.7058   1.7216   1.7436   1.7690   1.7856   1.8079
     1.8361   1.8655   1.8966   1.9021   1.9323   1.9859   2.0718   2.1052
     2.2860   2.4298   2.4413   2.4611   2.4948   2.5021   2.5115   2.5533
     2.5659   2.5713   2.6233   2.6384   2.6544   2.6670   2.7338   2.7410
     2.8081   2.8186   2.8364   2.8415   2.8581   2.8660   2.8692   2.8731
     2.8747   2.8882   2.9049   2.9087   2.9705   2.9766   2.9925   3.0459
     3.9686   3.9954   4.0252   4.0967   4.5736   4.7398   4.9156   5.0034
     5.2939   5.3659   5.4987   5.5831   5.8602   5.8848   6.2316   6.6156
     6.7997   6.8931   7.1500   7.3061   7.5737   7.6344   7.6729   7.7409
     7.7816   7.8923   8.0975   8.1724   8.3377   8.3590   8.5224   8.5485
     8.6945   8.7716

     occupation numbers 
     1.0000   1.0000   1.0000   1.0000   1.0000   1.0000   1.0000   1.0000
     1.0000   1.0000   1.0000   1.0000   1.0000   1.0000   1.0000   1.0000
     1.0000   1.0000   1.0000   1.0000   1.0000   1.0000   1.0000   1.0000
     1.0000   1.0000   1.0000   1.0000   1.0000   1.0000   1.0000   1.0000
     1.0000   1.0000   1.0000   1.0000   1.0000   1.0000   1.0000   1.0000
     1.0000   1.0000   1.0000   1.0000   1.0000   1.0000   1.0000   1.0000
     1.0000   1.0000   1.0000   1.0000   1.0000   1.0000   1.0000   1.0000
     1.0000   1.0000   1.0000   1.0000   1.0000   1.0000   1.0000   1.0000
     1.0000   1.0000   1.0000   1.0000   1.0000   1.0000   1.0000   1.0000
     1.0000   1.0000   1.0000   1.0000   1.0000   1.0000   1.0000   1.0000
     1.0000   1.0000   1.0000   1.0000   1.0000   1.0000   1.0000   1.0000
     1.0000   1.0000   1.0000   1.0000   1.0000   1.0000   1.0000   1.0000
     1.0000   1.0000   1.0000   1.0000   1.0000   1.0000   1.0000   1.0000
     1.0000   1.0000   1.0000   1.0000   1.0000   1.0000   1.0000   1.0000
     1.0000   1.0000   1.0000   1.0000   1.0000   1.0000   1.0000   1.0000
     1.0000   1.0000   1.0000   1.0000   1.0000   1.0000   1.0000   1.0000
     1.0000   1.0000   1.0000   1.0000   1.0000   1.0000   1.0000   1.0000
     1.0000   1.0000   1.0000   1.0000   1.0000   1.0000   1.0000   1.0000
     1.0000   1.0000   1.0000   1.0000   1.0000   1.0000   1.0000   1.0000
     1.0000   1.0000   1.0000   1.0000   1.0000   1.0000   0.9999   0.9999
     0.9997   0.9997   0.9996   0.9996   0.9995   0.9995   0.9994   0.9993
     0.9993   0.9987   0.9983   0.9980   0.9978   0.9929   0.9920   0.9910
     0.9870   0.9855   0.9842   0.9832   0.9818   0.9801   0.9788   0.9771
     0.9747   0.9720   0.9689   0.9684   0.9650   0.9584   0.9458   0.9401
     0.9010   0.8585   0.8546   0.8478   0.8358   0.8331   0.8295   0.8133
     0.8083   0.8061   0.7842   0.7775   0.7704   0.7647   0.7331   0.7296
     0.6957   0.6901   0.6808   0.6781   0.6692   0.6649   0.6632   0.6611
     0.6602   0.6528   0.6436   0.6415   0.6067   0.6032   0.5941   0.5631
     0.1129   0.1054   0.0976   0.0805   0.0174   0.0092   0.0044   0.0030
     0.0007   0.0005   0.0002   0.0002   0.0000   0.0000   0.0000   0.0000
     0.0000   0.0000   0.0000   0.0000   0.0000   0.0000   0.0000   0.0000
     0.0000   0.0000   0.0000   0.0000   0.0000   0.0000   0.0000   0.0000
     0.0000   0.0000

          k = 0.2500 0.2500 0.0000 ( 65198 PWs)   bands (ev):

   -92.8761 -92.8246 -92.7298 -92.6828 -92.6266 -92.5824 -92.5651 -92.4444
   -56.2297 -56.2113 -56.0867 -56.0764 -56.0693 -56.0633 -56.0288 -55.9987
   -55.9840 -55.9823 -55.9745 -55.9333 -55.9139 -55.8775 -55.8564 -55.8264
   -55.8177 -55.7703 -55.7689 -55.7673 -55.7589 -55.7195 -55.6951 -55.6110
   -31.4378 -31.4203 -31.2792 -31.2439 -31.2056 -31.1919 -30.9040 -30.6762
   -30.0182 -29.9766 -29.9531 -29.8432 -15.1867 -15.1413 -15.0735 -14.9564
   -14.8334 -14.7068 -14.6401 -14.4284 -14.2778 -14.2628 -14.2260 -14.1974
   -14.1726 -14.1448 -14.1106 -14.0821 -14.0100 -13.9905 -13.8315 -13.8153
   -13.7885 -13.7668 -13.7112 -13.6782 -13.5972 -13.5917 -13.4432 -13.4169
   -13.3906 -13.3039 -13.2644 -13.2165 -13.2003 -13.1806 -13.1523 -13.1110
   -13.1056 -13.0780 -13.0251 -12.9937 -12.9082 -12.8793 -12.8728 -12.8394
   -12.7656 -12.6164 -12.6152 -12.5416 -12.5025 -12.4404 -12.2253 -12.1581
   -11.9724 -11.9663 -11.9387 -11.9272 -11.9213 -11.8578 -11.8250 -11.8173
   -11.7806 -11.7744 -11.6818 -11.6417 -11.6239  -2.8393  -2.6312  -2.5131
    -2.4183  -2.2984  -2.2337  -2.0348  -1.8915  -1.8731  -1.8424  -1.7480
    -1.7138  -1.6184  -1.5906  -1.5402  -1.4102  -1.3608  -1.2878  -1.2429
    -1.1996  -1.1765  -1.1528  -1.1097  -1.0942  -1.0029  -0.9526  -0.8851
    -0.8368  -0.8056  -0.7592  -0.7403  -0.6790  -0.6308  -0.5715  -0.5395
    -0.4514  -0.3978  -0.3690  -0.3335  -0.2773  -0.1916  -0.1636  -0.1351
    -0.0514  -0.0209   0.2412   0.3897   0.4226   0.4873   0.5276   0.5961
     0.6497   0.7062   0.7363   1.0083   1.0719   1.1446   1.1689   1.2216
     1.2499   1.2863   1.3228   1.3394   1.3662   1.4140   1.4215   1.4364
     1.4823   1.5241   1.5587   1.6259   1.6698   1.6726   1.7156   1.7429
     1.8018   1.8313   1.9511   2.0109   2.0421   2.0630   2.1381   2.2040
     2.2271   2.2606   2.2900   2.3034   2.4125   2.4480   2.5342   2.5549
     2.6524   2.6603   2.7053   2.7209   2.7270   2.7442   2.7583   2.7709
     2.7867   2.7921   2.8027   2.8154   2.8287   2.8458   2.8513   2.8639
     2.8869   2.8971   2.9062   2.9382   3.2378   3.3331   3.3778   3.4519
     3.4877   3.6897   3.7819   4.1411   4.3591   4.5601   4.8147   5.1337
     5.5058   5.5651   5.6004   5.6667   5.7289   6.0699   6.1105   6.1642
     6.8384   7.0492   7.1806   7.3690   7.4594   7.4880   7.5987   7.7637
     7.8608   8.0642   8.1927   8.2149   8.3321   8.3695   8.4275   8.4649
     8.5661   8.7056

     occupation numbers 
     1.0000   1.0000   1.0000   1.0000   1.0000   1.0000   1.0000   1.0000
     1.0000   1.0000   1.0000   1.0000   1.0000   1.0000   1.0000   1.0000
     1.0000   1.0000   1.0000   1.0000   1.0000   1.0000   1.0000   1.0000
     1.0000   1.0000   1.0000   1.0000   1.0000   1.0000   1.0000   1.0000
     1.0000   1.0000   1.0000   1.0000   1.0000   1.0000   1.0000   1.0000
     1.0000   1.0000   1.0000   1.0000   1.0000   1.0000   1.0000   1.0000
     1.0000   1.0000   1.0000   1.0000   1.0000   1.0000   1.0000   1.0000
     1.0000   1.0000   1.0000   1.0000   1.0000   1.0000   1.0000   1.0000
     1.0000   1.0000   1.0000   1.0000   1.0000   1.0000   1.0000   1.0000
     1.0000   1.0000   1.0000   1.0000   1.0000   1.0000   1.0000   1.0000
     1.0000   1.0000   1.0000   1.0000   1.0000   1.0000   1.0000   1.0000
     1.0000   1.0000   1.0000   1.0000   1.0000   1.0000   1.0000   1.0000
     1.0000   1.0000   1.0000   1.0000   1.0000   1.0000   1.0000   1.0000
     1.0000   1.0000   1.0000   1.0000   1.0000   1.0000   1.0000   1.0000
     1.0000   1.0000   1.0000   1.0000   1.0000   1.0000   1.0000   1.0000
     1.0000   1.0000   1.0000   1.0000   1.0000   1.0000   1.0000   1.0000
     1.0000   1.0000   1.0000   1.0000   1.0000   1.0000   1.0000   1.0000
     1.0000   1.0000   1.0000   1.0000   1.0000   1.0000   1.0000   1.0000
     1.0000   1.0000   1.0000   1.0000   1.0000   1.0000   1.0000   1.0000
     1.0000   1.0000   1.0000   1.0000   1.0000   1.0000   1.0000   0.9999
     0.9999   0.9999   0.9998   0.9993   0.9990   0.9986   0.9984   0.9979
     0.9976   0.9972   0.9967   0.9965   0.9960   0.9951   0.9949   0.9946
     0.9934   0.9922   0.9910   0.9883   0.9862   0.9860   0.9836   0.9819
     0.9776   0.9751   0.9628   0.9550   0.9505   0.9472   0.9341   0.9206
     0.9154   0.9074   0.8999   0.8964   0.8642   0.8524   0.8208   0.8127
     0.7713   0.7677   0.7468   0.7394   0.7364   0.7280   0.7210   0.7147
     0.7067   0.7039   0.6984   0.6918   0.6849   0.6758   0.6728   0.6661
     0.6535   0.6479   0.6429   0.6250   0.4498   0.3945   0.3692   0.3285
     0.3095   0.2127   0.1751   0.0711   0.0366   0.0183   0.0068   0.0016
     0.0002   0.0002   0.0001   0.0001   0.0001   0.0000   0.0000   0.0000
     0.0000   0.0000   0.0000   0.0000   0.0000   0.0000   0.0000   0.0000
     0.0000   0.0000   0.0000   0.0000   0.0000   0.0000   0.0000   0.0000
     0.0000   0.0000

          k = 0.2500-0.5000 0.0000 ( 65138 PWs)   bands (ev):

   -92.8761 -92.8246 -92.7298 -92.6828 -92.6266 -92.5824 -92.5651 -92.4444
   -56.2297 -56.2113 -56.0867 -56.0764 -56.0693 -56.0633 -56.0288 -55.9987
   -55.9840 -55.9823 -55.9745 -55.9333 -55.9139 -55.8775 -55.8564 -55.8264
   -55.8177 -55.7703 -55.7689 -55.7673 -55.7589 -55.7195 -55.6951 -55.6110
   -31.4377 -31.4202 -31.2794 -31.2431 -31.2064 -31.1921 -30.9039 -30.6764
   -30.0175 -29.9763 -29.9537 -29.8435 -15.1479 -15.1026 -15.0334 -14.9137
   -14.8887 -14.7669 -14.6782 -14.5402 -14.2430 -14.1872 -14.1617 -14.1383
   -14.1238 -14.1115 -14.0760 -14.0565 -14.0218 -13.9857 -13.9530 -13.9128
   -13.8347 -13.7846 -13.7275 -13.7064 -13.6346 -13.6125 -13.5024 -13.4659
   -13.3686 -13.3044 -13.2834 -13.2003 -13.1708 -13.1599 -13.1474 -13.1279
   -13.1053 -13.0750 -12.9782 -12.9575 -12.8833 -12.8555 -12.8417 -12.8185
   -12.7871 -12.6853 -12.6114 -12.4842 -12.4526 -12.3507 -12.2711 -12.2601
   -11.9684 -11.9458 -11.9336 -11.9233 -11.8970 -11.8642 -11.8373 -11.7939
   -11.7682 -11.7444 -11.7006 -11.6755 -11.6634  -2.6212  -2.5549  -2.4275
    -2.3508  -2.2201  -2.1353  -2.0143  -1.8638  -1.8102  -1.7874  -1.7239
    -1.7117  -1.6151  -1.5461  -1.4625  -1.4112  -1.4017  -1.3406  -1.2960
    -1.2627  -1.2153  -1.1770  -1.1420  -1.1034  -1.0921  -1.0455  -1.0150
    -0.9738  -0.9423  -0.8759  -0.7739  -0.7314  -0.6546  -0.5880  -0.5384
    -0.4978  -0.4769  -0.4198  -0.2594  -0.2480  -0.1435  -0.1096  -0.1016
    -0.0582  -0.0241   0.0193   0.0417   0.1048   0.3855   0.4875   0.5653
     0.6194   0.8713   0.8974   0.9833   1.0054   1.1690   1.2044   1.2448
     1.2656   1.2809   1.3018   1.3651   1.4134   1.4483   1.5309   1.6281
     1.6664   1.6821   1.6937   1.7311   1.7422   1.7522   1.7978   1.8067
     1.8331   1.8619   1.8780   1.8896   1.9298   1.9865   2.0252   2.1060
     2.2439   2.3824   2.3999   2.4202   2.4477   2.4721   2.4980   2.5179
     2.5291   2.5500   2.5657   2.6410   2.6618   2.6659   2.7094   2.7226
     2.7283   2.7421   2.7605   2.7741   2.7935   2.8032   2.8356   2.8464
     2.8598   2.8703   2.8780   2.8889   3.4221   3.4267   3.5699   3.6222
     3.9796   4.0234   4.0336   4.1516   4.5923   4.7606   4.9342   4.9688
     5.1432   5.3075   5.5146   5.5248   5.6389   5.6707   6.3157   6.3523
     6.4453   6.7052   7.2626   7.5938   7.6638   7.7171   7.7624   7.8085
     7.9262   7.9985   8.1393   8.3347   8.4086   8.4375   8.5536   8.5927
     8.6424   8.6771

     occupation numbers 
     1.0000   1.0000   1.0000   1.0000   1.0000   1.0000   1.0000   1.0000
     1.0000   1.0000   1.0000   1.0000   1.0000   1.0000   1.0000   1.0000
     1.0000   1.0000   1.0000   1.0000   1.0000   1.0000   1.0000   1.0000
     1.0000   1.0000   1.0000   1.0000   1.0000   1.0000   1.0000   1.0000
     1.0000   1.0000   1.0000   1.0000   1.0000   1.0000   1.0000   1.0000
     1.0000   1.0000   1.0000   1.0000   1.0000   1.0000   1.0000   1.0000
     1.0000   1.0000   1.0000   1.0000   1.0000   1.0000   1.0000   1.0000
     1.0000   1.0000   1.0000   1.0000   1.0000   1.0000   1.0000   1.0000
     1.0000   1.0000   1.0000   1.0000   1.0000   1.0000   1.0000   1.0000
     1.0000   1.0000   1.0000   1.0000   1.0000   1.0000   1.0000   1.0000
     1.0000   1.0000   1.0000   1.0000   1.0000   1.0000   1.0000   1.0000
     1.0000   1.0000   1.0000   1.0000   1.0000   1.0000   1.0000   1.0000
     1.0000   1.0000   1.0000   1.0000   1.0000   1.0000   1.0000   1.0000
     1.0000   1.0000   1.0000   1.0000   1.0000   1.0000   1.0000   1.0000
     1.0000   1.0000   1.0000   1.0000   1.0000   1.0000   1.0000   1.0000
     1.0000   1.0000   1.0000   1.0000   1.0000   1.0000   1.0000   1.0000
     1.0000   1.0000   1.0000   1.0000   1.0000   1.0000   1.0000   1.0000
     1.0000   1.0000   1.0000   1.0000   1.0000   1.0000   1.0000   1.0000
     1.0000   1.0000   1.0000   1.0000   1.0000   1.0000   1.0000   1.0000
     1.0000   1.0000   1.0000   1.0000   1.0000   1.0000   1.0000   0.9999
     0.9999   0.9996   0.9996   0.9994   0.9993   0.9984   0.9981   0.9977
     0.9975   0.9973   0.9970   0.9960   0.9951   0.9943   0.9920   0.9882
     0.9864   0.9855   0.9849   0.9826   0.9819   0.9812   0.9779   0.9772
     0.9750   0.9724   0.9708   0.9697   0.9653   0.9584   0.9530   0.9400
     0.9114   0.8737   0.8682   0.8617   0.8525   0.8439   0.8346   0.8271
     0.8228   0.8147   0.8083   0.7764   0.7670   0.7652   0.7449   0.7385
     0.7358   0.7290   0.7199   0.7131   0.7032   0.6982   0.6812   0.6754
     0.6682   0.6626   0.6584   0.6525   0.3447   0.3421   0.2679   0.2429
     0.1098   0.0981   0.0955   0.0690   0.0163   0.0085   0.0041   0.0035
     0.0016   0.0007   0.0002   0.0002   0.0001   0.0001   0.0000   0.0000
     0.0000   0.0000   0.0000   0.0000   0.0000   0.0000   0.0000   0.0000
     0.0000   0.0000   0.0000   0.0000   0.0000   0.0000   0.0000   0.0000
     0.0000   0.0000

          k =-0.5000-0.5000 0.0000 ( 65132 PWs)   bands (ev):

   -92.8761 -92.8246 -92.7298 -92.6828 -92.6266 -92.5824 -92.5651 -92.4444
   -56.2297 -56.2113 -56.0867 -56.0764 -56.0693 -56.0633 -56.0288 -55.9987
   -55.9840 -55.9823 -55.9745 -55.9333 -55.9139 -55.8775 -55.8564 -55.8264
   -55.8177 -55.7703 -55.7689 -55.7673 -55.7589 -55.7195 -55.6951 -55.6110
   -31.4357 -31.4221 -31.2790 -31.2430 -31.2063 -31.1924 -30.9040 -30.6764
   -30.0165 -29.9773 -29.9533 -29.8439 -15.1003 -15.0759 -14.9570 -14.9454
   -14.8521 -14.8141 -14.7781 -14.6422 -14.1524 -14.1386 -14.1066 -14.0892
   -14.0703 -14.0567 -14.0271 -14.0165 -14.0050 -13.9900 -13.9781 -13.9024
   -13.8908 -13.8617 -13.8272 -13.8076 -13.7208 -13.6684 -13.5363 -13.5082
   -13.3174 -13.2824 -13.2144 -13.1886 -13.1632 -13.1534 -13.1466 -13.1372
   -13.1259 -13.1161 -12.9862 -12.9663 -12.8746 -12.8575 -12.8355 -12.7687
   -12.7607 -12.7019 -12.6168 -12.4808 -12.4441 -12.3444 -12.2571 -12.2509
   -11.9683 -11.9428 -11.9303 -11.9122 -11.8961 -11.8599 -11.8410 -11.8106
   -11.7488 -11.7287 -11.7222 -11.6728 -11.6686  -2.3965  -2.3212  -2.3101
    -2.2391  -2.2010  -2.1227  -2.0551  -1.9289  -1.8147  -1.7834  -1.7443
    -1.6873  -1.6153  -1.6012  -1.5299  -1.4879  -1.3701  -1.3395  -1.2908
    -1.2653  -1.2007  -1.1526  -1.1338  -1.1206  -1.0668  -1.0253  -1.0078
    -0.8944  -0.8346  -0.7909  -0.7413  -0.7117  -0.7008  -0.6669  -0.6213
    -0.5867  -0.5785  -0.4904  -0.4230  -0.3822  -0.3511  -0.2807  -0.2195
    -0.1995  -0.1472  -0.1192  -0.1106  -0.0944   0.3582   0.4119   0.5139
     0.5434   0.9026   0.9181   0.9476   0.9866   1.2555   1.2755   1.2805
     1.3209   1.4464   1.5431   1.5696   1.6070   1.6350   1.6563   1.6628
     1.6929   1.7073   1.7300   1.7338   1.7787   1.7805   1.8112   1.8488
     1.8521   1.8688   1.9087   1.9265   1.9426   1.9731   2.0054   2.0616
     2.1305   2.3896   2.4261   2.4457   2.4647   2.4757   2.5059   2.5080
     2.5246   2.5340   2.5503   2.5634   2.5853   2.5937   2.6444   2.6550
     2.6582   2.6646   2.6806   2.7037   2.7098   2.7283   2.7308   2.7417
     2.8431   2.8491   2.8764   2.8857   3.8473   3.8739   3.9127   3.9320
     4.1460   4.2228   4.2449   4.4858   4.6082   4.6906   4.8241   4.9299
     4.9379   5.0339   5.1791   5.2475   5.8125   5.8585   5.8949   6.0053
     6.4611   6.8337   6.9477   7.6789   7.8456   7.8573   7.9367   8.0743
     8.1189   8.1588   8.2357   8.2620   8.3128   8.4615   8.5137   8.5288
     8.5423   8.6282

     occupation numbers 
     1.0000   1.0000   1.0000   1.0000   1.0000   1.0000   1.0000   1.0000
     1.0000   1.0000   1.0000   1.0000   1.0000   1.0000   1.0000   1.0000
     1.0000   1.0000   1.0000   1.0000   1.0000   1.0000   1.0000   1.0000
     1.0000   1.0000   1.0000   1.0000   1.0000   1.0000   1.0000   1.0000
     1.0000   1.0000   1.0000   1.0000   1.0000   1.0000   1.0000   1.0000
     1.0000   1.0000   1.0000   1.0000   1.0000   1.0000   1.0000   1.0000
     1.0000   1.0000   1.0000   1.0000   1.0000   1.0000   1.0000   1.0000
     1.0000   1.0000   1.0000   1.0000   1.0000   1.0000   1.0000   1.0000
     1.0000   1.0000   1.0000   1.0000   1.0000   1.0000   1.0000   1.0000
     1.0000   1.0000   1.0000   1.0000   1.0000   1.0000   1.0000   1.0000
     1.0000   1.0000   1.0000   1.0000   1.0000   1.0000   1.0000   1.0000
     1.0000   1.0000   1.0000   1.0000   1.0000   1.0000   1.0000   1.0000
     1.0000   1.0000   1.0000   1.0000   1.0000   1.0000   1.0000   1.0000
     1.0000   1.0000   1.0000   1.0000   1.0000   1.0000   1.0000   1.0000
     1.0000   1.0000   1.0000   1.0000   1.0000   1.0000   1.0000   1.0000
     1.0000   1.0000   1.0000   1.0000   1.0000   1.0000   1.0000   1.0000
     1.0000   1.0000   1.0000   1.0000   1.0000   1.0000   1.0000   1.0000
     1.0000   1.0000   1.0000   1.0000   1.0000   1.0000   1.0000   1.0000
     1.0000   1.0000   1.0000   1.0000   1.0000   1.0000   1.0000   1.0000
     1.0000   1.0000   1.0000   1.0000   1.0000   1.0000   1.0000   1.0000
     0.9999   0.9996   0.9995   0.9995   0.9994   0.9976   0.9973   0.9973
     0.9967   0.9944   0.9916   0.9906   0.9891   0.9879   0.9869   0.9865
     0.9849   0.9841   0.9827   0.9824   0.9793   0.9792   0.9768   0.9736
     0.9733   0.9717   0.9677   0.9657   0.9638   0.9601   0.9558   0.9474
     0.9355   0.8715   0.8597   0.8532   0.8466   0.8427   0.8316   0.8309
     0.8246   0.8209   0.8145   0.8093   0.8003   0.7968   0.7749   0.7701
     0.7687   0.7658   0.7584   0.7476   0.7447   0.7358   0.7346   0.7292
     0.6772   0.6740   0.6593   0.6542   0.1512   0.1422   0.1296   0.1236
     0.0701   0.0561   0.0525   0.0239   0.0153   0.0112   0.0065   0.0042
     0.0040   0.0026   0.0013   0.0009   0.0000   0.0000   0.0000   0.0000
     0.0000   0.0000   0.0000   0.0000   0.0000   0.0000   0.0000   0.0000
     0.0000   0.0000   0.0000   0.0000   0.0000   0.0000   0.0000   0.0000
     0.0000   0.0000

          k = 0.2500 0.0000 0.0000 ( 65257 PWs)   bands (ev):

   -92.8761 -92.8246 -92.7298 -92.6828 -92.6266 -92.5824 -92.5651 -92.4444
   -56.2297 -56.2113 -56.0867 -56.0764 -56.0693 -56.0633 -56.0288 -55.9988
   -55.9840 -55.9823 -55.9745 -55.9333 -55.9139 -55.8775 -55.8564 -55.8264
   -55.8177 -55.7703 -55.7689 -55.7673 -55.7589 -55.7195 -55.6951 -55.6110
   -31.4380 -31.4205 -31.2789 -31.2446 -31.2048 -31.1918 -30.9042 -30.6761
[...]
     0.6336   0.6208   0.6182   0.6142   0.6102   0.6046   0.5992   0.5225
     0.3474   0.3198   0.2038   0.0765   0.0433   0.0205   0.0049   0.0030
     0.0002   0.0001   0.0000   0.0000   0.0000   0.0000   0.0000   0.0000
     0.0000   0.0000   0.0000   0.0000   0.0000   0.0000   0.0000   0.0000
     0.0000   0.0000   0.0000   0.0000   0.0000   0.0000   0.0000   0.0000
     0.0000   0.0000

          k =-0.5000 0.0000 0.0000 ( 65180 PWs)   bands (ev):

   -92.8761 -92.8246 -92.7298 -92.6828 -92.6266 -92.5824 -92.5651 -92.4444
   -56.2297 -56.2113 -56.0867 -56.0764 -56.0693 -56.0633 -56.0288 -55.9987
   -55.9840 -55.9823 -55.9745 -55.9333 -55.9139 -55.8775 -55.8564 -55.8264
   -55.8177 -55.7703 -55.7689 -55.7673 -55.7589 -55.7195 -55.6951 -55.6110
   -31.4361 -31.4224 -31.2786 -31.2446 -31.2047 -31.1921 -30.9043 -30.6761
   -30.0178 -29.9779 -29.9520 -29.8432 -15.1847 -15.1296 -15.0673 -14.9622
   -14.8570 -14.7150 -14.5579 -14.4274 -14.3017 -14.2882 -14.2785 -14.2019
   -14.1573 -14.1247 -14.0756 -14.0715 -14.0526 -14.0056 -13.9908 -13.8681
   -13.7242 -13.6917 -13.6631 -13.6572 -13.5785 -13.5318 -13.4438 -13.4285
   -13.4046 -13.3847 -13.2406 -13.2171 -13.2051 -13.1831 -13.1722 -13.1169
   -13.1100 -13.0901 -13.0694 -13.0551 -12.8641 -12.8045 -12.7950 -12.7054
   -12.7038 -12.6653 -12.6148 -12.5791 -12.4986 -12.4900 -12.2566 -12.2090
   -11.9691 -11.9498 -11.9272 -11.9207 -11.9065 -11.8882 -11.8458 -11.7860
   -11.7690 -11.7361 -11.6886 -11.6795 -11.6648  -2.7528  -2.7151  -2.5516
    -2.5127  -2.1975  -2.1234  -1.9743  -1.8584  -1.8191  -1.7736  -1.7251
    -1.7016  -1.5767  -1.5334  -1.5158  -1.4348  -1.4003  -1.3811  -1.3530
    -1.2931  -1.2248  -1.1973  -1.1672  -1.0702  -1.0251  -0.9741  -0.9424
    -0.9213  -0.8912  -0.8441  -0.8189  -0.7768  -0.6796  -0.6047  -0.5396
    -0.4791  -0.3022  -0.2733  -0.2264  -0.1887  -0.1163  -0.1134   0.0342
     0.0602   0.1089   0.2692   0.3687   0.4174   0.5101   0.5916   0.6964
     0.7069   0.8419   0.8625   0.9168   0.9457   0.9873   0.9952   1.0390
     1.0650   1.1351   1.1817   1.2293   1.2353   1.5434   1.5504   1.5718
     1.5935   1.6932   1.7047   1.7238   1.7332   1.7592   1.7680   1.8124
     1.8296   1.8622   1.9062   1.9289   1.9739   2.0042   2.0526   2.1689
     2.2733   2.3299   2.3465   2.4241   2.4533   2.4796   2.5450   2.5580
     2.5626   2.5716   2.5969   2.6448   2.6579   2.6786   2.7121   2.7575
     2.7898   2.8282   2.8328   2.8343   2.8452   2.8618   2.8726   2.8865
     2.8904   2.9125   2.9147   2.9376   2.9562   2.9617   3.0942   3.0994
     3.9098   3.9633   4.0240   4.1800   4.6253   4.7061   4.8898   4.9318
     5.3769   5.4138   5.4965   5.5142   5.8667   5.8696   6.1919   6.7042
     6.7391   6.9491   7.2036   7.2624   7.5792   7.6296   7.6383   7.7099
     7.7698   7.8202   8.0406   8.2622   8.2970   8.3765   8.4968   8.6413
     8.6850   8.7535

     occupation numbers 
     1.0000   1.0000   1.0000   1.0000   1.0000   1.0000   1.0000   1.0000
     1.0000   1.0000   1.0000   1.0000   1.0000   1.0000   1.0000   1.0000
     1.0000   1.0000   1.0000   1.0000   1.0000   1.0000   1.0000   1.0000
     1.0000   1.0000   1.0000   1.0000   1.0000   1.0000   1.0000   1.0000
     1.0000   1.0000   1.0000   1.0000   1.0000   1.0000   1.0000   1.0000
     1.0000   1.0000   1.0000   1.0000   1.0000   1.0000   1.0000   1.0000
     1.0000   1.0000   1.0000   1.0000   1.0000   1.0000   1.0000   1.0000
     1.0000   1.0000   1.0000   1.0000   1.0000   1.0000   1.0000   1.0000
     1.0000   1.0000   1.0000   1.0000   1.0000   1.0000   1.0000   1.0000
     1.0000   1.0000   1.0000   1.0000   1.0000   1.0000   1.0000   1.0000
     1.0000   1.0000   1.0000   1.0000   1.0000   1.0000   1.0000   1.0000
     1.0000   1.0000   1.0000   1.0000   1.0000   1.0000   1.0000   1.0000
     1.0000   1.0000   1.0000   1.0000   1.0000   1.0000   1.0000   1.0000
     1.0000   1.0000   1.0000   1.0000   1.0000   1.0000   1.0000   1.0000
     1.0000   1.0000   1.0000   1.0000   1.0000   1.0000   1.0000   1.0000
     1.0000   1.0000   1.0000   1.0000   1.0000   1.0000   1.0000   1.0000
     1.0000   1.0000   1.0000   1.0000   1.0000   1.0000   1.0000   1.0000
     1.0000   1.0000   1.0000   1.0000   1.0000   1.0000   1.0000   1.0000
     1.0000   1.0000   1.0000   1.0000   1.0000   1.0000   1.0000   1.0000
     1.0000   1.0000   1.0000   1.0000   1.0000   1.0000   0.9999   0.9999
     0.9999   0.9997   0.9997   0.9996   0.9995   0.9993   0.9993   0.9992
     0.9990   0.9986   0.9983   0.9979   0.9978   0.9916   0.9913   0.9906
     0.9897   0.9849   0.9842   0.9831   0.9825   0.9807   0.9801   0.9767
     0.9753   0.9723   0.9679   0.9654   0.9600   0.9560   0.9488   0.9280
     0.9042   0.8891   0.8844   0.8604   0.8506   0.8413   0.8166   0.8115
     0.8096   0.8060   0.7955   0.7747   0.7688   0.7593   0.7436   0.7214
     0.7051   0.6851   0.6827   0.6819   0.6761   0.6672   0.6613   0.6537
     0.6516   0.6394   0.6382   0.6254   0.6149   0.6117   0.5347   0.5317
     0.1305   0.1144   0.0979   0.0636   0.0144   0.0105   0.0050   0.0041
     0.0005   0.0004   0.0003   0.0002   0.0000   0.0000   0.0000   0.0000
     0.0000   0.0000   0.0000   0.0000   0.0000   0.0000   0.0000   0.0000
     0.0000   0.0000   0.0000   0.0000   0.0000   0.0000   0.0000   0.0000
     0.0000   0.0000

          k =-0.2500 0.2500 0.0000 ( 65198 PWs)   bands (ev):

   -92.8761 -92.8246 -92.7298 -92.6828 -92.6266 -92.5824 -92.5651 -92.4444
   -56.2297 -56.2113 -56.0867 -56.0764 -56.0693 -56.0633 -56.0288 -55.9987
   -55.9840 -55.9823 -55.9745 -55.9333 -55.9139 -55.8775 -55.8564 -55.8264
   -55.8177 -55.7703 -55.7689 -55.7673 -55.7589 -55.7195 -55.6951 -55.6110
   -31.4378 -31.4203 -31.2792 -31.2439 -31.2056 -31.1919 -30.9040 -30.6762
   -30.0182 -29.9766 -29.9531 -29.8432 -15.1879 -15.1403 -15.0718 -14.9552
   -14.8397 -14.7101 -14.6325 -14.4200 -14.2838 -14.2533 -14.2414 -14.1909
   -14.1707 -14.1486 -14.1205 -14.0817 -14.0063 -13.9921 -13.8386 -13.8141
   -13.7832 -13.7636 -13.7137 -13.6658 -13.6002 -13.5961 -13.4555 -13.4037
   -13.3843 -13.3078 -13.2663 -13.2039 -13.1984 -13.1739 -13.1525 -13.1233
   -13.0926 -13.0884 -13.0245 -13.0001 -12.9344 -12.8705 -12.8544 -12.8328
   -12.7919 -12.6270 -12.6049 -12.5617 -12.4588 -12.4461 -12.2056 -12.1825
   -11.9721 -11.9656 -11.9477 -11.9213 -11.9092 -11.8672 -11.8347 -11.8094
   -11.7898 -11.7660 -11.6815 -11.6370 -11.6271  -2.8377  -2.6302  -2.5089
    -2.4199  -2.3026  -2.2365  -2.0325  -1.8885  -1.8708  -1.8405  -1.7485
    -1.7126  -1.6179  -1.5837  -1.5580  -1.4157  -1.3591  -1.2915  -1.2629
    -1.2019  -1.1822  -1.1423  -1.1136  -1.0730  -1.0091  -0.9609  -0.8976
    -0.8280  -0.8009  -0.7521  -0.7226  -0.6765  -0.6208  -0.5750  -0.5334
    -0.4326  -0.4000  -0.3864  -0.3466  -0.2783  -0.1981  -0.1573  -0.1271
    -0.0481  -0.0232   0.2216   0.3925   0.4312   0.4729   0.5368   0.6008
     0.6490   0.7088   0.7375   1.0163   1.1213   1.1622   1.1945   1.2010
     1.2452   1.2594   1.3044   1.3354   1.3489   1.3739   1.4228   1.4386
     1.4795   1.4994   1.5441   1.6442   1.6593   1.6714   1.7183   1.7405
     1.7781   1.8433   1.9413   2.0399   2.0635   2.1132   2.1340   2.2021
     2.2383   2.2636   2.2925   2.3115   2.4122   2.4456   2.5364   2.5553
     2.6499   2.6616   2.7116   2.7199   2.7334   2.7424   2.7540   2.7684
     2.7760   2.7925   2.8030   2.8153   2.8251   2.8376   2.8471   2.8539
     2.8885   2.8980   2.9056   2.9400   3.2311   3.3137   3.3818   3.4671
     3.4849   3.6744   3.7906   4.1404   4.3571   4.5615   4.8247   5.1340
     5.5070   5.5616   5.6042   5.6636   5.7299   6.0745   6.1198   6.1474
     6.8394   7.0421   7.1912   7.3719   7.4690   7.4933   7.5740   7.7736
     7.8504   8.0835   8.1898   8.2132   8.3330   8.3452   8.4463   8.4668
     8.5414   8.7205

     occupation numbers 
     1.0000   1.0000   1.0000   1.0000   1.0000   1.0000   1.0000   1.0000
     1.0000   1.0000   1.0000   1.0000   1.0000   1.0000   1.0000   1.0000
     1.0000   1.0000   1.0000   1.0000   1.0000   1.0000   1.0000   1.0000
     1.0000   1.0000   1.0000   1.0000   1.0000   1.0000   1.0000   1.0000
     1.0000   1.0000   1.0000   1.0000   1.0000   1.0000   1.0000   1.0000
     1.0000   1.0000   1.0000   1.0000   1.0000   1.0000   1.0000   1.0000
     1.0000   1.0000   1.0000   1.0000   1.0000   1.0000   1.0000   1.0000
     1.0000   1.0000   1.0000   1.0000   1.0000   1.0000   1.0000   1.0000
     1.0000   1.0000   1.0000   1.0000   1.0000   1.0000   1.0000   1.0000
     1.0000   1.0000   1.0000   1.0000   1.0000   1.0000   1.0000   1.0000
     1.0000   1.0000   1.0000   1.0000   1.0000   1.0000   1.0000   1.0000
     1.0000   1.0000   1.0000   1.0000   1.0000   1.0000   1.0000   1.0000
     1.0000   1.0000   1.0000   1.0000   1.0000   1.0000   1.0000   1.0000
     1.0000   1.0000   1.0000   1.0000   1.0000   1.0000   1.0000   1.0000
     1.0000   1.0000   1.0000   1.0000   1.0000   1.0000   1.0000   1.0000
     1.0000   1.0000   1.0000   1.0000   1.0000   1.0000   1.0000   1.0000
     1.0000   1.0000   1.0000   1.0000   1.0000   1.0000   1.0000   1.0000
     1.0000   1.0000   1.0000   1.0000   1.0000   1.0000   1.0000   1.0000
     1.0000   1.0000   1.0000   1.0000   1.0000   1.0000   1.0000   1.0000
     1.0000   1.0000   1.0000   1.0000   1.0000   1.0000   0.9999   0.9999
     0.9999   0.9999   0.9998   0.9992   0.9987   0.9984   0.9982   0.9981
     0.9977   0.9975   0.9970   0.9965   0.9963   0.9959   0.9949   0.9945
     0.9935   0.9930   0.9916   0.9875   0.9867   0.9861   0.9834   0.9820
     0.9794   0.9741   0.9640   0.9508   0.9471   0.9387   0.9348   0.9210
     0.9128   0.9067   0.8993   0.8942   0.8643   0.8532   0.8200   0.8125
     0.7724   0.7671   0.7438   0.7398   0.7333   0.7289   0.7231   0.7160
     0.7121   0.7037   0.6983   0.6919   0.6868   0.6802   0.6751   0.6715
     0.6527   0.6474   0.6432   0.6240   0.4537   0.4056   0.3670   0.3204
     0.3110   0.2193   0.1718   0.0713   0.0369   0.0182   0.0065   0.0016
     0.0002   0.0002   0.0001   0.0001   0.0001   0.0000   0.0000   0.0000
     0.0000   0.0000   0.0000   0.0000   0.0000   0.0000   0.0000   0.0000
     0.0000   0.0000   0.0000   0.0000   0.0000   0.0000   0.0000   0.0000
     0.0000   0.0000

          k =-0.5000 0.2500 0.0000 ( 65138 PWs)   bands (ev):

   -92.8761 -92.8246 -92.7298 -92.6828 -92.6266 -92.5824 -92.5651 -92.4444
   -56.2297 -56.2113 -56.0867 -56.0764 -56.0693 -56.0633 -56.0288 -55.9987
   -55.9840 -55.9823 -55.9745 -55.9333 -55.9139 -55.8775 -55.8564 -55.8264
   -55.8177 -55.7703 -55.7689 -55.7673 -55.7589 -55.7195 -55.6951 -55.6110
   -31.4359 -31.4223 -31.2788 -31.2438 -31.2055 -31.1923 -30.9041 -30.6763
   -30.0172 -29.9776 -29.9527 -29.8436 -15.1514 -15.1039 -15.0243 -14.9276
   -14.8877 -14.7613 -14.6640 -14.5413 -14.2352 -14.2029 -14.1901 -14.1422
   -14.1211 -14.0992 -14.0624 -14.0563 -14.0316 -13.9956 -13.9849 -13.8649
   -13.8052 -13.7572 -13.7513 -13.7330 -13.6354 -13.6223 -13.4857 -13.4567
   -13.3608 -13.3277 -13.2315 -13.1989 -13.1881 -13.1784 -13.1563 -13.1241
   -13.1041 -13.0928 -13.0509 -13.0057 -12.8691 -12.7900 -12.7831 -12.7782
   -12.7620 -12.7026 -12.6120 -12.5016 -12.4850 -12.4125 -12.2564 -12.2248
   -11.9688 -11.9422 -11.9294 -11.9151 -11.9036 -11.8814 -11.8510 -11.7730
   -11.7644 -11.7414 -11.7031 -11.6753 -11.6675  -2.6102  -2.5689  -2.4211
    -2.3790  -2.2167  -2.1417  -1.9987  -1.8646  -1.8074  -1.7810  -1.7413
    -1.7039  -1.6222  -1.5070  -1.4494  -1.4269  -1.4008  -1.3209  -1.2962
    -1.2545  -1.2396  -1.1780  -1.1492  -1.1098  -1.0748  -1.0459  -0.9879
    -0.9601  -0.9191  -0.8840  -0.7795  -0.7503  -0.6617  -0.6005  -0.5676
    -0.5133  -0.4276  -0.3917  -0.2935  -0.2465  -0.1940  -0.1372  -0.1176
    -0.0475  -0.0190   0.0160   0.0611   0.1016   0.4197   0.4878   0.5581
     0.5837   0.8547   0.9099   0.9813   1.0095   1.1820   1.2187   1.2562
     1.2667   1.2852   1.3033   1.3743   1.4155   1.4624   1.4875   1.6230
     1.6534   1.6792   1.6919   1.7410   1.7557   1.7700   1.7868   1.8040
     1.8257   1.8762   1.8840   1.9217   1.9430   1.9819   2.0316   2.1567
     2.2542   2.2786   2.3460   2.3800   2.4406   2.4792   2.4839   2.5240
     2.5464   2.5678   2.5825   2.6430   2.6597   2.6777   2.7088   2.7219
     2.7267   2.7466   2.7704   2.7819   2.7989   2.8090   2.8311   2.8438
     2.8540   2.8614   2.8735   2.8836   3.4153   3.4688   3.6027   3.6256
     3.9158   3.9840   4.0331   4.2525   4.6181   4.7183   4.8864   4.9449
     5.2412   5.2728   5.4986   5.5702   5.6198   5.6474   6.2821   6.3392
     6.4582   6.8058   7.1762   7.6079   7.6780   7.7278   7.7439   7.8028
     7.9106   8.0049   8.1190   8.3040   8.4187   8.4430   8.5120   8.5725
     8.7019   8.7965

     occupation numbers 
     1.0000   1.0000   1.0000   1.0000   1.0000   1.0000   1.0000   1.0000
     1.0000   1.0000   1.0000   1.0000   1.0000   1.0000   1.0000   1.0000
     1.0000   1.0000   1.0000   1.0000   1.0000   1.0000   1.0000   1.0000
     1.0000   1.0000   1.0000   1.0000   1.0000   1.0000   1.0000   1.0000
     1.0000   1.0000   1.0000   1.0000   1.0000   1.0000   1.0000   1.0000
     1.0000   1.0000   1.0000   1.0000   1.0000   1.0000   1.0000   1.0000
     1.0000   1.0000   1.0000   1.0000   1.0000   1.0000   1.0000   1.0000
     1.0000   1.0000   1.0000   1.0000   1.0000   1.0000   1.0000   1.0000
     1.0000   1.0000   1.0000   1.0000   1.0000   1.0000   1.0000   1.0000
     1.0000   1.0000   1.0000   1.0000   1.0000   1.0000   1.0000   1.0000
     1.0000   1.0000   1.0000   1.0000   1.0000   1.0000   1.0000   1.0000
     1.0000   1.0000   1.0000   1.0000   1.0000   1.0000   1.0000   1.0000
     1.0000   1.0000   1.0000   1.0000   1.0000   1.0000   1.0000   1.0000
     1.0000   1.0000   1.0000   1.0000   1.0000   1.0000   1.0000   1.0000
     1.0000   1.0000   1.0000   1.0000   1.0000   1.0000   1.0000   1.0000
     1.0000   1.0000   1.0000   1.0000   1.0000   1.0000   1.0000   1.0000
     1.0000   1.0000   1.0000   1.0000   1.0000   1.0000   1.0000   1.0000
     1.0000   1.0000   1.0000   1.0000   1.0000   1.0000   1.0000   1.0000
     1.0000   1.0000   1.0000   1.0000   1.0000   1.0000   1.0000   1.0000
     1.0000   1.0000   1.0000   1.0000   1.0000   1.0000   1.0000   0.9999
     0.9999   0.9997   0.9996   0.9994   0.9993   0.9983   0.9980   0.9976
     0.9975   0.9972   0.9970   0.9959   0.9951   0.9940   0.9933   0.9884
     0.9870   0.9857   0.9850   0.9820   0.9810   0.9800   0.9787   0.9774
     0.9756   0.9710   0.9702   0.9662   0.9638   0.9590   0.9520   0.9304
     0.9090   0.9029   0.8846   0.8744   0.8549   0.8414   0.8397   0.8248
     0.8161   0.8075   0.8015   0.7755   0.7680   0.7598   0.7452   0.7389
     0.7366   0.7268   0.7150   0.7091   0.7004   0.6952   0.6836   0.6768
     0.6714   0.6674   0.6609   0.6554   0.3484   0.3195   0.2521   0.2413
     0.1286   0.1086   0.0956   0.0512   0.0148   0.0100   0.0050   0.0039
     0.0010   0.0008   0.0002   0.0002   0.0001   0.0001   0.0000   0.0000
     0.0000   0.0000   0.0000   0.0000   0.0000   0.0000   0.0000   0.0000
     0.0000   0.0000   0.0000   0.0000   0.0000   0.0000   0.0000   0.0000
     0.0000   0.0000

     the Fermi energy is     3.1528 ev

!    total energy              =   -4440.30473808 Ry
     estimated scf accuracy    <          5.8E-09 Ry
     smearing contrib. (-TS)   =      -1.20802623 Ry
     internal energy E=F+TS    =   -4439.09671185 Ry

     The total energy is F=E-TS. E is the sum of the following terms:
     one-electron contribution =  -20890.06513653 Ry
     hartree contribution      =   10574.16562786 Ry
     xc contribution           =    -693.25133958 Ry
     ewald contribution        =    6846.24510758 Ry
     one-center paw contrib.   =    -276.19097118 Ry
      -> PAW hartree energy AE =      25.14818885 Ry
      -> PAW hartree energy PS =     -25.03222686 Ry
      -> PAW xc energy AE      =     -16.51541683 Ry
      -> PAW xc energy PS      =       6.87477567 Ry
      -> total E_H with PAW    =   10574.28158985 Ry
      -> total E_XC with PAW   =    -702.89198074 Ry

     convergence has been achieved in  49 iterations

     Writing all to output data dir /bsuhome/zayahcortright/scratch/pwscf.save/
 
     init_run     :      7.37s CPU      8.33s WALL (       1 calls)
     electrons    :    711.26s CPU    744.24s WALL (       1 calls)

     Called by init_run:
     wfcinit      :      6.00s CPU      6.22s WALL (       1 calls)
     wfcinit:atom :      0.05s CPU      0.07s WALL (       5 calls)
     wfcinit:wfcr :      5.68s CPU      5.81s WALL (       5 calls)
     potinit      :      0.15s CPU      0.21s WALL (       1 calls)
     hinit0       :      0.30s CPU      0.72s WALL (       1 calls)

     Called by electrons:
     c_bands      :    564.50s CPU    571.16s WALL (      49 calls)
     sum_band     :    110.69s CPU    125.02s WALL (      49 calls)
     v_of_rho     :      5.29s CPU      5.71s WALL (      50 calls)
     v_h          :      0.42s CPU      0.43s WALL (      50 calls)
     v_xc         :      4.86s CPU      5.28s WALL (      50 calls)
     newd         :     16.28s CPU     27.53s WALL (      50 calls)
     PAW_pot      :      1.59s CPU      1.64s WALL (      50 calls)
     mix_rho      :     12.54s CPU     12.92s WALL (      49 calls)

     Called by c_bands:
     init_us_2    :      6.92s CPU      7.02s WALL (     495 calls)
     init_us_2:cp :      6.91s CPU      7.02s WALL (     495 calls)
     cegterg      :    529.67s CPU    535.96s WALL (     245 calls)

     Called by sum_band:
     sum_band:wei :      0.35s CPU      0.35s WALL (      49 calls)
     sum_band:loo :     92.75s CPU     93.49s WALL (      49 calls)
     sum_band:buf :      1.40s CPU      1.47s WALL (     245 calls)
     sum_band:ini :      3.22s CPU      3.23s WALL (     245 calls)
     sum_band:cal :     19.57s CPU     19.65s WALL (     245 calls)
     sum_band:bec :      0.54s CPU      0.55s WALL (     245 calls)
     addusdens    :     15.81s CPU     29.33s WALL (      49 calls)
                                        0.00s GPU  (      49 calls)
     addusd:skk   :      0.29s CPU      1.00s WALL (     147 calls)
                                        0.00s GPU  (     147 calls)

     Called by *egterg:
     cdiaghg      :     54.76s CPU     54.97s WALL (    1318 calls)
     cegterg:over :     38.51s CPU     38.65s WALL (    1073 calls)
     cegterg:upda :     28.16s CPU     28.67s WALL (    1073 calls)
     cegterg:last :     58.59s CPU     58.81s WALL (     442 calls)
     cdiaghg:chol :      3.14s CPU      3.16s WALL (    1318 calls)
     cdiaghg:inve :      2.77s CPU      2.78s WALL (    1318 calls)
     cdiaghg:para :      6.95s CPU      6.99s WALL (    2636 calls)
     h_psi        :    294.37s CPU    297.38s WALL (    1323 calls)
     s_psi        :     39.77s CPU     39.89s WALL (    1323 calls)
     g_psi        :      1.06s CPU      1.07s WALL (    1073 calls)

     Called by h_psi:
     h_psi:calbec :     44.47s CPU     44.66s WALL (    1323 calls)
     vloc_psi     :    207.51s CPU    209.44s WALL (    1323 calls)
     add_vuspsi   :     39.51s CPU     39.70s WALL (    1323 calls)

     General routines
     calbec       :     64.03s CPU     64.31s WALL (    1568 calls)
     fft          :      4.13s CPU      4.20s WALL (     648 calls)
     ffts         :      4.57s CPU      4.61s WALL (    5217 calls)
     fftw         :    176.88s CPU    178.24s WALL (  329200 calls)
     interpolate  :      0.41s CPU      0.42s WALL (      50 calls)
 
     Parallel routines

     PAW routines
     PAW_pot      :      1.59s CPU      1.64s WALL (      50 calls)
 
     PWSCF        :  12m 0.12s CPU  12m37.42s WALL

 
   This run was terminated on:  19: 8:50  21Jun2024            

=------------------------------------------------------------------------------=
   JOB DONE.
=------------------------------------------------------------------------------=
