
     Program PWSCF v.7.2 starts on 18Jun2024 at 19: 6:47 

     This program is part of the open-source Quantum ESPRESSO suite
     for quantum simulation of materials; please cite
         "P. Giannozzi et al., J. Phys.:Condens. Matter 21 395502 (2009);
         "P. Giannozzi et al., J. Phys.:Condens. Matter 29 465901 (2017);
         "P. Giannozzi et al., J. Chem. Phys. 152 154105 (2020);
          URL http://www.quantum-espresso.org", 
     in publications or presentations arising from this work. More details at
     http://www.quantum-espresso.org/quote

     Parallel version (MPI & OpenMP), running on      48 processor cores
     Number of MPI processes:                48
     Threads/MPI process:                     1

     MPI processes distributed on     1 nodes
     15860 MiB available memory on the printing compute node when the environment starts
 
     Reading input from espresso.pwi
Warning: card &CELL ignored
Warning: card / ignored
Warning: card &FCP ignored
Warning: card / ignored
Warning: card &RISM ignored
Warning: card / ignored

     Current dimensions of program PWSCF are:
     Max number of different atomic species (ntypx) = 10
     Max number of k-points (npk) =  40000
     Max angular momentum in pseudopotentials (lmaxx) =  4
     file O.pbe-n-kjpaw_psl.0.1.UPF: wavefunction(s)  2P renormalized
     signal trapping enabled: kill the code with -SIGUSR1 to stop cleanly the simulation 
 
     K-points division:     npool     =       2
     R & G space division:  proc/nbgrp/npool/nimage =      24
     Subspace diagonalization in iterative solution of the eigenvalue problem:
     one sub-group per band group will be used
     scalapack distributed-memory algorithm (size of sub-group:  3*  3 procs)

 
     Parallelization info
     --------------------
     sticks:   dense  smooth     PW     G-vecs:    dense   smooth      PW
     Min         350     175     47                61430    21716    3036
     Max         351     177     48                61449    21727    3041
     Sum        8421    4205   1137              1474595   521381   72913
 
     Using Slab Decomposition
 


     bravais-lattice index     =            0
     lattice parameter (alat)  =      14.8599  a.u.
     unit-cell volume          =    8305.1283 (a.u.)^3
     number of atoms/cell      =           51
     number of atomic types    =            4
     number of electrons       =       437.00
     number of Kohn-Sham states=          263
     kinetic-energy cutoff     =      60.0000  Ry
     charge density cutoff     =     480.0000  Ry
     scf convergence threshold =      1.0E-08
     mixing beta               =       0.1500
     number of iterations used =            8  local-TF  mixing
     Exchange-correlation= PBE
                           (   1   4   3   4   0   0   0)

     celldm(1)=  14.859904  celldm(2)=   0.000000  celldm(3)=   0.000000
     celldm(4)=   0.000000  celldm(5)=   0.000000  celldm(6)=   0.000000

     crystal axes: (cart. coord. in units of alat)
               a(1) = (   1.000000   0.000000   0.000000 )  
               a(2) = (   0.000000   1.000000   0.000000 )  
               a(3) = (   0.000000   0.000000   2.531036 )  

     reciprocal axes: (cart. coord. in units 2 pi/alat)
               b(1) = (  1.000000  0.000000  0.000000 )  
               b(2) = (  0.000000  1.000000  0.000000 )  
               b(3) = (  0.000000  0.000000  0.395095 )  


     PseudoPot. # 1 for Sr read from file:
     /bsuhome/zayahcortright/q-e/pseudo/Sr_pbe_v1.uspp.F.UPF
     MD5 check sum: 6b418c05fbe9db5448babca5e47b7a5b
     Pseudo is Ultrasoft + core correction, Zval = 10.0
     Generated by new atomic code, or converted to UPF format
     Using radial grid of  883 points,  6 beta functions with: 
                l(1) =   0
                l(2) =   0
                l(3) =   1
                l(4) =   1
                l(5) =   2
                l(6) =   2
     Q(r) pseudized with  6 coefficients,  rinner =    1.400   1.400   1.400
                                                       1.400   1.400

     PseudoPot. # 2 for O  read from file:
     /bsuhome/zayahcortright/q-e/pseudo/O.pbe-n-kjpaw_psl.0.1.UPF
     MD5 check sum: 0234752ac141de4415c5fc33072bef88
     Pseudo is Projector augmented-wave + core cor, Zval =  6.0
     Generated using "atomic" code by A. Dal Corso  v.5.0.99 svn rev. 10869
     Shape of augmentation charge: BESSEL
     Using radial grid of 1095 points,  4 beta functions with: 
                l(1) =   0
                l(2) =   0
                l(3) =   1
                l(4) =   1
     Q(r) pseudized with 0 coefficients 


     PseudoPot. # 3 for Co read from file:
     /bsuhome/zayahcortright/q-e/pseudo/Co_pbe_v1.2.uspp.F.UPF
     MD5 check sum: 5f91765df6ddd3222702df6e7b74a16d
     Pseudo is Ultrasoft + core correction, Zval = 17.0
     Generated by new atomic code, or converted to UPF format
     Using radial grid of  863 points,  6 beta functions with: 
                l(1) =   0
                l(2) =   0
                l(3) =   1
                l(4) =   1
                l(5) =   2
                l(6) =   2
     Q(r) pseudized with  8 coefficients,  rinner =    1.200   1.200   1.200
                                                       1.200   1.200

     PseudoPot. # 4 for H  read from file:
     /bsuhome/zayahcortright/q-e/pseudo/H.pbe-rrkjus_psl.1.0.0.UPF
     MD5 check sum: f52b6d4d1c606e5624b1dc7b2218f220
     Pseudo is Ultrasoft, Zval =  1.0
     Generated using "atomic" code by A. Dal Corso  v.5.1
     Using radial grid of  929 points,  2 beta functions with: 
                l(1) =   0
                l(2) =   0
     Q(r) pseudized with 0 coefficients 


     atomic species   valence    mass     pseudopotential
        Sr            10.00    87.62000     Sr( 1.00)
        O              6.00    15.99900     O ( 1.00)
        Co            17.00    58.93319     Co( 1.00)
        H              1.00     1.00800     H ( 1.00)

     No symmetry found


                                    s                        frac. trans.

      isym =  1     identity                                     

 cryst.   s( 1) = (     1          0          0      )
                  (     0          1          0      )
                  (     0          0          1      )

 cart.    s( 1) = (  1.0000000  0.0000000  0.0000000 )
                  (  0.0000000  1.0000000  0.0000000 )
                  (  0.0000000  0.0000000  1.0000000 )


   Cartesian axes

     site n.     atom                  positions (alat units)
         1           Sr  tau(   1) = (   0.2508693   0.7491307   1.7574407  )
         2           O   tau(   2) = (   0.4985141   0.5014859   1.7715967  )
         3           Sr  tau(   3) = (   0.7482398   0.7454518   1.7648669  )
         4           Sr  tau(   4) = (   0.7441748   0.2558252   1.7667843  )
         5           Sr  tau(   5) = (   0.2508693   0.7491307   1.2696799  )
         6           Sr  tau(   6) = (   0.2508693   0.7491307   0.7632319  )
         7           Co  tau(   7) = (   0.4998914   0.5001086   1.0164559  )
         8           Co  tau(   8) = (   0.4936915   0.5063085   1.5135603  )
         9           O   tau(   9) = (   0.4988895   0.7610401   1.0164559  )
        10           O   tau(  10) = (   0.2389599   0.5011105   1.0164559  )
        11           O   tau(  11) = (   0.0070918   0.7374880   1.0164559  )
        12           O   tau(  12) = (   0.0088340   0.7405089   1.5135603  )
        13           O   tau(  13) = (   0.5066944   0.7415376   1.5135603  )
        14           O   tau(  14) = (   0.2584624   0.4933056   1.5135603  )
        15           O   tau(  15) = (   0.4985141   0.5014859   0.7773880  )
        16           O   tau(  16) = (   0.4985141   0.5014859   1.2555238  )
        17           Sr  tau(  17) = (   0.7482398   0.7454518   0.7706582  )
        18           Sr  tau(  18) = (   0.7482398   0.7454518   1.2622536  )
        19           Sr  tau(  19) = (   0.7441748   0.2558252   0.7725755  )
        20           Sr  tau(  20) = (   0.7441748   0.2558252   1.2603363  )
        21           O   tau(  21) = (   0.7322655   0.0078049   1.5135603  )
        22           O   tau(  22) = (   0.7558175   0.4996027   1.5135603  )
        23           O   tau(  23) = (   0.5003973   0.2441825   1.5135603  )
        24           O   tau(  24) = (   0.7527966   0.4978604   1.0164559  )
        25           O   tau(  25) = (   0.5021396   0.2472034   1.0164559  )
        26           O   tau(  26) = (   0.7517679   0.0000000   1.0164559  )
        27           O   tau(  27) = (   0.0114961   0.4948124   1.7455321  )
        28           O   tau(  28) = (   0.0048226   0.0077944   1.7715967  )
        29           Sr  tau(  29) = (   0.2545482   0.2517602   1.7648669  )
        30           O   tau(  30) = (   0.5048017   0.0015068   1.7786929  )
        31           Co  tau(  31) = (   0.0056869   0.5006215   1.0164559  )
        32           Co  tau(  32) = (   0.0065315   0.4997770   1.5135603  )
        33           Co  tau(  33) = (   0.0061999   0.0064171   1.0164559  )
        34           Co  tau(  34) = (   0.0000000   0.0126169   1.5135603  )
        35           O   tau(  35) = (   0.0114961   0.4948124   1.2815885  )
        36           O   tau(  36) = (   0.0114961   0.4948124   0.7513233  )
        37           O   tau(  37) = (   0.0051979   0.2673486   1.0164559  )
        38           O   tau(  38) = (   0.0130029   0.2478461   1.5135603  )
        39           O   tau(  39) = (   0.0048226   0.0077944   0.7773880  )
        40           O   tau(  40) = (   0.0048226   0.0077944   1.2555238  )
        41           Sr  tau(  41) = (   0.2545482   0.2517602   0.7706582  )
        42           Sr  tau(  42) = (   0.2545482   0.2517602   1.2622536  )
        43           Co  tau(  43) = (   0.4989925   0.0073160   1.5135603  )
        44           Co  tau(  44) = (   0.4998370   0.0064714   1.0164559  )
        45           O   tau(  45) = (   0.5048017   0.0015068   0.7844841  )
        46           O   tau(  46) = (   0.5048017   0.0015068   1.2484277  )
        47           O   tau(  47) = (   0.2621260   0.0059111   1.5135603  )
        48           O   tau(  48) = (   0.2591051   0.0041689   1.0164559  )
        49           O   tau(  49) = (   0.0000000   0.9951520   2.1602013  )
        50           O   tau(  50) = (   0.0000000   0.9951520   2.3186489  )
        51           H   tau(  51) = (   0.0000000   0.9951520   2.4431567  )

   Crystallographic axes

     site n.     atom                  positions (cryst. coord.)
         1           Sr  tau(   1) = (  0.2508693  0.7491307  0.6943562  )
         2           O   tau(   2) = (  0.4985141  0.5014859  0.6999492  )
         3           Sr  tau(   3) = (  0.7482398  0.7454518  0.6972903  )
         4           Sr  tau(   4) = (  0.7441748  0.2558252  0.6980478  )
         5           Sr  tau(   5) = (  0.2508693  0.7491307  0.5016443  )
         6           Sr  tau(   6) = (  0.2508693  0.7491307  0.3015492  )
         7           Co  tau(   7) = (  0.4998914  0.5001086  0.4015968  )
         8           Co  tau(   8) = (  0.4936915  0.5063085  0.5980003  )
         9           O   tau(   9) = (  0.4988895  0.7610401  0.4015968  )
        10           O   tau(  10) = (  0.2389599  0.5011105  0.4015968  )
        11           O   tau(  11) = (  0.0070918  0.7374880  0.4015968  )
        12           O   tau(  12) = (  0.0088340  0.7405089  0.5980003  )
        13           O   tau(  13) = (  0.5066944  0.7415376  0.5980003  )
        14           O   tau(  14) = (  0.2584624  0.4933056  0.5980003  )
        15           O   tau(  15) = (  0.4985141  0.5014859  0.3071422  )
        16           O   tau(  16) = (  0.4985141  0.5014859  0.4960513  )
        17           Sr  tau(  17) = (  0.7482398  0.7454518  0.3044833  )
        18           Sr  tau(  18) = (  0.7482398  0.7454518  0.4987103  )
        19           Sr  tau(  19) = (  0.7441748  0.2558252  0.3052408  )
        20           Sr  tau(  20) = (  0.7441748  0.2558252  0.4979527  )
        21           O   tau(  21) = (  0.7322655  0.0078049  0.5980003  )
        22           O   tau(  22) = (  0.7558175  0.4996027  0.5980003  )
        23           O   tau(  23) = (  0.5003973  0.2441825  0.5980003  )
        24           O   tau(  24) = (  0.7527966  0.4978604  0.4015968  )
        25           O   tau(  25) = (  0.5021396  0.2472034  0.4015968  )
        26           O   tau(  26) = (  0.7517679  0.0000000  0.4015968  )
        27           O   tau(  27) = (  0.0114961  0.4948124  0.6896512  )
        28           O   tau(  28) = (  0.0048226  0.0077944  0.6999492  )
        29           Sr  tau(  29) = (  0.2545482  0.2517602  0.6972903  )
        30           O   tau(  30) = (  0.5048017  0.0015068  0.7027529  )
        31           Co  tau(  31) = (  0.0056869  0.5006215  0.4015968  )
        32           Co  tau(  32) = (  0.0065315  0.4997770  0.5980003  )
        33           Co  tau(  33) = (  0.0061999  0.0064171  0.4015968  )
        34           Co  tau(  34) = (  0.0000000  0.0126169  0.5980003  )
        35           O   tau(  35) = (  0.0114961  0.4948124  0.5063494  )
        36           O   tau(  36) = (  0.0114961  0.4948124  0.2968442  )
        37           O   tau(  37) = (  0.0051979  0.2673486  0.4015968  )
        38           O   tau(  38) = (  0.0130029  0.2478461  0.5980003  )
        39           O   tau(  39) = (  0.0048226  0.0077944  0.3071422  )
        40           O   tau(  40) = (  0.0048226  0.0077944  0.4960513  )
        41           Sr  tau(  41) = (  0.2545482  0.2517602  0.3044833  )
        42           Sr  tau(  42) = (  0.2545482  0.2517602  0.4987103  )
        43           Co  tau(  43) = (  0.4989925  0.0073160  0.5980003  )
        44           Co  tau(  44) = (  0.4998370  0.0064714  0.4015968  )
        45           O   tau(  45) = (  0.5048017  0.0015068  0.3099459  )
        46           O   tau(  46) = (  0.5048017  0.0015068  0.4932477  )
        47           O   tau(  47) = (  0.2621260  0.0059111  0.5980003  )
        48           O   tau(  48) = (  0.2591051  0.0041689  0.4015968  )
        49           O   tau(  49) = (  0.0000000  0.9951520  0.8534850  )
        50           O   tau(  50) = (  0.0000000  0.9951520  0.9160869  )
        51           H   tau(  51) = (  0.0000000  0.9951520  0.9652793  )

     number of k points=    10  Gaussian smearing, width (Ry)=  0.0700
                       cart. coord. in units 2pi/alat
        k(    1) = (   0.0000000   0.0000000   0.0000000), wk =   0.1250000
        k(    2) = (   0.0000000   0.2500000   0.0000000), wk =   0.2500000
        k(    3) = (   0.0000000  -0.5000000   0.0000000), wk =   0.1250000
        k(    4) = (   0.2500000   0.2500000   0.0000000), wk =   0.2500000
        k(    5) = (   0.2500000  -0.5000000   0.0000000), wk =   0.2500000
        k(    6) = (  -0.5000000  -0.5000000   0.0000000), wk =   0.1250000
        k(    7) = (   0.2500000   0.0000000   0.0000000), wk =   0.2500000
        k(    8) = (  -0.5000000   0.0000000   0.0000000), wk =   0.1250000
        k(    9) = (  -0.2500000   0.2500000   0.0000000), wk =   0.2500000
        k(   10) = (  -0.5000000   0.2500000   0.0000000), wk =   0.2500000

                       cryst. coord.
        k(    1) = (   0.0000000   0.0000000   0.0000000), wk =   0.1250000
        k(    2) = (   0.0000000   0.2500000   0.0000000), wk =   0.2500000
        k(    3) = (   0.0000000  -0.5000000   0.0000000), wk =   0.1250000
        k(    4) = (   0.2500000   0.2500000   0.0000000), wk =   0.2500000
        k(    5) = (   0.2500000  -0.5000000   0.0000000), wk =   0.2500000
        k(    6) = (  -0.5000000  -0.5000000   0.0000000), wk =   0.1250000
        k(    7) = (   0.2500000   0.0000000   0.0000000), wk =   0.2500000
        k(    8) = (  -0.5000000   0.0000000   0.0000000), wk =   0.1250000
        k(    9) = (  -0.2500000   0.2500000   0.0000000), wk =   0.2500000
        k(   10) = (  -0.5000000   0.2500000   0.0000000), wk =   0.2500000

     Dense  grid:  1474595 G-vectors     FFT dimensions: ( 108, 108, 270)

     Smooth grid:   521381 G-vectors     FFT dimensions: (  75,  75, 192)

     Dynamical RAM for                 wfc:      10.90 MB

     Dynamical RAM for     wfc (w. buffer):      65.37 MB

     Dynamical RAM for           str. fact:       3.75 MB

     Dynamical RAM for           local pot:       0.00 MB

     Dynamical RAM for          nlocal pot:      24.94 MB

     Dynamical RAM for                qrad:       7.03 MB

     Dynamical RAM for          rho,v,vnew:       6.02 MB

     Dynamical RAM for               rhoin:       2.01 MB

     Dynamical RAM for            rho*nmix:      15.00 MB

     Dynamical RAM for           G-vectors:       3.68 MB

     Dynamical RAM for          h,s,v(r/c):       1.40 MB

     Dynamical RAM for          <psi|beta>:       2.42 MB

     Dynamical RAM for                 psi:      21.79 MB

     Dynamical RAM for                hpsi:      21.79 MB

     Dynamical RAM for                spsi:      21.79 MB

     Dynamical RAM for      wfcinit/wfcrot:      34.89 MB

     Dynamical RAM for           addusdens:     101.73 MB

     Estimated static dynamical RAM per process >     122.82 MB

     Estimated max dynamical RAM per process >     239.55 MB

     Estimated total dynamical RAM >      10.88 GB

     Check: negative core charge=   -0.000004

     Initial potential from superposition of free atoms

     starting charge     428.5961, renormalised to     437.0000

     negative rho (up, down):  7.814E-01 0.000E+00
     Starting wfcs are  381 randomized atomic wfcs
     Checking if some PAW data can be deallocated... 
       PAW data deallocated on   18 nodes for type:  2

     total cpu time spent up to now is        9.1 secs

     Self-consistent Calculation

     iteration #  1     ecut=    60.00 Ry     beta= 0.15
     Davidson diagonalization with overlap

---- Real-time Memory Report at c_bands before calling an iterative solver
             0 MiB given to the printing process from OS
             0 MiB allocation reported by mallinfo(arena+hblkhd)
          6325 MiB available memory on the node where the printing process lives
------------------
     ethr =  1.00E-02,  avg # of iterations =  2.0

     negative rho (up, down):  7.715E-01 0.000E+00

     total cpu time spent up to now is       25.4 secs

     total energy              =   -4489.28194772 Ry
     estimated scf accuracy    <      49.75779850 Ry

     iteration #  2     ecut=    60.00 Ry     beta= 0.15
     Davidson diagonalization with overlap

---- Real-time Memory Report at c_bands before calling an iterative solver
             0 MiB given to the printing process from OS
             0 MiB allocation reported by mallinfo(arena+hblkhd)
          6644 MiB available memory on the node where the printing process lives
------------------
     ethr =  1.00E-02,  avg # of iterations =  1.0

     negative rho (up, down):  7.613E-01 0.000E+00

     total cpu time spent up to now is       39.1 secs

     total energy              =   -4486.81883227 Ry
     estimated scf accuracy    <      35.31508736 Ry

     iteration #  3     ecut=    60.00 Ry     beta= 0.15
     Davidson diagonalization with overlap

---- Real-time Memory Report at c_bands before calling an iterative solver
             0 MiB given to the printing process from OS
             0 MiB allocation reported by mallinfo(arena+hblkhd)
          5901 MiB available memory on the node where the printing process lives
------------------
     ethr =  8.08E-03,  avg # of iterations =  1.0

     negative rho (up, down):  7.563E-01 0.000E+00

     total cpu time spent up to now is       52.8 secs

     total energy              =   -4486.77090196 Ry
     estimated scf accuracy    <      35.29971832 Ry

     iteration #  4     ecut=    60.00 Ry     beta= 0.15
     Davidson diagonalization with overlap

---- Real-time Memory Report at c_bands before calling an iterative solver
             0 MiB given to the printing process from OS
             0 MiB allocation reported by mallinfo(arena+hblkhd)
          5822 MiB available memory on the node where the printing process lives
------------------
     ethr =  8.08E-03,  avg # of iterations =  1.0

     negative rho (up, down):  7.575E-01 0.000E+00

     total cpu time spent up to now is       66.3 secs

     total energy              =   -4486.59909477 Ry
     estimated scf accuracy    <      34.19850284 Ry

     iteration #  5     ecut=    60.00 Ry     beta= 0.15
     Davidson diagonalization with overlap

---- Real-time Memory Report at c_bands before calling an iterative solver
             0 MiB given to the printing process from OS
             0 MiB allocation reported by mallinfo(arena+hblkhd)
          5805 MiB available memory on the node where the printing process lives
------------------
     ethr =  7.83E-03,  avg # of iterations =  1.0

     negative rho (up, down):  7.338E-01 0.000E+00

     total cpu time spent up to now is       80.0 secs

     total energy              =   -4482.57610539 Ry
     estimated scf accuracy    <      22.67056343 Ry

     iteration #  6     ecut=    60.00 Ry     beta= 0.15
     Davidson diagonalization with overlap

---- Real-time Memory Report at c_bands before calling an iterative solver
             0 MiB given to the printing process from OS
             0 MiB allocation reported by mallinfo(arena+hblkhd)
          5783 MiB available memory on the node where the printing process lives
------------------
     ethr =  5.19E-03,  avg # of iterations =  2.0

     negative rho (up, down):  7.487E-01 0.000E+00

     total cpu time spent up to now is       95.1 secs

     total energy              =   -4483.62116021 Ry
     estimated scf accuracy    <      33.89932136 Ry

     iteration #  7     ecut=    60.00 Ry     beta= 0.15
     Davidson diagonalization with overlap

---- Real-time Memory Report at c_bands before calling an iterative solver
             0 MiB given to the printing process from OS
             0 MiB allocation reported by mallinfo(arena+hblkhd)
          5761 MiB available memory on the node where the printing process lives
------------------
     ethr =  5.19E-03,  avg # of iterations =  1.0

     negative rho (up, down):  7.533E-01 0.000E+00

     total cpu time spent up to now is      108.6 secs

     total energy              =   -4483.71919046 Ry
     estimated scf accuracy    <      34.68454756 Ry

     iteration #  8     ecut=    60.00 Ry     beta= 0.15
     Davidson diagonalization with overlap

---- Real-time Memory Report at c_bands before calling an iterative solver
             0 MiB given to the printing process from OS
             0 MiB allocation reported by mallinfo(arena+hblkhd)
          5749 MiB available memory on the node where the printing process lives
------------------
     ethr =  5.19E-03,  avg # of iterations =  1.0

     negative rho (up, down):  7.511E-01 0.000E+00

     total cpu time spent up to now is      122.2 secs

     total energy              =   -4483.78294832 Ry
     estimated scf accuracy    <       6.05309036 Ry

     iteration #  9     ecut=    60.00 Ry     beta= 0.15
     Davidson diagonalization with overlap

---- Real-time Memory Report at c_bands before calling an iterative solver
             0 MiB given to the printing process from OS
             0 MiB allocation reported by mallinfo(arena+hblkhd)
          5724 MiB available memory on the node where the printing process lives
------------------
     ethr =  1.39E-03,  avg # of iterations =  3.4

     negative rho (up, down):  7.656E-01 0.000E+00

     total cpu time spent up to now is      137.8 secs

     total energy              =   -4483.73698366 Ry
     estimated scf accuracy    <       3.64247081 Ry

     iteration # 10     ecut=    60.00 Ry     beta= 0.15
     Davidson diagonalization with overlap

---- Real-time Memory Report at c_bands before calling an iterative solver
             0 MiB given to the printing process from OS
             0 MiB allocation reported by mallinfo(arena+hblkhd)
          5683 MiB available memory on the node where the printing process lives
------------------
     ethr =  8.34E-04,  avg # of iterations = 10.6

     negative rho (up, down):  7.888E-01 0.000E+00

     total cpu time spent up to now is      157.8 secs

     total energy              =   -4483.52144684 Ry
     estimated scf accuracy    <       4.54574545 Ry

     iteration # 11     ecut=    60.00 Ry     beta= 0.15
     Davidson diagonalization with overlap

---- Real-time Memory Report at c_bands before calling an iterative solver
             0 MiB given to the printing process from OS
             0 MiB allocation reported by mallinfo(arena+hblkhd)
          5296 MiB available memory on the node where the printing process lives
------------------
     ethr =  8.34E-04,  avg # of iterations =  5.8

     negative rho (up, down):  7.909E-01 0.000E+00

     total cpu time spent up to now is      175.2 secs

     total energy              =   -4483.17985604 Ry
     estimated scf accuracy    <       4.34310223 Ry

     iteration # 12     ecut=    60.00 Ry     beta= 0.15
     Davidson diagonalization with overlap

---- Real-time Memory Report at c_bands before calling an iterative solver
             0 MiB given to the printing process from OS
             0 MiB allocation reported by mallinfo(arena+hblkhd)
          5224 MiB available memory on the node where the printing process lives
------------------
     ethr =  8.34E-04,  avg # of iterations =  5.5

     negative rho (up, down):  8.018E-01 0.000E+00

     total cpu time spent up to now is      192.7 secs

     total energy              =   -4483.20329318 Ry
     estimated scf accuracy    <       2.09807429 Ry

     iteration # 13     ecut=    60.00 Ry     beta= 0.15
     Davidson diagonalization with overlap

---- Real-time Memory Report at c_bands before calling an iterative solver
             0 MiB given to the printing process from OS
             0 MiB allocation reported by mallinfo(arena+hblkhd)
          5200 MiB available memory on the node where the printing process lives
------------------
     ethr =  4.80E-04,  avg # of iterations =  3.8

     negative rho (up, down):  8.024E-01 0.000E+00

     total cpu time spent up to now is      209.1 secs

     total energy              =   -4483.25512522 Ry
     estimated scf accuracy    <       1.17735442 Ry

     iteration # 14     ecut=    60.00 Ry     beta= 0.15
     Davidson diagonalization with overlap

---- Real-time Memory Report at c_bands before calling an iterative solver
             0 MiB given to the printing process from OS
             0 MiB allocation reported by mallinfo(arena+hblkhd)
          5200 MiB available memory on the node where the printing process lives
------------------
     ethr =  2.69E-04,  avg # of iterations =  6.9

     negative rho (up, down):  8.150E-01 0.000E+00

     total cpu time spent up to now is      227.4 secs

     total energy              =   -4483.11088403 Ry
     estimated scf accuracy    <       0.73494557 Ry

     iteration # 15     ecut=    60.00 Ry     beta= 0.15
     Davidson diagonalization with overlap

---- Real-time Memory Report at c_bands before calling an iterative solver
             0 MiB given to the printing process from OS
             0 MiB allocation reported by mallinfo(arena+hblkhd)
          5164 MiB available memory on the node where the printing process lives
------------------
     ethr =  1.68E-04,  avg # of iterations =  8.2

     negative rho (up, down):  8.181E-01 0.000E+00

     total cpu time spent up to now is      246.0 secs

     total energy              =   -4483.14128770 Ry
     estimated scf accuracy    <       3.68184440 Ry

     iteration # 16     ecut=    60.00 Ry     beta= 0.15
     Davidson diagonalization with overlap

---- Real-time Memory Report at c_bands before calling an iterative solver
             0 MiB given to the printing process from OS
             0 MiB allocation reported by mallinfo(arena+hblkhd)
          5164 MiB available memory on the node where the printing process lives
------------------
     ethr =  1.68E-04,  avg # of iterations =  2.7

     negative rho (up, down):  8.142E-01 0.000E+00

     total cpu time spent up to now is      261.4 secs

     total energy              =   -4483.10384204 Ry
     estimated scf accuracy    <       1.52491669 Ry

     iteration # 17     ecut=    60.00 Ry     beta= 0.15
     Davidson diagonalization with overlap

---- Real-time Memory Report at c_bands before calling an iterative solver
             0 MiB given to the printing process from OS
             0 MiB allocation reported by mallinfo(arena+hblkhd)
          5173 MiB available memory on the node where the printing process lives
------------------
     ethr =  1.68E-04,  avg # of iterations =  2.7

     negative rho (up, down):  8.195E-01 0.000E+00

     total cpu time spent up to now is      277.0 secs

     total energy              =   -4483.04409619 Ry
     estimated scf accuracy    <       0.40577889 Ry

     iteration # 18     ecut=    60.00 Ry     beta= 0.15
     Davidson diagonalization with overlap

---- Real-time Memory Report at c_bands before calling an iterative solver
             0 MiB given to the printing process from OS
             0 MiB allocation reported by mallinfo(arena+hblkhd)
          5171 MiB available memory on the node where the printing process lives
------------------
     ethr =  9.29E-05,  avg # of iterations = 13.8

     negative rho (up, down):  8.212E-01 0.000E+00

     total cpu time spent up to now is      298.0 secs

     total energy              =   -4483.03163394 Ry
     estimated scf accuracy    <       1.59628117 Ry

     iteration # 19     ecut=    60.00 Ry     beta= 0.15
     Davidson diagonalization with overlap

---- Real-time Memory Report at c_bands before calling an iterative solver
             0 MiB given to the printing process from OS
             0 MiB allocation reported by mallinfo(arena+hblkhd)
          5140 MiB available memory on the node where the printing process lives
------------------
     ethr =  9.29E-05,  avg # of iterations =  5.1

     negative rho (up, down):  8.276E-01 0.000E+00

     total cpu time spent up to now is      315.2 secs

     total energy              =   -4483.02464822 Ry
     estimated scf accuracy    <       0.55411048 Ry

     iteration # 20     ecut=    60.00 Ry     beta= 0.15
     Davidson diagonalization with overlap

---- Real-time Memory Report at c_bands before calling an iterative solver
             0 MiB given to the printing process from OS
             0 MiB allocation reported by mallinfo(arena+hblkhd)
          5137 MiB available memory on the node where the printing process lives
------------------
     ethr =  9.29E-05,  avg # of iterations =  4.8

     negative rho (up, down):  8.260E-01 0.000E+00

     total cpu time spent up to now is      332.0 secs

     total energy              =   -4482.97807360 Ry
     estimated scf accuracy    <       0.65422943 Ry

     iteration # 21     ecut=    60.00 Ry     beta= 0.15
     Davidson diagonalization with overlap

---- Real-time Memory Report at c_bands before calling an iterative solver
             0 MiB given to the printing process from OS
             0 MiB allocation reported by mallinfo(arena+hblkhd)
          5132 MiB available memory on the node where the printing process lives
------------------
     ethr =  9.29E-05,  avg # of iterations =  8.9

     negative rho (up, down):  8.407E-01 0.000E+00

     total cpu time spent up to now is      350.9 secs

     total energy              =   -4482.97734792 Ry
     estimated scf accuracy    <       0.10253452 Ry

     iteration # 22     ecut=    60.00 Ry     beta= 0.15
     Davidson diagonalization with overlap

---- Real-time Memory Report at c_bands before calling an iterative solver
             0 MiB given to the printing process from OS
             0 MiB allocation reported by mallinfo(arena+hblkhd)
          5114 MiB available memory on the node where the printing process lives
------------------
     ethr =  2.35E-05,  avg # of iterations = 10.1

     negative rho (up, down):  8.387E-01 0.000E+00

     total cpu time spent up to now is      371.3 secs

     total energy              =   -4482.97483316 Ry
     estimated scf accuracy    <       0.05076955 Ry

     iteration # 23     ecut=    60.00 Ry     beta= 0.15
     Davidson diagonalization with overlap

---- Real-time Memory Report at c_bands before calling an iterative solver
             0 MiB given to the printing process from OS
             0 MiB allocation reported by mallinfo(arena+hblkhd)
          5038 MiB available memory on the node where the printing process lives
------------------
     c_bands:  1 eigenvalues not converged
     ethr =  1.16E-05,  avg # of iterations =  4.7

     negative rho (up, down):  8.255E-01 0.000E+00

     total cpu time spent up to now is      388.3 secs

     total energy              =   -4482.96949630 Ry
     estimated scf accuracy    <       0.03317681 Ry

     iteration # 24     ecut=    60.00 Ry     beta= 0.15
     Davidson diagonalization with overlap

---- Real-time Memory Report at c_bands before calling an iterative solver
             0 MiB given to the printing process from OS
             0 MiB allocation reported by mallinfo(arena+hblkhd)
          5043 MiB available memory on the node where the printing process lives
------------------
     ethr =  7.59E-06,  avg # of iterations = 12.9

     negative rho (up, down):  8.202E-01 0.000E+00

     total cpu time spent up to now is      410.0 secs

     total energy              =   -4482.96954680 Ry
     estimated scf accuracy    <       0.01514342 Ry

     iteration # 25     ecut=    60.00 Ry     beta= 0.15
     Davidson diagonalization with overlap

---- Real-time Memory Report at c_bands before calling an iterative solver
             0 MiB given to the printing process from OS
             0 MiB allocation reported by mallinfo(arena+hblkhd)
          5023 MiB available memory on the node where the printing process lives
------------------
     ethr =  3.47E-06,  avg # of iterations =  2.4

     negative rho (up, down):  8.121E-01 0.000E+00

     total cpu time spent up to now is      425.9 secs

     total energy              =   -4482.96821104 Ry
     estimated scf accuracy    <       0.01048166 Ry

     iteration # 26     ecut=    60.00 Ry     beta= 0.15
     Davidson diagonalization with overlap

---- Real-time Memory Report at c_bands before calling an iterative solver
             0 MiB given to the printing process from OS
             0 MiB allocation reported by mallinfo(arena+hblkhd)
          4991 MiB available memory on the node where the printing process lives
------------------
     ethr =  2.40E-06,  avg # of iterations =  9.0

     negative rho (up, down):  7.948E-01 0.000E+00

     total cpu time spent up to now is      445.4 secs

     total energy              =   -4482.96690954 Ry
     estimated scf accuracy    <       0.00563511 Ry

     iteration # 27     ecut=    60.00 Ry     beta= 0.15
     Davidson diagonalization with overlap

---- Real-time Memory Report at c_bands before calling an iterative solver
             0 MiB given to the printing process from OS
             0 MiB allocation reported by mallinfo(arena+hblkhd)
          4973 MiB available memory on the node where the printing process lives
------------------
     ethr =  1.29E-06,  avg # of iterations =  9.1

     negative rho (up, down):  7.963E-01 0.000E+00

     total cpu time spent up to now is      466.5 secs

     total energy              =   -4482.96729972 Ry
     estimated scf accuracy    <       0.00163000 Ry

     iteration # 28     ecut=    60.00 Ry     beta= 0.15
     Davidson diagonalization with overlap

---- Real-time Memory Report at c_bands before calling an iterative solver
             0 MiB given to the printing process from OS
             0 MiB allocation reported by mallinfo(arena+hblkhd)
          4907 MiB available memory on the node where the printing process lives
------------------
     ethr =  3.73E-07,  avg # of iterations =  3.7

     negative rho (up, down):  7.948E-01 0.000E+00

     total cpu time spent up to now is      483.2 secs

     total energy              =   -4482.96731546 Ry
     estimated scf accuracy    <       0.00093482 Ry

     iteration # 29     ecut=    60.00 Ry     beta= 0.15
     Davidson diagonalization with overlap

---- Real-time Memory Report at c_bands before calling an iterative solver
             0 MiB given to the printing process from OS
             0 MiB allocation reported by mallinfo(arena+hblkhd)
          4915 MiB available memory on the node where the printing process lives
------------------
     ethr =  2.14E-07,  avg # of iterations =  2.7

     negative rho (up, down):  7.937E-01 0.000E+00

     total cpu time spent up to now is      499.2 secs

     total energy              =   -4482.96730321 Ry
     estimated scf accuracy    <       0.00064221 Ry

     iteration # 30     ecut=    60.00 Ry     beta= 0.15
     Davidson diagonalization with overlap

---- Real-time Memory Report at c_bands before calling an iterative solver
             0 MiB given to the printing process from OS
             0 MiB allocation reported by mallinfo(arena+hblkhd)
          4979 MiB available memory on the node where the printing process lives
------------------
     ethr =  1.47E-07,  avg # of iterations =  3.8

     negative rho (up, down):  7.930E-01 0.000E+00

     total cpu time spent up to now is      515.8 secs

     total energy              =   -4482.96727231 Ry
     estimated scf accuracy    <       0.00041423 Ry

     iteration # 31     ecut=    60.00 Ry     beta= 0.15
     Davidson diagonalization with overlap

---- Real-time Memory Report at c_bands before calling an iterative solver
             0 MiB given to the printing process from OS
             0 MiB allocation reported by mallinfo(arena+hblkhd)
          4992 MiB available memory on the node where the printing process lives
------------------
     ethr =  9.48E-08,  avg # of iterations =  7.0

     negative rho (up, down):  7.931E-01 0.000E+00

     total cpu time spent up to now is      534.4 secs

     total energy              =   -4482.96724444 Ry
     estimated scf accuracy    <       0.00021491 Ry

     iteration # 32     ecut=    60.00 Ry     beta= 0.15
     Davidson diagonalization with overlap

---- Real-time Memory Report at c_bands before calling an iterative solver
             0 MiB given to the printing process from OS
             0 MiB allocation reported by mallinfo(arena+hblkhd)
          4995 MiB available memory on the node where the printing process lives
------------------
     ethr =  4.92E-08,  avg # of iterations =  3.7

     negative rho (up, down):  7.928E-01 0.000E+00

     total cpu time spent up to now is      550.9 secs

     total energy              =   -4482.96723031 Ry
     estimated scf accuracy    <       0.00012390 Ry

     iteration # 33     ecut=    60.00 Ry     beta= 0.15
     Davidson diagonalization with overlap

---- Real-time Memory Report at c_bands before calling an iterative solver
             0 MiB given to the printing process from OS
             0 MiB allocation reported by mallinfo(arena+hblkhd)
          4981 MiB available memory on the node where the printing process lives
------------------
     ethr =  2.84E-08,  avg # of iterations =  4.5

     negative rho (up, down):  7.923E-01 0.000E+00

     total cpu time spent up to now is      567.7 secs

     total energy              =   -4482.96722944 Ry
     estimated scf accuracy    <       0.00007566 Ry

     iteration # 34     ecut=    60.00 Ry     beta= 0.15
     Davidson diagonalization with overlap

---- Real-time Memory Report at c_bands before calling an iterative solver
             0 MiB given to the printing process from OS
             0 MiB allocation reported by mallinfo(arena+hblkhd)
          5002 MiB available memory on the node where the printing process lives
------------------
     ethr =  1.73E-08,  avg # of iterations =  3.4

     negative rho (up, down):  7.920E-01 0.000E+00

     total cpu time spent up to now is      584.3 secs

     total energy              =   -4482.96724301 Ry
     estimated scf accuracy    <       0.00002606 Ry

     iteration # 35     ecut=    60.00 Ry     beta= 0.15
     Davidson diagonalization with overlap

---- Real-time Memory Report at c_bands before calling an iterative solver
             0 MiB given to the printing process from OS
             0 MiB allocation reported by mallinfo(arena+hblkhd)
          5022 MiB available memory on the node where the printing process lives
------------------
     ethr =  5.96E-09,  avg # of iterations =  4.0

     negative rho (up, down):  7.920E-01 0.000E+00

     total cpu time spent up to now is      601.6 secs

     total energy              =   -4482.96725180 Ry
     estimated scf accuracy    <       0.00001226 Ry

     iteration # 36     ecut=    60.00 Ry     beta= 0.15
     Davidson diagonalization with overlap

---- Real-time Memory Report at c_bands before calling an iterative solver
             0 MiB given to the printing process from OS
             0 MiB allocation reported by mallinfo(arena+hblkhd)
          4937 MiB available memory on the node where the printing process lives
------------------
     ethr =  2.81E-09,  avg # of iterations =  3.7

     negative rho (up, down):  7.920E-01 0.000E+00

     total cpu time spent up to now is      618.2 secs

     total energy              =   -4482.96725616 Ry
     estimated scf accuracy    <       0.00000792 Ry

     iteration # 37     ecut=    60.00 Ry     beta= 0.15
     Davidson diagonalization with overlap

---- Real-time Memory Report at c_bands before calling an iterative solver
             0 MiB given to the printing process from OS
             0 MiB allocation reported by mallinfo(arena+hblkhd)
          4961 MiB available memory on the node where the printing process lives
------------------
     ethr =  1.81E-09,  avg # of iterations =  3.8

     negative rho (up, down):  7.922E-01 0.000E+00

     total cpu time spent up to now is      634.7 secs

     total energy              =   -4482.96725841 Ry
     estimated scf accuracy    <       0.00000676 Ry

     iteration # 38     ecut=    60.00 Ry     beta= 0.15
     Davidson diagonalization with overlap

---- Real-time Memory Report at c_bands before calling an iterative solver
             0 MiB given to the printing process from OS
             0 MiB allocation reported by mallinfo(arena+hblkhd)
          4964 MiB available memory on the node where the printing process lives
------------------
     ethr =  1.55E-09,  avg # of iterations =  4.5

     negative rho (up, down):  7.922E-01 0.000E+00

     total cpu time spent up to now is      651.5 secs

     total energy              =   -4482.96725982 Ry
     estimated scf accuracy    <       0.00000434 Ry

     iteration # 39     ecut=    60.00 Ry     beta= 0.15
     Davidson diagonalization with overlap

---- Real-time Memory Report at c_bands before calling an iterative solver
             0 MiB given to the printing process from OS
             0 MiB allocation reported by mallinfo(arena+hblkhd)
          4983 MiB available memory on the node where the printing process lives
------------------
     ethr =  9.92E-10,  avg # of iterations =  3.9

     negative rho (up, down):  7.922E-01 0.000E+00

     total cpu time spent up to now is      668.1 secs

     total energy              =   -4482.96726010 Ry
     estimated scf accuracy    <       0.00000423 Ry

     iteration # 40     ecut=    60.00 Ry     beta= 0.15
     Davidson diagonalization with overlap

---- Real-time Memory Report at c_bands before calling an iterative solver
             0 MiB given to the printing process from OS
             0 MiB allocation reported by mallinfo(arena+hblkhd)
          4982 MiB available memory on the node where the printing process lives
------------------
     ethr =  9.67E-10,  avg # of iterations =  3.9

     negative rho (up, down):  7.923E-01 0.000E+00

     total cpu time spent up to now is      684.7 secs

     total energy              =   -4482.96725904 Ry
     estimated scf accuracy    <       0.00000306 Ry

     iteration # 41     ecut=    60.00 Ry     beta= 0.15
     Davidson diagonalization with overlap

---- Real-time Memory Report at c_bands before calling an iterative solver
             0 MiB given to the printing process from OS
             0 MiB allocation reported by mallinfo(arena+hblkhd)
          5006 MiB available memory on the node where the printing process lives
------------------
     ethr =  7.00E-10,  avg # of iterations =  4.6

     negative rho (up, down):  7.923E-01 0.000E+00

     total cpu time spent up to now is      701.7 secs

     total energy              =   -4482.96725848 Ry
     estimated scf accuracy    <       0.00000221 Ry

     iteration # 42     ecut=    60.00 Ry     beta= 0.15
     Davidson diagonalization with overlap

---- Real-time Memory Report at c_bands before calling an iterative solver
             0 MiB given to the printing process from OS
             0 MiB allocation reported by mallinfo(arena+hblkhd)
          5051 MiB available memory on the node where the printing process lives
------------------
     ethr =  5.05E-10,  avg # of iterations =  3.0

     negative rho (up, down):  7.923E-01 0.000E+00

     total cpu time spent up to now is      717.7 secs

     total energy              =   -4482.96725840 Ry
     estimated scf accuracy    <       0.00000164 Ry

     iteration # 43     ecut=    60.00 Ry     beta= 0.15
     Davidson diagonalization with overlap

---- Real-time Memory Report at c_bands before calling an iterative solver
             0 MiB given to the printing process from OS
             0 MiB allocation reported by mallinfo(arena+hblkhd)
          5002 MiB available memory on the node where the printing process lives
------------------
     ethr =  3.75E-10,  avg # of iterations =  2.9

     negative rho (up, down):  7.923E-01 0.000E+00

     total cpu time spent up to now is      733.7 secs

     total energy              =   -4482.96725868 Ry
     estimated scf accuracy    <       0.00000093 Ry

     iteration # 44     ecut=    60.00 Ry     beta= 0.15
     Davidson diagonalization with overlap

---- Real-time Memory Report at c_bands before calling an iterative solver
             0 MiB given to the printing process from OS
             0 MiB allocation reported by mallinfo(arena+hblkhd)
          5003 MiB available memory on the node where the printing process lives
------------------
     ethr =  2.14E-10,  avg # of iterations =  2.7

     negative rho (up, down):  7.923E-01 0.000E+00

     total cpu time spent up to now is      749.5 secs

     total energy              =   -4482.96725925 Ry
     estimated scf accuracy    <       0.00000058 Ry

     iteration # 45     ecut=    60.00 Ry     beta= 0.15
     Davidson diagonalization with overlap

---- Real-time Memory Report at c_bands before calling an iterative solver
             0 MiB given to the printing process from OS
             0 MiB allocation reported by mallinfo(arena+hblkhd)
          5006 MiB available memory on the node where the printing process lives
------------------
     ethr =  1.33E-10,  avg # of iterations =  4.5

     negative rho (up, down):  7.922E-01 0.000E+00

     total cpu time spent up to now is      766.4 secs

     total energy              =   -4482.96725968 Ry
     estimated scf accuracy    <       0.00000036 Ry

     iteration # 46     ecut=    60.00 Ry     beta= 0.15
     Davidson diagonalization with overlap

---- Real-time Memory Report at c_bands before calling an iterative solver
             0 MiB given to the printing process from OS
             0 MiB allocation reported by mallinfo(arena+hblkhd)
          4999 MiB available memory on the node where the printing process lives
------------------
     ethr =  8.13E-11,  avg # of iterations =  4.8

     negative rho (up, down):  7.922E-01 0.000E+00

     total cpu time spent up to now is      783.4 secs

     total energy              =   -4482.96725984 Ry
     estimated scf accuracy    <       0.00000023 Ry

     iteration # 47     ecut=    60.00 Ry     beta= 0.15
     Davidson diagonalization with overlap

---- Real-time Memory Report at c_bands before calling an iterative solver
             0 MiB given to the printing process from OS
             0 MiB allocation reported by mallinfo(arena+hblkhd)
          4997 MiB available memory on the node where the printing process lives
------------------
     ethr =  5.25E-11,  avg # of iterations =  4.5

     negative rho (up, down):  7.923E-01 0.000E+00

     total cpu time spent up to now is      800.2 secs

     total energy              =   -4482.96725992 Ry
     estimated scf accuracy    <       0.00000015 Ry

     iteration # 48     ecut=    60.00 Ry     beta= 0.15
     Davidson diagonalization with overlap

---- Real-time Memory Report at c_bands before calling an iterative solver
             0 MiB given to the printing process from OS
             0 MiB allocation reported by mallinfo(arena+hblkhd)
          5000 MiB available memory on the node where the printing process lives
------------------
     ethr =  3.48E-11,  avg # of iterations =  5.8

     negative rho (up, down):  7.923E-01 0.000E+00

     total cpu time spent up to now is      817.9 secs

     total energy              =   -4482.96725992 Ry
     estimated scf accuracy    <       0.00000005 Ry

     iteration # 49     ecut=    60.00 Ry     beta= 0.15
     Davidson diagonalization with overlap

---- Real-time Memory Report at c_bands before calling an iterative solver
             0 MiB given to the printing process from OS
             0 MiB allocation reported by mallinfo(arena+hblkhd)
          4977 MiB available memory on the node where the printing process lives
------------------
     ethr =  1.03E-11,  avg # of iterations =  5.0

     negative rho (up, down):  7.923E-01 0.000E+00

     total cpu time spent up to now is      835.1 secs

     total energy              =   -4482.96725993 Ry
     estimated scf accuracy    <       0.00000002 Ry

     iteration # 50     ecut=    60.00 Ry     beta= 0.15
     Davidson diagonalization with overlap

---- Real-time Memory Report at c_bands before calling an iterative solver
             0 MiB given to the printing process from OS
             0 MiB allocation reported by mallinfo(arena+hblkhd)
          5010 MiB available memory on the node where the printing process lives
------------------
     ethr =  3.91E-12,  avg # of iterations =  4.0

     negative rho (up, down):  7.923E-01 0.000E+00

     total cpu time spent up to now is      851.9 secs

     total energy              =   -4482.96725994 Ry
     estimated scf accuracy    <       0.00000001 Ry

     iteration # 51     ecut=    60.00 Ry     beta= 0.15
     Davidson diagonalization with overlap

---- Real-time Memory Report at c_bands before calling an iterative solver
             0 MiB given to the printing process from OS
             0 MiB allocation reported by mallinfo(arena+hblkhd)
          5006 MiB available memory on the node where the printing process lives
------------------
     ethr =  2.48E-12,  avg # of iterations =  4.2

     negative rho (up, down):  7.923E-01 0.000E+00

     total cpu time spent up to now is      868.4 secs

     End of self-consistent calculation

          k = 0.0000 0.0000 0.0000 ( 65197 PWs)   bands (ev):

   -92.3231 -92.2673 -92.1769 -92.1274 -92.0680 -92.0294 -92.0124 -91.8906
   -55.6762 -55.6537 -55.5349 -55.5243 -55.5162 -55.5110 -55.4730 -55.4466
   -55.4306 -55.4283 -55.4183 -55.3770 -55.3582 -55.3203 -55.3028 -55.2673
   -55.2629 -55.2186 -55.2163 -55.2152 -55.2067 -55.1655 -55.1431 -55.0573
   -30.9105 -30.8915 -30.7727 -30.7506 -30.6911 -30.6639 -30.5748 -30.4653
   -29.4752 -29.4318 -29.4059 -29.2974 -22.2450 -14.7088 -14.6743 -14.5876
   -14.4567 -14.2760 -14.1522 -13.8498 -13.8339 -13.8007 -13.7628 -13.7585
   -13.7181 -13.7114 -13.6941 -13.6791 -13.6595 -13.6232 -13.5583 -13.4115
   -13.2430 -13.2011 -13.1678 -13.1429 -13.1230 -13.0788 -13.0380 -12.9576
   -12.8850 -12.8039 -12.7868 -12.7435 -12.7329 -12.7085 -12.6913 -12.6722
   -12.6429 -12.6270 -12.6036 -12.5830 -12.5706 -12.5582 -12.5488 -12.5319
   -12.4982 -12.4824 -12.4550 -12.4009 -12.3635 -12.3507 -11.9757 -11.8309
   -11.7225 -11.6459 -11.4892 -11.4144 -11.4032 -11.3813 -11.3635 -11.2994
   -11.2822 -11.2476 -11.2187 -11.1075 -11.0267 -11.0231  -5.7751  -3.1532
    -3.1492  -2.5694  -2.3356  -2.1060  -1.9610  -1.8959  -1.7529  -1.4474
    -1.4331  -1.4113  -1.3304  -1.3116  -1.2434  -1.2279  -1.1855  -1.1390
    -0.9602  -0.7376  -0.7091  -0.5568  -0.5434  -0.5007  -0.4825  -0.4385
    -0.4234  -0.3604  -0.3344  -0.2687  -0.2551  -0.1732  -0.0482  -0.0327
    -0.0040   0.0733   0.0791   0.0924   0.1650   0.2425   0.2608   0.3358
     0.3560   0.4114   0.5038   0.5518   0.5751   0.5834   0.8335   0.8486
     1.0188   1.0897   1.1507   1.2002   1.2916   1.3043   1.3212   1.3886
     1.4171   1.4522   1.5110   1.6469   1.6975   1.7214   1.7370   1.7456
     1.8167   1.8969   1.9853   2.0004   2.0552   2.0804   2.1170   2.1412
     2.1465   2.2038   2.2521   2.2642   2.2920   2.3253   2.3942   2.5227
     2.5990   2.6516   2.6661   2.8131   2.8287   2.8755   2.8890   2.9811
     3.0272   3.0481   3.0700   3.0782   3.1008   3.1118   3.1655   3.2780
     3.3109   3.3261   3.3332   3.3984   3.4027   3.4282   3.4367   3.4442
     3.4544   3.4623   3.4749   3.4802   3.4949   3.5037   3.5106   3.5312
     3.5524   3.5581   3.5691   3.5863   3.7101   3.7626   4.4332   4.7751
     4.7955   5.1532   5.3890   5.5080   5.6887   6.2878   6.3310   6.3726
     6.6254   6.6320   6.6890   6.7388   6.9633   7.2223   7.2863   7.3566
     7.3946   7.6632   7.7498   7.9096   7.9405   7.9697   8.0394   8.1492
     8.3035   8.3385   8.3690   8.3854   8.5006   8.5806   8.6042

     occupation numbers 
     1.0000   1.0000   1.0000   1.0000   1.0000   1.0000   1.0000   1.0000
     1.0000   1.0000   1.0000   1.0000   1.0000   1.0000   1.0000   1.0000
     1.0000   1.0000   1.0000   1.0000   1.0000   1.0000   1.0000   1.0000
     1.0000   1.0000   1.0000   1.0000   1.0000   1.0000   1.0000   1.0000
     1.0000   1.0000   1.0000   1.0000   1.0000   1.0000   1.0000   1.0000
     1.0000   1.0000   1.0000   1.0000   1.0000   1.0000   1.0000   1.0000
     1.0000   1.0000   1.0000   1.0000   1.0000   1.0000   1.0000   1.0000
     1.0000   1.0000   1.0000   1.0000   1.0000   1.0000   1.0000   1.0000
     1.0000   1.0000   1.0000   1.0000   1.0000   1.0000   1.0000   1.0000
     1.0000   1.0000   1.0000   1.0000   1.0000   1.0000   1.0000   1.0000
     1.0000   1.0000   1.0000   1.0000   1.0000   1.0000   1.0000   1.0000
     1.0000   1.0000   1.0000   1.0000   1.0000   1.0000   1.0000   1.0000
     1.0000   1.0000   1.0000   1.0000   1.0000   1.0000   1.0000   1.0000
     1.0000   1.0000   1.0000   1.0000   1.0000   1.0000   1.0000   1.0000
     1.0000   1.0000   1.0000   1.0000   1.0000   1.0000   1.0000   1.0000
     1.0000   1.0000   1.0000   1.0000   1.0000   1.0000   1.0000   1.0000
     1.0000   1.0000   1.0000   1.0000   1.0000   1.0000   1.0000   1.0000
     1.0000   1.0000   1.0000   1.0000   1.0000   1.0000   1.0000   1.0000
     1.0000   1.0000   1.0000   1.0000   1.0000   1.0000   1.0000   1.0000
     1.0000   1.0000   1.0000   1.0000   1.0000   1.0000   1.0000   1.0000
     1.0000   0.9999   0.9999   0.9999   0.9998   0.9998   0.9998   0.9997
     0.9997   0.9996   0.9994   0.9989   0.9986   0.9984   0.9982   0.9982
     0.9975   0.9963   0.9946   0.9943   0.9928   0.9920   0.9907   0.9898
     0.9896   0.9870   0.9844   0.9837   0.9819   0.9796   0.9740   0.9602
     0.9494   0.9408   0.9382   0.9069   0.9029   0.8905   0.8867   0.8582
     0.8422   0.8346   0.8264   0.8233   0.8144   0.8100   0.7877   0.7361
     0.7199   0.7122   0.7086   0.6745   0.6722   0.6585   0.6538   0.6497
     0.6440   0.6397   0.6326   0.6297   0.6214   0.6164   0.6125   0.6007
     0.5886   0.5852   0.5789   0.5688   0.4959   0.4648   0.1391   0.0557
     0.0524   0.0156   0.0062   0.0037   0.0016   0.0001   0.0000   0.0000
     0.0000   0.0000   0.0000   0.0000   0.0000   0.0000   0.0000   0.0000
     0.0000   0.0000   0.0000   0.0000   0.0000   0.0000   0.0000   0.0000
     0.0000   0.0000   0.0000   0.0000   0.0000   0.0000   0.0000

          k = 0.0000 0.2500 0.0000 ( 65257 PWs)   bands (ev):

   -92.3231 -92.2673 -92.1769 -92.1274 -92.0680 -92.0294 -92.0124 -91.8906
   -55.6762 -55.6537 -55.5349 -55.5243 -55.5162 -55.5110 -55.4730 -55.4466
   -55.4306 -55.4283 -55.4183 -55.3770 -55.3582 -55.3203 -55.3028 -55.2673
   -55.2629 -55.2186 -55.2163 -55.2152 -55.2067 -55.1655 -55.1431 -55.0573
   -30.9104 -30.8913 -30.7723 -30.7508 -30.6915 -30.6641 -30.5745 -30.4656
   -29.4746 -29.4315 -29.4065 -29.2977 -22.2450 -14.6716 -14.6484 -14.5626
   -14.4276 -14.3139 -14.1424 -13.9952 -13.8154 -13.7876 -13.7640 -13.7620
   -13.7350 -13.6792 -13.6731 -13.6589 -13.6438 -13.6080 -13.4787 -13.4424
   -13.2799 -13.2679 -13.2102 -13.1758 -13.1351 -13.0954 -13.0579 -12.9771
   -12.9444 -12.9145 -12.8482 -12.7818 -12.7663 -12.7410 -12.7241 -12.6502
   -12.6146 -12.5924 -12.5681 -12.5429 -12.5373 -12.5146 -12.4988 -12.4909
   -12.4513 -12.4318 -12.4282 -12.3943 -12.2684 -12.1891 -12.0370 -11.8822
   -11.7790 -11.7134 -11.4547 -11.4112 -11.3839 -11.3552 -11.3386 -11.2915
   -11.2800 -11.2576 -11.2237 -11.1217 -11.0684 -11.0577  -5.7751  -3.1534
    -3.1492  -2.4342  -2.2112  -2.0742  -1.8924  -1.8486  -1.6840  -1.4675
    -1.3794  -1.3663  -1.3114  -1.2081  -1.1932  -1.1577  -1.1333  -1.0896
    -0.8913  -0.7637  -0.7511  -0.6755  -0.6639  -0.5593  -0.5281  -0.4742
    -0.4498  -0.4047  -0.3434  -0.3187  -0.2846  -0.2565  -0.2388  -0.2048
    -0.1324  -0.0784  -0.0210   0.0884   0.1080   0.1510   0.2676   0.3031
     0.3665   0.4174   0.4850   0.5043   0.5294   0.5835   0.8811   0.9692
     0.9972   1.0894   1.1328   1.1520   1.2801   1.2981   1.3905   1.4147
     1.4466   1.5624   1.6456   1.6742   1.6970   1.7135   1.7448   1.8059
     1.8311   1.8572   1.9075   1.9362   1.9653   2.0402   2.0720   2.1098
     2.1677   2.2172   2.2475   2.2775   2.3154   2.3379   2.4283   2.5563
     2.6291   2.6499   2.7308   2.7732   2.8093   2.8166   2.8839   2.9283
     2.9980   3.0429   3.0607   3.0847   3.1093   3.2398   3.2611   3.2923
     3.3134   3.3320   3.3412   3.3488   3.3570   3.3867   3.3898   3.4066
     3.4096   3.4230   3.4383   3.4487   3.4598   3.4828   3.4932   3.4982
     3.5328   3.5495   3.6106   3.9554   3.9947   4.2526   4.6159   4.7632
     4.9189   5.0964   5.4265   5.5491   5.8159   5.9115   6.1741   6.3256
     6.3500   6.4733   6.5383   6.7446   6.8882   7.0657   7.2869   7.4389
     7.5570   7.7463   7.8069   7.8846   7.9335   7.9441   8.0903   8.2049
     8.2462   8.4067   8.5029   8.5436   8.5929   8.6938   8.9232

     occupation numbers 
     1.0000   1.0000   1.0000   1.0000   1.0000   1.0000   1.0000   1.0000
     1.0000   1.0000   1.0000   1.0000   1.0000   1.0000   1.0000   1.0000
     1.0000   1.0000   1.0000   1.0000   1.0000   1.0000   1.0000   1.0000
     1.0000   1.0000   1.0000   1.0000   1.0000   1.0000   1.0000   1.0000
     1.0000   1.0000   1.0000   1.0000   1.0000   1.0000   1.0000   1.0000
     1.0000   1.0000   1.0000   1.0000   1.0000   1.0000   1.0000   1.0000
     1.0000   1.0000   1.0000   1.0000   1.0000   1.0000   1.0000   1.0000
     1.0000   1.0000   1.0000   1.0000   1.0000   1.0000   1.0000   1.0000
     1.0000   1.0000   1.0000   1.0000   1.0000   1.0000   1.0000   1.0000
     1.0000   1.0000   1.0000   1.0000   1.0000   1.0000   1.0000   1.0000
     1.0000   1.0000   1.0000   1.0000   1.0000   1.0000   1.0000   1.0000
     1.0000   1.0000   1.0000   1.0000   1.0000   1.0000   1.0000   1.0000
     1.0000   1.0000   1.0000   1.0000   1.0000   1.0000   1.0000   1.0000
     1.0000   1.0000   1.0000   1.0000   1.0000   1.0000   1.0000   1.0000
     1.0000   1.0000   1.0000   1.0000   1.0000   1.0000   1.0000   1.0000
     1.0000   1.0000   1.0000   1.0000   1.0000   1.0000   1.0000   1.0000
     1.0000   1.0000   1.0000   1.0000   1.0000   1.0000   1.0000   1.0000
     1.0000   1.0000   1.0000   1.0000   1.0000   1.0000   1.0000   1.0000
     1.0000   1.0000   1.0000   1.0000   1.0000   1.0000   1.0000   1.0000
     1.0000   1.0000   1.0000   1.0000   1.0000   1.0000   1.0000   1.0000
     1.0000   0.9999   0.9999   0.9999   0.9998   0.9998   0.9997   0.9997
     0.9996   0.9993   0.9989   0.9987   0.9986   0.9984   0.9982   0.9976
     0.9973   0.9969   0.9962   0.9956   0.9951   0.9932   0.9923   0.9910
     0.9887   0.9863   0.9847   0.9829   0.9803   0.9787   0.9708   0.9557
     0.9446   0.9411   0.9256   0.9163   0.9078   0.9060   0.8881   0.8750
     0.8524   0.8365   0.8299   0.8208   0.8110   0.7543   0.7442   0.7291
     0.7186   0.7092   0.7045   0.7006   0.6963   0.6807   0.6791   0.6701
     0.6685   0.6613   0.6529   0.6472   0.6411   0.6282   0.6224   0.6196
     0.5998   0.5902   0.5546   0.3540   0.3325   0.2072   0.0876   0.0577
     0.0355   0.0193   0.0052   0.0031   0.0009   0.0005   0.0001   0.0000
     0.0000   0.0000   0.0000   0.0000   0.0000   0.0000   0.0000   0.0000
     0.0000   0.0000   0.0000   0.0000   0.0000   0.0000   0.0000   0.0000
     0.0000   0.0000   0.0000   0.0000   0.0000   0.0000   0.0000

          k = 0.0000-0.5000 0.0000 ( 65180 PWs)   bands (ev):

   -92.3231 -92.2673 -92.1769 -92.1274 -92.0680 -92.0294 -92.0124 -91.8906
   -55.6762 -55.6537 -55.5349 -55.5243 -55.5162 -55.5110 -55.4730 -55.4466
   -55.4306 -55.4283 -55.4183 -55.3770 -55.3582 -55.3203 -55.3028 -55.2673
   -55.2629 -55.2186 -55.2163 -55.2152 -55.2067 -55.1655 -55.1431 -55.0573
   -30.9102 -30.8912 -30.7719 -30.7510 -30.6919 -30.6642 -30.5742 -30.4659
   -29.4739 -29.4312 -29.4071 -29.2980 -22.2450 -14.6405 -14.5915 -14.5401
   -14.4165 -14.3263 -14.1894 -14.0448 -13.9217 -13.7849 -13.7620 -13.7266
   -13.6820 -13.6658 -13.6228 -13.6016 -13.5556 -13.5405 -13.5122 -13.4765
   -13.4610 -13.4130 -13.2120 -13.1576 -13.1444 -13.0855 -13.0765 -12.9895
   -12.9785 -12.9253 -12.9174 -12.8523 -12.7588 -12.7406 -12.7174 -12.6928
   -12.6047 -12.5909 -12.5628 -12.5386 -12.5153 -12.5115 -12.4898 -12.4398
   -12.4093 -12.4030 -12.3381 -12.2847 -12.1482 -12.1269 -11.9681 -11.9574
   -11.8868 -11.8432 -11.4082 -11.4063 -11.3791 -11.3407 -11.3068 -11.2958
   -11.2533 -11.2493 -11.2054 -11.1431 -11.1291 -11.1148  -5.7750  -3.1536
    -3.1491  -2.2198  -2.1595  -2.0083  -1.9354  -1.6566  -1.5726  -1.4444
    -1.3056  -1.2711  -1.2500  -1.1701  -1.1404  -1.0587  -1.0235  -0.9482
    -0.9060  -0.8662  -0.8395  -0.7850  -0.7463  -0.7013  -0.6645  -0.6299
    -0.5966  -0.4857  -0.4402  -0.4088  -0.4078  -0.3221  -0.2877  -0.2665
    -0.2185  -0.1339  -0.0672   0.0128   0.0387   0.1432   0.1908   0.3433
     0.3684   0.3999   0.4596   0.5729   0.6157   0.7655   0.8288   0.8371
     0.9653   1.0001   1.1163   1.2423   1.3505   1.3812   1.4136   1.4212
     1.4627   1.4803   1.5170   1.5323   1.5442   1.6521   1.7107   1.7397
     1.7670   2.0205   2.0538   2.0745   2.1641   2.1926   2.2231   2.2384
     2.2750   2.2836   2.2942   2.3275   2.3711   2.3977   2.4236   2.4386
     2.4669   2.5208   2.5990   2.6223   2.8075   2.9750   2.9827   2.9913
     3.0377   3.0425   3.0539   3.0777   3.1065   3.1102   3.1200   3.1735
     3.1938   3.2693   3.2827   3.3498   3.3592   3.3836   3.3851   3.4055
     3.4080   3.4136   3.4158   3.4206   3.4322   3.4529   3.4539   3.5181
     3.5239   3.5390   3.5936   4.4877   4.5022   4.5318   4.6044   4.9598
     5.1550   5.2387   5.4718   5.5169   5.5898   5.8278   5.9650   6.0057
     6.2262   6.3842   6.3936   6.4376   7.0108   7.0756   7.1493   7.4316
     7.5656   7.6126   7.7293   7.9864   8.0540   8.0814   8.2144   8.2855
     8.4405   8.5979   8.6844   8.7237   8.7467   8.8565   8.9798

     occupation numbers 
     1.0000   1.0000   1.0000   1.0000   1.0000   1.0000   1.0000   1.0000
     1.0000   1.0000   1.0000   1.0000   1.0000   1.0000   1.0000   1.0000
     1.0000   1.0000   1.0000   1.0000   1.0000   1.0000   1.0000   1.0000
     1.0000   1.0000   1.0000   1.0000   1.0000   1.0000   1.0000   1.0000
     1.0000   1.0000   1.0000   1.0000   1.0000   1.0000   1.0000   1.0000
     1.0000   1.0000   1.0000   1.0000   1.0000   1.0000   1.0000   1.0000
     1.0000   1.0000   1.0000   1.0000   1.0000   1.0000   1.0000   1.0000
     1.0000   1.0000   1.0000   1.0000   1.0000   1.0000   1.0000   1.0000
     1.0000   1.0000   1.0000   1.0000   1.0000   1.0000   1.0000   1.0000
     1.0000   1.0000   1.0000   1.0000   1.0000   1.0000   1.0000   1.0000
     1.0000   1.0000   1.0000   1.0000   1.0000   1.0000   1.0000   1.0000
     1.0000   1.0000   1.0000   1.0000   1.0000   1.0000   1.0000   1.0000
     1.0000   1.0000   1.0000   1.0000   1.0000   1.0000   1.0000   1.0000
     1.0000   1.0000   1.0000   1.0000   1.0000   1.0000   1.0000   1.0000
     1.0000   1.0000   1.0000   1.0000   1.0000   1.0000   1.0000   1.0000
     1.0000   1.0000   1.0000   1.0000   1.0000   1.0000   1.0000   1.0000
     1.0000   1.0000   1.0000   1.0000   1.0000   1.0000   1.0000   1.0000
     1.0000   1.0000   1.0000   1.0000   1.0000   1.0000   1.0000   1.0000
     1.0000   1.0000   1.0000   1.0000   1.0000   1.0000   1.0000   1.0000
     1.0000   1.0000   1.0000   1.0000   1.0000   1.0000   1.0000   1.0000
     1.0000   1.0000   0.9999   0.9999   0.9998   0.9997   0.9997   0.9996
     0.9996   0.9995   0.9994   0.9994   0.9993   0.9988   0.9985   0.9982
     0.9980   0.9938   0.9928   0.9922   0.9889   0.9876   0.9860   0.9852
     0.9830   0.9825   0.9818   0.9795   0.9760   0.9737   0.9713   0.9698
     0.9668   0.9604   0.9494   0.9457   0.9082   0.8602   0.8576   0.8547
     0.8384   0.8367   0.8325   0.8235   0.8122   0.8107   0.8067   0.7842
     0.7753   0.7403   0.7338   0.7001   0.6952   0.6824   0.6816   0.6707
     0.6694   0.6663   0.6652   0.6626   0.6563   0.6449   0.6443   0.6083
     0.6049   0.5963   0.5646   0.1220   0.1177   0.1093   0.0904   0.0310
     0.0155   0.0113   0.0043   0.0035   0.0025   0.0008   0.0004   0.0003
     0.0001   0.0000   0.0000   0.0000   0.0000   0.0000   0.0000   0.0000
     0.0000   0.0000   0.0000   0.0000   0.0000   0.0000   0.0000   0.0000
     0.0000   0.0000   0.0000   0.0000   0.0000   0.0000   0.0000

          k = 0.2500 0.2500 0.0000 ( 65198 PWs)   bands (ev):

   -92.3231 -92.2673 -92.1769 -92.1274 -92.0680 -92.0294 -92.0124 -91.8906
   -55.6762 -55.6537 -55.5349 -55.5243 -55.5162 -55.5110 -55.4730 -55.4466
   -55.4306 -55.4283 -55.4183 -55.3770 -55.3582 -55.3203 -55.3028 -55.2673
   -55.2629 -55.2186 -55.2163 -55.2152 -55.2067 -55.1655 -55.1431 -55.0573
   -30.9086 -30.8931 -30.7721 -30.7504 -30.6914 -30.6644 -30.5746 -30.4658
   -29.4736 -29.4325 -29.4061 -29.2981 -22.2450 -14.6439 -14.6125 -14.5348
   -14.4173 -14.3053 -14.1812 -14.1002 -13.9018 -13.7622 -13.7389 -13.7284
   -13.6941 -13.6635 -13.6426 -13.6208 -13.5910 -13.5684 -13.4716 -13.4564
   -13.2955 -13.2832 -13.2519 -13.2320 -13.1975 -13.1448 -13.1110 -13.0588
   -12.9753 -12.9338 -12.8642 -12.7771 -12.7391 -12.7208 -12.6835 -12.6544
   -12.6444 -12.5996 -12.5812 -12.5703 -12.5410 -12.5131 -12.4891 -12.4562
   -12.4036 -12.3939 -12.3753 -12.3469 -12.2105 -12.0864 -12.0848 -11.9113
   -11.8095 -11.7624 -11.4268 -11.3948 -11.3843 -11.3769 -11.3146 -11.2795
   -11.2730 -11.2377 -11.2299 -11.1382 -11.0966 -11.0792  -5.7751  -3.1534
    -3.1493  -2.2962  -2.0856  -1.9684  -1.8756  -1.7527  -1.6872  -1.4925
    -1.3450  -1.3243  -1.2979  -1.2029  -1.1674  -1.0756  -1.0490  -0.9989
    -0.8661  -0.8191  -0.7472  -0.7015  -0.6580  -0.6328  -0.6073  -0.5663
    -0.5498  -0.4602  -0.4109  -0.3491  -0.2995  -0.2705  -0.2159  -0.2066
    -0.1434  -0.0926  -0.0403  -0.0018   0.0794   0.1320   0.1619   0.2045
     0.2580   0.3151   0.3644   0.3935   0.4599   0.5115   0.7754   0.9191
     0.9605   1.0081   1.0548   1.1158   1.1692   1.2234   1.2609   1.5356
     1.6084   1.6830   1.7088   1.7515   1.7886   1.8229   1.8589   1.8777
     1.9060   1.9414   1.9539   1.9732   2.0129   2.0551   2.0938   2.1336
     2.1734   2.1884   2.2163   2.2585   2.3074   2.3373   2.4700   2.5359
     2.5780   2.6089   2.6646   2.7333   2.7648   2.8026   2.8223   2.8373
     2.9455   2.9857   3.0743   3.0857   3.0989   3.2506   3.2679   3.2744
     3.2895   3.3029   3.3167   3.3292   3.3372   3.3472   3.3608   3.3723
     3.3922   3.3987   3.4094   3.4294   3.4442   3.4534   3.4849   3.7866
     3.8772   3.9132   3.9739   3.9979   4.2231   4.3281   4.6515   4.8142
     4.9923   5.1570   5.3397   5.5750   5.9311   5.9640   6.0039   6.1319
     6.2141   6.2658   6.3580   6.4236   6.9117   7.0118   7.0506   7.1954
     7.7177   7.8004   7.8255   7.9043   8.0381   8.1386   8.2104   8.2854
     8.3443   8.4325   8.6331   8.6791   8.7013   8.7393   8.8392

     occupation numbers 
     1.0000   1.0000   1.0000   1.0000   1.0000   1.0000   1.0000   1.0000
     1.0000   1.0000   1.0000   1.0000   1.0000   1.0000   1.0000   1.0000
     1.0000   1.0000   1.0000   1.0000   1.0000   1.0000   1.0000   1.0000
     1.0000   1.0000   1.0000   1.0000   1.0000   1.0000   1.0000   1.0000
     1.0000   1.0000   1.0000   1.0000   1.0000   1.0000   1.0000   1.0000
     1.0000   1.0000   1.0000   1.0000   1.0000   1.0000   1.0000   1.0000
     1.0000   1.0000   1.0000   1.0000   1.0000   1.0000   1.0000   1.0000
     1.0000   1.0000   1.0000   1.0000   1.0000   1.0000   1.0000   1.0000
     1.0000   1.0000   1.0000   1.0000   1.0000   1.0000   1.0000   1.0000
     1.0000   1.0000   1.0000   1.0000   1.0000   1.0000   1.0000   1.0000
     1.0000   1.0000   1.0000   1.0000   1.0000   1.0000   1.0000   1.0000
     1.0000   1.0000   1.0000   1.0000   1.0000   1.0000   1.0000   1.0000
     1.0000   1.0000   1.0000   1.0000   1.0000   1.0000   1.0000   1.0000
     1.0000   1.0000   1.0000   1.0000   1.0000   1.0000   1.0000   1.0000
     1.0000   1.0000   1.0000   1.0000   1.0000   1.0000   1.0000   1.0000
     1.0000   1.0000   1.0000   1.0000   1.0000   1.0000   1.0000   1.0000
     1.0000   1.0000   1.0000   1.0000   1.0000   1.0000   1.0000   1.0000
     1.0000   1.0000   1.0000   1.0000   1.0000   1.0000   1.0000   1.0000
     1.0000   1.0000   1.0000   1.0000   1.0000   1.0000   1.0000   1.0000
     1.0000   1.0000   1.0000   1.0000   1.0000   1.0000   1.0000   1.0000
     1.0000   1.0000   1.0000   0.9999   0.9999   0.9999   0.9999   0.9994
     0.9991   0.9986   0.9985   0.9981   0.9978   0.9974   0.9969   0.9966
     0.9962   0.9956   0.9953   0.9949   0.9940   0.9928   0.9916   0.9901
     0.9884   0.9878   0.9864   0.9840   0.9809   0.9787   0.9665   0.9585
     0.9526   0.9479   0.9385   0.9251   0.9182   0.9094   0.9046   0.9007
     0.8697   0.8566   0.8248   0.8204   0.8152   0.7492   0.7410   0.7378
     0.7304   0.7238   0.7169   0.7106   0.7065   0.7014   0.6944   0.6883
     0.6779   0.6744   0.6686   0.6578   0.6497   0.6446   0.6270   0.4506
     0.3980   0.3776   0.3438   0.3308   0.2200   0.1767   0.0795   0.0495
     0.0278   0.0154   0.0075   0.0027   0.0005   0.0004   0.0003   0.0002
     0.0001   0.0001   0.0000   0.0000   0.0000   0.0000   0.0000   0.0000
     0.0000   0.0000   0.0000   0.0000   0.0000   0.0000   0.0000   0.0000
     0.0000   0.0000   0.0000   0.0000   0.0000   0.0000   0.0000

          k = 0.2500-0.5000 0.0000 ( 65138 PWs)   bands (ev):

   -92.3231 -92.2673 -92.1769 -92.1274 -92.0680 -92.0294 -92.0124 -91.8906
   -55.6762 -55.6537 -55.5349 -55.5243 -55.5162 -55.5110 -55.4730 -55.4466
   -55.4306 -55.4283 -55.4183 -55.3770 -55.3582 -55.3203 -55.3028 -55.2673
   -55.2629 -55.2186 -55.2163 -55.2152 -55.2067 -55.1655 -55.1431 -55.0573
   -30.9084 -30.8929 -30.7718 -30.7506 -30.6918 -30.6646 -30.5743 -30.4661
   -29.4730 -29.4321 -29.4067 -29.2985 -22.2450 -14.6103 -14.5645 -14.4971
   -14.3850 -14.3507 -14.2293 -14.1462 -14.0175 -13.7621 -13.7024 -13.6571
   -13.6263 -13.6073 -13.5898 -13.5731 -13.5413 -13.5282 -13.4930 -13.4512
   -13.4383 -13.4084 -13.2958 -13.2477 -13.2154 -13.1681 -13.1356 -13.0993
   -13.0296 -12.9867 -12.8399 -12.7759 -12.7587 -12.7000 -12.6658 -12.6612
   -12.6223 -12.6032 -12.5772 -12.5463 -12.5415 -12.5057 -12.4913 -12.4565
   -12.4220 -12.4088 -12.2886 -12.2572 -12.1549 -12.1052 -11.9551 -11.9414
   -11.8780 -11.8471 -11.4022 -11.3904 -11.3794 -11.3521 -11.3207 -11.2922
   -11.2513 -11.2234 -11.2013 -11.1562 -11.1301 -11.1189  -5.7750  -3.1536
    -3.1493  -2.0786  -2.0117  -1.8824  -1.8045  -1.6773  -1.5927  -1.4690
    -1.3173  -1.2652  -1.2425  -1.1789  -1.1656  -1.0694  -1.0023  -0.9165
    -0.8699  -0.8601  -0.7945  -0.7546  -0.7183  -0.6715  -0.6350  -0.6000
    -0.5590  -0.5488  -0.5029  -0.4751  -0.4341  -0.4033  -0.3352  -0.2356
    -0.1962  -0.1196  -0.0564  -0.0103   0.0357   0.0592   0.1029   0.2672
     0.2769   0.3810   0.4232   0.4335   0.4811   0.5024   0.5445   0.5697
     0.6470   0.9016   0.9924   1.0776   1.1395   1.3903   1.4187   1.5075
     1.5339   1.7052   1.7358   1.7805   1.8035   1.8221   1.8420   1.9015
     1.9445   1.9835   2.0617   2.1357   2.1782   2.2035   2.2167   2.2486
     2.2640   2.2743   2.3121   2.3297   2.3462   2.3839   2.4015   2.4300
     2.4594   2.5186   2.5551   2.6301   2.7760   2.9281   2.9415   2.9611
     2.9879   3.0130   3.0408   3.0644   3.0682   3.0813   3.1012   3.1116
     3.2000   3.2479   3.2691   3.2706   3.2869   3.3077   3.3220   3.3403
     3.3477   3.3765   3.3895   3.4058   3.4154   3.4241   3.4348   3.9498
     3.9556   4.1175   4.1650   4.4951   4.5418   4.5512   4.6715   5.0246
     5.1894   5.2692   5.4793   5.5088   5.6300   5.6886   5.8961   5.9219
     6.1017   6.1504   6.2884   6.4890   6.5796   6.6514   7.1137   7.2420
     7.4798   7.6334   7.9699   8.0865   8.1725   8.2175   8.3431   8.4055
     8.5519   8.5942   8.6854   8.7565   8.8281   8.8803   8.9320

     occupation numbers 
     1.0000   1.0000   1.0000   1.0000   1.0000   1.0000   1.0000   1.0000
     1.0000   1.0000   1.0000   1.0000   1.0000   1.0000   1.0000   1.0000
     1.0000   1.0000   1.0000   1.0000   1.0000   1.0000   1.0000   1.0000
     1.0000   1.0000   1.0000   1.0000   1.0000   1.0000   1.0000   1.0000
     1.0000   1.0000   1.0000   1.0000   1.0000   1.0000   1.0000   1.0000
     1.0000   1.0000   1.0000   1.0000   1.0000   1.0000   1.0000   1.0000
     1.0000   1.0000   1.0000   1.0000   1.0000   1.0000   1.0000   1.0000
     1.0000   1.0000   1.0000   1.0000   1.0000   1.0000   1.0000   1.0000
     1.0000   1.0000   1.0000   1.0000   1.0000   1.0000   1.0000   1.0000
     1.0000   1.0000   1.0000   1.0000   1.0000   1.0000   1.0000   1.0000
     1.0000   1.0000   1.0000   1.0000   1.0000   1.0000   1.0000   1.0000
     1.0000   1.0000   1.0000   1.0000   1.0000   1.0000   1.0000   1.0000
     1.0000   1.0000   1.0000   1.0000   1.0000   1.0000   1.0000   1.0000
     1.0000   1.0000   1.0000   1.0000   1.0000   1.0000   1.0000   1.0000
     1.0000   1.0000   1.0000   1.0000   1.0000   1.0000   1.0000   1.0000
     1.0000   1.0000   1.0000   1.0000   1.0000   1.0000   1.0000   1.0000
     1.0000   1.0000   1.0000   1.0000   1.0000   1.0000   1.0000   1.0000
     1.0000   1.0000   1.0000   1.0000   1.0000   1.0000   1.0000   1.0000
     1.0000   1.0000   1.0000   1.0000   1.0000   1.0000   1.0000   1.0000
     1.0000   1.0000   1.0000   1.0000   1.0000   1.0000   1.0000   1.0000
     1.0000   1.0000   1.0000   1.0000   0.9999   0.9997   0.9997   0.9994
     0.9994   0.9985   0.9983   0.9978   0.9976   0.9974   0.9971   0.9963
     0.9955   0.9947   0.9926   0.9900   0.9882   0.9870   0.9864   0.9846
     0.9837   0.9831   0.9806   0.9793   0.9780   0.9749   0.9734   0.9707
     0.9676   0.9607   0.9559   0.9444   0.9157   0.8751   0.8710   0.8647
     0.8559   0.8473   0.8373   0.8286   0.8271   0.8221   0.8143   0.8101
     0.7725   0.7505   0.7404   0.7396   0.7317   0.7214   0.7143   0.7049
     0.7012   0.6862   0.6793   0.6706   0.6654   0.6606   0.6548   0.3571
     0.3538   0.2692   0.2464   0.1198   0.1065   0.1040   0.0752   0.0249
     0.0137   0.0100   0.0042   0.0037   0.0021   0.0016   0.0006   0.0005
     0.0002   0.0001   0.0001   0.0000   0.0000   0.0000   0.0000   0.0000
     0.0000   0.0000   0.0000   0.0000   0.0000   0.0000   0.0000   0.0000
     0.0000   0.0000   0.0000   0.0000   0.0000   0.0000   0.0000

          k =-0.5000-0.5000 0.0000 ( 65132 PWs)   bands (ev):

   -92.3231 -92.2673 -92.1769 -92.1274 -92.0680 -92.0294 -92.0124 -91.8906
   -55.6762 -55.6537 -55.5349 -55.5243 -55.5162 -55.5110 -55.4730 -55.4466
   -55.4306 -55.4283 -55.4183 -55.3770 -55.3582 -55.3203 -55.3028 -55.2673
   -55.2629 -55.2186 -55.2163 -55.2152 -55.2067 -55.1655 -55.1431 -55.0573
   -30.9062 -30.8952 -30.7716 -30.7503 -30.6916 -30.6650 -30.5745 -30.4662
   -29.4719 -29.4332 -29.4063 -29.2989 -22.2450 -14.5649 -14.5368 -14.4201
   -14.4092 -14.3177 -14.2760 -14.2499 -14.1163 -13.7621 -13.6154 -13.6059
   -13.5683 -13.5515 -13.5333 -13.5258 -13.4888 -13.4804 -13.4679 -13.4607
   -13.4450 -13.3654 -13.3588 -13.3372 -13.3153 -13.2956 -13.2128 -13.1928
   -13.0809 -13.0359 -12.7916 -12.7555 -12.6850 -12.6682 -12.6588 -12.6394
   -12.6183 -12.6122 -12.6034 -12.5865 -12.5240 -12.5063 -12.4943 -12.4739
   -12.4326 -12.4260 -12.2384 -12.2308 -12.1712 -12.0851 -11.9516 -11.9106
   -11.8723 -11.8526 -11.3985 -11.3864 -11.3686 -11.3518 -11.3173 -11.2995
   -11.2647 -11.2038 -11.1835 -11.1783 -11.1278 -11.1248  -5.7750  -3.1535
    -3.1495  -1.8557  -1.7791  -1.7693  -1.6944  -1.6568  -1.5786  -1.5109
    -1.3851  -1.2675  -1.2380  -1.1993  -1.1409  -1.0693  -1.0558  -0.9839
    -0.9412  -0.8260  -0.7994  -0.7502  -0.7171  -0.6534  -0.6108  -0.5910
    -0.5802  -0.5277  -0.4785  -0.4677  -0.3529  -0.2957  -0.2491  -0.1999
    -0.1759  -0.1647  -0.1275  -0.0882  -0.0554  -0.0395   0.0467   0.1098
     0.1633   0.1808   0.2590   0.3057   0.3185   0.3781   0.3994   0.4171
     0.4375   0.8682   0.9047   1.0150   1.0603   1.4250   1.4383   1.4692
     1.5092   1.7873   1.8074   1.8141   1.8516   1.9869   2.0833   2.1086
     2.1425   2.1512   2.1799   2.1924   2.2242   2.2293   2.2357   2.2527
     2.3168   2.3193   2.3436   2.3480   2.3760   2.3841   2.4246   2.4568
     2.4668   2.5028   2.5274   2.6018   2.6704   2.9382   2.9726   2.9896
     3.0129   3.0141   3.0446   3.0541   3.0715   3.0785   3.0875   3.0999
     3.1085   3.1248   3.1365   3.2012   3.2047   3.2260   3.2398   3.2502
     3.2695   3.2753   3.2851   3.3849   3.3891   3.4203   3.4302   4.3787
     4.3919   4.4103   4.4198   4.6948   4.7668   4.7945   5.0342   5.1535
     5.1766   5.2411   5.3544   5.4092   5.5436   5.5682   5.5784   5.7304
     6.0069   6.0535   6.1287   6.2573   6.5392   6.6729   6.7661   7.0567
     7.5321   7.5426   7.6709   8.2956   8.3179   8.3961   8.4621   8.5675
     8.6109   8.8176   8.9017   8.9229   8.9422   8.9532   8.9805

     occupation numbers 
     1.0000   1.0000   1.0000   1.0000   1.0000   1.0000   1.0000   1.0000
     1.0000   1.0000   1.0000   1.0000   1.0000   1.0000   1.0000   1.0000
     1.0000   1.0000   1.0000   1.0000   1.0000   1.0000   1.0000   1.0000
     1.0000   1.0000   1.0000   1.0000   1.0000   1.0000   1.0000   1.0000
     1.0000   1.0000   1.0000   1.0000   1.0000   1.0000   1.0000   1.0000
     1.0000   1.0000   1.0000   1.0000   1.0000   1.0000   1.0000   1.0000
[...]
     0.0000   0.0000   0.0000   0.0000   0.0000   0.0000   0.0000   0.0000
     0.0000   0.0000   0.0000   0.0000   0.0000   0.0000   0.0000

          k =-0.5000 0.0000 0.0000 ( 65180 PWs)   bands (ev):

   -92.3231 -92.2673 -92.1769 -92.1274 -92.0680 -92.0294 -92.0124 -91.8906
   -55.6762 -55.6537 -55.5349 -55.5243 -55.5162 -55.5110 -55.4730 -55.4466
   -55.4306 -55.4283 -55.4183 -55.3770 -55.3582 -55.3203 -55.3028 -55.2673
   -55.2629 -55.2186 -55.2163 -55.2152 -55.2067 -55.1655 -55.1431 -55.0573
   -30.9066 -30.8955 -30.7724 -30.7499 -30.6909 -30.6647 -30.5751 -30.4656
   -29.4732 -29.4338 -29.4051 -29.2982 -22.2450 -14.6437 -14.5961 -14.5333
   -14.4287 -14.3189 -14.1747 -14.0381 -13.8984 -13.7650 -13.7620 -13.7570
   -13.7352 -13.6881 -13.6247 -13.5919 -13.5484 -13.5427 -13.5260 -13.4695
   -13.4635 -13.3707 -13.1835 -13.1701 -13.1243 -13.1155 -13.0905 -12.9947
   -12.9766 -12.9025 -12.8842 -12.8790 -12.7663 -12.6874 -12.6798 -12.6758
   -12.6582 -12.6444 -12.5826 -12.5735 -12.5641 -12.5447 -12.4760 -12.4123
   -12.3781 -12.3624 -12.2731 -12.2641 -12.1741 -12.1561 -12.0043 -11.9614
   -11.8707 -11.8336 -11.4055 -11.3845 -11.3775 -11.3627 -11.3449 -11.3037
   -11.2402 -11.2228 -11.1905 -11.1456 -11.1361 -11.1202  -5.7750  -3.1532
    -3.1495  -2.2096  -2.1704  -2.0055  -1.9666  -1.6556  -1.5804  -1.4304
    -1.3123  -1.2743  -1.2278  -1.1797  -1.1534  -1.0325  -0.9867  -0.9736
    -0.8899  -0.8544  -0.8421  -0.8071  -0.7530  -0.6828  -0.6517  -0.6271
    -0.5330  -0.4820  -0.4341  -0.4018  -0.3799  -0.3513  -0.3026  -0.2779
    -0.2421  -0.1477  -0.0722  -0.0128   0.0519   0.2003   0.2560   0.3151
     0.3339   0.3879   0.4257   0.5515   0.5925   0.6415   0.8128   0.9107
     0.9560   1.0390   1.0863   1.2258   1.2426   1.3656   1.3987   1.4528
     1.4764   1.5187   1.5298   1.5757   1.6013   1.6635   1.7116   1.7585
     1.7682   2.0588   2.0687   2.0728   2.0973   2.2189   2.2264   2.2335
     2.2529   2.2859   2.2983   2.3327   2.3647   2.3820   2.4508   2.4532
     2.5116   2.5248   2.5912   2.6933   2.7871   2.8720   2.8869   2.9645
     3.0021   3.0244   3.0801   3.0876   3.1035   3.1085   3.1145   3.1413
     3.2096   3.2538   3.2979   3.3268   3.3748   3.3779   3.3792   3.3916
     3.4065   3.4179   3.4324   3.4358   3.4557   3.4626   3.4838   3.5047
     3.5089   3.6347   3.6428   4.4466   4.4748   4.5376   4.6611   5.0183
     5.1556   5.2223   5.3281   5.4515   5.7306   5.8800   5.9723   5.9992
     6.2203   6.2939   6.3970   6.4447   6.9957   7.0833   7.1498   7.4728
     7.4944   7.6983   7.7648   7.8727   8.0935   8.1140   8.2071   8.3674
     8.4543   8.5799   8.6458   8.7404   8.7500   8.8716   8.9237

     occupation numbers 
     1.0000   1.0000   1.0000   1.0000   1.0000   1.0000   1.0000   1.0000
     1.0000   1.0000   1.0000   1.0000   1.0000   1.0000   1.0000   1.0000
     1.0000   1.0000   1.0000   1.0000   1.0000   1.0000   1.0000   1.0000
     1.0000   1.0000   1.0000   1.0000   1.0000   1.0000   1.0000   1.0000
     1.0000   1.0000   1.0000   1.0000   1.0000   1.0000   1.0000   1.0000
     1.0000   1.0000   1.0000   1.0000   1.0000   1.0000   1.0000   1.0000
     1.0000   1.0000   1.0000   1.0000   1.0000   1.0000   1.0000   1.0000
     1.0000   1.0000   1.0000   1.0000   1.0000   1.0000   1.0000   1.0000
     1.0000   1.0000   1.0000   1.0000   1.0000   1.0000   1.0000   1.0000
     1.0000   1.0000   1.0000   1.0000   1.0000   1.0000   1.0000   1.0000
     1.0000   1.0000   1.0000   1.0000   1.0000   1.0000   1.0000   1.0000
     1.0000   1.0000   1.0000   1.0000   1.0000   1.0000   1.0000   1.0000
     1.0000   1.0000   1.0000   1.0000   1.0000   1.0000   1.0000   1.0000
     1.0000   1.0000   1.0000   1.0000   1.0000   1.0000   1.0000   1.0000
     1.0000   1.0000   1.0000   1.0000   1.0000   1.0000   1.0000   1.0000
     1.0000   1.0000   1.0000   1.0000   1.0000   1.0000   1.0000   1.0000
     1.0000   1.0000   1.0000   1.0000   1.0000   1.0000   1.0000   1.0000
     1.0000   1.0000   1.0000   1.0000   1.0000   1.0000   1.0000   1.0000
     1.0000   1.0000   1.0000   1.0000   1.0000   1.0000   1.0000   1.0000
     1.0000   1.0000   1.0000   1.0000   1.0000   1.0000   1.0000   1.0000
     1.0000   1.0000   0.9999   0.9999   0.9999   0.9997   0.9997   0.9996
     0.9995   0.9994   0.9994   0.9992   0.9991   0.9988   0.9984   0.9981
     0.9980   0.9927   0.9924   0.9923   0.9914   0.9862   0.9858   0.9855
     0.9844   0.9823   0.9815   0.9791   0.9766   0.9751   0.9685   0.9683
     0.9616   0.9599   0.9506   0.9331   0.9131   0.8914   0.8872   0.8636
     0.8510   0.8432   0.8225   0.8196   0.8133   0.8114   0.8090   0.7979
     0.7682   0.7477   0.7263   0.7119   0.6871   0.6854   0.6848   0.6782
     0.6702   0.6640   0.6561   0.6543   0.6433   0.6395   0.6276   0.6159
     0.6135   0.5405   0.5357   0.1348   0.1259   0.1077   0.0774   0.0254
     0.0155   0.0120   0.0079   0.0047   0.0013   0.0006   0.0004   0.0003
     0.0001   0.0001   0.0000   0.0000   0.0000   0.0000   0.0000   0.0000
     0.0000   0.0000   0.0000   0.0000   0.0000   0.0000   0.0000   0.0000
     0.0000   0.0000   0.0000   0.0000   0.0000   0.0000   0.0000

          k =-0.2500 0.2500 0.0000 ( 65198 PWs)   bands (ev):

   -92.3231 -92.2673 -92.1769 -92.1274 -92.0680 -92.0294 -92.0124 -91.8906
   -55.6762 -55.6537 -55.5349 -55.5243 -55.5162 -55.5110 -55.4730 -55.4466
   -55.4306 -55.4283 -55.4183 -55.3770 -55.3582 -55.3203 -55.3028 -55.2673
   -55.2629 -55.2186 -55.2163 -55.2152 -55.2067 -55.1655 -55.1431 -55.0573
   -30.9086 -30.8931 -30.7721 -30.7504 -30.6914 -30.6644 -30.5746 -30.4658
   -29.4736 -29.4325 -29.4061 -29.2981 -22.2450 -14.6454 -14.6113 -14.5334
   -14.4151 -14.3119 -14.1855 -14.0921 -13.8934 -13.7622 -13.7469 -13.7167
   -13.7075 -13.6592 -13.6350 -13.6200 -13.6110 -13.5684 -13.4679 -13.4570
   -13.3046 -13.2784 -13.2513 -13.2295 -13.1991 -13.1308 -13.1013 -13.0686
   -12.9843 -12.9336 -12.8576 -12.7807 -12.7412 -12.7144 -12.6750 -12.6524
   -12.6295 -12.6069 -12.5860 -12.5728 -12.5592 -12.5186 -12.4979 -12.4494
   -12.4078 -12.4016 -12.3813 -12.3249 -12.1921 -12.1035 -12.0753 -11.9171
   -11.8123 -11.7585 -11.4261 -11.4042 -11.3772 -11.3648 -11.3243 -11.2892
   -11.2664 -11.2447 -11.2223 -11.1380 -11.0920 -11.0824  -5.7751  -3.1534
    -3.1493  -2.2945  -2.0846  -1.9640  -1.8776  -1.7569  -1.6898  -1.4901
    -1.3416  -1.3220  -1.2959  -1.2035  -1.1662  -1.0755  -1.0423  -1.0164
    -0.8718  -0.8172  -0.7501  -0.7212  -0.6619  -0.6382  -0.5977  -0.5686
    -0.5289  -0.4667  -0.4203  -0.3604  -0.2907  -0.2667  -0.2127  -0.1844
    -0.1399  -0.0833  -0.0433   0.0039   0.0975   0.1358   0.1397   0.1915
     0.2551   0.3159   0.3668   0.3966   0.4636   0.5100   0.7571   0.9219
     0.9680   1.0015   1.0590   1.1130   1.1735   1.2299   1.2588   1.5428
     1.6599   1.6982   1.7288   1.7387   1.7805   1.7983   1.8419   1.8719
     1.8896   1.9155   1.9528   1.9653   2.0155   2.0301   2.0748   2.1433
     2.1653   2.1879   2.2224   2.2553   2.2898   2.3420   2.4588   2.5651
     2.6047   2.6464   2.6677   2.7320   2.7774   2.8034   2.8241   2.8479
     2.9461   2.9846   3.0751   3.0855   3.0982   3.2569   3.2661   3.2790
     3.2896   3.2997   3.3129   3.3192   3.3371   3.3462   3.3616   3.3711
     3.3839   3.3933   3.4000   3.4316   3.4434   3.4527   3.4867   3.7797
     3.8604   3.9162   3.9775   4.0058   4.2080   4.3365   4.6505   4.8147
     4.9885   5.1593   5.3501   5.5738   5.9312   5.9630   6.0052   6.1363
     6.2110   6.2658   6.3643   6.4148   6.9242   6.9980   7.0479   7.2004
     7.7180   7.8111   7.8245   7.9066   7.9993   8.1658   8.2042   8.2872
     8.3517   8.4339   8.6137   8.6933   8.7152   8.7350   8.8385

     occupation numbers 
     1.0000   1.0000   1.0000   1.0000   1.0000   1.0000   1.0000   1.0000
     1.0000   1.0000   1.0000   1.0000   1.0000   1.0000   1.0000   1.0000
     1.0000   1.0000   1.0000   1.0000   1.0000   1.0000   1.0000   1.0000
     1.0000   1.0000   1.0000   1.0000   1.0000   1.0000   1.0000   1.0000
     1.0000   1.0000   1.0000   1.0000   1.0000   1.0000   1.0000   1.0000
     1.0000   1.0000   1.0000   1.0000   1.0000   1.0000   1.0000   1.0000
     1.0000   1.0000   1.0000   1.0000   1.0000   1.0000   1.0000   1.0000
     1.0000   1.0000   1.0000   1.0000   1.0000   1.0000   1.0000   1.0000
     1.0000   1.0000   1.0000   1.0000   1.0000   1.0000   1.0000   1.0000
     1.0000   1.0000   1.0000   1.0000   1.0000   1.0000   1.0000   1.0000
     1.0000   1.0000   1.0000   1.0000   1.0000   1.0000   1.0000   1.0000
     1.0000   1.0000   1.0000   1.0000   1.0000   1.0000   1.0000   1.0000
     1.0000   1.0000   1.0000   1.0000   1.0000   1.0000   1.0000   1.0000
     1.0000   1.0000   1.0000   1.0000   1.0000   1.0000   1.0000   1.0000
     1.0000   1.0000   1.0000   1.0000   1.0000   1.0000   1.0000   1.0000
     1.0000   1.0000   1.0000   1.0000   1.0000   1.0000   1.0000   1.0000
     1.0000   1.0000   1.0000   1.0000   1.0000   1.0000   1.0000   1.0000
     1.0000   1.0000   1.0000   1.0000   1.0000   1.0000   1.0000   1.0000
     1.0000   1.0000   1.0000   1.0000   1.0000   1.0000   1.0000   1.0000
     1.0000   1.0000   1.0000   1.0000   1.0000   1.0000   1.0000   1.0000
     1.0000   1.0000   1.0000   0.9999   0.9999   0.9999   0.9999   0.9993
     0.9988   0.9985   0.9983   0.9982   0.9978   0.9977   0.9971   0.9967
     0.9965   0.9960   0.9953   0.9951   0.9939   0.9935   0.9922   0.9897
     0.9888   0.9878   0.9861   0.9842   0.9821   0.9784   0.9677   0.9545
     0.9486   0.9417   0.9379   0.9253   0.9154   0.9092   0.9041   0.8979
     0.8695   0.8570   0.8245   0.8204   0.8155   0.7462   0.7418   0.7356
     0.7304   0.7254   0.7188   0.7157   0.7066   0.7019   0.6939   0.6890
     0.6822   0.6773   0.6737   0.6566   0.6501   0.6450   0.6260   0.4547
     0.4077   0.3759   0.3419   0.3265   0.2267   0.1735   0.0798   0.0494
     0.0282   0.0153   0.0072   0.0027   0.0005   0.0004   0.0003   0.0002
     0.0001   0.0001   0.0000   0.0000   0.0000   0.0000   0.0000   0.0000
     0.0000   0.0000   0.0000   0.0000   0.0000   0.0000   0.0000   0.0000
     0.0000   0.0000   0.0000   0.0000   0.0000   0.0000   0.0000

          k =-0.5000 0.2500 0.0000 ( 65138 PWs)   bands (ev):

   -92.3231 -92.2673 -92.1769 -92.1274 -92.0680 -92.0294 -92.0124 -91.8906
   -55.6762 -55.6537 -55.5349 -55.5243 -55.5162 -55.5110 -55.4730 -55.4466
   -55.4306 -55.4283 -55.4183 -55.3770 -55.3582 -55.3203 -55.3028 -55.2673
   -55.2629 -55.2186 -55.2163 -55.2152 -55.2067 -55.1655 -55.1431 -55.0573
   -30.9064 -30.8953 -30.7720 -30.7501 -30.6913 -30.6648 -30.5748 -30.4659
   -29.4726 -29.4335 -29.4057 -29.2985 -22.2450 -14.6116 -14.5692 -14.4904
   -14.3939 -14.3489 -14.2211 -14.1410 -14.0124 -13.7621 -13.6973 -13.6677
   -13.6552 -13.6121 -13.5952 -13.5644 -13.5343 -13.5269 -13.5034 -13.4650
   -13.4492 -13.3565 -13.2682 -13.2314 -13.2172 -13.2075 -13.1525 -13.1011
   -13.0249 -12.9679 -12.8340 -12.7979 -12.7168 -12.6990 -12.6620 -12.6492
   -12.6387 -12.6147 -12.5980 -12.5763 -12.5676 -12.5122 -12.4886 -12.4411
   -12.4025 -12.3928 -12.2554 -12.2479 -12.1724 -12.1174 -11.9620 -11.9566
   -11.8659 -11.8428 -11.3984 -11.3858 -11.3716 -11.3599 -11.3387 -11.3084
   -11.2276 -11.2189 -11.1957 -11.1600 -11.1317 -11.1226  -5.7750  -3.1534
    -3.1495  -2.0678  -2.0251  -1.8754  -1.8337  -1.6749  -1.5991  -1.4546
    -1.3187  -1.2629  -1.2349  -1.1959  -1.1559  -1.0763  -0.9618  -0.9052
    -0.8817  -0.8568  -0.7826  -0.7510  -0.7155  -0.6950  -0.6348  -0.6083
    -0.5667  -0.5313  -0.5029  -0.4460  -0.4202  -0.3783  -0.3445  -0.2405
    -0.2152  -0.1310  -0.0657  -0.0348   0.0207   0.1088   0.1371   0.2423
     0.2680   0.3331   0.3747   0.4023   0.4850   0.5203   0.5524   0.6044
     0.6404   0.9426   0.9878   1.0645   1.1019   1.3737   1.4343   1.5090
     1.5341   1.7173   1.7535   1.7909   1.8069   1.8246   1.8424   1.9102
     1.9522   1.9873   2.0170   2.1203   2.1630   2.2068   2.2161   2.2463
     2.2768   2.2920   2.3065   2.3285   2.3533   2.3963   2.4220   2.4522
     2.4756   2.4996   2.5695   2.6855   2.7867   2.8157   2.8854   2.9288
     2.9797   3.0247   3.0315   3.0660   3.0840   3.0924   3.1065   3.1273
     3.2096   3.2515   3.2640   3.2716   3.2922   3.3157   3.3286   3.3422
     3.3547   3.3742   3.3882   3.3992   3.4069   3.4182   3.4307   3.9538
     3.9829   4.1493   4.1690   4.4502   4.5008   4.5534   4.7569   5.0707
     5.1766   5.2431   5.3527   5.4670   5.7366   5.7727   5.8471   5.9744
     6.0626   6.1212   6.3180   6.4255   6.5715   6.6548   7.1294   7.3105
     7.4345   7.6319   7.9768   8.0716   8.1889   8.2229   8.3236   8.3956
     8.5477   8.6484   8.7078   8.7359   8.8376   8.8722   8.9377

     occupation numbers 
     1.0000   1.0000   1.0000   1.0000   1.0000   1.0000   1.0000   1.0000
     1.0000   1.0000   1.0000   1.0000   1.0000   1.0000   1.0000   1.0000
     1.0000   1.0000   1.0000   1.0000   1.0000   1.0000   1.0000   1.0000
     1.0000   1.0000   1.0000   1.0000   1.0000   1.0000   1.0000   1.0000
     1.0000   1.0000   1.0000   1.0000   1.0000   1.0000   1.0000   1.0000
     1.0000   1.0000   1.0000   1.0000   1.0000   1.0000   1.0000   1.0000
     1.0000   1.0000   1.0000   1.0000   1.0000   1.0000   1.0000   1.0000
     1.0000   1.0000   1.0000   1.0000   1.0000   1.0000   1.0000   1.0000
     1.0000   1.0000   1.0000   1.0000   1.0000   1.0000   1.0000   1.0000
     1.0000   1.0000   1.0000   1.0000   1.0000   1.0000   1.0000   1.0000
     1.0000   1.0000   1.0000   1.0000   1.0000   1.0000   1.0000   1.0000
     1.0000   1.0000   1.0000   1.0000   1.0000   1.0000   1.0000   1.0000
     1.0000   1.0000   1.0000   1.0000   1.0000   1.0000   1.0000   1.0000
     1.0000   1.0000   1.0000   1.0000   1.0000   1.0000   1.0000   1.0000
     1.0000   1.0000   1.0000   1.0000   1.0000   1.0000   1.0000   1.0000
     1.0000   1.0000   1.0000   1.0000   1.0000   1.0000   1.0000   1.0000
     1.0000   1.0000   1.0000   1.0000   1.0000   1.0000   1.0000   1.0000
     1.0000   1.0000   1.0000   1.0000   1.0000   1.0000   1.0000   1.0000
     1.0000   1.0000   1.0000   1.0000   1.0000   1.0000   1.0000   1.0000
     1.0000   1.0000   1.0000   1.0000   1.0000   1.0000   1.0000   1.0000
     1.0000   1.0000   1.0000   1.0000   0.9999   0.9997   0.9996   0.9994
     0.9994   0.9984   0.9981   0.9977   0.9976   0.9974   0.9971   0.9961
     0.9953   0.9946   0.9939   0.9906   0.9889   0.9869   0.9864   0.9847
     0.9829   0.9819   0.9809   0.9794   0.9775   0.9738   0.9714   0.9684
     0.9658   0.9630   0.9538   0.9346   0.9132   0.9062   0.8877   0.8749
     0.8586   0.8431   0.8407   0.8279   0.8210   0.8178   0.8122   0.8037
     0.7682   0.7488   0.7428   0.7392   0.7291   0.7174   0.7109   0.7040
     0.6975   0.6874   0.6800   0.6741   0.6700   0.6639   0.6571   0.3549
     0.3389   0.2538   0.2445   0.1337   0.1181   0.1034   0.0588   0.0211
     0.0143   0.0111   0.0072   0.0044   0.0013   0.0011   0.0007   0.0004
     0.0002   0.0002   0.0001   0.0000   0.0000   0.0000   0.0000   0.0000
     0.0000   0.0000   0.0000   0.0000   0.0000   0.0000   0.0000   0.0000
     0.0000   0.0000   0.0000   0.0000   0.0000   0.0000   0.0000

     the Fermi energy is     3.7031 ev

!    total energy              =   -4482.96725996 Ry
     estimated scf accuracy    <          3.6E-09 Ry
     smearing contrib. (-TS)   =      -1.17273347 Ry
     internal energy E=F+TS    =   -4481.79452649 Ry

     The total energy is F=E-TS. E is the sum of the following terms:
     one-electron contribution =  -20252.31209019 Ry
     hartree contribution      =   10266.03370394 Ry
     xc contribution           =    -701.57692064 Ry
     ewald contribution        =    6491.71981198 Ry
     one-center paw contrib.   =    -285.65903158 Ry
      -> PAW hartree energy AE =      25.18944777 Ry
      -> PAW hartree energy PS =     -25.07310801 Ry
      -> PAW xc energy AE      =     -16.52116178 Ry
      -> PAW xc energy PS      =       6.88083997 Ry
      -> total E_H with PAW    =   10266.15004371 Ry
      -> total E_XC with PAW   =    -711.21724244 Ry

     convergence has been achieved in  51 iterations

     Writing all to output data dir /bsuhome/zayahcortright/scratch/pwscf.save/
 
     init_run     :      7.72s CPU      8.61s WALL (       1 calls)
     electrons    :    807.38s CPU    859.58s WALL (       1 calls)

     Called by init_run:
     wfcinit      :      6.33s CPU      6.56s WALL (       1 calls)
     wfcinit:atom :      0.05s CPU      0.08s WALL (       5 calls)
     wfcinit:wfcr :      6.00s CPU      6.13s WALL (       5 calls)
     potinit      :      0.20s CPU      0.23s WALL (       1 calls)
     hinit0       :      0.29s CPU      0.71s WALL (       1 calls)

     Called by electrons:
     c_bands      :    645.01s CPU    655.61s WALL (      51 calls)
     sum_band     :    122.71s CPU    144.52s WALL (      51 calls)
     v_of_rho     :      5.53s CPU      5.93s WALL (      52 calls)
     v_h          :      0.49s CPU      0.50s WALL (      52 calls)
     v_xc         :      5.04s CPU      5.43s WALL (      52 calls)
     newd         :     18.83s CPU     37.81s WALL (      52 calls)
     PAW_pot      :      1.66s CPU      1.70s WALL (      52 calls)
     mix_rho      :     13.22s CPU     13.60s WALL (      51 calls)

     Called by c_bands:
     init_us_2    :      7.01s CPU      7.08s WALL (     515 calls)
     init_us_2:cp :      7.00s CPU      7.08s WALL (     515 calls)
     cegterg      :    610.52s CPU    620.80s WALL (     255 calls)

     Called by sum_band:
     sum_band:wei :      0.37s CPU      0.37s WALL (      51 calls)
     sum_band:loo :     98.74s CPU     99.51s WALL (      51 calls)
     sum_band:buf :      1.51s CPU      1.58s WALL (     255 calls)
     sum_band:ini :      3.31s CPU      3.32s WALL (     255 calls)
     sum_band:cal :     21.21s CPU     21.28s WALL (     255 calls)
     sum_band:bec :      0.58s CPU      0.60s WALL (     255 calls)
     addusdens    :     20.85s CPU     41.82s WALL (      51 calls)
                                        0.00s GPU  (      51 calls)
     addusd:skk   :      0.34s CPU      1.00s WALL (     204 calls)
                                        0.00s GPU  (     204 calls)

     Called by *egterg:
     cdiaghg      :     63.42s CPU     63.74s WALL (    1455 calls)
     cegterg:over :     47.56s CPU     47.79s WALL (    1200 calls)
     cegterg:upda :     38.07s CPU     39.17s WALL (    1200 calls)
     cegterg:last :     74.65s CPU     75.00s WALL (     478 calls)
     cdiaghg:chol :      3.92s CPU      3.95s WALL (    1455 calls)
     cdiaghg:inve :      3.94s CPU      3.96s WALL (    1455 calls)
     cdiaghg:para :      8.21s CPU      8.30s WALL (    2910 calls)
     h_psi        :    320.73s CPU    324.95s WALL (    1460 calls)
     s_psi        :     43.56s CPU     43.69s WALL (    1460 calls)
     g_psi        :      2.61s CPU      2.62s WALL (    1200 calls)

     Called by h_psi:
     h_psi:calbec :     49.26s CPU     49.53s WALL (    1460 calls)
     vloc_psi     :    222.93s CPU    224.93s WALL (    1460 calls)
     add_vuspsi   :     43.62s CPU     43.92s WALL (    1460 calls)

     General routines
     calbec       :     70.47s CPU     70.81s WALL (    1715 calls)
     fft          :      5.06s CPU      5.13s WALL (     674 calls)
     ffts         :      4.65s CPU      4.70s WALL (    5391 calls)
     fftw         :    189.64s CPU    191.03s WALL (  351625 calls)
     interpolate  :      0.46s CPU      0.46s WALL (      52 calls)
 
     Parallel routines

     PAW routines
     PAW_pot      :      1.66s CPU      1.70s WALL (      52 calls)
 
     PWSCF        :  13m37.16s CPU  14m34.99s WALL

 
   This run was terminated on:  19:21:22  18Jun2024            

=------------------------------------------------------------------------------=
   JOB DONE.
=------------------------------------------------------------------------------=
