
     Program PWSCF v.7.2 starts on 21Jun2024 at 12:33:42 

     This program is part of the open-source Quantum ESPRESSO suite
     for quantum simulation of materials; please cite
         "P. Giannozzi et al., J. Phys.:Condens. Matter 21 395502 (2009);
         "P. Giannozzi et al., J. Phys.:Condens. Matter 29 465901 (2017);
         "P. Giannozzi et al., J. Chem. Phys. 152 154105 (2020);
          URL http://www.quantum-espresso.org", 
     in publications or presentations arising from this work. More details at
     http://www.quantum-espresso.org/quote

     Parallel version (MPI & OpenMP), running on      48 processor cores
     Number of MPI processes:                48
     Threads/MPI process:                     1

     MPI processes distributed on     1 nodes
     180165 MiB available memory on the printing compute node when the environment starts
 
     Reading input from espresso.pwi
Warning: card &CELL ignored
Warning: card / ignored
Warning: card &FCP ignored
Warning: card / ignored
Warning: card &RISM ignored
Warning: card / ignored

     Current dimensions of program PWSCF are:
     Max number of different atomic species (ntypx) = 10
     Max number of k-points (npk) =  40000
     Max angular momentum in pseudopotentials (lmaxx) =  4
     file O.pbe-n-kjpaw_psl.0.1.UPF: wavefunction(s)  2P renormalized
     signal trapping enabled: kill the code with -SIGUSR1 to stop cleanly the simulation 
 
     K-points division:     npool     =       2
     R & G space division:  proc/nbgrp/npool/nimage =      24
     Subspace diagonalization in iterative solution of the eigenvalue problem:
     one sub-group per band group will be used
     scalapack distributed-memory algorithm (size of sub-group:  3*  3 procs)

 
     Parallelization info
     --------------------
     sticks:   dense  smooth     PW     G-vecs:    dense   smooth      PW
     Min         350     175     47                61430    21716    3036
     Max         351     177     48                61449    21727    3041
     Sum        8421    4205   1137              1474595   521381   72913
 
     Using Slab Decomposition
 


     bravais-lattice index     =            0
     lattice parameter (alat)  =      14.8599  a.u.
     unit-cell volume          =    8305.1283 (a.u.)^3
     number of atoms/cell      =           49
     number of atomic types    =            4
     number of electrons       =       425.00
     number of Kohn-Sham states=          256
     kinetic-energy cutoff     =      60.0000  Ry
     charge density cutoff     =     480.0000  Ry
     scf convergence threshold =      1.0E-08
     mixing beta               =       0.1500
     number of iterations used =            8  local-TF  mixing
     Exchange-correlation= PBE
                           (   1   4   3   4   0   0   0)

     celldm(1)=  14.859904  celldm(2)=   0.000000  celldm(3)=   0.000000
     celldm(4)=   0.000000  celldm(5)=   0.000000  celldm(6)=   0.000000

     crystal axes: (cart. coord. in units of alat)
               a(1) = (   1.000000   0.000000   0.000000 )  
               a(2) = (   0.000000   1.000000   0.000000 )  
               a(3) = (   0.000000   0.000000   2.531036 )  

     reciprocal axes: (cart. coord. in units 2 pi/alat)
               b(1) = (  1.000000  0.000000  0.000000 )  
               b(2) = (  0.000000  1.000000  0.000000 )  
               b(3) = (  0.000000  0.000000  0.395095 )  


     PseudoPot. # 1 for Sr read from file:
     /bsuhome/zayahcortright/q-e/pseudo/Sr_pbe_v1.uspp.F.UPF
     MD5 check sum: 6b418c05fbe9db5448babca5e47b7a5b
     Pseudo is Ultrasoft + core correction, Zval = 10.0
     Generated by new atomic code, or converted to UPF format
     Using radial grid of  883 points,  6 beta functions with: 
                l(1) =   0
                l(2) =   0
                l(3) =   1
                l(4) =   1
                l(5) =   2
                l(6) =   2
     Q(r) pseudized with  6 coefficients,  rinner =    1.400   1.400   1.400
                                                       1.400   1.400

     PseudoPot. # 2 for O  read from file:
     /bsuhome/zayahcortright/q-e/pseudo/O.pbe-n-kjpaw_psl.0.1.UPF
     MD5 check sum: 0234752ac141de4415c5fc33072bef88
     Pseudo is Projector augmented-wave + core cor, Zval =  6.0
     Generated using "atomic" code by A. Dal Corso  v.5.0.99 svn rev. 10869
     Shape of augmentation charge: BESSEL
     Using radial grid of 1095 points,  4 beta functions with: 
                l(1) =   0
                l(2) =   0
                l(3) =   1
                l(4) =   1
     Q(r) pseudized with 0 coefficients 


     PseudoPot. # 3 for Co read from file:
     /bsuhome/zayahcortright/q-e/pseudo/Co_pbe_v1.2.uspp.F.UPF
     MD5 check sum: 5f91765df6ddd3222702df6e7b74a16d
     Pseudo is Ultrasoft + core correction, Zval = 17.0
     Generated by new atomic code, or converted to UPF format
     Using radial grid of  863 points,  6 beta functions with: 
                l(1) =   0
                l(2) =   0
                l(3) =   1
                l(4) =   1
                l(5) =   2
                l(6) =   2
     Q(r) pseudized with  8 coefficients,  rinner =    1.200   1.200   1.200
                                                       1.200   1.200

     PseudoPot. # 4 for H  read from file:
     /bsuhome/zayahcortright/q-e/pseudo/H.pbe-rrkjus_psl.1.0.0.UPF
     MD5 check sum: f52b6d4d1c606e5624b1dc7b2218f220
     Pseudo is Ultrasoft, Zval =  1.0
     Generated using "atomic" code by A. Dal Corso  v.5.1
     Using radial grid of  929 points,  2 beta functions with: 
                l(1) =   0
                l(2) =   0
     Q(r) pseudized with 0 coefficients 


     atomic species   valence    mass     pseudopotential
        Sr            10.00    87.62000     Sr( 1.00)
        O              6.00    15.99900     O ( 1.00)
        Co            17.00    58.93319     Co( 1.00)
        H              1.00     1.00800     H ( 1.00)

     No symmetry found


                                    s                        frac. trans.

      isym =  1     identity                                     

 cryst.   s( 1) = (     1          0          0      )
                  (     0          1          0      )
                  (     0          0          1      )

 cart.    s( 1) = (  1.0000000  0.0000000  0.0000000 )
                  (  0.0000000  1.0000000  0.0000000 )
                  (  0.0000000  0.0000000  1.0000000 )


   Cartesian axes

     site n.     atom                  positions (alat units)
         1           Sr  tau(   1) = (   0.2508693   0.7491307   1.7574407  )
         2           O   tau(   2) = (   0.4985141   0.5014859   1.7715967  )
         3           Sr  tau(   3) = (   0.7482398   0.7454518   1.7648669  )
         4           Sr  tau(   4) = (   0.7441748   0.2558252   1.7667843  )
         5           Sr  tau(   5) = (   0.2508693   0.7491307   1.2696799  )
         6           Sr  tau(   6) = (   0.2508693   0.7491307   0.7632319  )
         7           Co  tau(   7) = (   0.4998914   0.5001086   1.0164559  )
         8           Co  tau(   8) = (   0.4936915   0.5063085   1.5135603  )
         9           O   tau(   9) = (   0.4988895   0.7610401   1.0164559  )
        10           O   tau(  10) = (   0.2389599   0.5011105   1.0164559  )
        11           O   tau(  11) = (   0.0070918   0.7374880   1.0164559  )
        12           O   tau(  12) = (   0.0088340   0.7405089   1.5135603  )
        13           O   tau(  13) = (   0.5066944   0.7415376   1.5135603  )
        14           O   tau(  14) = (   0.2584624   0.4933056   1.5135603  )
        15           O   tau(  15) = (   0.4985141   0.5014859   0.7773880  )
        16           O   tau(  16) = (   0.4985141   0.5014859   1.2555238  )
        17           Sr  tau(  17) = (   0.7482398   0.7454518   0.7706582  )
        18           Sr  tau(  18) = (   0.7482398   0.7454518   1.2622536  )
        19           Sr  tau(  19) = (   0.7441748   0.2558252   0.7725755  )
        20           Sr  tau(  20) = (   0.7441748   0.2558252   1.2603363  )
        21           O   tau(  21) = (   0.7322655   0.0078049   1.5135603  )
        22           O   tau(  22) = (   0.7558175   0.4996027   1.5135603  )
        23           O   tau(  23) = (   0.5003973   0.2441825   1.5135603  )
        24           O   tau(  24) = (   0.7527966   0.4978604   1.0164559  )
        25           O   tau(  25) = (   0.5021396   0.2472034   1.0164559  )
        26           O   tau(  26) = (   0.7517679   0.0000000   1.0164559  )
        27           O   tau(  27) = (   0.0114961   0.4948124   1.7455321  )
        28           O   tau(  28) = (   0.0048226   0.0077944   1.7715967  )
        29           Sr  tau(  29) = (   0.2545482   0.2517602   1.7648669  )
        30           O   tau(  30) = (   0.5048017   0.0015068   1.7786929  )
        31           Co  tau(  31) = (   0.0056869   0.5006215   1.0164559  )
        32           Co  tau(  32) = (   0.0065315   0.4997770   1.5135603  )
        33           Co  tau(  33) = (   0.0061999   0.0064171   1.0164559  )
        34           Co  tau(  34) = (   0.0000000   0.0126169   1.5135603  )
        35           O   tau(  35) = (   0.0114961   0.4948124   1.2815885  )
        36           O   tau(  36) = (   0.0114961   0.4948124   0.7513233  )
        37           O   tau(  37) = (   0.0051979   0.2673486   1.0164559  )
        38           O   tau(  38) = (   0.0130029   0.2478461   1.5135603  )
        39           O   tau(  39) = (   0.0048226   0.0077944   0.7773880  )
        40           O   tau(  40) = (   0.0048226   0.0077944   1.2555238  )
        41           Sr  tau(  41) = (   0.2545482   0.2517602   0.7706582  )
        42           Sr  tau(  42) = (   0.2545482   0.2517602   1.2622536  )
        43           Co  tau(  43) = (   0.4989925   0.0073160   1.5135603  )
        44           Co  tau(  44) = (   0.4998370   0.0064714   1.0164559  )
        45           O   tau(  45) = (   0.5048017   0.0015068   0.7844841  )
        46           O   tau(  46) = (   0.5048017   0.0015068   1.2484277  )
        47           O   tau(  47) = (   0.2621260   0.0059111   1.5135603  )
        48           O   tau(  48) = (   0.2591051   0.0041689   1.0164559  )
        49           H   tau(  49) = (   0.0000000   0.4264937   2.1602013  )

   Crystallographic axes

     site n.     atom                  positions (cryst. coord.)
         1           Sr  tau(   1) = (  0.2508693  0.7491307  0.6943562  )
         2           O   tau(   2) = (  0.4985141  0.5014859  0.6999492  )
         3           Sr  tau(   3) = (  0.7482398  0.7454518  0.6972903  )
         4           Sr  tau(   4) = (  0.7441748  0.2558252  0.6980478  )
         5           Sr  tau(   5) = (  0.2508693  0.7491307  0.5016443  )
         6           Sr  tau(   6) = (  0.2508693  0.7491307  0.3015492  )
         7           Co  tau(   7) = (  0.4998914  0.5001086  0.4015968  )
         8           Co  tau(   8) = (  0.4936915  0.5063085  0.5980003  )
         9           O   tau(   9) = (  0.4988895  0.7610401  0.4015968  )
        10           O   tau(  10) = (  0.2389599  0.5011105  0.4015968  )
        11           O   tau(  11) = (  0.0070918  0.7374880  0.4015968  )
        12           O   tau(  12) = (  0.0088340  0.7405089  0.5980003  )
        13           O   tau(  13) = (  0.5066944  0.7415376  0.5980003  )
        14           O   tau(  14) = (  0.2584624  0.4933056  0.5980003  )
        15           O   tau(  15) = (  0.4985141  0.5014859  0.3071422  )
        16           O   tau(  16) = (  0.4985141  0.5014859  0.4960513  )
        17           Sr  tau(  17) = (  0.7482398  0.7454518  0.3044833  )
        18           Sr  tau(  18) = (  0.7482398  0.7454518  0.4987103  )
        19           Sr  tau(  19) = (  0.7441748  0.2558252  0.3052408  )
        20           Sr  tau(  20) = (  0.7441748  0.2558252  0.4979527  )
        21           O   tau(  21) = (  0.7322655  0.0078049  0.5980003  )
        22           O   tau(  22) = (  0.7558175  0.4996027  0.5980003  )
        23           O   tau(  23) = (  0.5003973  0.2441825  0.5980003  )
        24           O   tau(  24) = (  0.7527966  0.4978604  0.4015968  )
        25           O   tau(  25) = (  0.5021396  0.2472034  0.4015968  )
        26           O   tau(  26) = (  0.7517679  0.0000000  0.4015968  )
        27           O   tau(  27) = (  0.0114961  0.4948124  0.6896512  )
        28           O   tau(  28) = (  0.0048226  0.0077944  0.6999492  )
        29           Sr  tau(  29) = (  0.2545482  0.2517602  0.6972903  )
        30           O   tau(  30) = (  0.5048017  0.0015068  0.7027529  )
        31           Co  tau(  31) = (  0.0056869  0.5006215  0.4015968  )
        32           Co  tau(  32) = (  0.0065315  0.4997770  0.5980003  )
        33           Co  tau(  33) = (  0.0061999  0.0064171  0.4015968  )
        34           Co  tau(  34) = (  0.0000000  0.0126169  0.5980003  )
        35           O   tau(  35) = (  0.0114961  0.4948124  0.5063494  )
        36           O   tau(  36) = (  0.0114961  0.4948124  0.2968442  )
        37           O   tau(  37) = (  0.0051979  0.2673486  0.4015968  )
        38           O   tau(  38) = (  0.0130029  0.2478461  0.5980003  )
        39           O   tau(  39) = (  0.0048226  0.0077944  0.3071422  )
        40           O   tau(  40) = (  0.0048226  0.0077944  0.4960513  )
        41           Sr  tau(  41) = (  0.2545482  0.2517602  0.3044833  )
        42           Sr  tau(  42) = (  0.2545482  0.2517602  0.4987103  )
        43           Co  tau(  43) = (  0.4989925  0.0073160  0.5980003  )
        44           Co  tau(  44) = (  0.4998370  0.0064714  0.4015968  )
        45           O   tau(  45) = (  0.5048017  0.0015068  0.3099459  )
        46           O   tau(  46) = (  0.5048017  0.0015068  0.4932477  )
        47           O   tau(  47) = (  0.2621260  0.0059111  0.5980003  )
        48           O   tau(  48) = (  0.2591051  0.0041689  0.4015968  )
        49           H   tau(  49) = (  0.0000000  0.4264937  0.8534850  )

     number of k points=    10  Gaussian smearing, width (Ry)=  0.0700
                       cart. coord. in units 2pi/alat
        k(    1) = (   0.0000000   0.0000000   0.0000000), wk =   0.1250000
        k(    2) = (   0.0000000   0.2500000   0.0000000), wk =   0.2500000
        k(    3) = (   0.0000000  -0.5000000   0.0000000), wk =   0.1250000
        k(    4) = (   0.2500000   0.2500000   0.0000000), wk =   0.2500000
        k(    5) = (   0.2500000  -0.5000000   0.0000000), wk =   0.2500000
        k(    6) = (  -0.5000000  -0.5000000   0.0000000), wk =   0.1250000
        k(    7) = (   0.2500000   0.0000000   0.0000000), wk =   0.2500000
        k(    8) = (  -0.5000000   0.0000000   0.0000000), wk =   0.1250000
        k(    9) = (  -0.2500000   0.2500000   0.0000000), wk =   0.2500000
        k(   10) = (  -0.5000000   0.2500000   0.0000000), wk =   0.2500000

                       cryst. coord.
        k(    1) = (   0.0000000   0.0000000   0.0000000), wk =   0.1250000
        k(    2) = (   0.0000000   0.2500000   0.0000000), wk =   0.2500000
        k(    3) = (   0.0000000  -0.5000000   0.0000000), wk =   0.1250000
        k(    4) = (   0.2500000   0.2500000   0.0000000), wk =   0.2500000
        k(    5) = (   0.2500000  -0.5000000   0.0000000), wk =   0.2500000
        k(    6) = (  -0.5000000  -0.5000000   0.0000000), wk =   0.1250000
        k(    7) = (   0.2500000   0.0000000   0.0000000), wk =   0.2500000
        k(    8) = (  -0.5000000   0.0000000   0.0000000), wk =   0.1250000
        k(    9) = (  -0.2500000   0.2500000   0.0000000), wk =   0.2500000
        k(   10) = (  -0.5000000   0.2500000   0.0000000), wk =   0.2500000

     Dense  grid:  1474595 G-vectors     FFT dimensions: ( 108, 108, 270)

     Smooth grid:   521381 G-vectors     FFT dimensions: (  75,  75, 192)

     Dynamical RAM for                 wfc:      10.61 MB

     Dynamical RAM for     wfc (w. buffer):      63.63 MB

     Dynamical RAM for           str. fact:       3.75 MB

     Dynamical RAM for           local pot:       0.00 MB

     Dynamical RAM for          nlocal pot:      24.28 MB

     Dynamical RAM for                qrad:       7.03 MB

     Dynamical RAM for          rho,v,vnew:       6.02 MB

     Dynamical RAM for               rhoin:       2.01 MB

     Dynamical RAM for            rho*nmix:      15.00 MB

     Dynamical RAM for           G-vectors:       3.68 MB

     Dynamical RAM for          h,s,v(r/c):       1.32 MB

     Dynamical RAM for          <psi|beta>:       2.29 MB

     Dynamical RAM for                 psi:      21.21 MB

     Dynamical RAM for                hpsi:      21.21 MB

     Dynamical RAM for                spsi:      21.21 MB

     Dynamical RAM for      wfcinit/wfcrot:      34.09 MB

     Dynamical RAM for           addusdens:     100.79 MB

     Estimated static dynamical RAM per process >     120.42 MB

     Estimated max dynamical RAM per process >     236.21 MB

     Estimated total dynamical RAM >      10.72 GB

     Check: negative core charge=   -0.000004

     Initial potential from superposition of free atoms

     starting charge     416.5961, renormalised to     425.0000

     negative rho (up, down):  7.827E-01 0.000E+00
     Starting wfcs are  373 randomized atomic wfcs
     Checking if some PAW data can be deallocated... 
       PAW data deallocated on   20 nodes for type:  2

     total cpu time spent up to now is        8.4 secs

     Self-consistent Calculation

     iteration #  1     ecut=    60.00 Ry     beta= 0.15
     Davidson diagonalization with overlap

---- Real-time Memory Report at c_bands before calling an iterative solver
             0 MiB given to the printing process from OS
             0 MiB allocation reported by mallinfo(arena+hblkhd)
        170512 MiB available memory on the node where the printing process lives
------------------
     ethr =  1.00E-02,  avg # of iterations =  2.0

     negative rho (up, down):  7.718E-01 0.000E+00

     total cpu time spent up to now is       22.9 secs

     total energy              =   -4404.76454252 Ry
     estimated scf accuracy    <      42.20526507 Ry

     iteration #  2     ecut=    60.00 Ry     beta= 0.15
     Davidson diagonalization with overlap

---- Real-time Memory Report at c_bands before calling an iterative solver
             0 MiB given to the printing process from OS
             0 MiB allocation reported by mallinfo(arena+hblkhd)
        170728 MiB available memory on the node where the printing process lives
------------------
     ethr =  9.93E-03,  avg # of iterations =  1.0

     negative rho (up, down):  7.532E-01 0.000E+00

     total cpu time spent up to now is       34.9 secs

     total energy              =   -4400.03628589 Ry
     estimated scf accuracy    <      26.66004039 Ry

     iteration #  3     ecut=    60.00 Ry     beta= 0.15
     Davidson diagonalization with overlap

---- Real-time Memory Report at c_bands before calling an iterative solver
             0 MiB given to the printing process from OS
             0 MiB allocation reported by mallinfo(arena+hblkhd)
        169975 MiB available memory on the node where the printing process lives
------------------
     ethr =  6.27E-03,  avg # of iterations =  2.0

     negative rho (up, down):  7.544E-01 0.000E+00

     total cpu time spent up to now is       48.3 secs

     total energy              =   -4402.39291639 Ry
     estimated scf accuracy    <      49.18428958 Ry

     iteration #  4     ecut=    60.00 Ry     beta= 0.15
     Davidson diagonalization with overlap

---- Real-time Memory Report at c_bands before calling an iterative solver
             0 MiB given to the printing process from OS
             0 MiB allocation reported by mallinfo(arena+hblkhd)
        169852 MiB available memory on the node where the printing process lives
------------------
     ethr =  6.27E-03,  avg # of iterations =  1.0

     negative rho (up, down):  7.411E-01 0.000E+00

     total cpu time spent up to now is       60.3 secs

     total energy              =   -4401.65663008 Ry
     estimated scf accuracy    <      29.31511671 Ry

     iteration #  5     ecut=    60.00 Ry     beta= 0.15
     Davidson diagonalization with overlap

---- Real-time Memory Report at c_bands before calling an iterative solver
             0 MiB given to the printing process from OS
             0 MiB allocation reported by mallinfo(arena+hblkhd)
        169830 MiB available memory on the node where the printing process lives
------------------
     ethr =  6.27E-03,  avg # of iterations =  1.0

     negative rho (up, down):  7.470E-01 0.000E+00

     total cpu time spent up to now is       72.6 secs

     total energy              =   -4399.86556174 Ry
     estimated scf accuracy    <      44.01138489 Ry

     iteration #  6     ecut=    60.00 Ry     beta= 0.15
     Davidson diagonalization with overlap

---- Real-time Memory Report at c_bands before calling an iterative solver
             0 MiB given to the printing process from OS
             0 MiB allocation reported by mallinfo(arena+hblkhd)
        169804 MiB available memory on the node where the printing process lives
------------------
     ethr =  6.27E-03,  avg # of iterations =  1.0

     negative rho (up, down):  7.421E-01 0.000E+00

     total cpu time spent up to now is       84.9 secs

     total energy              =   -4400.64577959 Ry
     estimated scf accuracy    <      11.94845467 Ry

     iteration #  7     ecut=    60.00 Ry     beta= 0.15
     Davidson diagonalization with overlap

---- Real-time Memory Report at c_bands before calling an iterative solver
             0 MiB given to the printing process from OS
             0 MiB allocation reported by mallinfo(arena+hblkhd)
        169788 MiB available memory on the node where the printing process lives
------------------
     ethr =  2.81E-03,  avg # of iterations =  1.1

     negative rho (up, down):  7.443E-01 0.000E+00

     total cpu time spent up to now is       97.6 secs

     total energy              =   -4400.80448882 Ry
     estimated scf accuracy    <       4.14657149 Ry

     iteration #  8     ecut=    60.00 Ry     beta= 0.15
     Davidson diagonalization with overlap

---- Real-time Memory Report at c_bands before calling an iterative solver
             0 MiB given to the printing process from OS
             0 MiB allocation reported by mallinfo(arena+hblkhd)
        169768 MiB available memory on the node where the printing process lives
------------------
     ethr =  9.76E-04,  avg # of iterations =  1.6

     negative rho (up, down):  7.540E-01 0.000E+00

     total cpu time spent up to now is      110.5 secs

     total energy              =   -4400.31645403 Ry
     estimated scf accuracy    <       3.61651083 Ry

     iteration #  9     ecut=    60.00 Ry     beta= 0.15
     Davidson diagonalization with overlap

---- Real-time Memory Report at c_bands before calling an iterative solver
             0 MiB given to the printing process from OS
             0 MiB allocation reported by mallinfo(arena+hblkhd)
        169753 MiB available memory on the node where the printing process lives
------------------
     ethr =  8.51E-04,  avg # of iterations =  3.3

     negative rho (up, down):  7.762E-01 0.000E+00

     total cpu time spent up to now is      125.6 secs

     total energy              =   -4399.86215879 Ry
     estimated scf accuracy    <      44.95064524 Ry

     iteration # 10     ecut=    60.00 Ry     beta= 0.15
     Davidson diagonalization with overlap

---- Real-time Memory Report at c_bands before calling an iterative solver
             0 MiB given to the printing process from OS
             0 MiB allocation reported by mallinfo(arena+hblkhd)
        169667 MiB available memory on the node where the printing process lives
------------------
     ethr =  8.51E-04,  avg # of iterations =  9.9

     negative rho (up, down):  7.791E-01 0.000E+00

     total cpu time spent up to now is      144.0 secs

     total energy              =   -4399.75320249 Ry
     estimated scf accuracy    <      11.76840670 Ry

     iteration # 11     ecut=    60.00 Ry     beta= 0.15
     Davidson diagonalization with overlap

---- Real-time Memory Report at c_bands before calling an iterative solver
             0 MiB given to the printing process from OS
             0 MiB allocation reported by mallinfo(arena+hblkhd)
        169264 MiB available memory on the node where the printing process lives
------------------
     ethr =  8.51E-04,  avg # of iterations =  1.1

     negative rho (up, down):  7.817E-01 0.000E+00

     total cpu time spent up to now is      156.0 secs

     total energy              =   -4400.12418496 Ry
     estimated scf accuracy    <       1.00220034 Ry

     iteration # 12     ecut=    60.00 Ry     beta= 0.15
     Davidson diagonalization with overlap

---- Real-time Memory Report at c_bands before calling an iterative solver
             0 MiB given to the printing process from OS
             0 MiB allocation reported by mallinfo(arena+hblkhd)
        169288 MiB available memory on the node where the printing process lives
------------------
     ethr =  2.36E-04,  avg # of iterations =  4.1

     negative rho (up, down):  7.903E-01 0.000E+00

     total cpu time spent up to now is      172.0 secs

     total energy              =   -4400.09473581 Ry
     estimated scf accuracy    <       0.81487262 Ry

     iteration # 13     ecut=    60.00 Ry     beta= 0.15
     Davidson diagonalization with overlap

---- Real-time Memory Report at c_bands before calling an iterative solver
             0 MiB given to the printing process from OS
             0 MiB allocation reported by mallinfo(arena+hblkhd)
        169296 MiB available memory on the node where the printing process lives
------------------
     ethr =  1.92E-04,  avg # of iterations =  2.0

     negative rho (up, down):  7.997E-01 0.000E+00

     total cpu time spent up to now is      184.8 secs

     total energy              =   -4400.09157744 Ry
     estimated scf accuracy    <       1.49296861 Ry

     iteration # 14     ecut=    60.00 Ry     beta= 0.15
     Davidson diagonalization with overlap

---- Real-time Memory Report at c_bands before calling an iterative solver
             0 MiB given to the printing process from OS
             0 MiB allocation reported by mallinfo(arena+hblkhd)
        169294 MiB available memory on the node where the printing process lives
------------------
     ethr =  1.92E-04,  avg # of iterations =  6.2

     negative rho (up, down):  8.058E-01 0.000E+00

     total cpu time spent up to now is      200.3 secs

     total energy              =   -4400.01958231 Ry
     estimated scf accuracy    <       1.52200971 Ry

     iteration # 15     ecut=    60.00 Ry     beta= 0.15
     Davidson diagonalization with overlap

---- Real-time Memory Report at c_bands before calling an iterative solver
             0 MiB given to the printing process from OS
             0 MiB allocation reported by mallinfo(arena+hblkhd)
        169262 MiB available memory on the node where the printing process lives
------------------
     ethr =  1.92E-04,  avg # of iterations =  7.1

     negative rho (up, down):  8.085E-01 0.000E+00

     total cpu time spent up to now is      216.5 secs

     total energy              =   -4400.04844514 Ry
     estimated scf accuracy    <       0.36745029 Ry

     iteration # 16     ecut=    60.00 Ry     beta= 0.15
     Davidson diagonalization with overlap

---- Real-time Memory Report at c_bands before calling an iterative solver
             0 MiB given to the printing process from OS
             0 MiB allocation reported by mallinfo(arena+hblkhd)
        169253 MiB available memory on the node where the printing process lives
------------------
     c_bands:  1 eigenvalues not converged
     ethr =  8.65E-05,  avg # of iterations =  6.6

     negative rho (up, down):  8.128E-01 0.000E+00

     total cpu time spent up to now is      232.4 secs

     total energy              =   -4400.01228894 Ry
     estimated scf accuracy    <       0.30943077 Ry

     iteration # 17     ecut=    60.00 Ry     beta= 0.15
     Davidson diagonalization with overlap

---- Real-time Memory Report at c_bands before calling an iterative solver
             0 MiB given to the printing process from OS
             0 MiB allocation reported by mallinfo(arena+hblkhd)
        169246 MiB available memory on the node where the printing process lives
------------------
     ethr =  7.28E-05,  avg # of iterations =  8.7

     negative rho (up, down):  8.169E-01 0.000E+00

     total cpu time spent up to now is      249.4 secs

     total energy              =   -4399.94972511 Ry
     estimated scf accuracy    <       0.25760387 Ry

     iteration # 18     ecut=    60.00 Ry     beta= 0.15
     Davidson diagonalization with overlap

---- Real-time Memory Report at c_bands before calling an iterative solver
             0 MiB given to the printing process from OS
             0 MiB allocation reported by mallinfo(arena+hblkhd)
        169295 MiB available memory on the node where the printing process lives
------------------
     ethr =  6.06E-05,  avg # of iterations = 11.2

     negative rho (up, down):  8.209E-01 0.000E+00

     total cpu time spent up to now is      268.8 secs

     total energy              =   -4399.94797441 Ry
     estimated scf accuracy    <       0.11976614 Ry

     iteration # 19     ecut=    60.00 Ry     beta= 0.15
     Davidson diagonalization with overlap

---- Real-time Memory Report at c_bands before calling an iterative solver
             0 MiB given to the printing process from OS
             0 MiB allocation reported by mallinfo(arena+hblkhd)
        169220 MiB available memory on the node where the printing process lives
------------------
     ethr =  2.82E-05,  avg # of iterations =  9.6

     negative rho (up, down):  8.222E-01 0.000E+00

     total cpu time spent up to now is      286.6 secs

     total energy              =   -4399.93374764 Ry
     estimated scf accuracy    <       0.09600822 Ry

     iteration # 20     ecut=    60.00 Ry     beta= 0.15
     Davidson diagonalization with overlap

---- Real-time Memory Report at c_bands before calling an iterative solver
             0 MiB given to the printing process from OS
             0 MiB allocation reported by mallinfo(arena+hblkhd)
        169197 MiB available memory on the node where the printing process lives
------------------
     ethr =  2.26E-05,  avg # of iterations =  7.5

     negative rho (up, down):  8.145E-01 0.000E+00

     total cpu time spent up to now is      302.7 secs

     total energy              =   -4399.92528095 Ry
     estimated scf accuracy    <       0.06509884 Ry

     iteration # 21     ecut=    60.00 Ry     beta= 0.15
     Davidson diagonalization with overlap

---- Real-time Memory Report at c_bands before calling an iterative solver
             0 MiB given to the printing process from OS
             0 MiB allocation reported by mallinfo(arena+hblkhd)
        169199 MiB available memory on the node where the printing process lives
------------------
     ethr =  1.53E-05,  avg # of iterations =  8.6

     negative rho (up, down):  8.116E-01 0.000E+00

     total cpu time spent up to now is      319.3 secs

     total energy              =   -4399.92261194 Ry
     estimated scf accuracy    <       0.04083009 Ry

     iteration # 22     ecut=    60.00 Ry     beta= 0.15
     Davidson diagonalization with overlap

---- Real-time Memory Report at c_bands before calling an iterative solver
             0 MiB given to the printing process from OS
             0 MiB allocation reported by mallinfo(arena+hblkhd)
        169184 MiB available memory on the node where the printing process lives
------------------
     ethr =  9.61E-06,  avg # of iterations =  9.4

     negative rho (up, down):  7.984E-01 0.000E+00

     total cpu time spent up to now is      335.8 secs

     total energy              =   -4399.91828041 Ry
     estimated scf accuracy    <       0.02813704 Ry

     iteration # 23     ecut=    60.00 Ry     beta= 0.15
     Davidson diagonalization with overlap

---- Real-time Memory Report at c_bands before calling an iterative solver
             0 MiB given to the printing process from OS
             0 MiB allocation reported by mallinfo(arena+hblkhd)
        169139 MiB available memory on the node where the printing process lives
------------------
     c_bands:  1 eigenvalues not converged
     ethr =  6.62E-06,  avg # of iterations = 13.7

     negative rho (up, down):  8.005E-01 0.000E+00

     total cpu time spent up to now is      354.4 secs

     total energy              =   -4399.91875608 Ry
     estimated scf accuracy    <       0.01375514 Ry

     iteration # 24     ecut=    60.00 Ry     beta= 0.15
     Davidson diagonalization with overlap

---- Real-time Memory Report at c_bands before calling an iterative solver
             0 MiB given to the printing process from OS
             0 MiB allocation reported by mallinfo(arena+hblkhd)
        169123 MiB available memory on the node where the printing process lives
------------------
     c_bands:  1 eigenvalues not converged
     ethr =  3.24E-06,  avg # of iterations = 13.9

     negative rho (up, down):  7.906E-01 0.000E+00

     total cpu time spent up to now is      373.1 secs

     total energy              =   -4399.91802605 Ry
     estimated scf accuracy    <       0.01038644 Ry

     iteration # 25     ecut=    60.00 Ry     beta= 0.15
     Davidson diagonalization with overlap

---- Real-time Memory Report at c_bands before calling an iterative solver
             0 MiB given to the printing process from OS
             0 MiB allocation reported by mallinfo(arena+hblkhd)
        169088 MiB available memory on the node where the printing process lives
------------------
     ethr =  2.44E-06,  avg # of iterations =  6.8

     negative rho (up, down):  7.871E-01 0.000E+00

     total cpu time spent up to now is      388.6 secs

     total energy              =   -4399.91753440 Ry
     estimated scf accuracy    <       0.00746160 Ry

     iteration # 26     ecut=    60.00 Ry     beta= 0.15
     Davidson diagonalization with overlap

---- Real-time Memory Report at c_bands before calling an iterative solver
             0 MiB given to the printing process from OS
             0 MiB allocation reported by mallinfo(arena+hblkhd)
        169135 MiB available memory on the node where the printing process lives
------------------
     c_bands:  1 eigenvalues not converged
     ethr =  1.76E-06,  avg # of iterations = 10.6

     negative rho (up, down):  7.885E-01 0.000E+00

     total cpu time spent up to now is      405.9 secs

     total energy              =   -4399.91733328 Ry
     estimated scf accuracy    <       0.00453073 Ry

     iteration # 27     ecut=    60.00 Ry     beta= 0.15
     Davidson diagonalization with overlap

---- Real-time Memory Report at c_bands before calling an iterative solver
             0 MiB given to the printing process from OS
             0 MiB allocation reported by mallinfo(arena+hblkhd)
        169147 MiB available memory on the node where the printing process lives
------------------
     ethr =  1.07E-06,  avg # of iterations =  3.1

     negative rho (up, down):  7.918E-01 0.000E+00

     total cpu time spent up to now is      419.9 secs

     total energy              =   -4399.91697868 Ry
     estimated scf accuracy    <       0.00296186 Ry

     iteration # 28     ecut=    60.00 Ry     beta= 0.15
     Davidson diagonalization with overlap

---- Real-time Memory Report at c_bands before calling an iterative solver
             0 MiB given to the printing process from OS
             0 MiB allocation reported by mallinfo(arena+hblkhd)
        169174 MiB available memory on the node where the printing process lives
------------------
     c_bands:  1 eigenvalues not converged
     c_bands:  1 eigenvalues not converged
     ethr =  6.97E-07,  avg # of iterations = 12.7

     negative rho (up, down):  7.958E-01 0.000E+00

     total cpu time spent up to now is      439.0 secs

     total energy              =   -4399.91707488 Ry
     estimated scf accuracy    <       0.00093816 Ry

     iteration # 29     ecut=    60.00 Ry     beta= 0.15
     Davidson diagonalization with overlap

---- Real-time Memory Report at c_bands before calling an iterative solver
             0 MiB given to the printing process from OS
             0 MiB allocation reported by mallinfo(arena+hblkhd)
        169109 MiB available memory on the node where the printing process lives
------------------
     c_bands:  1 eigenvalues not converged
     ethr =  2.21E-07,  avg # of iterations =  9.7

     negative rho (up, down):  7.958E-01 0.000E+00

     total cpu time spent up to now is      455.7 secs

     total energy              =   -4399.91711431 Ry
     estimated scf accuracy    <       0.00026654 Ry

     iteration # 30     ecut=    60.00 Ry     beta= 0.15
     Davidson diagonalization with overlap

---- Real-time Memory Report at c_bands before calling an iterative solver
             0 MiB given to the printing process from OS
             0 MiB allocation reported by mallinfo(arena+hblkhd)
        169039 MiB available memory on the node where the printing process lives
------------------
     ethr =  6.27E-08,  avg # of iterations =  2.1

     negative rho (up, down):  7.942E-01 0.000E+00

     total cpu time spent up to now is      469.3 secs

     total energy              =   -4399.91709003 Ry
     estimated scf accuracy    <       0.00013568 Ry

     iteration # 31     ecut=    60.00 Ry     beta= 0.15
     Davidson diagonalization with overlap

---- Real-time Memory Report at c_bands before calling an iterative solver
             0 MiB given to the printing process from OS
             0 MiB allocation reported by mallinfo(arena+hblkhd)
        169071 MiB available memory on the node where the printing process lives
------------------
     ethr =  3.19E-08,  avg # of iterations =  2.4

     negative rho (up, down):  7.937E-01 0.000E+00

     total cpu time spent up to now is      483.1 secs

     total energy              =   -4399.91708746 Ry
     estimated scf accuracy    <       0.00007431 Ry

     iteration # 32     ecut=    60.00 Ry     beta= 0.15
     Davidson diagonalization with overlap

---- Real-time Memory Report at c_bands before calling an iterative solver
             0 MiB given to the printing process from OS
             0 MiB allocation reported by mallinfo(arena+hblkhd)
        169086 MiB available memory on the node where the printing process lives
------------------
     ethr =  1.75E-08,  avg # of iterations =  2.1

     negative rho (up, down):  7.932E-01 0.000E+00

     total cpu time spent up to now is      496.6 secs

     total energy              =   -4399.91708433 Ry
     estimated scf accuracy    <       0.00005137 Ry

     iteration # 33     ecut=    60.00 Ry     beta= 0.15
     Davidson diagonalization with overlap

---- Real-time Memory Report at c_bands before calling an iterative solver
             0 MiB given to the printing process from OS
             0 MiB allocation reported by mallinfo(arena+hblkhd)
        169111 MiB available memory on the node where the printing process lives
------------------
     ethr =  1.21E-08,  avg # of iterations =  3.0

     negative rho (up, down):  7.929E-01 0.000E+00

     total cpu time spent up to now is      510.7 secs

     total energy              =   -4399.91708511 Ry
     estimated scf accuracy    <       0.00003495 Ry

     iteration # 34     ecut=    60.00 Ry     beta= 0.15
     Davidson diagonalization with overlap

---- Real-time Memory Report at c_bands before calling an iterative solver
             0 MiB given to the printing process from OS
             0 MiB allocation reported by mallinfo(arena+hblkhd)
        169158 MiB available memory on the node where the printing process lives
------------------
     ethr =  8.22E-09,  avg # of iterations =  2.8

     negative rho (up, down):  7.927E-01 0.000E+00

     total cpu time spent up to now is      524.6 secs

     total energy              =   -4399.91708968 Ry
     estimated scf accuracy    <       0.00002277 Ry

     iteration # 35     ecut=    60.00 Ry     beta= 0.15
     Davidson diagonalization with overlap

---- Real-time Memory Report at c_bands before calling an iterative solver
             0 MiB given to the printing process from OS
             0 MiB allocation reported by mallinfo(arena+hblkhd)
        169153 MiB available memory on the node where the printing process lives
------------------
     ethr =  5.36E-09,  avg # of iterations =  2.1

     negative rho (up, down):  7.924E-01 0.000E+00

     total cpu time spent up to now is      538.1 secs

     total energy              =   -4399.91708706 Ry
     estimated scf accuracy    <       0.00001711 Ry

     iteration # 36     ecut=    60.00 Ry     beta= 0.15
     Davidson diagonalization with overlap

---- Real-time Memory Report at c_bands before calling an iterative solver
             0 MiB given to the printing process from OS
             0 MiB allocation reported by mallinfo(arena+hblkhd)
        169155 MiB available memory on the node where the printing process lives
------------------
     ethr =  4.03E-09,  avg # of iterations =  2.9

     negative rho (up, down):  7.923E-01 0.000E+00

     total cpu time spent up to now is      552.3 secs

     total energy              =   -4399.91709280 Ry
     estimated scf accuracy    <       0.00000855 Ry

     iteration # 37     ecut=    60.00 Ry     beta= 0.15
     Davidson diagonalization with overlap

---- Real-time Memory Report at c_bands before calling an iterative solver
             0 MiB given to the printing process from OS
             0 MiB allocation reported by mallinfo(arena+hblkhd)
        169155 MiB available memory on the node where the printing process lives
------------------
     ethr =  2.01E-09,  avg # of iterations =  2.4

     negative rho (up, down):  7.922E-01 0.000E+00

     total cpu time spent up to now is      566.2 secs

     total energy              =   -4399.91709511 Ry
     estimated scf accuracy    <       0.00000577 Ry

     iteration # 38     ecut=    60.00 Ry     beta= 0.15
     Davidson diagonalization with overlap

---- Real-time Memory Report at c_bands before calling an iterative solver
             0 MiB given to the printing process from OS
             0 MiB allocation reported by mallinfo(arena+hblkhd)
        169166 MiB available memory on the node where the printing process lives
------------------
     ethr =  1.36E-09,  avg # of iterations =  2.3

     negative rho (up, down):  7.922E-01 0.000E+00

     total cpu time spent up to now is      580.1 secs

     total energy              =   -4399.91709696 Ry
     estimated scf accuracy    <       0.00000451 Ry

     iteration # 39     ecut=    60.00 Ry     beta= 0.15
     Davidson diagonalization with overlap

---- Real-time Memory Report at c_bands before calling an iterative solver
             0 MiB given to the printing process from OS
             0 MiB allocation reported by mallinfo(arena+hblkhd)
        169173 MiB available memory on the node where the printing process lives
------------------
     ethr =  1.06E-09,  avg # of iterations =  2.1

     negative rho (up, down):  7.923E-01 0.000E+00

     total cpu time spent up to now is      593.9 secs

     total energy              =   -4399.91710009 Ry
     estimated scf accuracy    <       0.00000393 Ry

     iteration # 40     ecut=    60.00 Ry     beta= 0.15
     Davidson diagonalization with overlap

---- Real-time Memory Report at c_bands before calling an iterative solver
             0 MiB given to the printing process from OS
             0 MiB allocation reported by mallinfo(arena+hblkhd)
        169173 MiB available memory on the node where the printing process lives
------------------
     ethr =  9.26E-10,  avg # of iterations =  3.3

     negative rho (up, down):  7.925E-01 0.000E+00

     total cpu time spent up to now is      608.1 secs

     total energy              =   -4399.91710064 Ry
     estimated scf accuracy    <       0.00000158 Ry

     iteration # 41     ecut=    60.00 Ry     beta= 0.15
     Davidson diagonalization with overlap

---- Real-time Memory Report at c_bands before calling an iterative solver
             0 MiB given to the printing process from OS
             0 MiB allocation reported by mallinfo(arena+hblkhd)
        169163 MiB available memory on the node where the printing process lives
------------------
     ethr =  3.72E-10,  avg # of iterations =  3.5

     negative rho (up, down):  7.925E-01 0.000E+00

     total cpu time spent up to now is      622.6 secs

     total energy              =   -4399.91710059 Ry
     estimated scf accuracy    <       0.00000059 Ry

     iteration # 42     ecut=    60.00 Ry     beta= 0.15
     Davidson diagonalization with overlap

---- Real-time Memory Report at c_bands before calling an iterative solver
             0 MiB given to the printing process from OS
             0 MiB allocation reported by mallinfo(arena+hblkhd)
        169152 MiB available memory on the node where the printing process lives
------------------
     ethr =  1.39E-10,  avg # of iterations =  2.8

     negative rho (up, down):  7.925E-01 0.000E+00

     total cpu time spent up to now is      636.3 secs

     total energy              =   -4399.91710050 Ry
     estimated scf accuracy    <       0.00000024 Ry

     iteration # 43     ecut=    60.00 Ry     beta= 0.15
     Davidson diagonalization with overlap

---- Real-time Memory Report at c_bands before calling an iterative solver
             0 MiB given to the printing process from OS
             0 MiB allocation reported by mallinfo(arena+hblkhd)
        169155 MiB available memory on the node where the printing process lives
------------------
     ethr =  5.67E-11,  avg # of iterations =  2.6

     negative rho (up, down):  7.925E-01 0.000E+00

     total cpu time spent up to now is      650.3 secs

     total energy              =   -4399.91710062 Ry
     estimated scf accuracy    <       0.00000011 Ry

     iteration # 44     ecut=    60.00 Ry     beta= 0.15
     Davidson diagonalization with overlap

---- Real-time Memory Report at c_bands before calling an iterative solver
             0 MiB given to the printing process from OS
             0 MiB allocation reported by mallinfo(arena+hblkhd)
        169153 MiB available memory on the node where the printing process lives
------------------
     ethr =  2.52E-11,  avg # of iterations =  2.8

     negative rho (up, down):  7.925E-01 0.000E+00

     total cpu time spent up to now is      664.1 secs

     total energy              =   -4399.91710070 Ry
     estimated scf accuracy    <       0.00000007 Ry

     iteration # 45     ecut=    60.00 Ry     beta= 0.15
     Davidson diagonalization with overlap

---- Real-time Memory Report at c_bands before calling an iterative solver
             0 MiB given to the printing process from OS
             0 MiB allocation reported by mallinfo(arena+hblkhd)
        169150 MiB available memory on the node where the printing process lives
------------------
     ethr =  1.59E-11,  avg # of iterations =  2.9

     negative rho (up, down):  7.924E-01 0.000E+00

     total cpu time spent up to now is      677.9 secs

     total energy              =   -4399.91710076 Ry
     estimated scf accuracy    <       0.00000002 Ry

     iteration # 46     ecut=    60.00 Ry     beta= 0.15
     Davidson diagonalization with overlap

---- Real-time Memory Report at c_bands before calling an iterative solver
             0 MiB given to the printing process from OS
             0 MiB allocation reported by mallinfo(arena+hblkhd)
        169148 MiB available memory on the node where the printing process lives
------------------
     ethr =  5.40E-12,  avg # of iterations =  3.8

     negative rho (up, down):  7.924E-01 0.000E+00

     total cpu time spent up to now is      692.7 secs

     End of self-consistent calculation

          k = 0.0000 0.0000 0.0000 ( 65197 PWs)   bands (ev):

   -92.7346 -92.6803 -92.5895 -92.5401 -92.4831 -92.4412 -92.4238 -92.3019
   -56.0880 -56.0646 -55.9464 -55.9354 -55.9283 -55.9222 -55.8850 -55.8584
   -55.8423 -55.8407 -55.8327 -55.7905 -55.7709 -55.7343 -55.7163 -55.6833
   -55.6754 -55.6295 -55.6294 -55.6264 -55.6180 -55.5768 -55.5541 -55.4671
   -31.3103 -31.2908 -31.1489 -31.1388 -31.0620 -30.9766 -30.9473 -30.7616
   -29.8829 -29.8396 -29.8135 -29.7050 -15.1151 -15.0731 -14.9908 -14.8613
   -14.6673 -14.5481 -14.2533 -14.2346 -14.2049 -14.1600 -14.1151 -14.0995
   -14.0929 -14.0743 -14.0579 -14.0177 -13.9656 -13.8137 -13.6303 -13.6022
   -13.5708 -13.5348 -13.5206 -13.4709 -13.4367 -13.3545 -13.2827 -13.1777
   -13.1432 -13.1423 -13.1215 -13.1079 -13.0893 -13.0466 -13.0355 -13.0236
   -12.9884 -12.9567 -12.9479 -12.9360 -12.9191 -12.8725 -12.8602 -12.8248
   -12.8141 -12.7092 -12.6874 -12.6751 -12.3750 -12.2287 -12.0757 -12.0033
   -11.8963 -11.8222 -11.8109 -11.7884 -11.7707 -11.7069 -11.6895 -11.6551
   -11.6260 -11.5141 -11.4342 -11.4307  -2.9758  -2.7436  -2.5142  -2.3660
    -2.3042  -2.1616  -1.8538  -1.8390  -1.8201  -1.7328  -1.7168  -1.6484
    -1.6324  -1.5914  -1.5468  -1.3664  -1.1399  -1.1100  -0.9648  -0.9504
    -0.9049  -0.8854  -0.8401  -0.8246  -0.7683  -0.7411  -0.6697  -0.6587
    -0.5811  -0.4498  -0.4368  -0.4075  -0.3269  -0.3054  -0.2724  -0.2330
    -0.1629  -0.1270  -0.0660  -0.0446   0.0154   0.0940   0.1453   0.1674
     0.1766   0.4354   0.4516   0.6230   0.6886   0.7507   0.7975   0.8879
     0.9001   0.9165   0.9872   1.0149   1.0482   1.1065   1.2393   1.2943
     1.3167   1.3419   1.3518   1.4135   1.4872   1.5929   1.6096   1.6619
     1.6776   1.7207   1.7417   1.7511   1.8037   1.8587   1.8675   1.9004
     1.9283   1.9896   2.1215   2.2050   2.2501   2.2637   2.4116   2.4259
     2.4752   2.4788   2.5874   2.6220   2.6485   2.6689   2.6865   2.7615
     2.7771   2.8731   2.9094   2.9172   2.9237   2.9918   3.0038   3.0197
     3.0272   3.0353   3.0459   3.0555   3.0688   3.0755   3.0861   3.0946
     3.1019   3.1226   3.1437   3.1489   3.1610   3.1817   3.3017   3.4114
     4.0735   4.3912   4.7372   4.8585   5.0025   5.8574   5.9402   5.9703
     6.0483   6.2816   6.3275   6.4671   6.4766   6.7477   6.9903   7.0835
     7.1439   7.2059   7.2852   7.5864   7.6370   7.6563   7.7336   7.8808
     7.9974   8.0939   8.1386   8.1923   8.4230   8.6704   8.7215   8.8660

     occupation numbers 
     1.0000   1.0000   1.0000   1.0000   1.0000   1.0000   1.0000   1.0000
     1.0000   1.0000   1.0000   1.0000   1.0000   1.0000   1.0000   1.0000
     1.0000   1.0000   1.0000   1.0000   1.0000   1.0000   1.0000   1.0000
     1.0000   1.0000   1.0000   1.0000   1.0000   1.0000   1.0000   1.0000
     1.0000   1.0000   1.0000   1.0000   1.0000   1.0000   1.0000   1.0000
     1.0000   1.0000   1.0000   1.0000   1.0000   1.0000   1.0000   1.0000
     1.0000   1.0000   1.0000   1.0000   1.0000   1.0000   1.0000   1.0000
     1.0000   1.0000   1.0000   1.0000   1.0000   1.0000   1.0000   1.0000
     1.0000   1.0000   1.0000   1.0000   1.0000   1.0000   1.0000   1.0000
     1.0000   1.0000   1.0000   1.0000   1.0000   1.0000   1.0000   1.0000
     1.0000   1.0000   1.0000   1.0000   1.0000   1.0000   1.0000   1.0000
     1.0000   1.0000   1.0000   1.0000   1.0000   1.0000   1.0000   1.0000
     1.0000   1.0000   1.0000   1.0000   1.0000   1.0000   1.0000   1.0000
     1.0000   1.0000   1.0000   1.0000   1.0000   1.0000   1.0000   1.0000
     1.0000   1.0000   1.0000   1.0000   1.0000   1.0000   1.0000   1.0000
     1.0000   1.0000   1.0000   1.0000   1.0000   1.0000   1.0000   1.0000
     1.0000   1.0000   1.0000   1.0000   1.0000   1.0000   1.0000   1.0000
     1.0000   1.0000   1.0000   1.0000   1.0000   1.0000   1.0000   1.0000
     1.0000   1.0000   1.0000   1.0000   1.0000   1.0000   1.0000   1.0000
     1.0000   1.0000   1.0000   1.0000   0.9999   0.9999   0.9999   0.9998
     0.9998   0.9998   0.9997   0.9996   0.9996   0.9994   0.9989   0.9985
     0.9983   0.9981   0.9980   0.9974   0.9963   0.9942   0.9938   0.9923
     0.9918   0.9902   0.9894   0.9890   0.9865   0.9834   0.9829   0.9807
     0.9786   0.9735   0.9590   0.9469   0.9392   0.9368   0.9047   0.9010
     0.8877   0.8867   0.8526   0.8404   0.8307   0.8229   0.8161   0.7850
     0.7782   0.7335   0.7155   0.7116   0.7082   0.6726   0.6662   0.6575
     0.6534   0.6490   0.6431   0.6378   0.6304   0.6266   0.6206   0.6158
     0.6117   0.5998   0.5877   0.5847   0.5777   0.5656   0.4948   0.4302
     0.1232   0.0515   0.0160   0.0100   0.0056   0.0001   0.0000   0.0000
     0.0000   0.0000   0.0000   0.0000   0.0000   0.0000   0.0000   0.0000
     0.0000   0.0000   0.0000   0.0000   0.0000   0.0000   0.0000   0.0000
     0.0000   0.0000   0.0000   0.0000   0.0000   0.0000   0.0000   0.0000

          k = 0.0000 0.2500 0.0000 ( 65257 PWs)   bands (ev):

   -92.7346 -92.6803 -92.5895 -92.5401 -92.4831 -92.4412 -92.4238 -92.3019
   -56.0880 -56.0646 -55.9464 -55.9354 -55.9283 -55.9222 -55.8850 -55.8584
   -55.8423 -55.8407 -55.8327 -55.7905 -55.7709 -55.7343 -55.7163 -55.6833
   -55.6754 -55.6295 -55.6294 -55.6264 -55.6180 -55.5768 -55.5541 -55.4671
   -31.3101 -31.2907 -31.1491 -31.1386 -31.0621 -30.9768 -30.9471 -30.7618
   -29.8823 -29.8393 -29.8141 -29.7053 -15.0785 -15.0465 -14.9661 -14.8318
   -14.7097 -14.5368 -14.3992 -14.2192 -14.1852 -14.1649 -14.1355 -14.0783
   -14.0706 -14.0553 -14.0377 -13.9923 -13.8844 -13.8448 -13.6807 -13.6572
   -13.6124 -13.5748 -13.5224 -13.4883 -13.4472 -13.3761 -13.3406 -13.2919
   -13.2257 -13.1803 -13.1423 -13.1324 -13.1041 -13.0208 -12.9960 -12.9678
   -12.9556 -12.9340 -12.9088 -12.8998 -12.8733 -12.8489 -12.8289 -12.7654
   -12.7443 -12.7042 -12.6125 -12.5492 -12.4363 -12.2798 -12.1320 -12.0689
   -11.8618 -11.8190 -11.7911 -11.7627 -11.7461 -11.6988 -11.6874 -11.6649
   -11.6311 -11.5283 -11.4758 -11.4653  -2.8404  -2.6192  -2.4816  -2.2989
    -2.2556  -2.0922  -1.8707  -1.7882  -1.7751  -1.7127  -1.6144  -1.5995
    -1.5651  -1.5383  -1.4944  -1.2975  -1.1676  -1.1564  -1.0786  -1.0697
    -0.9659  -0.9356  -0.8779  -0.8519  -0.8119  -0.7472  -0.7216  -0.6886
    -0.6599  -0.6424  -0.6091  -0.5354  -0.4839  -0.4089  -0.3045  -0.2746
    -0.2377  -0.1282  -0.0927  -0.0298   0.0206   0.0760   0.0943   0.1238
     0.1810   0.4821   0.5709   0.6047   0.6880   0.7340   0.7534   0.8734
     0.8920   0.9872   1.0134   1.0415   1.1562   1.2503   1.2708   1.2967
     1.3169   1.3396   1.3999   1.4270   1.4549   1.5022   1.5361   1.5672
     1.6529   1.6886   1.7135   1.7732   1.8234   1.8562   1.8862   1.9168
     1.9349   2.0263   2.1596   2.2289   2.2474   2.3248   2.3687   2.4084
     2.4135   2.4804   2.5205   2.6032   2.6453   2.6645   2.7711   2.8325
     2.8588   2.8879   2.9102   2.9248   2.9338   2.9399   2.9488   2.9794
     2.9826   2.9999   3.0098   3.0136   3.0344   3.0448   3.0546   3.0737
     3.0846   3.0906   3.1249   3.1413   3.2009   3.5632   3.6175   3.8497
     4.2596   4.3860   4.6849   5.0078   5.0309   5.6169   5.7815   5.9317
     6.0302   6.0676   6.0940   6.1551   6.5834   6.8965   6.9523   7.0977
     7.2464   7.3113   7.4586   7.4766   7.6230   7.7658   7.8807   7.9482
     8.0344   8.1105   8.1803   8.2686   8.3844   8.5209   8.7659   8.8913

     occupation numbers 
     1.0000   1.0000   1.0000   1.0000   1.0000   1.0000   1.0000   1.0000
     1.0000   1.0000   1.0000   1.0000   1.0000   1.0000   1.0000   1.0000
     1.0000   1.0000   1.0000   1.0000   1.0000   1.0000   1.0000   1.0000
     1.0000   1.0000   1.0000   1.0000   1.0000   1.0000   1.0000   1.0000
     1.0000   1.0000   1.0000   1.0000   1.0000   1.0000   1.0000   1.0000
     1.0000   1.0000   1.0000   1.0000   1.0000   1.0000   1.0000   1.0000
     1.0000   1.0000   1.0000   1.0000   1.0000   1.0000   1.0000   1.0000
     1.0000   1.0000   1.0000   1.0000   1.0000   1.0000   1.0000   1.0000
     1.0000   1.0000   1.0000   1.0000   1.0000   1.0000   1.0000   1.0000
     1.0000   1.0000   1.0000   1.0000   1.0000   1.0000   1.0000   1.0000
     1.0000   1.0000   1.0000   1.0000   1.0000   1.0000   1.0000   1.0000
     1.0000   1.0000   1.0000   1.0000   1.0000   1.0000   1.0000   1.0000
     1.0000   1.0000   1.0000   1.0000   1.0000   1.0000   1.0000   1.0000
     1.0000   1.0000   1.0000   1.0000   1.0000   1.0000   1.0000   1.0000
     1.0000   1.0000   1.0000   1.0000   1.0000   1.0000   1.0000   1.0000
     1.0000   1.0000   1.0000   1.0000   1.0000   1.0000   1.0000   1.0000
     1.0000   1.0000   1.0000   1.0000   1.0000   1.0000   1.0000   1.0000
     1.0000   1.0000   1.0000   1.0000   1.0000   1.0000   1.0000   1.0000
     1.0000   1.0000   1.0000   1.0000   1.0000   1.0000   1.0000   1.0000
     1.0000   1.0000   1.0000   1.0000   0.9999   0.9999   0.9999   0.9998
     0.9998   0.9997   0.9996   0.9996   0.9992   0.9988   0.9987   0.9985
     0.9983   0.9981   0.9975   0.9972   0.9968   0.9961   0.9955   0.9948
     0.9926   0.9914   0.9905   0.9880   0.9854   0.9836   0.9816   0.9795
     0.9781   0.9700   0.9538   0.9429   0.9397   0.9247   0.9150   0.9055
     0.9042   0.8862   0.8743   0.8471   0.8319   0.8246   0.7808   0.7529
     0.7404   0.7262   0.7151   0.7077   0.7031   0.6999   0.6953   0.6792
     0.6775   0.6682   0.6629   0.6608   0.6495   0.6437   0.6383   0.6276
     0.6215   0.6181   0.5985   0.5891   0.5544   0.3441   0.3149   0.2042
     0.0756   0.0523   0.0194   0.0054   0.0049   0.0003   0.0001   0.0000
     0.0000   0.0000   0.0000   0.0000   0.0000   0.0000   0.0000   0.0000
     0.0000   0.0000   0.0000   0.0000   0.0000   0.0000   0.0000   0.0000
     0.0000   0.0000   0.0000   0.0000   0.0000   0.0000   0.0000   0.0000

          k = 0.0000-0.5000 0.0000 ( 65180 PWs)   bands (ev):

   -92.7346 -92.6803 -92.5895 -92.5401 -92.4831 -92.4412 -92.4238 -92.3019
   -56.0880 -56.0646 -55.9464 -55.9354 -55.9283 -55.9222 -55.8850 -55.8584
   -55.8423 -55.8407 -55.8327 -55.7905 -55.7709 -55.7343 -55.7163 -55.6833
   -55.6754 -55.6295 -55.6294 -55.6264 -55.6180 -55.5768 -55.5541 -55.4671
   -31.3099 -31.2906 -31.1493 -31.1384 -31.0623 -30.9770 -30.9470 -30.7620
   -29.8817 -29.8390 -29.8147 -29.7056 -15.0435 -14.9956 -14.9415 -14.8162
   -14.7287 -14.5940 -14.4364 -14.3208 -14.1908 -14.1227 -14.0772 -14.0714
   -14.0206 -14.0052 -13.9562 -13.9304 -13.9121 -13.8766 -13.8412 -13.8018
   -13.6169 -13.5578 -13.5255 -13.4898 -13.4449 -13.3915 -13.3628 -13.3166
   -13.3155 -13.2501 -13.1437 -13.1333 -13.0929 -13.0101 -12.9990 -12.9845
   -12.9611 -12.9153 -12.9049 -12.8716 -12.8418 -12.7456 -12.7384 -12.7317
   -12.7051 -12.6843 -12.5472 -12.4772 -12.3548 -12.3492 -12.2334 -12.1887
   -11.8160 -11.8134 -11.7861 -11.7483 -11.7140 -11.7031 -11.6609 -11.6570
   -11.6128 -11.5498 -11.5364 -11.5223  -2.6250  -2.5672  -2.4160  -2.3440
    -2.0598  -1.9790  -1.8506  -1.7144  -1.6704  -1.6571  -1.5789  -1.5481
    -1.4652  -1.4306  -1.3516  -1.3127  -1.2747  -1.2475  -1.1874  -1.1523
    -1.1054  -1.0691  -1.0362  -1.0037  -0.8921  -0.8479  -0.8122  -0.8086
    -0.7238  -0.6926  -0.6717  -0.6246  -0.5328  -0.4666  -0.3761  -0.3363
    -0.2455  -0.2118  -0.0639  -0.0143   0.0030   0.0487   0.1625   0.2281
     0.3579   0.4259   0.4352   0.5616   0.6158   0.7008   0.8409   0.9444
     0.9775   1.0175   1.0283   1.0598   1.0786   1.1128   1.1286   1.1423
     1.2508   1.3113   1.3467   1.3711   1.6412   1.6575   1.6790   1.7659
     1.7967   1.8317   1.8459   1.8753   1.8893   1.8917   1.9224   1.9694
     1.9958   2.0235   2.0336   2.0618   2.1157   2.2032   2.2323   2.4015
     2.5681   2.5713   2.5947   2.6317   2.6415   2.6481   2.6953   2.7108
     2.7647   2.7784   2.7951   2.8635   2.8860   2.9496   2.9513   2.9791
     2.9816   2.9962   2.9989   3.0050   3.0106   3.0179   3.0309   3.0439
     3.0497   3.1101   3.1148   3.1309   3.1887   4.0870   4.1003   4.1457
     4.2407   4.6992   4.8719   4.9985   5.1556   5.3941   5.4417   5.5570
     5.7268   6.0004   6.0116   6.0931   6.7608   6.8342   6.9404   7.2015
     7.2958   7.3942   7.4346   7.4671   7.6653   7.7250   7.8594   7.8836
     8.1488   8.1770   8.3567   8.4647   8.6376   8.7410   8.7876   8.8070

     occupation numbers 
     1.0000   1.0000   1.0000   1.0000   1.0000   1.0000   1.0000   1.0000
     1.0000   1.0000   1.0000   1.0000   1.0000   1.0000   1.0000   1.0000
     1.0000   1.0000   1.0000   1.0000   1.0000   1.0000   1.0000   1.0000
     1.0000   1.0000   1.0000   1.0000   1.0000   1.0000   1.0000   1.0000
     1.0000   1.0000   1.0000   1.0000   1.0000   1.0000   1.0000   1.0000
     1.0000   1.0000   1.0000   1.0000   1.0000   1.0000   1.0000   1.0000
     1.0000   1.0000   1.0000   1.0000   1.0000   1.0000   1.0000   1.0000
     1.0000   1.0000   1.0000   1.0000   1.0000   1.0000   1.0000   1.0000
     1.0000   1.0000   1.0000   1.0000   1.0000   1.0000   1.0000   1.0000
     1.0000   1.0000   1.0000   1.0000   1.0000   1.0000   1.0000   1.0000
     1.0000   1.0000   1.0000   1.0000   1.0000   1.0000   1.0000   1.0000
     1.0000   1.0000   1.0000   1.0000   1.0000   1.0000   1.0000   1.0000
     1.0000   1.0000   1.0000   1.0000   1.0000   1.0000   1.0000   1.0000
     1.0000   1.0000   1.0000   1.0000   1.0000   1.0000   1.0000   1.0000
     1.0000   1.0000   1.0000   1.0000   1.0000   1.0000   1.0000   1.0000
     1.0000   1.0000   1.0000   1.0000   1.0000   1.0000   1.0000   1.0000
     1.0000   1.0000   1.0000   1.0000   1.0000   1.0000   1.0000   1.0000
     1.0000   1.0000   1.0000   1.0000   1.0000   1.0000   1.0000   1.0000
     1.0000   1.0000   1.0000   1.0000   1.0000   1.0000   1.0000   1.0000
     1.0000   1.0000   1.0000   1.0000   1.0000   0.9999   0.9999   0.9998
     0.9997   0.9996   0.9996   0.9995   0.9995   0.9994   0.9993   0.9993
     0.9988   0.9984   0.9981   0.9978   0.9929   0.9924   0.9917   0.9883
     0.9868   0.9850   0.9842   0.9824   0.9814   0.9813   0.9791   0.9753
     0.9730   0.9703   0.9693   0.9662   0.9598   0.9472   0.9424   0.9072
     0.8591   0.8580   0.8501   0.8369   0.8333   0.8309   0.8126   0.8063
     0.7836   0.7776   0.7701   0.7382   0.7272   0.6949   0.6940   0.6794
     0.6780   0.6703   0.6688   0.6655   0.6625   0.6585   0.6514   0.6442
     0.6410   0.6070   0.6043   0.5950   0.5615   0.1192   0.1153   0.1027
     0.0797   0.0184   0.0095   0.0057   0.0028   0.0009   0.0007   0.0004
     0.0002   0.0000   0.0000   0.0000   0.0000   0.0000   0.0000   0.0000
     0.0000   0.0000   0.0000   0.0000   0.0000   0.0000   0.0000   0.0000
     0.0000   0.0000   0.0000   0.0000   0.0000   0.0000   0.0000   0.0000

          k = 0.2500 0.2500 0.0000 ( 65198 PWs)   bands (ev):

   -92.7346 -92.6803 -92.5895 -92.5401 -92.4831 -92.4412 -92.4238 -92.3019
   -56.0880 -56.0646 -55.9464 -55.9354 -55.9283 -55.9222 -55.8850 -55.8584
   -55.8423 -55.8407 -55.8327 -55.7905 -55.7709 -55.7343 -55.7163 -55.6833
   -55.6754 -55.6295 -55.6294 -55.6264 -55.6180 -55.5768 -55.5541 -55.4671
   -31.3084 -31.2924 -31.1487 -31.1384 -31.0625 -30.9767 -30.9473 -30.7620
   -29.8813 -29.8403 -29.8137 -29.7057 -15.0499 -15.0113 -14.9381 -14.8216
   -14.7014 -14.5782 -14.5047 -14.2994 -14.1421 -14.1300 -14.0944 -14.0654
   -14.0422 -14.0126 -13.9837 -13.9536 -13.8752 -13.8586 -13.6967 -13.6835
   -13.6526 -13.6339 -13.5697 -13.5438 -13.4832 -13.4589 -13.3519 -13.3142
   -13.2621 -13.1755 -13.1351 -13.0917 -13.0694 -13.0509 -13.0092 -12.9795
   -12.9598 -12.9467 -12.9010 -12.8633 -12.8390 -12.8065 -12.7766 -12.7466
   -12.7315 -12.7009 -12.5557 -12.4848 -12.4371 -12.3089 -12.1629 -12.1180
   -11.8340 -11.8025 -11.7915 -11.7843 -11.7220 -11.6868 -11.6804 -11.6451
   -11.6372 -11.5450 -11.5042 -11.4866  -2.7020  -2.4935  -2.3758  -2.2801
    -2.1604  -2.0954  -1.8955  -1.7530  -1.7335  -1.7004  -1.6087  -1.5754
    -1.4819  -1.4539  -1.4038  -1.2731  -1.2250  -1.1505  -1.1071  -1.0612
    -1.0385  -1.0144  -0.9722  -0.9569  -0.8662  -0.8166  -0.7478  -0.7012
    -0.6730  -0.6224  -0.6102  -0.5459  -0.4946  -0.4314  -0.4031  -0.3123
    -0.2661  -0.2346  -0.1977  -0.1425  -0.0733  -0.0318  -0.0052   0.0625
     0.1019   0.3745   0.5245   0.5577   0.6147   0.6545   0.7097   0.7582
     0.8278   0.8670   1.1400   1.2055   1.2799   1.3040   1.3558   1.3836
     1.4204   1.4575   1.4742   1.5025   1.5459   1.5561   1.5718   1.6176
     1.6527   1.6934   1.7455   1.7803   1.7987   1.8221   1.8625   1.9151
     1.9389   2.0664   2.1387   2.1758   2.2007   2.2629   2.3286   2.3597
     2.3970   2.4211   2.4311   2.5452   2.5862   2.6772   2.7819   2.8426
     2.8607   2.8654   2.8846   2.9000   2.9126   2.9229   2.9285   2.9406
     2.9547   2.9675   2.9840   2.9920   3.0022   3.0254   3.0359   3.0451
     3.0761   3.3772   3.4685   3.5236   3.5786   3.5954   3.8367   3.9201
     4.2658   4.4752   4.6920   4.9415   5.1591   5.6161   5.6749   5.7522
     5.8065   5.8661   6.1044   6.1400   6.2097   6.7433   6.8834   7.0797
     7.2379   7.5304   7.5801   7.6501   7.6872   7.8460   7.9419   8.1088
     8.1624   8.2082   8.2963   8.3112   8.4155   8.4520   8.5916   8.8470

     occupation numbers 
     1.0000   1.0000   1.0000   1.0000   1.0000   1.0000   1.0000   1.0000
     1.0000   1.0000   1.0000   1.0000   1.0000   1.0000   1.0000   1.0000
     1.0000   1.0000   1.0000   1.0000   1.0000   1.0000   1.0000   1.0000
     1.0000   1.0000   1.0000   1.0000   1.0000   1.0000   1.0000   1.0000
     1.0000   1.0000   1.0000   1.0000   1.0000   1.0000   1.0000   1.0000
     1.0000   1.0000   1.0000   1.0000   1.0000   1.0000   1.0000   1.0000
     1.0000   1.0000   1.0000   1.0000   1.0000   1.0000   1.0000   1.0000
     1.0000   1.0000   1.0000   1.0000   1.0000   1.0000   1.0000   1.0000
     1.0000   1.0000   1.0000   1.0000   1.0000   1.0000   1.0000   1.0000
     1.0000   1.0000   1.0000   1.0000   1.0000   1.0000   1.0000   1.0000
     1.0000   1.0000   1.0000   1.0000   1.0000   1.0000   1.0000   1.0000
     1.0000   1.0000   1.0000   1.0000   1.0000   1.0000   1.0000   1.0000
     1.0000   1.0000   1.0000   1.0000   1.0000   1.0000   1.0000   1.0000
     1.0000   1.0000   1.0000   1.0000   1.0000   1.0000   1.0000   1.0000
     1.0000   1.0000   1.0000   1.0000   1.0000   1.0000   1.0000   1.0000
     1.0000   1.0000   1.0000   1.0000   1.0000   1.0000   1.0000   1.0000
     1.0000   1.0000   1.0000   1.0000   1.0000   1.0000   1.0000   1.0000
     1.0000   1.0000   1.0000   1.0000   1.0000   1.0000   1.0000   1.0000
     1.0000   1.0000   1.0000   1.0000   1.0000   1.0000   1.0000   1.0000
     1.0000   1.0000   1.0000   1.0000   1.0000   1.0000   0.9999   0.9999
     0.9999   0.9998   0.9993   0.9990   0.9986   0.9984   0.9980   0.9977
     0.9973   0.9968   0.9965   0.9961   0.9953   0.9950   0.9947   0.9936
     0.9926   0.9912   0.9892   0.9877   0.9867   0.9855   0.9832   0.9796
     0.9778   0.9657   0.9567   0.9514   0.9476   0.9369   0.9239   0.9171
     0.9083   0.9023   0.8997   0.8666   0.8530   0.8197   0.7760   0.7482
     0.7395   0.7372   0.7278   0.7202   0.7139   0.7086   0.7058   0.6996
     0.6923   0.6856   0.6768   0.6725   0.6670   0.6544   0.6486   0.6436
     0.6262   0.4502   0.3972   0.3660   0.3357   0.3267   0.2097   0.1758
     0.0743   0.0396   0.0189   0.0072   0.0028   0.0003   0.0002   0.0001
     0.0001   0.0001   0.0000   0.0000   0.0000   0.0000   0.0000   0.0000
     0.0000   0.0000   0.0000   0.0000   0.0000   0.0000   0.0000   0.0000
     0.0000   0.0000   0.0000   0.0000   0.0000   0.0000   0.0000   0.0000

          k = 0.2500-0.5000 0.0000 ( 65138 PWs)   bands (ev):

   -92.7346 -92.6803 -92.5895 -92.5401 -92.4831 -92.4412 -92.4238 -92.3019
   -56.0880 -56.0646 -55.9464 -55.9354 -55.9283 -55.9222 -55.8850 -55.8584
   -55.8423 -55.8407 -55.8327 -55.7905 -55.7709 -55.7343 -55.7163 -55.6833
   -55.6754 -55.6295 -55.6294 -55.6264 -55.6180 -55.5768 -55.5541 -55.4671
   -31.3083 -31.2923 -31.1489 -31.1382 -31.0626 -30.9769 -30.9471 -30.7621
   -29.8807 -29.8400 -29.8143 -29.7060 -15.0129 -14.9686 -14.8984 -14.7865
   -14.7517 -14.6342 -14.5410 -14.4167 -14.1070 -14.0552 -14.0285 -14.0052
   -13.9906 -13.9767 -13.9402 -13.9184 -13.8928 -13.8530 -13.8313 -13.7898
   -13.6991 -13.6510 -13.5865 -13.5712 -13.5044 -13.4927 -13.4071 -13.3725
   -13.2395 -13.1746 -13.1556 -13.0748 -13.0536 -13.0229 -13.0081 -12.9768
   -12.9571 -12.9443 -12.9087 -12.8571 -12.8489 -12.7762 -12.7622 -12.7112
   -12.6874 -12.6562 -12.5539 -12.4464 -12.3522 -12.3144 -12.2253 -12.1963
   -11.8097 -11.7976 -11.7867 -11.7594 -11.7281 -11.6994 -11.6587 -11.6308
   -11.6089 -11.5630 -11.5375 -11.5264  -2.4828  -2.4192  -2.2898  -2.2128
    -2.0806  -1.9989  -1.8751  -1.7252  -1.6678  -1.6479  -1.5870  -1.5738
    -1.4759  -1.4099  -1.3248  -1.2739  -1.2649  -1.2021  -1.1585  -1.1254
    -1.0772  -1.0401  -1.0058  -0.9663  -0.9534  -0.9096  -0.8806  -0.8366
    -0.8074  -0.7393  -0.6350  -0.6010  -0.5192  -0.4541  -0.4009  -0.3617
    -0.3445  -0.2847  -0.1302  -0.1224  -0.0035   0.0176   0.0268   0.0723
     0.1058   0.1381   0.1715   0.2416   0.5191   0.6110   0.6666   0.7238
     1.0046   1.0183   1.1115   1.1381   1.3033   1.3406   1.3779   1.4018
     1.4159   1.4378   1.5014   1.5525   1.5850   1.6565   1.7527   1.7856
     1.8059   1.8182   1.8510   1.8704   1.8727   1.9166   1.9290   1.9487
     1.9835   1.9973   2.0250   2.0560   2.1147   2.1580   2.2337   2.3700
     2.5208   2.5367   2.5546   2.5829   2.6056   2.6353   2.6575   2.6679
     2.6914   2.7833   2.8011   2.8450   2.8646   2.8745   2.8810   2.8996
     2.9132   2.9337   2.9404   2.9783   2.9873   2.9988   3.0061   3.0161
     3.0257   3.5377   3.5738   3.7088   3.7612   4.0877   4.1493   4.1535
     4.2922   4.7197   4.8925   5.0323   5.1173   5.2720   5.4114   5.5817
     5.6548   5.7388   5.7614   6.2071   6.3795   6.4777   6.6305   7.1011
     7.4430   7.5409   7.6157   7.6803   7.7901   7.8526   8.0151   8.2098
     8.2926   8.3564   8.4486   8.5109   8.5299   8.5972   8.6858   8.7448

     occupation numbers 
     1.0000   1.0000   1.0000   1.0000   1.0000   1.0000   1.0000   1.0000
     1.0000   1.0000   1.0000   1.0000   1.0000   1.0000   1.0000   1.0000
     1.0000   1.0000   1.0000   1.0000   1.0000   1.0000   1.0000   1.0000
     1.0000   1.0000   1.0000   1.0000   1.0000   1.0000   1.0000   1.0000
     1.0000   1.0000   1.0000   1.0000   1.0000   1.0000   1.0000   1.0000
     1.0000   1.0000   1.0000   1.0000   1.0000   1.0000   1.0000   1.0000
     1.0000   1.0000   1.0000   1.0000   1.0000   1.0000   1.0000   1.0000
     1.0000   1.0000   1.0000   1.0000   1.0000   1.0000   1.0000   1.0000
     1.0000   1.0000   1.0000   1.0000   1.0000   1.0000   1.0000   1.0000
     1.0000   1.0000   1.0000   1.0000   1.0000   1.0000   1.0000   1.0000
     1.0000   1.0000   1.0000   1.0000   1.0000   1.0000   1.0000   1.0000
     1.0000   1.0000   1.0000   1.0000   1.0000   1.0000   1.0000   1.0000
     1.0000   1.0000   1.0000   1.0000   1.0000   1.0000   1.0000   1.0000
     1.0000   1.0000   1.0000   1.0000   1.0000   1.0000   1.0000   1.0000
     1.0000   1.0000   1.0000   1.0000   1.0000   1.0000   1.0000   1.0000
     1.0000   1.0000   1.0000   1.0000   1.0000   1.0000   1.0000   1.0000
     1.0000   1.0000   1.0000   1.0000   1.0000   1.0000   1.0000   1.0000
     1.0000   1.0000   1.0000   1.0000   1.0000   1.0000   1.0000   1.0000
     1.0000   1.0000   1.0000   1.0000   1.0000   1.0000   1.0000   1.0000
     1.0000   1.0000   1.0000   1.0000   1.0000   1.0000   1.0000   0.9999
     0.9997   0.9996   0.9994   0.9993   0.9984   0.9981   0.9978   0.9975
     0.9973   0.9971   0.9961   0.9951   0.9944   0.9924   0.9889   0.9874
     0.9864   0.9857   0.9839   0.9827   0.9825   0.9795   0.9786   0.9770
     0.9741   0.9728   0.9701   0.9669   0.9599   0.9540   0.9421   0.9147
     0.8742   0.8693   0.8635   0.8541   0.8463   0.8356   0.8273   0.8233
     0.8141   0.7754   0.7674   0.7470   0.7376   0.7328   0.7296   0.7204
     0.7136   0.7031   0.6997   0.6798   0.6750   0.6689   0.6649   0.6595
     0.6543   0.3581   0.3383   0.2684   0.2434   0.1190   0.1018   0.1007
     0.0689   0.0171   0.0088   0.0049   0.0034   0.0016   0.0008   0.0003
     0.0002   0.0001   0.0001   0.0000   0.0000   0.0000   0.0000   0.0000
     0.0000   0.0000   0.0000   0.0000   0.0000   0.0000   0.0000   0.0000
     0.0000   0.0000   0.0000   0.0000   0.0000   0.0000   0.0000   0.0000

          k =-0.5000-0.5000 0.0000 ( 65132 PWs)   bands (ev):

   -92.7346 -92.6803 -92.5895 -92.5401 -92.4831 -92.4412 -92.4238 -92.3019
   -56.0880 -56.0646 -55.9464 -55.9354 -55.9283 -55.9222 -55.8850 -55.8584
   -55.8423 -55.8407 -55.8327 -55.7905 -55.7709 -55.7343 -55.7163 -55.6833
   -55.6754 -55.6295 -55.6294 -55.6264 -55.6180 -55.5768 -55.5541 -55.4671
   -31.3061 -31.2944 -31.1485 -31.1381 -31.0630 -30.9767 -30.9473 -30.7623
   -29.8797 -29.8410 -29.8139 -29.7065 -14.9661 -14.9412 -14.8247 -14.8107
   -14.7155 -14.6813 -14.6473 -14.5154 -14.0185 -14.0074 -13.9729 -13.9539
   -13.9356 -13.9149 -13.8942 -13.8840 -13.8664 -13.8608 -13.8450 -13.7670
   -13.7603 -13.7286 -13.6966 -13.6745 -13.5906 -13.5634 -13.4500 -13.4187
   -13.1907 -13.1529 -13.0822 -13.0582 -13.0348 -13.0223 -13.0165 -13.0073
   -12.9885 -12.9171 -12.8892 -12.8605 -12.8479 -12.8177 -12.7838 -12.7221
   -12.6375 -12.6297 -12.5703 -12.4191 -12.3486 -12.2765 -12.2173 -12.2092
   -11.8061 -11.7939 -11.7760 -11.7592 -11.7245 -11.7069 -11.6716 -11.6109
   -11.5911 -11.5854 -11.5353 -11.5323  -2.2572  -2.1833  -2.1759  -2.1022
    -2.0634  -1.9851  -1.9172  -1.7906  -1.6750  -1.6459  -1.6021  -1.5493
    -1.4773  -1.4625  -1.3923  -1.3496  -1.2321  -1.2019  -1.1542  -1.1261
    -1.0618  -1.0152  -0.9976  -0.9853  -0.9295  -0.8865  -0.8692  -0.7584
    -0.7015  -0.6545  -0.6056  -0.5770  -0.5602  -0.5294  -0.4907  -0.4492
    -0.4432  -0.3566  -0.2906  -0.2443  -0.2193  -0.1453  -0.0869  -0.0816
    -0.0195   0.0127   0.0207   0.0346   0.4921   0.5302   0.6127   0.6316
     1.0292   1.0430   1.0803   1.1183   1.3898   1.4073   1.4145   1.4581
     1.5835   1.6772   1.7047   1.7405   1.7634   1.7805   1.7917   1.8236
     1.8341   1.8468   1.8573   1.9114   1.9159   1.9423   1.9513   1.9740
     1.9887   2.0279   2.0542   2.0676   2.0993   2.1294   2.1978   2.2647
     2.5330   2.5627   2.5765   2.6036   2.6113   2.6358   2.6474   2.6662
     2.6754   2.6943   2.7142   2.7275   2.7912   2.7949   2.8056   2.8195
     2.8313   2.8492   2.8667   2.8712   2.8935   2.9848   2.9906   3.0104
     3.0225   3.9676   4.0072   4.0146   4.0473   4.2851   4.3573   4.3849
     4.6251   4.7472   4.8301   4.9595   5.0481   5.0558   5.1760   5.2674
     5.4394   5.8402   5.8733   5.9347   6.0355   6.4893   6.5369   6.6171
     7.5947   7.8902   7.8985   7.9287   7.9371   7.9526   7.9914   8.0628
     8.2433   8.3382   8.5154   8.5564   8.5717   8.5941   8.6347   8.6808

     occupation numbers 
     1.0000   1.0000   1.0000   1.0000   1.0000   1.0000   1.0000   1.0000
     1.0000   1.0000   1.0000   1.0000   1.0000   1.0000   1.0000   1.0000
     1.0000   1.0000   1.0000   1.0000   1.0000   1.0000   1.0000   1.0000
     1.0000   1.0000   1.0000   1.0000   1.0000   1.0000   1.0000   1.0000
     1.0000   1.0000   1.0000   1.0000   1.0000   1.0000   1.0000   1.0000
     1.0000   1.0000   1.0000   1.0000   1.0000   1.0000   1.0000   1.0000
     1.0000   1.0000   1.0000   1.0000   1.0000   1.0000   1.0000   1.0000
     1.0000   1.0000   1.0000   1.0000   1.0000   1.0000   1.0000   1.0000
     1.0000   1.0000   1.0000   1.0000   1.0000   1.0000   1.0000   1.0000
     1.0000   1.0000   1.0000   1.0000   1.0000   1.0000   1.0000   1.0000
     1.0000   1.0000   1.0000   1.0000   1.0000   1.0000   1.0000   1.0000
     1.0000   1.0000   1.0000   1.0000   1.0000   1.0000   1.0000   1.0000
     1.0000   1.0000   1.0000   1.0000   1.0000   1.0000   1.0000   1.0000
     1.0000   1.0000   1.0000   1.0000   1.0000   1.0000   1.0000   1.0000
     1.0000   1.0000   1.0000   1.0000   1.0000   1.0000   1.0000   1.0000
     1.0000   1.0000   1.0000   1.0000   1.0000   1.0000   1.0000   1.0000
     1.0000   1.0000   1.0000   1.0000   1.0000   1.0000   1.0000   1.0000
     1.0000   1.0000   1.0000   1.0000   1.0000   1.0000   1.0000   1.0000
     1.0000   1.0000   1.0000   1.0000   1.0000   1.0000   1.0000   1.0000
     1.0000   1.0000   1.0000   1.0000   1.0000   1.0000   1.0000   1.0000
     0.9996   0.9996   0.9995   0.9994   0.9976   0.9974   0.9974   0.9968
     0.9944   0.9918   0.9908   0.9894   0.9884   0.9876   0.9871   0.9854
     0.9849   0.9841   0.9835   0.9799   0.9796   0.9775   0.9768   0.9749
     0.9736   0.9698   0.9671   0.9656   0.9618   0.9580   0.9480   0.9366
     0.8704   0.8609   0.8563   0.8470   0.8443   0.8354   0.8311   0.8240
     0.8204   0.8130   0.8049   0.7995   0.7719   0.7702   0.7654   0.7590
     0.7535   0.7450   0.7366   0.7344   0.7234   0.6763   0.6732   0.6626
     0.6560   0.1582   0.1444   0.1420   0.1313   0.0703   0.0570   0.0525
     0.0240   0.0154   0.0112   0.0067   0.0046   0.0044   0.0026   0.0017
     0.0007   0.0001   0.0001   0.0000   0.0000   0.0000   0.0000   0.0000
     0.0000   0.0000   0.0000   0.0000   0.0000   0.0000   0.0000   0.0000
     0.0000   0.0000   0.0000   0.0000   0.0000   0.0000   0.0000   0.0000

          k = 0.2500 0.0000 0.0000 ( 65257 PWs)   bands (ev):

   -92.7346 -92.6803 -92.5895 -92.5401 -92.4831 -92.4412 -92.4238 -92.3019
   -56.0880 -56.0646 -55.9464 -55.9354 -55.9283 -55.9222 -55.8850 -55.8584
   -55.8423 -55.8407 -55.8327 -55.7905 -55.7709 -55.7343 -55.7163 -55.6833
   -55.6754 -55.6295 -55.6294 -55.6264 -55.6180 -55.5768 -55.5541 -55.4671
   -31.3086 -31.2925 -31.1485 -31.1386 -31.0624 -30.9765 -30.9475 -30.7618
   -29.8819 -29.8406 -29.8131 -29.7054 -15.0822 -15.0421 -14.9714 -14.8248
   -14.7179 -14.5258 -14.3898 -14.2116 -14.1935 -14.1634 -14.1309 -14.1080
   -14.0753 -14.0580 -14.0380 -13.9975 -13.8752 -13.8435 -13.6928 -13.6280
   -13.6110 -13.5447 -13.5255 -13.5141 -13.4606 -13.3791 -13.3450 -13.2768
   -13.2108 -13.1911 -13.1234 -13.0929 -13.0762 -13.0586 -13.0417 -13.0063
   -12.9745 -12.9577 -12.9104 -12.8855 -12.8524 -12.8481 -12.8033 -12.7449
   -12.7290 -12.7039 -12.6250 -12.5568 -12.4385 -12.2808 -12.1309 -12.0691
   -11.8611 -11.8090 -11.7920 -11.7786 -11.7519 -11.7011 -11.6782 -11.6698
   -11.6193 -11.5300 -11.4742 -11.4682  -2.8399  -2.6183  -2.4883  -2.3152
    -2.2515  -2.0819  -1.8715  -1.7976  -1.7530  -1.7144  -1.6170  -1.6037
    -1.5679  -1.5491  -1.4802  -1.3005  -1.1897  -1.1509  -1.0548  -1.0410
    -0.9634  -0.9370  -0.8860  -0.8457  -0.7934  -0.7613  -0.7138  -0.6887
    -0.6707  -0.6154  -0.6028  -0.5100  -0.4999  -0.4296  -0.3327  -0.2721
    -0.1705  -0.1517  -0.0882  -0.0549   0.0060   0.0255   0.0718   0.1322
     0.1800   0.4633   0.5934   0.6282   0.7089   0.7317   0.7719   0.7868
     0.8729   0.9834   1.0301   1.0549   1.0938   1.2454   1.2733   1.3101
     1.3164   1.3562   1.4041   1.4489   1.4810   1.5351   1.5786   1.5930
     1.6475   1.6916   1.7318   1.7607   1.8396   1.8434   1.8765   1.9030
     1.9410   2.0446   2.1274   2.1889   2.2647   2.2742   2.3511   2.4118
     2.4458   2.5036   2.5117   2.5261   2.5900   2.7177   2.7726   2.8250
     2.8502   2.8790   2.9100   2.9122   2.9329   2.9419   2.9572   2.9785
     2.9831   3.0097   3.0207   3.0265   3.0398   3.0603   3.0843   3.0882
     3.0957   3.1041   3.1128   3.1236   3.2453   3.5390   3.6120   3.8519
[...]
     0.7445   0.7306   0.7152   0.7141   0.7035   0.6989   0.6909   0.6797
     0.6773   0.6630   0.6570   0.6538   0.6465   0.6351   0.6216   0.6194
     0.6152   0.6104   0.6054   0.5993   0.5282   0.3574   0.3178   0.2033
     0.0798   0.0464   0.0217   0.0056   0.0047   0.0003   0.0001   0.0000
     0.0000   0.0000   0.0000   0.0000   0.0000   0.0000   0.0000   0.0000
     0.0000   0.0000   0.0000   0.0000   0.0000   0.0000   0.0000   0.0000
     0.0000   0.0000   0.0000   0.0000   0.0000   0.0000   0.0000   0.0000

          k =-0.5000 0.0000 0.0000 ( 65180 PWs)   bands (ev):

   -92.7346 -92.6803 -92.5895 -92.5401 -92.4831 -92.4412 -92.4238 -92.3019
   -56.0880 -56.0646 -55.9464 -55.9354 -55.9283 -55.9222 -55.8850 -55.8584
   -55.8423 -55.8407 -55.8327 -55.7905 -55.7709 -55.7343 -55.7163 -55.6833
   -55.6754 -55.6295 -55.6294 -55.6264 -55.6180 -55.5768 -55.5541 -55.4671
   -31.3065 -31.2947 -31.1481 -31.1384 -31.0627 -30.9764 -30.9476 -30.7619
   -29.8809 -29.8416 -29.8127 -29.7058 -15.0490 -14.9969 -14.9361 -14.8264
   -14.7233 -14.5787 -14.4357 -14.2894 -14.1662 -14.1563 -14.1417 -14.0859
   -14.0260 -13.9940 -13.9440 -13.9341 -13.9199 -13.8708 -13.8536 -13.7567
   -13.5886 -13.5501 -13.5272 -13.5200 -13.4628 -13.3973 -13.3612 -13.3003
   -13.2766 -13.2756 -13.1096 -13.0868 -13.0731 -13.0489 -13.0392 -13.0149
   -12.9764 -12.9571 -12.9088 -12.8875 -12.8363 -12.7284 -12.7156 -12.7071
   -12.6729 -12.6635 -12.5734 -12.4887 -12.3613 -12.3579 -12.2272 -12.1875
   -11.8131 -11.7917 -11.7849 -11.7703 -11.7522 -11.7111 -11.6478 -11.6301
   -11.5976 -11.5525 -11.5435 -11.5277  -2.6156  -2.5771  -2.4135  -2.3745
    -2.0602  -1.9830  -1.8380  -1.7201  -1.6796  -1.6327  -1.5867  -1.5622
    -1.4393  -1.3950  -1.3790  -1.2967  -1.2620  -1.2458  -1.2147  -1.1563
    -1.0882  -1.0595  -1.0282  -0.9365  -0.8886  -0.8391  -0.8067  -0.7861
    -0.7531  -0.7066  -0.6828  -0.6449  -0.5389  -0.4774  -0.3998  -0.3412
    -0.1903  -0.1448  -0.0910  -0.0458   0.0006   0.0222   0.1557   0.1900
     0.2318   0.4059   0.5052   0.5518   0.6373   0.6933   0.8231   0.8345
     0.9674   0.9964   1.0512   1.0844   1.1152   1.1269   1.1743   1.1974
     1.2646   1.3129   1.3592   1.3718   1.6634   1.6714   1.6874   1.7177
     1.8205   1.8353   1.8419   1.8514   1.8871   1.8977   1.9315   1.9603
     1.9791   2.0435   2.0530   2.1093   2.1260   2.1871   2.2916   2.3885
     2.4669   2.4817   2.5640   2.5925   2.6095   2.6851   2.6981   2.7067
     2.7339   2.7866   2.8091   2.8576   2.9011   2.9198   2.9673   2.9712
     2.9800   2.9836   2.9990   3.0106   3.0236   3.0317   3.0495   3.0549
     3.0751   3.0954   3.1000   3.2273   3.2388   4.0293   4.1007   4.1619
     4.2739   4.7589   4.8300   5.0160   5.0400   5.4691   5.4848   5.5881
     5.6208   6.0001   6.0184   6.1013   6.7147   6.7794   6.9914   7.2604
     7.2956   7.3630   7.4237   7.5792   7.6285   7.7485   7.8586   7.8713
     8.1159   8.2035   8.3412   8.4859   8.6009   8.7244   8.7370   8.8301

     occupation numbers 
     1.0000   1.0000   1.0000   1.0000   1.0000   1.0000   1.0000   1.0000
     1.0000   1.0000   1.0000   1.0000   1.0000   1.0000   1.0000   1.0000
     1.0000   1.0000   1.0000   1.0000   1.0000   1.0000   1.0000   1.0000
     1.0000   1.0000   1.0000   1.0000   1.0000   1.0000   1.0000   1.0000
     1.0000   1.0000   1.0000   1.0000   1.0000   1.0000   1.0000   1.0000
     1.0000   1.0000   1.0000   1.0000   1.0000   1.0000   1.0000   1.0000
     1.0000   1.0000   1.0000   1.0000   1.0000   1.0000   1.0000   1.0000
     1.0000   1.0000   1.0000   1.0000   1.0000   1.0000   1.0000   1.0000
     1.0000   1.0000   1.0000   1.0000   1.0000   1.0000   1.0000   1.0000
     1.0000   1.0000   1.0000   1.0000   1.0000   1.0000   1.0000   1.0000
     1.0000   1.0000   1.0000   1.0000   1.0000   1.0000   1.0000   1.0000
     1.0000   1.0000   1.0000   1.0000   1.0000   1.0000   1.0000   1.0000
     1.0000   1.0000   1.0000   1.0000   1.0000   1.0000   1.0000   1.0000
     1.0000   1.0000   1.0000   1.0000   1.0000   1.0000   1.0000   1.0000
     1.0000   1.0000   1.0000   1.0000   1.0000   1.0000   1.0000   1.0000
     1.0000   1.0000   1.0000   1.0000   1.0000   1.0000   1.0000   1.0000
     1.0000   1.0000   1.0000   1.0000   1.0000   1.0000   1.0000   1.0000
     1.0000   1.0000   1.0000   1.0000   1.0000   1.0000   1.0000   1.0000
     1.0000   1.0000   1.0000   1.0000   1.0000   1.0000   1.0000   1.0000
     1.0000   1.0000   1.0000   1.0000   1.0000   0.9999   0.9999   0.9999
     0.9997   0.9997   0.9996   0.9995   0.9994   0.9994   0.9992   0.9991
     0.9987   0.9984   0.9980   0.9978   0.9922   0.9920   0.9914   0.9903
     0.9856   0.9848   0.9844   0.9838   0.9816   0.9809   0.9784   0.9761
     0.9745   0.9682   0.9672   0.9606   0.9584   0.9497   0.9315   0.9104
     0.8900   0.8858   0.8605   0.8508   0.8449   0.8166   0.8115   0.8080
     0.7967   0.7739   0.7638   0.7410   0.7196   0.7102   0.6856   0.6836
     0.6789   0.6770   0.6687   0.6625   0.6554   0.6510   0.6411   0.6381
     0.6268   0.6154   0.6127   0.5388   0.5320   0.1371   0.1152   0.0985
     0.0726   0.0147   0.0112   0.0053   0.0047   0.0006   0.0006   0.0003
     0.0003   0.0000   0.0000   0.0000   0.0000   0.0000   0.0000   0.0000
     0.0000   0.0000   0.0000   0.0000   0.0000   0.0000   0.0000   0.0000
     0.0000   0.0000   0.0000   0.0000   0.0000   0.0000   0.0000   0.0000

          k =-0.2500 0.2500 0.0000 ( 65198 PWs)   bands (ev):

   -92.7346 -92.6803 -92.5895 -92.5401 -92.4831 -92.4412 -92.4238 -92.3019
   -56.0880 -56.0646 -55.9464 -55.9354 -55.9283 -55.9222 -55.8850 -55.8584
   -55.8423 -55.8407 -55.8327 -55.7905 -55.7709 -55.7343 -55.7163 -55.6833
   -55.6754 -55.6295 -55.6294 -55.6264 -55.6180 -55.5768 -55.5541 -55.4671
   -31.3084 -31.2924 -31.1487 -31.1384 -31.0625 -30.9767 -30.9473 -30.7620
   -29.8813 -29.8403 -29.8137 -29.7057 -15.0512 -15.0101 -14.9368 -14.8197
   -14.7074 -14.5835 -14.4964 -14.2901 -14.1494 -14.1204 -14.1068 -14.0606
   -14.0359 -14.0144 -13.9969 -13.9586 -13.8710 -13.8591 -13.7056 -13.6797
   -13.6498 -13.6294 -13.5723 -13.5309 -13.4760 -13.4674 -13.3593 -13.3136
   -13.2560 -13.1795 -13.1372 -13.0779 -13.0691 -13.0380 -13.0180 -12.9810
   -12.9601 -12.9441 -12.9235 -12.8666 -12.8465 -12.8060 -12.8008 -12.7262
   -12.7146 -12.7065 -12.5279 -12.4746 -12.4622 -12.3146 -12.1672 -12.1127
   -11.8333 -11.8118 -11.7846 -11.7723 -11.7316 -11.6966 -11.6738 -11.6520
   -11.6296 -11.5447 -11.4994 -11.4900  -2.7004  -2.4924  -2.3717  -2.2817
    -2.1648  -2.0981  -1.8929  -1.7499  -1.7311  -1.6984  -1.6094  -1.5743
    -1.4818  -1.4472  -1.4211  -1.2789  -1.2233  -1.1533  -1.1260  -1.0646
    -1.0450  -1.0043  -0.9757  -0.9355  -0.8727  -0.8251  -0.7586  -0.6931
    -0.6694  -0.6175  -0.5894  -0.5435  -0.4839  -0.4341  -0.3984  -0.2940
    -0.2668  -0.2527  -0.2082  -0.1456  -0.0758  -0.0326   0.0039   0.0661
     0.1000   0.3552   0.5274   0.5657   0.6046   0.6611   0.7080   0.7628
     0.8333   0.8651   1.1478   1.2562   1.2958   1.3309   1.3369   1.3774
     1.3937   1.4390   1.4706   1.4841   1.5103   1.5559   1.5709   1.6119
     1.6343   1.6772   1.7562   1.7745   1.7974   1.8257   1.8606   1.8971
     1.9444   2.0564   2.1683   2.1977   2.2449   2.2632   2.3268   2.3713
     2.3988   2.4212   2.4431   2.5459   2.5852   2.6766   2.7824   2.8500
     2.8578   2.8739   2.8813   2.8933   2.9090   2.9151   2.9311   2.9402
     2.9537   2.9641   2.9757   2.9850   2.9949   3.0269   3.0362   3.0443
     3.0781   3.3705   3.4512   3.5232   3.5871   3.6027   3.8210   3.9284
     4.2650   4.4721   4.6936   4.9517   5.1592   5.6175   5.6722   5.7563
     5.8020   5.8667   6.0992   6.1534   6.1961   6.7691   6.8825   7.0743
     7.2161   7.5436   7.5880   7.6480   7.6511   7.8603   7.9247   8.1237
     8.1765   8.2322   8.2833   8.3357   8.4042   8.4370   8.5849   8.8497

     occupation numbers 
     1.0000   1.0000   1.0000   1.0000   1.0000   1.0000   1.0000   1.0000
     1.0000   1.0000   1.0000   1.0000   1.0000   1.0000   1.0000   1.0000
     1.0000   1.0000   1.0000   1.0000   1.0000   1.0000   1.0000   1.0000
     1.0000   1.0000   1.0000   1.0000   1.0000   1.0000   1.0000   1.0000
     1.0000   1.0000   1.0000   1.0000   1.0000   1.0000   1.0000   1.0000
     1.0000   1.0000   1.0000   1.0000   1.0000   1.0000   1.0000   1.0000
     1.0000   1.0000   1.0000   1.0000   1.0000   1.0000   1.0000   1.0000
     1.0000   1.0000   1.0000   1.0000   1.0000   1.0000   1.0000   1.0000
     1.0000   1.0000   1.0000   1.0000   1.0000   1.0000   1.0000   1.0000
     1.0000   1.0000   1.0000   1.0000   1.0000   1.0000   1.0000   1.0000
     1.0000   1.0000   1.0000   1.0000   1.0000   1.0000   1.0000   1.0000
     1.0000   1.0000   1.0000   1.0000   1.0000   1.0000   1.0000   1.0000
     1.0000   1.0000   1.0000   1.0000   1.0000   1.0000   1.0000   1.0000
     1.0000   1.0000   1.0000   1.0000   1.0000   1.0000   1.0000   1.0000
     1.0000   1.0000   1.0000   1.0000   1.0000   1.0000   1.0000   1.0000
     1.0000   1.0000   1.0000   1.0000   1.0000   1.0000   1.0000   1.0000
     1.0000   1.0000   1.0000   1.0000   1.0000   1.0000   1.0000   1.0000
     1.0000   1.0000   1.0000   1.0000   1.0000   1.0000   1.0000   1.0000
     1.0000   1.0000   1.0000   1.0000   1.0000   1.0000   1.0000   1.0000
     1.0000   1.0000   1.0000   1.0000   1.0000   1.0000   0.9999   0.9999
     0.9999   0.9998   0.9993   0.9988   0.9985   0.9982   0.9982   0.9978
     0.9976   0.9970   0.9966   0.9964   0.9959   0.9951   0.9947   0.9937
     0.9931   0.9918   0.9888   0.9879   0.9868   0.9853   0.9833   0.9809
     0.9774   0.9668   0.9525   0.9481   0.9402   0.9369   0.9243   0.9144
     0.9079   0.9022   0.8965   0.8664   0.8534   0.8200   0.7758   0.7446
     0.7409   0.7331   0.7295   0.7235   0.7157   0.7126   0.7045   0.6998
     0.6928   0.6873   0.6812   0.6763   0.6710   0.6536   0.6485   0.6440
     0.6251   0.4541   0.4071   0.3662   0.3311   0.3228   0.2165   0.1727
     0.0744   0.0400   0.0188   0.0069   0.0028   0.0003   0.0002   0.0001
     0.0001   0.0001   0.0000   0.0000   0.0000   0.0000   0.0000   0.0000
     0.0000   0.0000   0.0000   0.0000   0.0000   0.0000   0.0000   0.0000
     0.0000   0.0000   0.0000   0.0000   0.0000   0.0000   0.0000   0.0000

          k =-0.5000 0.2500 0.0000 ( 65138 PWs)   bands (ev):

   -92.7346 -92.6803 -92.5895 -92.5401 -92.4831 -92.4412 -92.4238 -92.3019
   -56.0880 -56.0646 -55.9464 -55.9354 -55.9283 -55.9222 -55.8850 -55.8584
   -55.8423 -55.8407 -55.8327 -55.7905 -55.7709 -55.7343 -55.7163 -55.6833
   -55.6754 -55.6295 -55.6294 -55.6264 -55.6180 -55.5768 -55.5541 -55.4671
   -31.3063 -31.2946 -31.1483 -31.1383 -31.0629 -30.9766 -30.9475 -30.7621
   -29.8803 -29.8413 -29.8133 -29.7061 -15.0161 -14.9704 -14.8931 -14.7931
   -14.7513 -14.6259 -14.5395 -14.4082 -14.0999 -14.0700 -14.0582 -14.0134
   -13.9917 -13.9661 -13.9299 -13.9193 -13.8990 -13.8586 -13.8500 -13.7471
   -13.6709 -13.6216 -13.6151 -13.5966 -13.5148 -13.5010 -13.4029 -13.3524
   -13.2329 -13.1973 -13.1022 -13.0689 -13.0553 -13.0476 -13.0157 -12.9837
   -12.9722 -12.9604 -12.9181 -12.8604 -12.8472 -12.7726 -12.7504 -12.7095
   -12.6547 -12.6469 -12.5716 -12.4512 -12.3540 -12.3203 -12.2213 -12.1959
   -11.8059 -11.7932 -11.7791 -11.7672 -11.7459 -11.7158 -11.6348 -11.6262
   -11.6031 -11.5669 -11.5392 -11.5301  -2.4731  -2.4312  -2.2831  -2.2412
    -2.0800  -2.0018  -1.8622  -1.7260  -1.6673  -1.6408  -1.6027  -1.5650
    -1.4842  -1.3689  -1.3117  -1.2888  -1.2623  -1.1856  -1.1578  -1.1194
    -1.1020  -1.0414  -1.0105  -0.9731  -0.9384  -0.9095  -0.8510  -0.8244
    -0.7832  -0.7469  -0.6422  -0.6181  -0.5214  -0.4691  -0.4333  -0.3718
    -0.2955  -0.2630  -0.1595  -0.1261  -0.0623  -0.0189   0.0223   0.0845
     0.1113   0.1436   0.1979   0.2354   0.5544   0.6066   0.6628   0.6815
     0.9781   1.0417   1.1139   1.1427   1.3171   1.3520   1.3895   1.4014
     1.4192   1.4368   1.5067   1.5527   1.5912   1.6256   1.7325   1.7789
     1.8095   1.8187   1.8481   1.8821   1.8968   1.9062   1.9269   1.9524
     1.9928   2.0166   2.0488   2.0743   2.1031   2.1639   2.2823   2.3827
     2.4128   2.4798   2.5190   2.5805   2.6083   2.6233   2.6651   2.6939
     2.7188   2.7861   2.8073   2.8565   2.8598   2.8663   2.8875   2.9090
     2.9195   2.9364   2.9482   2.9703   2.9848   2.9926   3.0010   3.0093
     3.0216   3.5584   3.5841   3.7429   3.7605   4.0354   4.1095   4.1748
     4.3635   4.7533   4.8475   5.0186   5.0520   5.3821   5.4012   5.5622
     5.6324   5.7162   5.7754   6.2109   6.3748   6.4855   6.6194   7.0939
     7.4543   7.5418   7.6632   7.6944   7.7735   7.8641   7.9988   8.1486
     8.3301   8.3961   8.4281   8.4994   8.5499   8.5900   8.6407   8.7266

     occupation numbers 
     1.0000   1.0000   1.0000   1.0000   1.0000   1.0000   1.0000   1.0000
     1.0000   1.0000   1.0000   1.0000   1.0000   1.0000   1.0000   1.0000
     1.0000   1.0000   1.0000   1.0000   1.0000   1.0000   1.0000   1.0000
     1.0000   1.0000   1.0000   1.0000   1.0000   1.0000   1.0000   1.0000
     1.0000   1.0000   1.0000   1.0000   1.0000   1.0000   1.0000   1.0000
     1.0000   1.0000   1.0000   1.0000   1.0000   1.0000   1.0000   1.0000
     1.0000   1.0000   1.0000   1.0000   1.0000   1.0000   1.0000   1.0000
     1.0000   1.0000   1.0000   1.0000   1.0000   1.0000   1.0000   1.0000
     1.0000   1.0000   1.0000   1.0000   1.0000   1.0000   1.0000   1.0000
     1.0000   1.0000   1.0000   1.0000   1.0000   1.0000   1.0000   1.0000
     1.0000   1.0000   1.0000   1.0000   1.0000   1.0000   1.0000   1.0000
     1.0000   1.0000   1.0000   1.0000   1.0000   1.0000   1.0000   1.0000
     1.0000   1.0000   1.0000   1.0000   1.0000   1.0000   1.0000   1.0000
     1.0000   1.0000   1.0000   1.0000   1.0000   1.0000   1.0000   1.0000
     1.0000   1.0000   1.0000   1.0000   1.0000   1.0000   1.0000   1.0000
     1.0000   1.0000   1.0000   1.0000   1.0000   1.0000   1.0000   1.0000
     1.0000   1.0000   1.0000   1.0000   1.0000   1.0000   1.0000   1.0000
     1.0000   1.0000   1.0000   1.0000   1.0000   1.0000   1.0000   1.0000
     1.0000   1.0000   1.0000   1.0000   1.0000   1.0000   1.0000   1.0000
     1.0000   1.0000   1.0000   1.0000   1.0000   1.0000   1.0000   0.9999
     0.9997   0.9996   0.9994   0.9993   0.9983   0.9980   0.9976   0.9975
     0.9973   0.9971   0.9960   0.9951   0.9942   0.9934   0.9898   0.9877
     0.9862   0.9857   0.9840   0.9819   0.9809   0.9803   0.9787   0.9767
     0.9732   0.9710   0.9677   0.9648   0.9614   0.9532   0.9333   0.9117
     0.9044   0.8864   0.8748   0.8549   0.8453   0.8400   0.8244   0.8131
     0.8030   0.7741   0.7646   0.7415   0.7399   0.7368   0.7264   0.7157
     0.7104   0.7017   0.6956   0.6840   0.6764   0.6722   0.6676   0.6632
     0.6565   0.3467   0.3327   0.2520   0.2437   0.1351   0.1127   0.0952
     0.0560   0.0151   0.0105   0.0052   0.0045   0.0010   0.0009   0.0004
     0.0003   0.0002   0.0001   0.0000   0.0000   0.0000   0.0000   0.0000
     0.0000   0.0000   0.0000   0.0000   0.0000   0.0000   0.0000   0.0000
     0.0000   0.0000   0.0000   0.0000   0.0000   0.0000   0.0000   0.0000

     the Fermi energy is     3.2929 ev

!    total energy              =   -4399.91710079 Ry
     estimated scf accuracy    <          9.6E-09 Ry
     smearing contrib. (-TS)   =      -1.14681858 Ry
     internal energy E=F+TS    =   -4398.77028221 Ry

     The total energy is F=E-TS. E is the sum of the following terms:
     one-electron contribution =  -21252.22523985 Ry
     hartree contribution      =   10753.71897086 Ry
     xc contribution           =    -686.72515608 Ry
     ewald contribution        =    7053.10639191 Ry
     one-center paw contrib.   =    -266.64524905 Ry
      -> PAW hartree energy AE =      25.16877284 Ry
      -> PAW hartree energy PS =     -25.05261058 Ry
      -> PAW xc energy AE      =     -16.51832307 Ry
      -> PAW xc energy PS      =       6.87782855 Ry
      -> total E_H with PAW    =   10753.83513313 Ry
      -> total E_XC with PAW   =    -696.36565059 Ry

     convergence has been achieved in  46 iterations

     Writing all to output data dir /bsuhome/zayahcortright/scratch/pwscf.save/
 
     init_run     :      7.67s CPU      8.15s WALL (       1 calls)
     electrons    :    672.71s CPU    684.51s WALL (       1 calls)

     Called by init_run:
     wfcinit      :      6.08s CPU      6.20s WALL (       1 calls)
     wfcinit:atom :      0.06s CPU      0.07s WALL (       5 calls)
     wfcinit:wfcr :      5.74s CPU      5.82s WALL (       5 calls)
     potinit      :      0.16s CPU      0.18s WALL (       1 calls)
     hinit0       :      0.52s CPU      0.79s WALL (       1 calls)

     Called by electrons:
     c_bands      :    535.12s CPU    539.78s WALL (      46 calls)
     sum_band     :    103.57s CPU    107.69s WALL (      46 calls)
     v_of_rho     :      5.09s CPU      5.36s WALL (      47 calls)
     v_h          :      0.45s CPU      0.46s WALL (      47 calls)
     v_xc         :      4.64s CPU      4.90s WALL (      47 calls)
     newd         :     15.70s CPU     18.03s WALL (      47 calls)
     PAW_pot      :      1.49s CPU      1.52s WALL (      47 calls)
     mix_rho      :     11.44s CPU     11.69s WALL (      46 calls)

     Called by c_bands:
     init_us_2    :      6.47s CPU      6.52s WALL (     465 calls)
     init_us_2:cp :      6.47s CPU      6.52s WALL (     465 calls)
     cegterg      :    501.92s CPU    506.40s WALL (     230 calls)

     Called by sum_band:
     sum_band:wei :      0.32s CPU      0.32s WALL (      46 calls)
     sum_band:loo :     84.97s CPU     85.62s WALL (      46 calls)
     sum_band:buf :      1.30s CPU      1.31s WALL (     230 calls)
     sum_band:ini :      3.08s CPU      3.09s WALL (     230 calls)
     sum_band:cal :     17.24s CPU     17.30s WALL (     230 calls)
     sum_band:bec :      0.50s CPU      0.50s WALL (     230 calls)
     addusdens    :     17.10s CPU     20.52s WALL (      46 calls)
                                        0.00s GPU  (      46 calls)
     addusd:skk   :      0.32s CPU      0.64s WALL (     184 calls)
                                        0.00s GPU  (     184 calls)

     Called by *egterg:
     cdiaghg      :     58.72s CPU     58.95s WALL (    1374 calls)
     cegterg:over :     36.26s CPU     36.39s WALL (    1144 calls)
     cegterg:upda :     26.71s CPU     27.01s WALL (    1144 calls)
     cegterg:last :     54.24s CPU     54.40s WALL (     423 calls)
     cdiaghg:chol :      3.35s CPU      3.38s WALL (    1374 calls)
     cdiaghg:inve :      3.51s CPU      3.52s WALL (    1374 calls)
     cdiaghg:para :      7.30s CPU      7.34s WALL (    2748 calls)
     h_psi        :    275.31s CPU    277.93s WALL (    1379 calls)
     s_psi        :     37.14s CPU     37.27s WALL (    1379 calls)
     g_psi        :      1.06s CPU      1.07s WALL (    1144 calls)

     Called by h_psi:
     h_psi:calbec :     40.24s CPU     40.38s WALL (    1379 calls)
     vloc_psi     :    195.26s CPU    197.20s WALL (    1379 calls)
     add_vuspsi   :     36.75s CPU     36.88s WALL (    1379 calls)

     General routines
     calbec       :     57.47s CPU     57.67s WALL (    1609 calls)
     fft          :      3.45s CPU      3.49s WALL (     609 calls)
     ffts         :      4.24s CPU      4.26s WALL (    4812 calls)
     fftw         :    167.84s CPU    169.25s WALL (  309044 calls)
     interpolate  :      0.39s CPU      0.39s WALL (      47 calls)
 
     Parallel routines

     PAW routines
     PAW_pot      :      1.49s CPU      1.52s WALL (      47 calls)
 
     PWSCF        :  11m21.88s CPU  11m37.11s WALL

 
   This run was terminated on:  12:45:19  21Jun2024            

=------------------------------------------------------------------------------=
   JOB DONE.
=------------------------------------------------------------------------------=
