
     Program PWSCF v.7.2 starts on 21Jun2024 at 17:39:55 

     This program is part of the open-source Quantum ESPRESSO suite
     for quantum simulation of materials; please cite
         "P. Giannozzi et al., J. Phys.:Condens. Matter 21 395502 (2009);
         "P. Giannozzi et al., J. Phys.:Condens. Matter 29 465901 (2017);
         "P. Giannozzi et al., J. Chem. Phys. 152 154105 (2020);
          URL http://www.quantum-espresso.org", 
     in publications or presentations arising from this work. More details at
     http://www.quantum-espresso.org/quote

     Parallel version (MPI & OpenMP), running on      48 processor cores
     Number of MPI processes:                48
     Threads/MPI process:                     1

     MPI processes distributed on     1 nodes
     33236 MiB available memory on the printing compute node when the environment starts
 
     Reading input from espresso.pwi
Warning: card &CELL ignored
Warning: card / ignored
Warning: card &FCP ignored
Warning: card / ignored
Warning: card &RISM ignored
Warning: card / ignored

     Current dimensions of program PWSCF are:
     Max number of different atomic species (ntypx) = 10
     Max number of k-points (npk) =  40000
     Max angular momentum in pseudopotentials (lmaxx) =  4
     file O.pbe-n-kjpaw_psl.0.1.UPF: wavefunction(s)  2P renormalized
     signal trapping enabled: kill the code with -SIGUSR1 to stop cleanly the simulation 
 
     K-points division:     npool     =       2
     R & G space division:  proc/nbgrp/npool/nimage =      24
     Subspace diagonalization in iterative solution of the eigenvalue problem:
     one sub-group per band group will be used
     scalapack distributed-memory algorithm (size of sub-group:  3*  3 procs)

 
     Parallelization info
     --------------------
     sticks:   dense  smooth     PW     G-vecs:    dense   smooth      PW
     Min         350     175     47                61430    21716    3036
     Max         351     177     48                61449    21727    3041
     Sum        8421    4205   1137              1474595   521381   72913
 
     Using Slab Decomposition
 


     bravais-lattice index     =            0
     lattice parameter (alat)  =      14.8599  a.u.
     unit-cell volume          =    8305.1283 (a.u.)^3
     number of atoms/cell      =           50
     number of atomic types    =            4
     number of electrons       =       431.00
     number of Kohn-Sham states=          259
     kinetic-energy cutoff     =      60.0000  Ry
     charge density cutoff     =     480.0000  Ry
     scf convergence threshold =      1.0E-08
     mixing beta               =       0.1500
     number of iterations used =            8  local-TF  mixing
     Exchange-correlation= PBE
                           (   1   4   3   4   0   0   0)

     celldm(1)=  14.859904  celldm(2)=   0.000000  celldm(3)=   0.000000
     celldm(4)=   0.000000  celldm(5)=   0.000000  celldm(6)=   0.000000

     crystal axes: (cart. coord. in units of alat)
               a(1) = (   1.000000   0.000000   0.000000 )  
               a(2) = (   0.000000   1.000000   0.000000 )  
               a(3) = (   0.000000   0.000000   2.531036 )  

     reciprocal axes: (cart. coord. in units 2 pi/alat)
               b(1) = (  1.000000  0.000000  0.000000 )  
               b(2) = (  0.000000  1.000000  0.000000 )  
               b(3) = (  0.000000  0.000000  0.395095 )  


     PseudoPot. # 1 for Sr read from file:
     /bsuhome/zayahcortright/q-e/pseudo/Sr_pbe_v1.uspp.F.UPF
     MD5 check sum: 6b418c05fbe9db5448babca5e47b7a5b
     Pseudo is Ultrasoft + core correction, Zval = 10.0
     Generated by new atomic code, or converted to UPF format
     Using radial grid of  883 points,  6 beta functions with: 
                l(1) =   0
                l(2) =   0
                l(3) =   1
                l(4) =   1
                l(5) =   2
                l(6) =   2
     Q(r) pseudized with  6 coefficients,  rinner =    1.400   1.400   1.400
                                                       1.400   1.400

     PseudoPot. # 2 for O  read from file:
     /bsuhome/zayahcortright/q-e/pseudo/O.pbe-n-kjpaw_psl.0.1.UPF
     MD5 check sum: 0234752ac141de4415c5fc33072bef88
     Pseudo is Projector augmented-wave + core cor, Zval =  6.0
     Generated using "atomic" code by A. Dal Corso  v.5.0.99 svn rev. 10869
     Shape of augmentation charge: BESSEL
     Using radial grid of 1095 points,  4 beta functions with: 
                l(1) =   0
                l(2) =   0
                l(3) =   1
                l(4) =   1
     Q(r) pseudized with 0 coefficients 


     PseudoPot. # 3 for Co read from file:
     /bsuhome/zayahcortright/q-e/pseudo/Co_pbe_v1.2.uspp.F.UPF
     MD5 check sum: 5f91765df6ddd3222702df6e7b74a16d
     Pseudo is Ultrasoft + core correction, Zval = 17.0
     Generated by new atomic code, or converted to UPF format
     Using radial grid of  863 points,  6 beta functions with: 
                l(1) =   0
                l(2) =   0
                l(3) =   1
                l(4) =   1
                l(5) =   2
                l(6) =   2
     Q(r) pseudized with  8 coefficients,  rinner =    1.200   1.200   1.200
                                                       1.200   1.200

     PseudoPot. # 4 for H  read from file:
     /bsuhome/zayahcortright/q-e/pseudo/H.pbe-rrkjus_psl.1.0.0.UPF
     MD5 check sum: f52b6d4d1c606e5624b1dc7b2218f220
     Pseudo is Ultrasoft, Zval =  1.0
     Generated using "atomic" code by A. Dal Corso  v.5.1
     Using radial grid of  929 points,  2 beta functions with: 
                l(1) =   0
                l(2) =   0
     Q(r) pseudized with 0 coefficients 


     atomic species   valence    mass     pseudopotential
        Sr            10.00    87.62000     Sr( 1.00)
        O              6.00    15.99900     O ( 1.00)
        Co            17.00    58.93319     Co( 1.00)
        H              1.00     1.00800     H ( 1.00)

     No symmetry found


                                    s                        frac. trans.

      isym =  1     identity                                     

 cryst.   s( 1) = (     1          0          0      )
                  (     0          1          0      )
                  (     0          0          1      )

 cart.    s( 1) = (  1.0000000  0.0000000  0.0000000 )
                  (  0.0000000  1.0000000  0.0000000 )
                  (  0.0000000  0.0000000  1.0000000 )


   Cartesian axes

     site n.     atom                  positions (alat units)
         1           Sr  tau(   1) = (   0.2508693   0.7491307   1.7574407  )
         2           O   tau(   2) = (   0.4985141   0.5014859   1.7715967  )
         3           Sr  tau(   3) = (   0.7482398   0.7454518   1.7648669  )
         4           Sr  tau(   4) = (   0.7441748   0.2558252   1.7667843  )
         5           Sr  tau(   5) = (   0.2508693   0.7491307   1.2696799  )
         6           Sr  tau(   6) = (   0.2508693   0.7491307   0.7632319  )
         7           Co  tau(   7) = (   0.4998914   0.5001086   1.0164559  )
         8           Co  tau(   8) = (   0.4936915   0.5063085   1.5135603  )
         9           O   tau(   9) = (   0.4988895   0.7610401   1.0164559  )
        10           O   tau(  10) = (   0.2389599   0.5011105   1.0164559  )
        11           O   tau(  11) = (   0.0070918   0.7374880   1.0164559  )
        12           O   tau(  12) = (   0.0088340   0.7405089   1.5135603  )
        13           O   tau(  13) = (   0.5066944   0.7415376   1.5135603  )
        14           O   tau(  14) = (   0.2584624   0.4933056   1.5135603  )
        15           O   tau(  15) = (   0.4985141   0.5014859   0.7773880  )
        16           O   tau(  16) = (   0.4985141   0.5014859   1.2555238  )
        17           Sr  tau(  17) = (   0.7482398   0.7454518   0.7706582  )
        18           Sr  tau(  18) = (   0.7482398   0.7454518   1.2622536  )
        19           Sr  tau(  19) = (   0.7441748   0.2558252   0.7725755  )
        20           Sr  tau(  20) = (   0.7441748   0.2558252   1.2603363  )
        21           O   tau(  21) = (   0.7322655   0.0078049   1.5135603  )
        22           O   tau(  22) = (   0.7558175   0.4996027   1.5135603  )
        23           O   tau(  23) = (   0.5003973   0.2441825   1.5135603  )
        24           O   tau(  24) = (   0.7527966   0.4978604   1.0164559  )
        25           O   tau(  25) = (   0.5021396   0.2472034   1.0164559  )
        26           O   tau(  26) = (   0.7517679   0.0000000   1.0164559  )
        27           O   tau(  27) = (   0.0114961   0.4948124   1.7455321  )
        28           O   tau(  28) = (   0.0048226   0.0077944   1.7715967  )
        29           Sr  tau(  29) = (   0.2545482   0.2517602   1.7648669  )
        30           O   tau(  30) = (   0.5048017   0.0015068   1.7786929  )
        31           Co  tau(  31) = (   0.0056869   0.5006215   1.0164559  )
        32           Co  tau(  32) = (   0.0065315   0.4997770   1.5135603  )
        33           Co  tau(  33) = (   0.0061999   0.0064171   1.0164559  )
        34           Co  tau(  34) = (   0.0000000   0.0126169   1.5135603  )
        35           O   tau(  35) = (   0.0114961   0.4948124   1.2815885  )
        36           O   tau(  36) = (   0.0114961   0.4948124   0.7513233  )
        37           O   tau(  37) = (   0.0051979   0.2673486   1.0164559  )
        38           O   tau(  38) = (   0.0130029   0.2478461   1.5135603  )
        39           O   tau(  39) = (   0.0048226   0.0077944   0.7773880  )
        40           O   tau(  40) = (   0.0048226   0.0077944   1.2555238  )
        41           Sr  tau(  41) = (   0.2545482   0.2517602   0.7706582  )
        42           Sr  tau(  42) = (   0.2545482   0.2517602   1.2622536  )
        43           Co  tau(  43) = (   0.4989925   0.0073160   1.5135603  )
        44           Co  tau(  44) = (   0.4998370   0.0064714   1.0164559  )
        45           O   tau(  45) = (   0.5048017   0.0015068   0.7844841  )
        46           O   tau(  46) = (   0.5048017   0.0015068   1.2484277  )
        47           O   tau(  47) = (   0.2621260   0.0059111   1.5135603  )
        48           O   tau(  48) = (   0.2591051   0.0041689   1.0164559  )
        49           O   tau(  49) = (   0.1421646   0.8529874   2.1602013  )
        50           H   tau(  50) = (   0.1421646   0.8529874   2.2847091  )

   Crystallographic axes

     site n.     atom                  positions (cryst. coord.)
         1           Sr  tau(   1) = (  0.2508693  0.7491307  0.6943562  )
         2           O   tau(   2) = (  0.4985141  0.5014859  0.6999492  )
         3           Sr  tau(   3) = (  0.7482398  0.7454518  0.6972903  )
         4           Sr  tau(   4) = (  0.7441748  0.2558252  0.6980478  )
         5           Sr  tau(   5) = (  0.2508693  0.7491307  0.5016443  )
         6           Sr  tau(   6) = (  0.2508693  0.7491307  0.3015492  )
         7           Co  tau(   7) = (  0.4998914  0.5001086  0.4015968  )
         8           Co  tau(   8) = (  0.4936915  0.5063085  0.5980003  )
         9           O   tau(   9) = (  0.4988895  0.7610401  0.4015968  )
        10           O   tau(  10) = (  0.2389599  0.5011105  0.4015968  )
        11           O   tau(  11) = (  0.0070918  0.7374880  0.4015968  )
        12           O   tau(  12) = (  0.0088340  0.7405089  0.5980003  )
        13           O   tau(  13) = (  0.5066944  0.7415376  0.5980003  )
        14           O   tau(  14) = (  0.2584624  0.4933056  0.5980003  )
        15           O   tau(  15) = (  0.4985141  0.5014859  0.3071422  )
        16           O   tau(  16) = (  0.4985141  0.5014859  0.4960513  )
        17           Sr  tau(  17) = (  0.7482398  0.7454518  0.3044833  )
        18           Sr  tau(  18) = (  0.7482398  0.7454518  0.4987103  )
        19           Sr  tau(  19) = (  0.7441748  0.2558252  0.3052408  )
        20           Sr  tau(  20) = (  0.7441748  0.2558252  0.4979527  )
        21           O   tau(  21) = (  0.7322655  0.0078049  0.5980003  )
        22           O   tau(  22) = (  0.7558175  0.4996027  0.5980003  )
        23           O   tau(  23) = (  0.5003973  0.2441825  0.5980003  )
        24           O   tau(  24) = (  0.7527966  0.4978604  0.4015968  )
        25           O   tau(  25) = (  0.5021396  0.2472034  0.4015968  )
        26           O   tau(  26) = (  0.7517679  0.0000000  0.4015968  )
        27           O   tau(  27) = (  0.0114961  0.4948124  0.6896512  )
        28           O   tau(  28) = (  0.0048226  0.0077944  0.6999492  )
        29           Sr  tau(  29) = (  0.2545482  0.2517602  0.6972903  )
        30           O   tau(  30) = (  0.5048017  0.0015068  0.7027529  )
        31           Co  tau(  31) = (  0.0056869  0.5006215  0.4015968  )
        32           Co  tau(  32) = (  0.0065315  0.4997770  0.5980003  )
        33           Co  tau(  33) = (  0.0061999  0.0064171  0.4015968  )
        34           Co  tau(  34) = (  0.0000000  0.0126169  0.5980003  )
        35           O   tau(  35) = (  0.0114961  0.4948124  0.5063494  )
        36           O   tau(  36) = (  0.0114961  0.4948124  0.2968442  )
        37           O   tau(  37) = (  0.0051979  0.2673486  0.4015968  )
        38           O   tau(  38) = (  0.0130029  0.2478461  0.5980003  )
        39           O   tau(  39) = (  0.0048226  0.0077944  0.3071422  )
        40           O   tau(  40) = (  0.0048226  0.0077944  0.4960513  )
        41           Sr  tau(  41) = (  0.2545482  0.2517602  0.3044833  )
        42           Sr  tau(  42) = (  0.2545482  0.2517602  0.4987103  )
        43           Co  tau(  43) = (  0.4989925  0.0073160  0.5980003  )
        44           Co  tau(  44) = (  0.4998370  0.0064714  0.4015968  )
        45           O   tau(  45) = (  0.5048017  0.0015068  0.3099459  )
        46           O   tau(  46) = (  0.5048017  0.0015068  0.4932477  )
        47           O   tau(  47) = (  0.2621260  0.0059111  0.5980003  )
        48           O   tau(  48) = (  0.2591051  0.0041689  0.4015968  )
        49           O   tau(  49) = (  0.1421646  0.8529874  0.8534850  )
        50           H   tau(  50) = (  0.1421646  0.8529874  0.9026774  )

     number of k points=    10  Gaussian smearing, width (Ry)=  0.0700
                       cart. coord. in units 2pi/alat
        k(    1) = (   0.0000000   0.0000000   0.0000000), wk =   0.1250000
        k(    2) = (   0.0000000   0.2500000   0.0000000), wk =   0.2500000
        k(    3) = (   0.0000000  -0.5000000   0.0000000), wk =   0.1250000
        k(    4) = (   0.2500000   0.2500000   0.0000000), wk =   0.2500000
        k(    5) = (   0.2500000  -0.5000000   0.0000000), wk =   0.2500000
        k(    6) = (  -0.5000000  -0.5000000   0.0000000), wk =   0.1250000
        k(    7) = (   0.2500000   0.0000000   0.0000000), wk =   0.2500000
        k(    8) = (  -0.5000000   0.0000000   0.0000000), wk =   0.1250000
        k(    9) = (  -0.2500000   0.2500000   0.0000000), wk =   0.2500000
        k(   10) = (  -0.5000000   0.2500000   0.0000000), wk =   0.2500000

                       cryst. coord.
        k(    1) = (   0.0000000   0.0000000   0.0000000), wk =   0.1250000
        k(    2) = (   0.0000000   0.2500000   0.0000000), wk =   0.2500000
        k(    3) = (   0.0000000  -0.5000000   0.0000000), wk =   0.1250000
        k(    4) = (   0.2500000   0.2500000   0.0000000), wk =   0.2500000
        k(    5) = (   0.2500000  -0.5000000   0.0000000), wk =   0.2500000
        k(    6) = (  -0.5000000  -0.5000000   0.0000000), wk =   0.1250000
        k(    7) = (   0.2500000   0.0000000   0.0000000), wk =   0.2500000
        k(    8) = (  -0.5000000   0.0000000   0.0000000), wk =   0.1250000
        k(    9) = (  -0.2500000   0.2500000   0.0000000), wk =   0.2500000
        k(   10) = (  -0.5000000   0.2500000   0.0000000), wk =   0.2500000

     Dense  grid:  1474595 G-vectors     FFT dimensions: ( 108, 108, 270)

     Smooth grid:   521381 G-vectors     FFT dimensions: (  75,  75, 192)

     Dynamical RAM for                 wfc:      10.73 MB

     Dynamical RAM for     wfc (w. buffer):      64.38 MB

     Dynamical RAM for           str. fact:       3.75 MB

     Dynamical RAM for           local pot:       0.00 MB

     Dynamical RAM for          nlocal pot:      24.61 MB

     Dynamical RAM for                qrad:       7.03 MB

     Dynamical RAM for          rho,v,vnew:       6.02 MB

     Dynamical RAM for               rhoin:       2.01 MB

     Dynamical RAM for            rho*nmix:      15.00 MB

     Dynamical RAM for           G-vectors:       3.68 MB

     Dynamical RAM for          h,s,v(r/c):       1.35 MB

     Dynamical RAM for          <psi|beta>:       2.35 MB

     Dynamical RAM for                 psi:      21.46 MB

     Dynamical RAM for                hpsi:      21.46 MB

     Dynamical RAM for                spsi:      21.46 MB

     Dynamical RAM for      wfcinit/wfcrot:      34.49 MB

     Dynamical RAM for           addusdens:     101.26 MB

     Estimated static dynamical RAM per process >     121.50 MB

     Estimated max dynamical RAM per process >     237.76 MB

     Estimated total dynamical RAM >      10.79 GB

     Check: negative core charge=   -0.000004

     Initial potential from superposition of free atoms

     starting charge     422.5961, renormalised to     431.0000

     negative rho (up, down):  7.819E-01 0.000E+00
     Starting wfcs are  377 randomized atomic wfcs
     Checking if some PAW data can be deallocated... 
       PAW data deallocated on   19 nodes for type:  2

     total cpu time spent up to now is        9.3 secs

     Self-consistent Calculation

     iteration #  1     ecut=    60.00 Ry     beta= 0.15
     Davidson diagonalization with overlap

---- Real-time Memory Report at c_bands before calling an iterative solver
             0 MiB given to the printing process from OS
             0 MiB allocation reported by mallinfo(arena+hblkhd)
         24002 MiB available memory on the node where the printing process lives
------------------
     ethr =  1.00E-02,  avg # of iterations =  2.0

     negative rho (up, down):  7.717E-01 0.000E+00

     total cpu time spent up to now is       25.7 secs

     total energy              =   -4446.64420806 Ry
     estimated scf accuracy    <      44.65232405 Ry

     iteration #  2     ecut=    60.00 Ry     beta= 0.15
     Davidson diagonalization with overlap

---- Real-time Memory Report at c_bands before calling an iterative solver
             0 MiB given to the printing process from OS
             0 MiB allocation reported by mallinfo(arena+hblkhd)
         24252 MiB available memory on the node where the printing process lives
------------------
     ethr =  1.00E-02,  avg # of iterations =  1.0

     negative rho (up, down):  7.583E-01 0.000E+00

     total cpu time spent up to now is       39.7 secs

     total energy              =   -4443.31193551 Ry
     estimated scf accuracy    <      29.78639357 Ry

     iteration #  3     ecut=    60.00 Ry     beta= 0.15
     Davidson diagonalization with overlap

---- Real-time Memory Report at c_bands before calling an iterative solver
             0 MiB given to the printing process from OS
             0 MiB allocation reported by mallinfo(arena+hblkhd)
         23423 MiB available memory on the node where the printing process lives
------------------
     ethr =  6.91E-03,  avg # of iterations =  1.0

     negative rho (up, down):  7.555E-01 0.000E+00

     total cpu time spent up to now is       53.8 secs

     total energy              =   -4444.26622842 Ry
     estimated scf accuracy    <      28.20798557 Ry

     iteration #  4     ecut=    60.00 Ry     beta= 0.15
     Davidson diagonalization with overlap

---- Real-time Memory Report at c_bands before calling an iterative solver
             0 MiB given to the printing process from OS
             0 MiB allocation reported by mallinfo(arena+hblkhd)
         23400 MiB available memory on the node where the printing process lives
------------------
     ethr =  6.54E-03,  avg # of iterations =  1.0

     negative rho (up, down):  7.500E-01 0.000E+00

     total cpu time spent up to now is       68.0 secs

     total energy              =   -4443.08803511 Ry
     estimated scf accuracy    <      20.48621286 Ry

     iteration #  5     ecut=    60.00 Ry     beta= 0.15
     Davidson diagonalization with overlap

---- Real-time Memory Report at c_bands before calling an iterative solver
             0 MiB given to the printing process from OS
             0 MiB allocation reported by mallinfo(arena+hblkhd)
         23381 MiB available memory on the node where the printing process lives
------------------
     ethr =  4.75E-03,  avg # of iterations =  1.0

     negative rho (up, down):  7.403E-01 0.000E+00

     total cpu time spent up to now is       82.3 secs

     total energy              =   -4442.52881364 Ry
     estimated scf accuracy    <      11.39629918 Ry

     iteration #  6     ecut=    60.00 Ry     beta= 0.15
     Davidson diagonalization with overlap

---- Real-time Memory Report at c_bands before calling an iterative solver
             0 MiB given to the printing process from OS
             0 MiB allocation reported by mallinfo(arena+hblkhd)
         23363 MiB available memory on the node where the printing process lives
------------------
     ethr =  2.64E-03,  avg # of iterations =  1.1

     negative rho (up, down):  7.426E-01 0.000E+00

     total cpu time spent up to now is       97.2 secs

     total energy              =   -4442.82738225 Ry
     estimated scf accuracy    <       5.01213309 Ry

     iteration #  7     ecut=    60.00 Ry     beta= 0.15
     Davidson diagonalization with overlap

---- Real-time Memory Report at c_bands before calling an iterative solver
             0 MiB given to the printing process from OS
             0 MiB allocation reported by mallinfo(arena+hblkhd)
         23338 MiB available memory on the node where the printing process lives
------------------
     ethr =  1.16E-03,  avg # of iterations =  1.7

     negative rho (up, down):  7.650E-01 0.000E+00

     total cpu time spent up to now is      112.4 secs

     total energy              =   -4441.67022536 Ry
     estimated scf accuracy    <       3.98805969 Ry

     iteration #  8     ecut=    60.00 Ry     beta= 0.15
     Davidson diagonalization with overlap

---- Real-time Memory Report at c_bands before calling an iterative solver
             0 MiB given to the printing process from OS
             0 MiB allocation reported by mallinfo(arena+hblkhd)
         23326 MiB available memory on the node where the printing process lives
------------------
     ethr =  9.25E-04,  avg # of iterations =  3.9

     negative rho (up, down):  7.731E-01 0.000E+00

     total cpu time spent up to now is      131.8 secs

     total energy              =   -4441.45498842 Ry
     estimated scf accuracy    <      17.71926362 Ry

     iteration #  9     ecut=    60.00 Ry     beta= 0.15
     Davidson diagonalization with overlap

---- Real-time Memory Report at c_bands before calling an iterative solver
             0 MiB given to the printing process from OS
             0 MiB allocation reported by mallinfo(arena+hblkhd)
         23194 MiB available memory on the node where the printing process lives
------------------
     ethr =  9.25E-04,  avg # of iterations = 10.1

     negative rho (up, down):  7.706E-01 0.000E+00

     total cpu time spent up to now is      154.1 secs

     total energy              =   -4441.73886175 Ry
     estimated scf accuracy    <       3.22679782 Ry

     iteration # 10     ecut=    60.00 Ry     beta= 0.15
     Davidson diagonalization with overlap

---- Real-time Memory Report at c_bands before calling an iterative solver
             0 MiB given to the printing process from OS
             0 MiB allocation reported by mallinfo(arena+hblkhd)
         22835 MiB available memory on the node where the printing process lives
------------------
     ethr =  7.49E-04,  avg # of iterations =  1.1

     negative rho (up, down):  7.755E-01 0.000E+00

     total cpu time spent up to now is      169.4 secs

     total energy              =   -4441.90770498 Ry
     estimated scf accuracy    <       1.36374260 Ry

     iteration # 11     ecut=    60.00 Ry     beta= 0.15
     Davidson diagonalization with overlap

---- Real-time Memory Report at c_bands before calling an iterative solver
             0 MiB given to the printing process from OS
             0 MiB allocation reported by mallinfo(arena+hblkhd)
         22816 MiB available memory on the node where the printing process lives
------------------
     ethr =  3.16E-04,  avg # of iterations =  2.1

     negative rho (up, down):  8.073E-01 0.000E+00

     total cpu time spent up to now is      185.9 secs

     total energy              =   -4441.73068617 Ry
     estimated scf accuracy    <       1.11930586 Ry

     iteration # 12     ecut=    60.00 Ry     beta= 0.15
     Davidson diagonalization with overlap

---- Real-time Memory Report at c_bands before calling an iterative solver
             0 MiB given to the printing process from OS
             0 MiB allocation reported by mallinfo(arena+hblkhd)
         22837 MiB available memory on the node where the printing process lives
------------------
     ethr =  2.60E-04,  avg # of iterations =  5.4

     negative rho (up, down):  8.193E-01 0.000E+00

     total cpu time spent up to now is      204.3 secs

     total energy              =   -4441.86437749 Ry
     estimated scf accuracy    <       1.49655616 Ry

     iteration # 13     ecut=    60.00 Ry     beta= 0.15
     Davidson diagonalization with overlap

---- Real-time Memory Report at c_bands before calling an iterative solver
             0 MiB given to the printing process from OS
             0 MiB allocation reported by mallinfo(arena+hblkhd)
         22829 MiB available memory on the node where the printing process lives
------------------
     ethr =  2.60E-04,  avg # of iterations =  7.6

     negative rho (up, down):  8.196E-01 0.000E+00

     total cpu time spent up to now is      224.5 secs

     total energy              =   -4441.80195930 Ry
     estimated scf accuracy    <       1.01262161 Ry

     iteration # 14     ecut=    60.00 Ry     beta= 0.15
     Davidson diagonalization with overlap

---- Real-time Memory Report at c_bands before calling an iterative solver
             0 MiB given to the printing process from OS
             0 MiB allocation reported by mallinfo(arena+hblkhd)
         22787 MiB available memory on the node where the printing process lives
------------------
     ethr =  2.35E-04,  avg # of iterations =  2.9

     negative rho (up, down):  8.179E-01 0.000E+00

     total cpu time spent up to now is      241.6 secs

     total energy              =   -4441.75695155 Ry
     estimated scf accuracy    <       0.41959044 Ry

     iteration # 15     ecut=    60.00 Ry     beta= 0.15
     Davidson diagonalization with overlap

---- Real-time Memory Report at c_bands before calling an iterative solver
             0 MiB given to the printing process from OS
             0 MiB allocation reported by mallinfo(arena+hblkhd)
         22787 MiB available memory on the node where the printing process lives
------------------
     c_bands:  1 eigenvalues not converged
     ethr =  9.74E-05,  avg # of iterations = 12.9

     negative rho (up, down):  8.269E-01 0.000E+00

     total cpu time spent up to now is      263.8 secs

     total energy              =   -4441.72496761 Ry
     estimated scf accuracy    <       0.28089523 Ry

     iteration # 16     ecut=    60.00 Ry     beta= 0.15
     Davidson diagonalization with overlap

---- Real-time Memory Report at c_bands before calling an iterative solver
             0 MiB given to the printing process from OS
             0 MiB allocation reported by mallinfo(arena+hblkhd)
         22800 MiB available memory on the node where the printing process lives
------------------
     ethr =  6.52E-05,  avg # of iterations =  9.4

     negative rho (up, down):  8.298E-01 0.000E+00

     total cpu time spent up to now is      284.5 secs

     total energy              =   -4441.72476748 Ry
     estimated scf accuracy    <       0.27381341 Ry

     iteration # 17     ecut=    60.00 Ry     beta= 0.15
     Davidson diagonalization with overlap

---- Real-time Memory Report at c_bands before calling an iterative solver
             0 MiB given to the printing process from OS
             0 MiB allocation reported by mallinfo(arena+hblkhd)
         22758 MiB available memory on the node where the printing process lives
------------------
     ethr =  6.35E-05,  avg # of iterations =  3.1

     negative rho (up, down):  8.232E-01 0.000E+00

     total cpu time spent up to now is      301.1 secs

     total energy              =   -4441.70648888 Ry
     estimated scf accuracy    <       0.21850446 Ry

     iteration # 18     ecut=    60.00 Ry     beta= 0.15
     Davidson diagonalization with overlap

---- Real-time Memory Report at c_bands before calling an iterative solver
             0 MiB given to the printing process from OS
             0 MiB allocation reported by mallinfo(arena+hblkhd)
         22768 MiB available memory on the node where the printing process lives
------------------
     ethr =  5.07E-05,  avg # of iterations =  6.0

     negative rho (up, down):  8.177E-01 0.000E+00

     total cpu time spent up to now is      320.1 secs

     total energy              =   -4441.68019004 Ry
     estimated scf accuracy    <       0.14478733 Ry

     iteration # 19     ecut=    60.00 Ry     beta= 0.15
     Davidson diagonalization with overlap

---- Real-time Memory Report at c_bands before calling an iterative solver
             0 MiB given to the printing process from OS
             0 MiB allocation reported by mallinfo(arena+hblkhd)
         22762 MiB available memory on the node where the printing process lives
------------------
     ethr =  3.36E-05,  avg # of iterations = 10.8

     negative rho (up, down):  8.308E-01 0.000E+00

     total cpu time spent up to now is      342.3 secs

     total energy              =   -4441.67058253 Ry
     estimated scf accuracy    <       0.09768366 Ry

     iteration # 20     ecut=    60.00 Ry     beta= 0.15
     Davidson diagonalization with overlap

---- Real-time Memory Report at c_bands before calling an iterative solver
             0 MiB given to the printing process from OS
             0 MiB allocation reported by mallinfo(arena+hblkhd)
         22707 MiB available memory on the node where the printing process lives
------------------
     ethr =  2.27E-05,  avg # of iterations =  5.9

     negative rho (up, down):  8.203E-01 0.000E+00

     total cpu time spent up to now is      361.3 secs

     total energy              =   -4441.66838981 Ry
     estimated scf accuracy    <       0.05068823 Ry

     iteration # 21     ecut=    60.00 Ry     beta= 0.15
     Davidson diagonalization with overlap

---- Real-time Memory Report at c_bands before calling an iterative solver
             0 MiB given to the printing process from OS
             0 MiB allocation reported by mallinfo(arena+hblkhd)
         22721 MiB available memory on the node where the printing process lives
------------------
     ethr =  1.18E-05,  avg # of iterations = 11.7

     negative rho (up, down):  8.126E-01 0.000E+00

     total cpu time spent up to now is      383.4 secs

     total energy              =   -4441.66656029 Ry
     estimated scf accuracy    <       0.03276940 Ry

     iteration # 22     ecut=    60.00 Ry     beta= 0.15
     Davidson diagonalization with overlap

---- Real-time Memory Report at c_bands before calling an iterative solver
             0 MiB given to the printing process from OS
             0 MiB allocation reported by mallinfo(arena+hblkhd)
         22697 MiB available memory on the node where the printing process lives
------------------
     ethr =  7.60E-06,  avg # of iterations =  6.9

     negative rho (up, down):  8.030E-01 0.000E+00

     total cpu time spent up to now is      402.7 secs

     total energy              =   -4441.66482858 Ry
     estimated scf accuracy    <       0.02045975 Ry

     iteration # 23     ecut=    60.00 Ry     beta= 0.15
     Davidson diagonalization with overlap

---- Real-time Memory Report at c_bands before calling an iterative solver
             0 MiB given to the printing process from OS
             0 MiB allocation reported by mallinfo(arena+hblkhd)
         22693 MiB available memory on the node where the printing process lives
------------------
     ethr =  4.75E-06,  avg # of iterations =  8.3

     negative rho (up, down):  7.953E-01 0.000E+00

     total cpu time spent up to now is      422.2 secs

     total energy              =   -4441.66183974 Ry
     estimated scf accuracy    <       0.01433301 Ry

     iteration # 24     ecut=    60.00 Ry     beta= 0.15
     Davidson diagonalization with overlap

---- Real-time Memory Report at c_bands before calling an iterative solver
             0 MiB given to the printing process from OS
             0 MiB allocation reported by mallinfo(arena+hblkhd)
         22689 MiB available memory on the node where the printing process lives
------------------
     ethr =  3.33E-06,  avg # of iterations = 13.0

     negative rho (up, down):  8.017E-01 0.000E+00

     total cpu time spent up to now is      446.6 secs

     total energy              =   -4441.66155574 Ry
     estimated scf accuracy    <       0.00681439 Ry

     iteration # 25     ecut=    60.00 Ry     beta= 0.15
     Davidson diagonalization with overlap

---- Real-time Memory Report at c_bands before calling an iterative solver
             0 MiB given to the printing process from OS
             0 MiB allocation reported by mallinfo(arena+hblkhd)
         22659 MiB available memory on the node where the printing process lives
------------------
     c_bands:  1 eigenvalues not converged
     ethr =  1.58E-06,  avg # of iterations =  9.2

     negative rho (up, down):  8.003E-01 0.000E+00

     total cpu time spent up to now is      467.9 secs

     total energy              =   -4441.66175779 Ry
     estimated scf accuracy    <       0.00191108 Ry

     iteration # 26     ecut=    60.00 Ry     beta= 0.15
     Davidson diagonalization with overlap

---- Real-time Memory Report at c_bands before calling an iterative solver
             0 MiB given to the printing process from OS
             0 MiB allocation reported by mallinfo(arena+hblkhd)
         22602 MiB available memory on the node where the printing process lives
------------------
     ethr =  4.43E-07,  avg # of iterations =  6.7

     negative rho (up, down):  7.986E-01 0.000E+00

     total cpu time spent up to now is      488.0 secs

     total energy              =   -4441.66174366 Ry
     estimated scf accuracy    <       0.00126295 Ry

     iteration # 27     ecut=    60.00 Ry     beta= 0.15
     Davidson diagonalization with overlap

---- Real-time Memory Report at c_bands before calling an iterative solver
             0 MiB given to the printing process from OS
             0 MiB allocation reported by mallinfo(arena+hblkhd)
         22622 MiB available memory on the node where the printing process lives
------------------
     ethr =  2.93E-07,  avg # of iterations = 10.6

     negative rho (up, down):  7.964E-01 0.000E+00

     total cpu time spent up to now is      509.4 secs

     total energy              =   -4441.66170918 Ry
     estimated scf accuracy    <       0.00067208 Ry

     iteration # 28     ecut=    60.00 Ry     beta= 0.15
     Davidson diagonalization with overlap

---- Real-time Memory Report at c_bands before calling an iterative solver
             0 MiB given to the printing process from OS
             0 MiB allocation reported by mallinfo(arena+hblkhd)
         22727 MiB available memory on the node where the printing process lives
------------------
     ethr =  1.56E-07,  avg # of iterations =  8.5

     negative rho (up, down):  7.954E-01 0.000E+00

     total cpu time spent up to now is      533.1 secs

     total energy              =   -4441.66176117 Ry
     estimated scf accuracy    <       0.00021778 Ry

     iteration # 29     ecut=    60.00 Ry     beta= 0.15
     Davidson diagonalization with overlap

---- Real-time Memory Report at c_bands before calling an iterative solver
             0 MiB given to the printing process from OS
             0 MiB allocation reported by mallinfo(arena+hblkhd)
         22690 MiB available memory on the node where the printing process lives
------------------
     ethr =  5.05E-08,  avg # of iterations =  2.1

     negative rho (up, down):  7.941E-01 0.000E+00

     total cpu time spent up to now is      550.2 secs

     total energy              =   -4441.66173558 Ry
     estimated scf accuracy    <       0.00013306 Ry

     iteration # 30     ecut=    60.00 Ry     beta= 0.15
     Davidson diagonalization with overlap

---- Real-time Memory Report at c_bands before calling an iterative solver
             0 MiB given to the printing process from OS
             0 MiB allocation reported by mallinfo(arena+hblkhd)
         22676 MiB available memory on the node where the printing process lives
------------------
     ethr =  3.09E-08,  avg # of iterations =  2.3

     negative rho (up, down):  7.926E-01 0.000E+00

     total cpu time spent up to now is      567.5 secs

     total energy              =   -4441.66172364 Ry
     estimated scf accuracy    <       0.00007247 Ry

     iteration # 31     ecut=    60.00 Ry     beta= 0.15
     Davidson diagonalization with overlap

---- Real-time Memory Report at c_bands before calling an iterative solver
             0 MiB given to the printing process from OS
             0 MiB allocation reported by mallinfo(arena+hblkhd)
         22670 MiB available memory on the node where the printing process lives
------------------
     ethr =  1.68E-08,  avg # of iterations =  4.3

     negative rho (up, down):  7.924E-01 0.000E+00

     total cpu time spent up to now is      585.9 secs

     total energy              =   -4441.66172469 Ry
     estimated scf accuracy    <       0.00001922 Ry

     iteration # 32     ecut=    60.00 Ry     beta= 0.15
     Davidson diagonalization with overlap

---- Real-time Memory Report at c_bands before calling an iterative solver
             0 MiB given to the printing process from OS
             0 MiB allocation reported by mallinfo(arena+hblkhd)
         22663 MiB available memory on the node where the printing process lives
------------------
     ethr =  4.46E-09,  avg # of iterations =  3.2

     negative rho (up, down):  7.922E-01 0.000E+00

     total cpu time spent up to now is      604.4 secs

     total energy              =   -4441.66172523 Ry
     estimated scf accuracy    <       0.00000988 Ry

     iteration # 33     ecut=    60.00 Ry     beta= 0.15
     Davidson diagonalization with overlap

---- Real-time Memory Report at c_bands before calling an iterative solver
             0 MiB given to the printing process from OS
             0 MiB allocation reported by mallinfo(arena+hblkhd)
         22650 MiB available memory on the node where the printing process lives
------------------
     ethr =  2.29E-09,  avg # of iterations =  3.2

     negative rho (up, down):  7.921E-01 0.000E+00

     total cpu time spent up to now is      622.3 secs

     total energy              =   -4441.66172792 Ry
     estimated scf accuracy    <       0.00000640 Ry

     iteration # 34     ecut=    60.00 Ry     beta= 0.15
     Davidson diagonalization with overlap

---- Real-time Memory Report at c_bands before calling an iterative solver
             0 MiB given to the printing process from OS
             0 MiB allocation reported by mallinfo(arena+hblkhd)
         22681 MiB available memory on the node where the printing process lives
------------------
     ethr =  1.48E-09,  avg # of iterations =  2.2

     negative rho (up, down):  7.921E-01 0.000E+00

     total cpu time spent up to now is      639.4 secs

     total energy              =   -4441.66172941 Ry
     estimated scf accuracy    <       0.00000482 Ry

     iteration # 35     ecut=    60.00 Ry     beta= 0.15
     Davidson diagonalization with overlap

---- Real-time Memory Report at c_bands before calling an iterative solver
             0 MiB given to the printing process from OS
             0 MiB allocation reported by mallinfo(arena+hblkhd)
         22686 MiB available memory on the node where the printing process lives
------------------
     ethr =  1.12E-09,  avg # of iterations =  2.1

     negative rho (up, down):  7.923E-01 0.000E+00

     total cpu time spent up to now is      656.4 secs

     total energy              =   -4441.66173412 Ry
     estimated scf accuracy    <       0.00000355 Ry

     iteration # 36     ecut=    60.00 Ry     beta= 0.15
     Davidson diagonalization with overlap

---- Real-time Memory Report at c_bands before calling an iterative solver
             0 MiB given to the printing process from OS
             0 MiB allocation reported by mallinfo(arena+hblkhd)
         22715 MiB available memory on the node where the printing process lives
------------------
     ethr =  8.23E-10,  avg # of iterations =  3.9

     negative rho (up, down):  7.924E-01 0.000E+00

     total cpu time spent up to now is      674.4 secs

     total energy              =   -4441.66173478 Ry
     estimated scf accuracy    <       0.00000149 Ry

     iteration # 37     ecut=    60.00 Ry     beta= 0.15
     Davidson diagonalization with overlap

---- Real-time Memory Report at c_bands before calling an iterative solver
             0 MiB given to the printing process from OS
             0 MiB allocation reported by mallinfo(arena+hblkhd)
         22711 MiB available memory on the node where the printing process lives
------------------
     ethr =  3.45E-10,  avg # of iterations =  3.9

     negative rho (up, down):  7.925E-01 0.000E+00

     total cpu time spent up to now is      692.6 secs

     total energy              =   -4441.66173470 Ry
     estimated scf accuracy    <       0.00000084 Ry

     iteration # 38     ecut=    60.00 Ry     beta= 0.15
     Davidson diagonalization with overlap

---- Real-time Memory Report at c_bands before calling an iterative solver
             0 MiB given to the printing process from OS
             0 MiB allocation reported by mallinfo(arena+hblkhd)
         22720 MiB available memory on the node where the printing process lives
------------------
     ethr =  1.95E-10,  avg # of iterations =  2.8

     negative rho (up, down):  7.925E-01 0.000E+00

     total cpu time spent up to now is      709.8 secs

     total energy              =   -4441.66173454 Ry
     estimated scf accuracy    <       0.00000050 Ry

     iteration # 39     ecut=    60.00 Ry     beta= 0.15
     Davidson diagonalization with overlap

---- Real-time Memory Report at c_bands before calling an iterative solver
             0 MiB given to the printing process from OS
             0 MiB allocation reported by mallinfo(arena+hblkhd)
         22730 MiB available memory on the node where the printing process lives
------------------
     ethr =  1.16E-10,  avg # of iterations =  2.7

     negative rho (up, down):  7.925E-01 0.000E+00

     total cpu time spent up to now is      727.5 secs

     total energy              =   -4441.66173454 Ry
     estimated scf accuracy    <       0.00000033 Ry

     iteration # 40     ecut=    60.00 Ry     beta= 0.15
     Davidson diagonalization with overlap

---- Real-time Memory Report at c_bands before calling an iterative solver
             0 MiB given to the printing process from OS
             0 MiB allocation reported by mallinfo(arena+hblkhd)
         22722 MiB available memory on the node where the printing process lives
------------------
     ethr =  7.67E-11,  avg # of iterations =  1.1

     negative rho (up, down):  7.925E-01 0.000E+00

     total cpu time spent up to now is      742.9 secs

     total energy              =   -4441.66173465 Ry
     estimated scf accuracy    <       0.00000026 Ry

     iteration # 41     ecut=    60.00 Ry     beta= 0.15
     Davidson diagonalization with overlap

---- Real-time Memory Report at c_bands before calling an iterative solver
             0 MiB given to the printing process from OS
             0 MiB allocation reported by mallinfo(arena+hblkhd)
         22724 MiB available memory on the node where the printing process lives
------------------
     ethr =  6.07E-11,  avg # of iterations =  2.0

     negative rho (up, down):  7.925E-01 0.000E+00

     total cpu time spent up to now is      759.8 secs

     total energy              =   -4441.66173480 Ry
     estimated scf accuracy    <       0.00000024 Ry

     iteration # 42     ecut=    60.00 Ry     beta= 0.15
     Davidson diagonalization with overlap

---- Real-time Memory Report at c_bands before calling an iterative solver
             0 MiB given to the printing process from OS
             0 MiB allocation reported by mallinfo(arena+hblkhd)
         22726 MiB available memory on the node where the printing process lives
------------------
     ethr =  5.67E-11,  avg # of iterations =  3.3

     negative rho (up, down):  7.925E-01 0.000E+00

     total cpu time spent up to now is      777.5 secs

     total energy              =   -4441.66173481 Ry
     estimated scf accuracy    <       0.00000009 Ry

     iteration # 43     ecut=    60.00 Ry     beta= 0.15
     Davidson diagonalization with overlap

---- Real-time Memory Report at c_bands before calling an iterative solver
             0 MiB given to the printing process from OS
             0 MiB allocation reported by mallinfo(arena+hblkhd)
         22728 MiB available memory on the node where the printing process lives
------------------
     ethr =  1.98E-11,  avg # of iterations =  2.0

     negative rho (up, down):  7.925E-01 0.000E+00

     total cpu time spent up to now is      794.4 secs

     total energy              =   -4441.66173483 Ry
     estimated scf accuracy    <       0.00000005 Ry

     iteration # 44     ecut=    60.00 Ry     beta= 0.15
     Davidson diagonalization with overlap

---- Real-time Memory Report at c_bands before calling an iterative solver
             0 MiB given to the printing process from OS
             0 MiB allocation reported by mallinfo(arena+hblkhd)
         22729 MiB available memory on the node where the printing process lives
------------------
     ethr =  1.22E-11,  avg # of iterations =  2.6

     negative rho (up, down):  7.925E-01 0.000E+00

     total cpu time spent up to now is      811.9 secs

     total energy              =   -4441.66173483 Ry
     estimated scf accuracy    <       0.00000002 Ry

     iteration # 45     ecut=    60.00 Ry     beta= 0.15
     Davidson diagonalization with overlap

---- Real-time Memory Report at c_bands before calling an iterative solver
             0 MiB given to the printing process from OS
             0 MiB allocation reported by mallinfo(arena+hblkhd)
         22753 MiB available memory on the node where the printing process lives
------------------
     ethr =  5.17E-12,  avg # of iterations =  2.1

     negative rho (up, down):  7.925E-01 0.000E+00

     total cpu time spent up to now is      828.9 secs

     total energy              =   -4441.66173483 Ry
     estimated scf accuracy    <       0.00000001 Ry

     iteration # 46     ecut=    60.00 Ry     beta= 0.15
     Davidson diagonalization with overlap

---- Real-time Memory Report at c_bands before calling an iterative solver
             0 MiB given to the printing process from OS
             0 MiB allocation reported by mallinfo(arena+hblkhd)
         22765 MiB available memory on the node where the printing process lives
------------------
     ethr =  3.30E-12,  avg # of iterations =  2.2

     negative rho (up, down):  7.925E-01 0.000E+00

     total cpu time spent up to now is      846.3 secs

     End of self-consistent calculation

          k = 0.0000 0.0000 0.0000 ( 65197 PWs)   bands (ev):

   -92.6923 -92.6417 -92.5463 -92.4996 -92.4418 -92.3986 -92.3817 -92.2619
   -56.0457 -56.0285 -55.9036 -55.8930 -55.8869 -55.8798 -55.8463 -55.8155
   -55.8005 -55.7980 -55.7912 -55.7492 -55.7299 -55.6931 -55.6728 -55.6415
   -55.6353 -55.5872 -55.5861 -55.5839 -55.5755 -55.5371 -55.5120 -55.4285
   -31.2697 -31.2501 -31.1089 -31.0619 -31.0370 -31.0218 -30.7566 -30.6171
   -29.8387 -29.7951 -29.7712 -29.6614 -15.0726 -15.0249 -14.9475 -14.8174
   -14.6226 -14.4990 -14.2090 -14.1896 -14.1595 -14.1149 -14.0705 -14.0598
   -14.0459 -14.0282 -13.9983 -13.9755 -13.9645 -13.9199 -13.7695 -13.5907
   -13.5574 -13.5270 -13.4948 -13.4783 -13.4250 -13.3916 -13.3143 -13.2423
   -13.1216 -13.1015 -13.0951 -13.0707 -13.0662 -13.0490 -13.0012 -12.9935
   -12.9649 -12.9468 -12.9147 -12.9056 -12.8897 -12.8821 -12.8694 -12.7625
   -12.7320 -12.7182 -12.5638 -12.5366 -12.5157 -12.3343 -12.1886 -11.9940
   -11.9179 -11.8519 -11.7778 -11.7674 -11.7439 -11.7267 -11.6628 -11.6460
   -11.6105 -11.5823 -11.4703 -11.3907 -11.3870  -2.9322  -2.7002  -2.4706
    -2.3233  -2.2607  -2.1189  -1.8115  -1.7973  -1.7780  -1.6929  -1.6735
    -1.6058  -1.5892  -1.5488  -1.5033  -1.3231  -1.1702  -1.0945  -1.0671
    -0.9222  -0.9074  -0.8589  -0.8425  -0.7965  -0.7782  -0.7243  -0.6982
    -0.6246  -0.6109  -0.5380  -0.4065  -0.3934  -0.3642  -0.2828  -0.2645
    -0.2473  -0.1899  -0.1177  -0.0733  -0.0195   0.0069   0.0752   0.1530
     0.1899   0.2167   0.2298   0.4816   0.4986   0.6715   0.7345   0.8011
     0.8574   0.9367   0.9516   0.9713   1.0328   1.0591   1.0955   1.1512
     1.2828   1.3423   1.3650   1.3865   1.3956   1.4610   1.5300   1.6375
     1.6522   1.7170   1.7242   1.7674   1.7896   1.7963   1.8529   1.9085
     1.9230   1.9636   2.0076   2.0384   2.1689   2.2518   2.2942   2.3246
     2.4606   2.4651   2.4724   2.4860   2.5211   2.5258   2.6395   2.6672
     2.6952   2.7138   2.7289   2.8097   2.9164   2.9487   2.9599   2.9664
     3.0341   3.0383   3.0623   3.0699   3.0794   3.0935   3.0979   3.1122
     3.1177   3.1302   3.1389   3.1471   3.1658   3.1864   3.1917   3.2036
     3.2286   3.3443   3.4265   4.1177   4.4386   4.7756   4.8697   5.0550
     5.7630   5.9450   5.9924   6.0238   6.3227   6.3699   6.4838   6.4942
     6.7286   7.0121   7.1015   7.3231   7.4239   7.6350   7.6727   7.6809
     7.7116   7.8747   7.9525   8.0249   8.1174   8.1782   8.3895   8.5354
     8.7208   8.7911   8.8673

     occupation numbers 
     1.0000   1.0000   1.0000   1.0000   1.0000   1.0000   1.0000   1.0000
     1.0000   1.0000   1.0000   1.0000   1.0000   1.0000   1.0000   1.0000
     1.0000   1.0000   1.0000   1.0000   1.0000   1.0000   1.0000   1.0000
     1.0000   1.0000   1.0000   1.0000   1.0000   1.0000   1.0000   1.0000
     1.0000   1.0000   1.0000   1.0000   1.0000   1.0000   1.0000   1.0000
     1.0000   1.0000   1.0000   1.0000   1.0000   1.0000   1.0000   1.0000
     1.0000   1.0000   1.0000   1.0000   1.0000   1.0000   1.0000   1.0000
     1.0000   1.0000   1.0000   1.0000   1.0000   1.0000   1.0000   1.0000
     1.0000   1.0000   1.0000   1.0000   1.0000   1.0000   1.0000   1.0000
     1.0000   1.0000   1.0000   1.0000   1.0000   1.0000   1.0000   1.0000
     1.0000   1.0000   1.0000   1.0000   1.0000   1.0000   1.0000   1.0000
     1.0000   1.0000   1.0000   1.0000   1.0000   1.0000   1.0000   1.0000
     1.0000   1.0000   1.0000   1.0000   1.0000   1.0000   1.0000   1.0000
     1.0000   1.0000   1.0000   1.0000   1.0000   1.0000   1.0000   1.0000
     1.0000   1.0000   1.0000   1.0000   1.0000   1.0000   1.0000   1.0000
     1.0000   1.0000   1.0000   1.0000   1.0000   1.0000   1.0000   1.0000
     1.0000   1.0000   1.0000   1.0000   1.0000   1.0000   1.0000   1.0000
     1.0000   1.0000   1.0000   1.0000   1.0000   1.0000   1.0000   1.0000
     1.0000   1.0000   1.0000   1.0000   1.0000   1.0000   1.0000   1.0000
     1.0000   1.0000   1.0000   1.0000   1.0000   1.0000   0.9999   0.9999
     0.9999   0.9998   0.9998   0.9998   0.9997   0.9996   0.9996   0.9994
     0.9988   0.9985   0.9983   0.9981   0.9980   0.9973   0.9963   0.9942
     0.9938   0.9919   0.9916   0.9901   0.9891   0.9889   0.9861   0.9829
     0.9820   0.9792   0.9757   0.9729   0.9584   0.9462   0.9390   0.9333
     0.9030   0.9019   0.9000   0.8964   0.8867   0.8853   0.8493   0.8394
     0.8291   0.8220   0.8161   0.7825   0.7331   0.7171   0.7114   0.7081
     0.6727   0.6704   0.6575   0.6533   0.6481   0.6402   0.6378   0.6298
     0.6267   0.6197   0.6147   0.6101   0.5994   0.5875   0.5844   0.5776
     0.5630   0.4947   0.4462   0.1227   0.0507   0.0162   0.0114   0.0053
     0.0002   0.0001   0.0000   0.0000   0.0000   0.0000   0.0000   0.0000
     0.0000   0.0000   0.0000   0.0000   0.0000   0.0000   0.0000   0.0000
     0.0000   0.0000   0.0000   0.0000   0.0000   0.0000   0.0000   0.0000
     0.0000   0.0000   0.0000

          k = 0.0000 0.2500 0.0000 ( 65257 PWs)   bands (ev):

   -92.6923 -92.6417 -92.5463 -92.4996 -92.4418 -92.3986 -92.3817 -92.2619
   -56.0457 -56.0285 -55.9036 -55.8930 -55.8869 -55.8798 -55.8463 -55.8155
   -55.8005 -55.7980 -55.7912 -55.7492 -55.7299 -55.6931 -55.6728 -55.6415
   -55.6353 -55.5872 -55.5861 -55.5839 -55.5755 -55.5371 -55.5120 -55.4285
   -31.2695 -31.2500 -31.1091 -31.0607 -31.0382 -31.0219 -30.7564 -30.6173
   -29.8381 -29.7948 -29.7718 -29.6617 -15.0362 -14.9988 -14.9224 -14.7880
   -14.6629 -14.4902 -14.3549 -14.1761 -14.1377 -14.1202 -14.0915 -14.0320
   -14.0259 -14.0107 -13.9887 -13.9657 -13.9418 -13.8388 -13.7988 -13.6392
   -13.6143 -13.5686 -13.5331 -13.4847 -13.4447 -13.4014 -13.3342 -13.2997
   -13.2321 -13.1542 -13.1386 -13.1007 -13.0854 -13.0484 -12.9854 -12.9637
   -12.9334 -12.9206 -12.8924 -12.8582 -12.8203 -12.7906 -12.7864 -12.7557
   -12.7281 -12.6957 -12.5316 -12.4693 -12.4113 -12.3956 -12.2398 -12.0512
   -11.9853 -11.8174 -11.7746 -11.7469 -11.7192 -11.7027 -11.6545 -11.6436
   -11.6212 -11.5859 -11.4849 -11.4324 -11.4217  -2.7968  -2.5759  -2.4379
    -2.2560  -2.2127  -2.0493  -1.8297  -1.7454  -1.7325  -1.6739  -1.5724
    -1.5555  -1.5216  -1.4952  -1.4515  -1.2552  -1.1686  -1.1245  -1.1111
    -1.0353  -1.0252  -0.9211  -0.8927  -0.8350  -0.8087  -0.7690  -0.7039
    -0.6764  -0.6453  -0.6132  -0.5961  -0.5629  -0.4915  -0.4393  -0.3689
    -0.2625  -0.2393  -0.1988  -0.0821  -0.0460   0.0226   0.0654   0.1370
     0.1572   0.1712   0.2292   0.5320   0.6186   0.6473   0.7412   0.7863
     0.8138   0.9226   0.9433   1.0346   1.0615   1.0865   1.2017   1.2960
     1.3169   1.3412   1.3613   1.3851   1.4447   1.4729   1.4990   1.5470
     1.5831   1.6132   1.6968   1.7321   1.7715   1.8209   1.8732   1.9165
     1.9492   1.9749   1.9881   2.0942   2.2029   2.2775   2.3055   2.3695
     2.4149   2.4515   2.4635   2.4689   2.4825   2.5296   2.5635   2.6558
     2.6897   2.7064   2.8743   2.8959   2.9286   2.9514   2.9673   2.9758
     2.9831   2.9926   3.0219   3.0250   3.0430   3.0479   3.0568   3.0751
     3.0870   3.0944   3.1166   3.1280   3.1328   3.1675   3.1841   3.2447
     3.6123   3.6500   3.8919   4.3108   4.4329   4.7173   5.0221   5.0798
     5.6491   5.8149   5.9284   5.9893   6.0919   6.1179   6.1913   6.6009
     6.8264   7.0788   7.1361   7.3357   7.4916   7.5029   7.6212   7.6509
     7.8562   7.9550   8.0222   8.1761   8.2593   8.3795   8.4132   8.4524
     8.5908   8.8401   8.9402

     occupation numbers 
     1.0000   1.0000   1.0000   1.0000   1.0000   1.0000   1.0000   1.0000
     1.0000   1.0000   1.0000   1.0000   1.0000   1.0000   1.0000   1.0000
     1.0000   1.0000   1.0000   1.0000   1.0000   1.0000   1.0000   1.0000
     1.0000   1.0000   1.0000   1.0000   1.0000   1.0000   1.0000   1.0000
     1.0000   1.0000   1.0000   1.0000   1.0000   1.0000   1.0000   1.0000
     1.0000   1.0000   1.0000   1.0000   1.0000   1.0000   1.0000   1.0000
     1.0000   1.0000   1.0000   1.0000   1.0000   1.0000   1.0000   1.0000
     1.0000   1.0000   1.0000   1.0000   1.0000   1.0000   1.0000   1.0000
     1.0000   1.0000   1.0000   1.0000   1.0000   1.0000   1.0000   1.0000
     1.0000   1.0000   1.0000   1.0000   1.0000   1.0000   1.0000   1.0000
     1.0000   1.0000   1.0000   1.0000   1.0000   1.0000   1.0000   1.0000
     1.0000   1.0000   1.0000   1.0000   1.0000   1.0000   1.0000   1.0000
     1.0000   1.0000   1.0000   1.0000   1.0000   1.0000   1.0000   1.0000
     1.0000   1.0000   1.0000   1.0000   1.0000   1.0000   1.0000   1.0000
     1.0000   1.0000   1.0000   1.0000   1.0000   1.0000   1.0000   1.0000
     1.0000   1.0000   1.0000   1.0000   1.0000   1.0000   1.0000   1.0000
     1.0000   1.0000   1.0000   1.0000   1.0000   1.0000   1.0000   1.0000
     1.0000   1.0000   1.0000   1.0000   1.0000   1.0000   1.0000   1.0000
     1.0000   1.0000   1.0000   1.0000   1.0000   1.0000   1.0000   1.0000
     1.0000   1.0000   1.0000   1.0000   1.0000   1.0000   0.9999   0.9999
     0.9999   0.9998   0.9998   0.9997   0.9996   0.9996   0.9992   0.9988
     0.9986   0.9985   0.9983   0.9981   0.9975   0.9972   0.9968   0.9960
     0.9954   0.9947   0.9925   0.9914   0.9899   0.9877   0.9850   0.9824
     0.9802   0.9783   0.9773   0.9673   0.9537   0.9419   0.9369   0.9242
     0.9141   0.9053   0.9023   0.9009   0.8973   0.8842   0.8741   0.8435
     0.8311   0.8248   0.7532   0.7430   0.7271   0.7157   0.7076   0.7033
     0.6995   0.6946   0.6792   0.6775   0.6679   0.6653   0.6604   0.6504
     0.6439   0.6398   0.6273   0.6209   0.6182   0.5984   0.5889   0.5535
     0.3404   0.3202   0.2043   0.0738   0.0516   0.0201   0.0061   0.0048
     0.0003   0.0001   0.0001   0.0000   0.0000   0.0000   0.0000   0.0000
     0.0000   0.0000   0.0000   0.0000   0.0000   0.0000   0.0000   0.0000
     0.0000   0.0000   0.0000   0.0000   0.0000   0.0000   0.0000   0.0000
     0.0000   0.0000   0.0000

          k = 0.0000-0.5000 0.0000 ( 65180 PWs)   bands (ev):

   -92.6923 -92.6417 -92.5463 -92.4996 -92.4418 -92.3986 -92.3817 -92.2619
   -56.0457 -56.0285 -55.9036 -55.8930 -55.8869 -55.8798 -55.8463 -55.8155
   -55.8005 -55.7980 -55.7912 -55.7492 -55.7299 -55.6931 -55.6728 -55.6415
   -55.6353 -55.5872 -55.5861 -55.5839 -55.5755 -55.5371 -55.5120 -55.4285
   -31.2693 -31.2499 -31.1093 -31.0593 -31.0397 -31.0221 -30.7562 -30.6175
   -29.8374 -29.7945 -29.7725 -29.6621 -14.9997 -14.9508 -14.8986 -14.7653
   -14.6878 -14.5463 -14.3989 -14.2646 -14.1489 -14.0767 -14.0323 -14.0276
   -13.9777 -13.9671 -13.9591 -13.9143 -13.8895 -13.8678 -13.8298 -13.7810
   -13.7541 -13.5751 -13.5162 -13.4905 -13.4480 -13.4036 -13.3497 -13.3014
   -13.2750 -13.2361 -13.2098 -13.1016 -13.0868 -13.0167 -13.0056 -12.9593
   -12.9429 -12.9207 -12.8738 -12.7994 -12.7802 -12.7540 -12.7182 -12.6969
   -12.6776 -12.6437 -12.5282 -12.5063 -12.3389 -12.3148 -12.1983 -12.1619
   -12.1345 -11.7715 -11.7691 -11.7419 -11.7058 -11.6710 -11.6598 -11.6160
   -11.6121 -11.5667 -11.5071 -11.4932 -11.4788  -2.5825  -2.5223  -2.3728
    -2.3008  -2.0190  -1.9355  -1.8089  -1.6714  -1.6331  -1.6146  -1.5355
    -1.5029  -1.4230  -1.3869  -1.3092  -1.2699  -1.2313  -1.2037  -1.1722
    -1.1445  -1.1099  -1.0564  -1.0244  -0.9939  -0.9545  -0.8497  -0.8047
    -0.7685  -0.7674  -0.6809  -0.6482  -0.6261  -0.5755  -0.4914  -0.4215
    -0.3327  -0.3040  -0.2043  -0.1592  -0.0203   0.0275   0.0444   0.1122
     0.2416   0.2737   0.4006   0.4720   0.4790   0.6052   0.6592   0.7849
     0.8842   0.9935   1.0252   1.0629   1.0693   1.1143   1.1243   1.1590
     1.1796   1.1845   1.2964   1.3571   1.3903   1.4171   1.6764   1.7061
     1.7316   1.8255   1.8566   1.8778   1.8942   1.9218   1.9377   1.9587
     1.9803   2.0159   2.0438   2.0771   2.0857   2.1134   2.1635   2.2485
     2.2771   2.4579   2.4629   2.4778   2.6131   2.6258   2.6495   2.6781
     2.6835   2.6925   2.7423   2.7531   2.8075   2.8296   2.9092   2.9206
     2.9891   2.9960   3.0183   3.0230   3.0395   3.0459   3.0487   3.0533
     3.0558   3.0677   3.0864   3.0883   3.1522   3.1583   3.1737   3.2274
     4.1481   4.1583   4.1901   4.2681   4.7579   4.9089   5.0329   5.1747
     5.4206   5.4726   5.5900   5.7375   6.0363   6.0575   6.2560   6.5057
     6.8569   6.9571   7.2187   7.3312   7.3494   7.4896   7.7201   7.7648
     7.9159   7.9877   8.2204   8.2772   8.3933   8.4512   8.5258   8.6733
     8.8062   8.8232   8.8734

     occupation numbers 
     1.0000   1.0000   1.0000   1.0000   1.0000   1.0000   1.0000   1.0000
     1.0000   1.0000   1.0000   1.0000   1.0000   1.0000   1.0000   1.0000
     1.0000   1.0000   1.0000   1.0000   1.0000   1.0000   1.0000   1.0000
     1.0000   1.0000   1.0000   1.0000   1.0000   1.0000   1.0000   1.0000
     1.0000   1.0000   1.0000   1.0000   1.0000   1.0000   1.0000   1.0000
     1.0000   1.0000   1.0000   1.0000   1.0000   1.0000   1.0000   1.0000
     1.0000   1.0000   1.0000   1.0000   1.0000   1.0000   1.0000   1.0000
     1.0000   1.0000   1.0000   1.0000   1.0000   1.0000   1.0000   1.0000
     1.0000   1.0000   1.0000   1.0000   1.0000   1.0000   1.0000   1.0000
     1.0000   1.0000   1.0000   1.0000   1.0000   1.0000   1.0000   1.0000
     1.0000   1.0000   1.0000   1.0000   1.0000   1.0000   1.0000   1.0000
     1.0000   1.0000   1.0000   1.0000   1.0000   1.0000   1.0000   1.0000
     1.0000   1.0000   1.0000   1.0000   1.0000   1.0000   1.0000   1.0000
     1.0000   1.0000   1.0000   1.0000   1.0000   1.0000   1.0000   1.0000
     1.0000   1.0000   1.0000   1.0000   1.0000   1.0000   1.0000   1.0000
     1.0000   1.0000   1.0000   1.0000   1.0000   1.0000   1.0000   1.0000
     1.0000   1.0000   1.0000   1.0000   1.0000   1.0000   1.0000   1.0000
     1.0000   1.0000   1.0000   1.0000   1.0000   1.0000   1.0000   1.0000
     1.0000   1.0000   1.0000   1.0000   1.0000   1.0000   1.0000   1.0000
     1.0000   1.0000   1.0000   1.0000   1.0000   1.0000   1.0000   0.9999
     0.9999   0.9997   0.9997   0.9996   0.9996   0.9995   0.9995   0.9994
     0.9993   0.9993   0.9988   0.9983   0.9981   0.9978   0.9931   0.9922
     0.9914   0.9875   0.9859   0.9848   0.9838   0.9821   0.9810   0.9795
     0.9779   0.9750   0.9724   0.9691   0.9682   0.9652   0.9591   0.9467
     0.9420   0.9037   0.9024   0.8986   0.8583   0.8540   0.8458   0.8355
     0.8334   0.8301   0.8107   0.8064   0.7834   0.7737   0.7366   0.7310
     0.6964   0.6928   0.6811   0.6786   0.6698   0.6663   0.6648   0.6623
     0.6610   0.6545   0.6442   0.6431   0.6072   0.6037   0.5948   0.5637
     0.1137   0.1108   0.1022   0.0830   0.0173   0.0097   0.0059   0.0032
     0.0010   0.0008   0.0004   0.0002   0.0000   0.0000   0.0000   0.0000
     0.0000   0.0000   0.0000   0.0000   0.0000   0.0000   0.0000   0.0000
     0.0000   0.0000   0.0000   0.0000   0.0000   0.0000   0.0000   0.0000
     0.0000   0.0000   0.0000

          k = 0.2500 0.2500 0.0000 ( 65198 PWs)   bands (ev):

   -92.6923 -92.6417 -92.5463 -92.4996 -92.4418 -92.3986 -92.3817 -92.2619
   -56.0457 -56.0285 -55.9036 -55.8930 -55.8869 -55.8798 -55.8463 -55.8155
   -55.8005 -55.7980 -55.7912 -55.7492 -55.7299 -55.6931 -55.6728 -55.6415
   -55.6353 -55.5872 -55.5861 -55.5839 -55.5755 -55.5371 -55.5120 -55.4285
   -31.2678 -31.2517 -31.1087 -31.0606 -31.0381 -31.0223 -30.7565 -30.6174
   -29.8371 -29.7958 -29.7714 -29.6621 -15.0072 -14.9638 -14.8945 -14.7774
   -14.6563 -14.5308 -14.4608 -14.2514 -14.0997 -14.0861 -14.0489 -14.0196
   -13.9970 -13.9700 -13.9636 -13.9335 -13.9081 -13.8304 -13.8123 -13.6552
   -13.6389 -13.6103 -13.5908 -13.5313 -13.5016 -13.4340 -13.4180 -13.2816
   -13.2383 -13.2205 -13.1333 -13.0938 -13.0435 -13.0266 -13.0098 -12.9793
   -12.9393 -12.9335 -12.9071 -12.8557 -12.8219 -12.7380 -12.7264 -12.7057
   -12.6902 -12.6287 -12.5300 -12.4441 -12.4174 -12.3660 -12.2689 -12.0871
   -12.0206 -11.7898 -11.7582 -11.7472 -11.7405 -11.6773 -11.6438 -11.6366
   -11.6005 -11.5935 -11.5013 -11.4606 -11.4430  -2.6585  -2.4501  -2.3320
    -2.2376  -2.1171  -2.0524  -1.8544  -1.7099  -1.6911  -1.6608  -1.5671
    -1.5320  -1.4381  -1.4110  -1.3610  -1.2320  -1.1849  -1.1636  -1.1054
    -1.0619  -1.0190  -0.9953  -0.9716  -0.9290  -0.9132  -0.8219  -0.7717
    -0.7061  -0.6572  -0.6275  -0.5785  -0.5624  -0.5007  -0.4513  -0.3910
    -0.3607  -0.2731  -0.2210  -0.1917  -0.1545  -0.0988  -0.0243   0.0124
     0.0440   0.1207   0.1653   0.4199   0.5674   0.6014   0.6638   0.7022
     0.7771   0.8318   0.8806   0.9125   1.1856   1.2512   1.3244   1.3480
     1.4005   1.4296   1.4658   1.5018   1.5191   1.5460   1.5907   1.5996
     1.6144   1.6618   1.7034   1.7379   1.7935   1.8397   1.8468   1.8820
     1.9150   1.9752   2.0016   2.1317   2.1869   2.2200   2.2450   2.3192
     2.3817   2.4046   2.4410   2.4570   2.4658   2.4805   2.4847   2.6002
     2.6293   2.7193   2.8851   2.9023   2.9081   2.9243   2.9389   2.9525
     2.9653   2.9720   2.9831   2.9964   3.0097   3.0270   3.0331   3.0455
     3.0677   3.0787   3.0877   3.1196   3.4199   3.5134   3.5565   3.6284
     3.6515   3.8707   3.9631   4.3160   4.5222   4.7260   4.9927   5.1701
     5.6539   5.7107   5.7777   5.8447   5.9036   6.0763   6.1632   6.2204
     6.8980   6.9176   7.1290   7.2659   7.5578   7.6128   7.7191   7.8605
     7.8847   8.0145   8.2126   8.2371   8.3439   8.3798   8.4194   8.4543
     8.5655   8.7627   8.9266

     occupation numbers 
     1.0000   1.0000   1.0000   1.0000   1.0000   1.0000   1.0000   1.0000
     1.0000   1.0000   1.0000   1.0000   1.0000   1.0000   1.0000   1.0000
     1.0000   1.0000   1.0000   1.0000   1.0000   1.0000   1.0000   1.0000
     1.0000   1.0000   1.0000   1.0000   1.0000   1.0000   1.0000   1.0000
     1.0000   1.0000   1.0000   1.0000   1.0000   1.0000   1.0000   1.0000
     1.0000   1.0000   1.0000   1.0000   1.0000   1.0000   1.0000   1.0000
     1.0000   1.0000   1.0000   1.0000   1.0000   1.0000   1.0000   1.0000
     1.0000   1.0000   1.0000   1.0000   1.0000   1.0000   1.0000   1.0000
     1.0000   1.0000   1.0000   1.0000   1.0000   1.0000   1.0000   1.0000
     1.0000   1.0000   1.0000   1.0000   1.0000   1.0000   1.0000   1.0000
     1.0000   1.0000   1.0000   1.0000   1.0000   1.0000   1.0000   1.0000
     1.0000   1.0000   1.0000   1.0000   1.0000   1.0000   1.0000   1.0000
     1.0000   1.0000   1.0000   1.0000   1.0000   1.0000   1.0000   1.0000
     1.0000   1.0000   1.0000   1.0000   1.0000   1.0000   1.0000   1.0000
     1.0000   1.0000   1.0000   1.0000   1.0000   1.0000   1.0000   1.0000
     1.0000   1.0000   1.0000   1.0000   1.0000   1.0000   1.0000   1.0000
     1.0000   1.0000   1.0000   1.0000   1.0000   1.0000   1.0000   1.0000
     1.0000   1.0000   1.0000   1.0000   1.0000   1.0000   1.0000   1.0000
     1.0000   1.0000   1.0000   1.0000   1.0000   1.0000   1.0000   1.0000
     1.0000   1.0000   1.0000   1.0000   1.0000   1.0000   1.0000   1.0000
     0.9999   0.9999   0.9999   0.9998   0.9993   0.9990   0.9986   0.9984
     0.9980   0.9977   0.9972   0.9968   0.9965   0.9961   0.9952   0.9950
     0.9947   0.9935   0.9923   0.9912   0.9890   0.9868   0.9865   0.9845
     0.9825   0.9783   0.9762   0.9631   0.9559   0.9512   0.9473   0.9343
     0.9216   0.9165   0.9079   0.9039   0.9017   0.8978   0.8967   0.8625
     0.8528   0.8199   0.7481   0.7399   0.7371   0.7292   0.7220   0.7151
     0.7086   0.7052   0.6995   0.6926   0.6856   0.6765   0.6732   0.6666
     0.6545   0.6484   0.6435   0.6257   0.4500   0.3957   0.3713   0.3317
     0.3194   0.2133   0.1756   0.0727   0.0390   0.0195   0.0069   0.0032
     0.0003   0.0002   0.0001   0.0001   0.0001   0.0000   0.0000   0.0000
     0.0000   0.0000   0.0000   0.0000   0.0000   0.0000   0.0000   0.0000
     0.0000   0.0000   0.0000   0.0000   0.0000   0.0000   0.0000   0.0000
     0.0000   0.0000   0.0000

          k = 0.2500-0.5000 0.0000 ( 65138 PWs)   bands (ev):

   -92.6923 -92.6417 -92.5463 -92.4996 -92.4418 -92.3986 -92.3817 -92.2619
   -56.0457 -56.0285 -55.9036 -55.8930 -55.8869 -55.8798 -55.8463 -55.8155
   -55.8005 -55.7980 -55.7912 -55.7492 -55.7299 -55.6931 -55.6728 -55.6415
   -55.6353 -55.5872 -55.5861 -55.5839 -55.5755 -55.5371 -55.5120 -55.4285
   -31.2676 -31.2515 -31.1089 -31.0592 -31.0396 -31.0225 -30.7563 -30.6176
   -29.8365 -29.7955 -29.7721 -29.6625 -14.9690 -14.9239 -14.8553 -14.7358
   -14.7101 -14.5880 -14.5007 -14.3640 -14.0645 -14.0099 -13.9836 -13.9678
   -13.9604 -13.9463 -13.9336 -13.8981 -13.8782 -13.8438 -13.8100 -13.7754
   -13.7422 -13.6575 -13.6085 -13.5482 -13.5298 -13.4632 -13.4488 -13.3392
   -13.2872 -13.1984 -13.1340 -13.1120 -13.0274 -13.0030 -12.9804 -12.9772
   -12.9576 -12.9342 -12.9033 -12.8098 -12.7898 -12.7373 -12.7095 -12.6930
   -12.6472 -12.6160 -12.5328 -12.5118 -12.3280 -12.3120 -12.1885 -12.1479
   -12.1285 -11.7653 -11.7533 -11.7427 -11.7160 -11.6837 -11.6564 -11.6136
   -11.5872 -11.5642 -11.5198 -11.4944 -11.4826  -2.4405  -2.3741  -2.2466
    -2.1696  -2.0394  -1.9552  -1.8332  -1.6824  -1.6285  -1.6062  -1.5428
    -1.5302  -1.4340  -1.3654  -1.2814  -1.2311  -1.2216  -1.1721  -1.1578
    -1.1154  -1.0822  -1.0340  -0.9959  -0.9609  -0.9221  -0.9111  -0.8644
    -0.8347  -0.7934  -0.7619  -0.6959  -0.5933  -0.5529  -0.4761  -0.4104
    -0.3605  -0.3202  -0.2993  -0.2442  -0.0852  -0.0752   0.0385   0.0684
     0.0777   0.1244   0.1522   0.1974   0.2178   0.2845   0.5590   0.6570
     0.7448   0.8054   1.0459   1.0726   1.1599   1.1820   1.3482   1.3835
     1.4234   1.4446   1.4610   1.4816   1.5449   1.5925   1.6275   1.7104
     1.7965   1.8366   1.8588   1.8687   1.9052   1.9185   1.9222   1.9705
     1.9827   1.9998   2.0452   2.0560   2.0707   2.1085   2.1647   2.2030
     2.2818   2.4213   2.4641   2.4699   2.5669   2.5863   2.6063   2.6294
     2.6541   2.6794   2.7004   2.7157   2.7380   2.8356   2.8857   2.9035
     2.9094   2.9219   2.9418   2.9558   2.9745   2.9832   3.0160   3.0278
     3.0413   3.0510   3.0599   3.0698   3.5979   3.6029   3.7515   3.8022
     4.1515   4.1951   4.2037   4.3257   4.7764   4.9312   5.0707   5.1452
     5.3137   5.4392   5.6131   5.6487   5.7776   5.7952   6.3482   6.4022
     6.4951   6.6356   7.2503   7.3557   7.5743   7.7085   7.8205   7.8772
     7.9215   8.0472   8.2441   8.4181   8.4910   8.5483   8.5694   8.5766
     8.7192   8.7427   8.7998

     occupation numbers 
     1.0000   1.0000   1.0000   1.0000   1.0000   1.0000   1.0000   1.0000
     1.0000   1.0000   1.0000   1.0000   1.0000   1.0000   1.0000   1.0000
     1.0000   1.0000   1.0000   1.0000   1.0000   1.0000   1.0000   1.0000
     1.0000   1.0000   1.0000   1.0000   1.0000   1.0000   1.0000   1.0000
     1.0000   1.0000   1.0000   1.0000   1.0000   1.0000   1.0000   1.0000
     1.0000   1.0000   1.0000   1.0000   1.0000   1.0000   1.0000   1.0000
     1.0000   1.0000   1.0000   1.0000   1.0000   1.0000   1.0000   1.0000
     1.0000   1.0000   1.0000   1.0000   1.0000   1.0000   1.0000   1.0000
     1.0000   1.0000   1.0000   1.0000   1.0000   1.0000   1.0000   1.0000
     1.0000   1.0000   1.0000   1.0000   1.0000   1.0000   1.0000   1.0000
     1.0000   1.0000   1.0000   1.0000   1.0000   1.0000   1.0000   1.0000
     1.0000   1.0000   1.0000   1.0000   1.0000   1.0000   1.0000   1.0000
     1.0000   1.0000   1.0000   1.0000   1.0000   1.0000   1.0000   1.0000
     1.0000   1.0000   1.0000   1.0000   1.0000   1.0000   1.0000   1.0000
     1.0000   1.0000   1.0000   1.0000   1.0000   1.0000   1.0000   1.0000
     1.0000   1.0000   1.0000   1.0000   1.0000   1.0000   1.0000   1.0000
     1.0000   1.0000   1.0000   1.0000   1.0000   1.0000   1.0000   1.0000
     1.0000   1.0000   1.0000   1.0000   1.0000   1.0000   1.0000   1.0000
     1.0000   1.0000   1.0000   1.0000   1.0000   1.0000   1.0000   1.0000
     1.0000   1.0000   1.0000   1.0000   1.0000   1.0000   1.0000   1.0000
     0.9999   0.9999   0.9997   0.9996   0.9994   0.9993   0.9984   0.9981
     0.9977   0.9975   0.9973   0.9970   0.9961   0.9952   0.9944   0.9921
     0.9888   0.9870   0.9858   0.9853   0.9831   0.9823   0.9821   0.9787
     0.9777   0.9763   0.9723   0.9713   0.9698   0.9658   0.9589   0.9537
     0.9411   0.9127   0.9021   0.9006   0.8731   0.8670   0.8605   0.8527
     0.8441   0.8350   0.8271   0.8212   0.8125   0.7710   0.7478   0.7393
     0.7365   0.7304   0.7205   0.7135   0.7040   0.6995   0.6823   0.6760
     0.6688   0.6636   0.6587   0.6533   0.3483   0.3456   0.2683   0.2441
     0.1128   0.1009   0.0986   0.0707   0.0162   0.0089   0.0050   0.0036
     0.0017   0.0009   0.0004   0.0003   0.0001   0.0001   0.0000   0.0000
     0.0000   0.0000   0.0000   0.0000   0.0000   0.0000   0.0000   0.0000
     0.0000   0.0000   0.0000   0.0000   0.0000   0.0000   0.0000   0.0000
     0.0000   0.0000   0.0000

          k =-0.5000-0.5000 0.0000 ( 65132 PWs)   bands (ev):

   -92.6923 -92.6417 -92.5463 -92.4996 -92.4418 -92.3986 -92.3817 -92.2619
   -56.0457 -56.0285 -55.9036 -55.8930 -55.8869 -55.8798 -55.8463 -55.8155
   -55.8005 -55.7980 -55.7912 -55.7492 -55.7299 -55.6931 -55.6728 -55.6415
   -55.6353 -55.5872 -55.5861 -55.5839 -55.5755 -55.5371 -55.5120 -55.4285
   -31.2655 -31.2537 -31.1086 -31.0591 -31.0395 -31.0229 -30.7564 -30.6177
   -29.8355 -29.7965 -29.7717 -29.6629 -14.9217 -14.8971 -14.7786 -14.7673
   -14.6734 -14.6354 -14.6008 -14.4653 -13.9734 -13.9673 -13.9614 -13.9273
   -13.9113 -13.8922 -13.8776 -13.8485 -13.8374 -13.8272 -13.8131 -13.8000
   -13.7249 -13.7165 -13.6856 -13.6527 -13.6322 -13.5495 -13.5122 -13.3800
   -13.3278 -13.1478 -13.1101 -13.0433 -13.0174 -12.9930 -12.9771 -12.9731
   -12.9649 -12.9518 -12.9442 -12.8174 -12.7921 -12.7315 -12.7122 -12.6910
   -12.5978 -12.5893 -12.5436 -12.5256 -12.3178 -12.3075 -12.1775 -12.1318
   -12.1250 -11.7622 -11.7497 -11.7316 -11.7154 -11.6796 -11.6613 -11.6293
   -11.5678 -11.5476 -11.5417 -11.4918 -11.4881  -2.2158  -2.1411  -2.1310
    -2.0577  -2.0201  -1.9420  -1.8745  -1.7478  -1.6331  -1.6026  -1.5623
    -1.5059  -1.4339  -1.4200  -1.3488  -1.3063  -1.1904  -1.1710  -1.1571
    -1.1093  -1.0836  -1.0190  -0.9723  -0.9531  -0.9411  -0.8865  -0.8439
    -0.8277  -0.7133  -0.6534  -0.6104  -0.5616  -0.5318  -0.5201  -0.4876
    -0.4444  -0.4083  -0.3992  -0.3114  -0.2457  -0.2015  -0.1738  -0.1015
    -0.0439  -0.0309   0.0266   0.0615   0.0663   0.0889   0.5321   0.5750
     0.6844   0.7381   1.0778   1.0933   1.1227   1.1638   1.4337   1.4535
     1.4593   1.5007   1.6261   1.7230   1.7489   1.7857   1.8086   1.8345
     1.8394   1.8693   1.8786   1.8961   1.9072   1.9587   1.9606   1.9919
     2.0117   2.0314   2.0431   2.0801   2.1036   2.1214   2.1521   2.1878
     2.2409   2.3118   2.4606   2.4647   2.5829   2.6097   2.6301   2.6466
     2.6631   2.6889   2.6898   2.7105   2.7215   2.7391   2.7608   2.7704
     2.8370   2.8401   2.8602   2.8763   2.8875   2.9086   2.9110   2.9207
     3.0245   3.0289   3.0564   3.0676   4.0337   4.0497   4.0759   4.0827
     4.3290   4.4058   4.4272   4.6677   4.7903   4.8728   5.0018   5.0892
     5.1066   5.2154   5.3081   5.4268   5.8601   5.8861   5.9635   6.0374
     6.5248   6.8916   6.9171   7.1606   7.8961   7.9438   7.9508   7.9834
     8.0153   8.0524   8.1026   8.2763   8.3968   8.5949   8.6252   8.6673
     8.7065   8.7699   8.8878

     occupation numbers 
     1.0000   1.0000   1.0000   1.0000   1.0000   1.0000   1.0000   1.0000
     1.0000   1.0000   1.0000   1.0000   1.0000   1.0000   1.0000   1.0000
     1.0000   1.0000   1.0000   1.0000   1.0000   1.0000   1.0000   1.0000
     1.0000   1.0000   1.0000   1.0000   1.0000   1.0000   1.0000   1.0000
     1.0000   1.0000   1.0000   1.0000   1.0000   1.0000   1.0000   1.0000
     1.0000   1.0000   1.0000   1.0000   1.0000   1.0000   1.0000   1.0000
     1.0000   1.0000   1.0000   1.0000   1.0000   1.0000   1.0000   1.0000
     1.0000   1.0000   1.0000   1.0000   1.0000   1.0000   1.0000   1.0000
     1.0000   1.0000   1.0000   1.0000   1.0000   1.0000   1.0000   1.0000
     1.0000   1.0000   1.0000   1.0000   1.0000   1.0000   1.0000   1.0000
     1.0000   1.0000   1.0000   1.0000   1.0000   1.0000   1.0000   1.0000
     1.0000   1.0000   1.0000   1.0000   1.0000   1.0000   1.0000   1.0000
     1.0000   1.0000   1.0000   1.0000   1.0000   1.0000   1.0000   1.0000
     1.0000   1.0000   1.0000   1.0000   1.0000   1.0000   1.0000   1.0000
     1.0000   1.0000   1.0000   1.0000   1.0000   1.0000   1.0000   1.0000
     1.0000   1.0000   1.0000   1.0000   1.0000   1.0000   1.0000   1.0000
     1.0000   1.0000   1.0000   1.0000   1.0000   1.0000   1.0000   1.0000
     1.0000   1.0000   1.0000   1.0000   1.0000   1.0000   1.0000   1.0000
     1.0000   1.0000   1.0000   1.0000   1.0000   1.0000   1.0000   1.0000
     1.0000   1.0000   1.0000   1.0000   1.0000   1.0000   1.0000   1.0000
     1.0000   0.9999   0.9996   0.9996   0.9995   0.9994   0.9976   0.9974
     0.9973   0.9968   0.9944   0.9917   0.9908   0.9893   0.9883   0.9871
     0.9868   0.9853   0.9847   0.9837   0.9830   0.9795   0.9794   0.9770
     0.9753   0.9736   0.9725   0.9688   0.9663   0.9643   0.9605   0.9558
     0.9479   0.9357   0.9030   0.9020   0.8681   0.8594   0.8525   0.8468
     0.8409   0.8314   0.8311   0.8233   0.8190   0.8120   0.8032   0.7992
     0.7704   0.7689   0.7598   0.7523   0.7470   0.7368   0.7357   0.7310
     0.6778   0.6755   0.6606   0.6545   0.1499   0.1444   0.1357   0.1335
     0.0701   0.0560   0.0525   0.0239   0.0154   0.0112   0.0067   0.0046
     0.0043   0.0026   0.0017   0.0009   0.0001   0.0001   0.0000   0.0000
     0.0000   0.0000   0.0000   0.0000   0.0000   0.0000   0.0000   0.0000
     0.0000   0.0000   0.0000   0.0000   0.0000   0.0000   0.0000   0.0000
     0.0000   0.0000   0.0000

          k = 0.2500 0.0000 0.0000 ( 65257 PWs)   bands (ev):

   -92.6923 -92.6417 -92.5463 -92.4996 -92.4418 -92.3986 -92.3817 -92.2619
   -56.0457 -56.0285 -55.9036 -55.8930 -55.8869 -55.8798 -55.8463 -55.8155
   -55.8005 -55.7980 -55.7912 -55.7492 -55.7299 -55.6931 -55.6728 -55.6415
   -55.6353 -55.5872 -55.5861 -55.5839 -55.5755 -55.5371 -55.5120 -55.4285
   -31.2680 -31.2518 -31.1085 -31.0619 -31.0369 -31.0222 -30.7567 -30.6171
   -29.8377 -29.7961 -29.7708 -29.6618 -15.0399 -14.9935 -14.9281 -14.7808
   -14.6735 -14.4761 -14.3472 -14.1651 -14.1491 -14.1201 -14.0884 -14.0627
   -14.0280 -14.0137 -13.9870 -13.9654 -13.9450 -13.8314 -13.8004 -13.6511
   -13.5815 -13.5693 -13.5063 -13.4836 -13.4700 -13.4115 -13.3371 -13.3047
   -13.2077 -13.1509 -13.1306 -13.0753 -13.0518 -13.0356 -13.0193 -13.0037
   -12.9673 -12.9338 -12.9170 -12.8932 -12.8773 -12.8117 -12.7632 -12.7180
   -12.6126 -12.5762 -12.5444 -12.5156 -12.4948 -12.3977 -12.2408 -12.0455
   -11.9796 -11.8167 -11.7652 -11.7474 -11.7344 -11.7077 -11.6575 -11.6338
   -11.6262 -11.5760 -11.4860 -11.4305 -11.4247  -2.7964  -2.5750  -2.4449
    -2.2723  -2.2083  -2.0389  -1.8309  -1.7543  -1.7106  -1.6749  -1.5749
    -1.5600  -1.5246  -1.5057  -1.4370  -1.2584  -1.1733  -1.1397  -1.1077
    -1.0118  -0.9989  -0.9206  -0.8935  -0.8408  -0.8006  -0.7485  -0.7199
    -0.6702  -0.6449  -0.6255  -0.5696  -0.5545  -0.4655  -0.4558  -0.3902
    -0.2922  -0.2393  -0.1231  -0.1077  -0.0430  -0.0016   0.0570   0.0793
     0.1177   0.1922   0.2301   0.5067   0.6399   0.6788   0.7602   0.7909
     0.8287   0.8412   0.9174   1.0308   1.0771   1.1019   1.1394   1.2925
     1.3217   1.3552   1.3620   1.4012   1.4470   1.4910   1.5236   1.5771
     1.6287   1.6448   1.6988   1.7415   1.7842   1.8058   1.8910   1.8979
     1.9282   1.9693   1.9923   2.1113   2.1708   2.2344   2.3128   2.3322
[...]
     0.3497   0.3265   0.2048   0.0785   0.0460   0.0217   0.0060   0.0049
     0.0003   0.0001   0.0001   0.0000   0.0000   0.0000   0.0000   0.0000
     0.0000   0.0000   0.0000   0.0000   0.0000   0.0000   0.0000   0.0000
     0.0000   0.0000   0.0000   0.0000   0.0000   0.0000   0.0000   0.0000
     0.0000   0.0000   0.0000

          k =-0.5000 0.0000 0.0000 ( 65180 PWs)   bands (ev):

   -92.6923 -92.6417 -92.5463 -92.4996 -92.4418 -92.3986 -92.3817 -92.2619
   -56.0457 -56.0285 -55.9036 -55.8930 -55.8869 -55.8798 -55.8463 -55.8155
   -55.8005 -55.7980 -55.7912 -55.7492 -55.7299 -55.6931 -55.6728 -55.6415
   -55.6353 -55.5872 -55.5861 -55.5839 -55.5755 -55.5371 -55.5120 -55.4285
   -31.2658 -31.2540 -31.1082 -31.0618 -31.0368 -31.0226 -30.7569 -30.6172
   -29.8367 -29.7972 -29.7704 -29.6622 -15.0056 -14.9512 -14.8895 -14.7834
   -14.6787 -14.5353 -14.3845 -14.2494 -14.1232 -14.1094 -14.0997 -14.0280
   -13.9831 -13.9661 -13.9473 -13.8986 -13.8934 -13.8763 -13.8290 -13.8122
   -13.6968 -13.5464 -13.5116 -13.4853 -13.4783 -13.4142 -13.3558 -13.2787
   -13.2596 -13.2361 -13.2080 -13.0696 -13.0463 -13.0348 -13.0115 -13.0023
   -12.9458 -12.9392 -12.9191 -12.8953 -12.8784 -12.7152 -12.6323 -12.6233
   -12.5763 -12.5464 -12.5329 -12.5237 -12.4459 -12.3231 -12.3184 -12.1285
   -12.0796 -11.7691 -11.7471 -11.7408 -11.7258 -11.7077 -11.6659 -11.6047
   -11.5876 -11.5548 -11.5083 -11.4990 -11.4840  -2.5721  -2.5340  -2.3703
    -2.3314  -2.0172  -1.9424  -1.7940  -1.6769  -1.6382  -1.5914  -1.5439
    -1.5198  -1.3962  -1.3523  -1.3352  -1.2558  -1.2202  -1.2114  -1.1758
    -1.1548  -1.1101  -1.0426  -1.0158  -0.9869  -0.8907  -0.8445  -0.7939
    -0.7631  -0.7416  -0.7101  -0.6645  -0.6386  -0.5993  -0.5008  -0.4267
    -0.3621  -0.3014  -0.1363  -0.0920  -0.0474  -0.0112   0.0494   0.0669
     0.2073   0.2421   0.2959   0.4489   0.5481   0.5965   0.6964   0.7571
     0.8771   0.8861   1.0140   1.0403   1.0963   1.1259   1.1683   1.1734
     1.2197   1.2449   1.3124   1.3590   1.4075   1.4147   1.7172   1.7285
     1.7444   1.7602   1.8669   1.8788   1.8969   1.9053   1.9354   1.9461
     1.9890   2.0106   2.0339   2.0866   2.1033   2.1543   2.1808   2.2322
     2.3536   2.4404   2.4643   2.4700   2.5141   2.5246   2.6150   2.6352
     2.6675   2.7357   2.7425   2.7490   2.7789   2.8470   2.8903   2.9383
     2.9643   3.0100   3.0134   3.0162   3.0261   3.0426   3.0539   3.0674
     3.0715   3.0917   3.0966   3.1182   3.1381   3.1430   3.2729   3.2793
     4.1001   4.1348   4.1944   4.3337   4.8000   4.8711   5.0548   5.0609
     5.4892   5.5179   5.6071   5.6603   6.0421   6.0448   6.2498   6.5229
     6.8020   7.0096   7.2865   7.3185   7.3613   7.4080   7.7289   7.7848
     7.8888   7.9410   8.2040   8.2660   8.4268   8.5241   8.5716   8.6467
     8.7674   8.8175   8.9522

     occupation numbers 
     1.0000   1.0000   1.0000   1.0000   1.0000   1.0000   1.0000   1.0000
     1.0000   1.0000   1.0000   1.0000   1.0000   1.0000   1.0000   1.0000
     1.0000   1.0000   1.0000   1.0000   1.0000   1.0000   1.0000   1.0000
     1.0000   1.0000   1.0000   1.0000   1.0000   1.0000   1.0000   1.0000
     1.0000   1.0000   1.0000   1.0000   1.0000   1.0000   1.0000   1.0000
     1.0000   1.0000   1.0000   1.0000   1.0000   1.0000   1.0000   1.0000
     1.0000   1.0000   1.0000   1.0000   1.0000   1.0000   1.0000   1.0000
     1.0000   1.0000   1.0000   1.0000   1.0000   1.0000   1.0000   1.0000
     1.0000   1.0000   1.0000   1.0000   1.0000   1.0000   1.0000   1.0000
     1.0000   1.0000   1.0000   1.0000   1.0000   1.0000   1.0000   1.0000
     1.0000   1.0000   1.0000   1.0000   1.0000   1.0000   1.0000   1.0000
     1.0000   1.0000   1.0000   1.0000   1.0000   1.0000   1.0000   1.0000
     1.0000   1.0000   1.0000   1.0000   1.0000   1.0000   1.0000   1.0000
     1.0000   1.0000   1.0000   1.0000   1.0000   1.0000   1.0000   1.0000
     1.0000   1.0000   1.0000   1.0000   1.0000   1.0000   1.0000   1.0000
     1.0000   1.0000   1.0000   1.0000   1.0000   1.0000   1.0000   1.0000
     1.0000   1.0000   1.0000   1.0000   1.0000   1.0000   1.0000   1.0000
     1.0000   1.0000   1.0000   1.0000   1.0000   1.0000   1.0000   1.0000
     1.0000   1.0000   1.0000   1.0000   1.0000   1.0000   1.0000   1.0000
     1.0000   1.0000   1.0000   1.0000   1.0000   1.0000   1.0000   0.9999
     0.9999   0.9999   0.9997   0.9997   0.9996   0.9995   0.9994   0.9993
     0.9992   0.9990   0.9987   0.9983   0.9979   0.9978   0.9919   0.9915
     0.9909   0.9903   0.9854   0.9847   0.9837   0.9831   0.9812   0.9804
     0.9772   0.9754   0.9734   0.9682   0.9663   0.9603   0.9568   0.9493
     0.9275   0.9081   0.9021   0.9006   0.8887   0.8857   0.8576   0.8507
     0.8393   0.8134   0.8107   0.8080   0.7957   0.7658   0.7456   0.7223
     0.7092   0.6855   0.6837   0.6822   0.6769   0.6681   0.6620   0.6547
     0.6524   0.6413   0.6385   0.6264   0.6152   0.6124   0.5369   0.5332
     0.1281   0.1176   0.1011   0.0691   0.0148   0.0113   0.0053   0.0052
     0.0007   0.0006   0.0004   0.0003   0.0000   0.0000   0.0000   0.0000
     0.0000   0.0000   0.0000   0.0000   0.0000   0.0000   0.0000   0.0000
     0.0000   0.0000   0.0000   0.0000   0.0000   0.0000   0.0000   0.0000
     0.0000   0.0000   0.0000

          k =-0.2500 0.2500 0.0000 ( 65198 PWs)   bands (ev):

   -92.6923 -92.6417 -92.5463 -92.4996 -92.4418 -92.3986 -92.3817 -92.2619
   -56.0457 -56.0285 -55.9036 -55.8930 -55.8869 -55.8798 -55.8463 -55.8155
   -55.8005 -55.7980 -55.7912 -55.7492 -55.7299 -55.6931 -55.6728 -55.6415
   -55.6353 -55.5872 -55.5861 -55.5839 -55.5755 -55.5371 -55.5120 -55.4285
   -31.2678 -31.2517 -31.1087 -31.0606 -31.0381 -31.0223 -30.7565 -30.6174
   -29.8371 -29.7958 -29.7714 -29.6621 -15.0085 -14.9628 -14.8928 -14.7761
   -14.6625 -14.5343 -14.4532 -14.2431 -14.1058 -14.0762 -14.0641 -14.0139
   -13.9924 -13.9733 -13.9647 -13.9463 -13.9067 -13.8266 -13.8135 -13.6637
   -13.6362 -13.6055 -13.5873 -13.5348 -13.4884 -13.4305 -13.4266 -13.2931
   -13.2291 -13.2134 -13.1375 -13.0955 -13.0317 -13.0265 -13.0025 -12.9809
   -12.9508 -12.9221 -12.9166 -12.8552 -12.8256 -12.7629 -12.7247 -12.6843
   -12.6809 -12.6501 -12.5304 -12.4466 -12.4335 -12.3293 -12.2746 -12.0749
   -12.0360 -11.7889 -11.7674 -11.7406 -11.7285 -11.6869 -11.6535 -11.6292
   -11.6087 -11.5855 -11.5011 -11.4561 -11.4462  -2.6569  -2.4490  -2.3279
    -2.2392  -2.1213  -2.0552  -1.8520  -1.7068  -1.6888  -1.6588  -1.5677
    -1.5308  -1.4382  -1.4042  -1.3779  -1.2354  -1.1911  -1.1571  -1.1096
    -1.0823  -1.0209  -1.0007  -0.9612  -0.9325  -0.8921  -0.8285  -0.7807
    -0.7174  -0.6486  -0.6230  -0.5729  -0.5439  -0.4981  -0.4413  -0.3948
    -0.3548  -0.2549  -0.2203  -0.2103  -0.1670  -0.1005  -0.0285   0.0165
     0.0499   0.1251   0.1638   0.4001   0.5718   0.6097   0.6495   0.7107
     0.7811   0.8306   0.8838   0.9132   1.1936   1.3014   1.3416   1.3736
     1.3805   1.4243   1.4386   1.4843   1.5142   1.5288   1.5541   1.6002
     1.6146   1.6590   1.6791   1.7226   1.8100   1.8273   1.8461   1.8880
     1.9136   1.9516   2.0128   2.1210   2.2149   2.2434   2.2940   2.3154
     2.3788   2.4159   2.4415   2.4596   2.4694   2.4772   2.4956   2.6000
     2.6277   2.7198   2.8923   2.9002   2.9139   2.9237   2.9345   2.9486
     2.9556   2.9733   2.9828   2.9965   3.0067   3.0189   3.0285   3.0354
     3.0692   3.0792   3.0868   3.1216   3.4132   3.4951   3.5595   3.6387
     3.6533   3.8558   3.9719   4.3155   4.5200   4.7270   5.0025   5.1702
     5.6546   5.7089   5.7812   5.8421   5.9043   6.0748   6.1742   6.2065
     6.9004   6.9300   7.0940   7.2977   7.5719   7.6188   7.6792   7.8599
     7.9151   7.9972   8.1926   8.2530   8.3008   8.3457   8.4561   8.5138
     8.5732   8.7479   8.9128

     occupation numbers 
     1.0000   1.0000   1.0000   1.0000   1.0000   1.0000   1.0000   1.0000
     1.0000   1.0000   1.0000   1.0000   1.0000   1.0000   1.0000   1.0000
     1.0000   1.0000   1.0000   1.0000   1.0000   1.0000   1.0000   1.0000
     1.0000   1.0000   1.0000   1.0000   1.0000   1.0000   1.0000   1.0000
     1.0000   1.0000   1.0000   1.0000   1.0000   1.0000   1.0000   1.0000
     1.0000   1.0000   1.0000   1.0000   1.0000   1.0000   1.0000   1.0000
     1.0000   1.0000   1.0000   1.0000   1.0000   1.0000   1.0000   1.0000
     1.0000   1.0000   1.0000   1.0000   1.0000   1.0000   1.0000   1.0000
     1.0000   1.0000   1.0000   1.0000   1.0000   1.0000   1.0000   1.0000
     1.0000   1.0000   1.0000   1.0000   1.0000   1.0000   1.0000   1.0000
     1.0000   1.0000   1.0000   1.0000   1.0000   1.0000   1.0000   1.0000
     1.0000   1.0000   1.0000   1.0000   1.0000   1.0000   1.0000   1.0000
     1.0000   1.0000   1.0000   1.0000   1.0000   1.0000   1.0000   1.0000
     1.0000   1.0000   1.0000   1.0000   1.0000   1.0000   1.0000   1.0000
     1.0000   1.0000   1.0000   1.0000   1.0000   1.0000   1.0000   1.0000
     1.0000   1.0000   1.0000   1.0000   1.0000   1.0000   1.0000   1.0000
     1.0000   1.0000   1.0000   1.0000   1.0000   1.0000   1.0000   1.0000
     1.0000   1.0000   1.0000   1.0000   1.0000   1.0000   1.0000   1.0000
     1.0000   1.0000   1.0000   1.0000   1.0000   1.0000   1.0000   1.0000
     1.0000   1.0000   1.0000   1.0000   1.0000   1.0000   1.0000   1.0000
     0.9999   0.9999   0.9999   0.9998   0.9993   0.9987   0.9985   0.9982
     0.9982   0.9977   0.9976   0.9970   0.9966   0.9963   0.9959   0.9950
     0.9947   0.9936   0.9930   0.9917   0.9882   0.9874   0.9865   0.9842
     0.9826   0.9800   0.9752   0.9643   0.9519   0.9475   0.9390   0.9350
     0.9222   0.9139   0.9078   0.9033   0.9008   0.8987   0.8938   0.8626
     0.8533   0.8197   0.7447   0.7409   0.7343   0.7295   0.7242   0.7171
     0.7136   0.7046   0.6997   0.6926   0.6873   0.6808   0.6757   0.6720
     0.6536   0.6481   0.6440   0.6245   0.4540   0.4063   0.3697   0.3262
     0.3184   0.2198   0.1723   0.0728   0.0393   0.0194   0.0067   0.0032
     0.0003   0.0002   0.0001   0.0001   0.0001   0.0000   0.0000   0.0000
     0.0000   0.0000   0.0000   0.0000   0.0000   0.0000   0.0000   0.0000
     0.0000   0.0000   0.0000   0.0000   0.0000   0.0000   0.0000   0.0000
     0.0000   0.0000   0.0000

          k =-0.5000 0.2500 0.0000 ( 65138 PWs)   bands (ev):

   -92.6923 -92.6417 -92.5463 -92.4996 -92.4418 -92.3986 -92.3817 -92.2619
   -56.0457 -56.0285 -55.9036 -55.8930 -55.8869 -55.8798 -55.8463 -55.8155
   -55.8005 -55.7980 -55.7912 -55.7492 -55.7299 -55.6931 -55.6728 -55.6415
   -55.6353 -55.5872 -55.5861 -55.5839 -55.5755 -55.5371 -55.5120 -55.4285
   -31.2657 -31.2538 -31.1084 -31.0605 -31.0380 -31.0227 -30.7566 -30.6174
   -29.8361 -29.7969 -29.7710 -29.6625 -14.9724 -14.9254 -14.8465 -14.7489
   -14.7090 -14.5818 -14.4889 -14.3634 -14.0564 -14.0247 -14.0126 -13.9703
   -13.9630 -13.9441 -13.9223 -13.8849 -13.8784 -13.8546 -13.8180 -13.8069
   -13.6909 -13.6290 -13.5800 -13.5744 -13.5552 -13.4662 -13.4584 -13.3250
   -13.2774 -13.1914 -13.1562 -13.0603 -13.0248 -13.0171 -13.0075 -12.9840
   -12.9518 -12.9325 -12.9198 -12.8822 -12.8306 -12.7217 -12.6467 -12.6276
   -12.6134 -12.6071 -12.5355 -12.5257 -12.3693 -12.3140 -12.2503 -12.1280
   -12.0953 -11.7619 -11.7490 -11.7347 -11.7230 -11.7011 -11.6709 -11.5918
   -11.5832 -11.5601 -11.5228 -11.4948 -11.4866  -2.4297  -2.3881  -2.2399
    -2.1979  -2.0366  -1.9608  -1.8182  -1.6832  -1.6261  -1.5993  -1.5601
    -1.5222  -1.4412  -1.3262  -1.2689  -1.2466  -1.2198  -1.1793  -1.1327
    -1.1143  -1.0725  -1.0582  -0.9965  -0.9686  -0.9289  -0.8939  -0.8653
    -0.8074  -0.7802  -0.7393  -0.7044  -0.5991  -0.5727  -0.4827  -0.4224
    -0.3896  -0.3331  -0.2486  -0.2164  -0.1127  -0.0779  -0.0172   0.0323
     0.0603   0.1294   0.1625   0.2011   0.2416   0.2809   0.5999   0.6532
     0.7303   0.7718   1.0262   1.0891   1.1579   1.1877   1.3617   1.3967
     1.4352   1.4476   1.4658   1.4834   1.5530   1.5955   1.6362   1.6671
     1.7871   1.8249   1.8558   1.8695   1.9097   1.9287   1.9452   1.9651
     1.9820   2.0015   2.0499   2.0618   2.0992   2.1230   2.1571   2.2132
     2.3394   2.4289   2.4501   2.4661   2.4754   2.5253   2.5625   2.6314
     2.6625   2.6685   2.7090   2.7396   2.7637   2.8472   2.8878   2.9015
     2.9064   2.9274   2.9503   2.9628   2.9779   2.9896   3.0116   3.0254
     3.0349   3.0433   3.0541   3.0659   3.5965   3.6348   3.7856   3.8049
     4.1042   4.1548   4.2060   4.4162   4.7946   4.8889   5.0563   5.0853
     5.4163   5.4407   5.5943   5.6298   5.7548   5.8033   6.3395   6.4008
     6.5017   6.6509   7.2459   7.3663   7.5488   7.7195   7.8004   7.8854
     7.9420   8.0378   8.2174   8.4243   8.5062   8.5278   8.5818   8.5961
     8.6715   8.7520   8.8152

     occupation numbers 
     1.0000   1.0000   1.0000   1.0000   1.0000   1.0000   1.0000   1.0000
     1.0000   1.0000   1.0000   1.0000   1.0000   1.0000   1.0000   1.0000
     1.0000   1.0000   1.0000   1.0000   1.0000   1.0000   1.0000   1.0000
     1.0000   1.0000   1.0000   1.0000   1.0000   1.0000   1.0000   1.0000
     1.0000   1.0000   1.0000   1.0000   1.0000   1.0000   1.0000   1.0000
     1.0000   1.0000   1.0000   1.0000   1.0000   1.0000   1.0000   1.0000
     1.0000   1.0000   1.0000   1.0000   1.0000   1.0000   1.0000   1.0000
     1.0000   1.0000   1.0000   1.0000   1.0000   1.0000   1.0000   1.0000
     1.0000   1.0000   1.0000   1.0000   1.0000   1.0000   1.0000   1.0000
     1.0000   1.0000   1.0000   1.0000   1.0000   1.0000   1.0000   1.0000
     1.0000   1.0000   1.0000   1.0000   1.0000   1.0000   1.0000   1.0000
     1.0000   1.0000   1.0000   1.0000   1.0000   1.0000   1.0000   1.0000
     1.0000   1.0000   1.0000   1.0000   1.0000   1.0000   1.0000   1.0000
     1.0000   1.0000   1.0000   1.0000   1.0000   1.0000   1.0000   1.0000
     1.0000   1.0000   1.0000   1.0000   1.0000   1.0000   1.0000   1.0000
     1.0000   1.0000   1.0000   1.0000   1.0000   1.0000   1.0000   1.0000
     1.0000   1.0000   1.0000   1.0000   1.0000   1.0000   1.0000   1.0000
     1.0000   1.0000   1.0000   1.0000   1.0000   1.0000   1.0000   1.0000
     1.0000   1.0000   1.0000   1.0000   1.0000   1.0000   1.0000   1.0000
     1.0000   1.0000   1.0000   1.0000   1.0000   1.0000   1.0000   1.0000
     0.9999   0.9999   0.9997   0.9996   0.9994   0.9993   0.9983   0.9980
     0.9976   0.9975   0.9972   0.9970   0.9959   0.9951   0.9942   0.9934
     0.9892   0.9875   0.9860   0.9852   0.9829   0.9816   0.9805   0.9791
     0.9778   0.9762   0.9719   0.9707   0.9668   0.9641   0.9599   0.9522
     0.9304   0.9109   0.9057   0.9016   0.8992   0.8855   0.8744   0.8521
     0.8411   0.8390   0.8238   0.8118   0.8020   0.7657   0.7468   0.7403
     0.7379   0.7276   0.7163   0.7099   0.7022   0.6962   0.6847   0.6774
     0.6722   0.6677   0.6619   0.6554   0.3491   0.3283   0.2519   0.2428
     0.1268   0.1119   0.0980   0.0543   0.0151   0.0105   0.0053   0.0047
     0.0010   0.0009   0.0004   0.0003   0.0002   0.0001   0.0000   0.0000
     0.0000   0.0000   0.0000   0.0000   0.0000   0.0000   0.0000   0.0000
     0.0000   0.0000   0.0000   0.0000   0.0000   0.0000   0.0000   0.0000
     0.0000   0.0000   0.0000

     the Fermi energy is     3.3354 ev

!    total energy              =   -4441.66173483 Ry
     estimated scf accuracy    <          5.1E-09 Ry
     smearing contrib. (-TS)   =      -1.15500776 Ry
     internal energy E=F+TS    =   -4440.50672706 Ry

     The total energy is F=E-TS. E is the sum of the following terms:
     one-electron contribution =  -20803.80814908 Ry
     hartree contribution      =   10534.01724858 Ry
     xc contribution           =    -694.18518568 Ry
     ewald contribution        =    6799.63855693 Ry
     one-center paw contrib.   =    -276.16919780 Ry
      -> PAW hartree energy AE =      25.16897444 Ry
      -> PAW hartree energy PS =     -25.05280550 Ry
      -> PAW xc energy AE      =     -16.51836495 Ry
      -> PAW xc energy PS      =       6.87786675 Ry
      -> total E_H with PAW    =   10534.13341751 Ry
      -> total E_XC with PAW   =    -703.82568388 Ry

     convergence has been achieved in  46 iterations

     Writing all to output data dir /bsuhome/zayahcortright/scratch/pwscf.save/
 
     init_run     :      8.18s CPU      8.73s WALL (       1 calls)
     electrons    :    763.29s CPU    837.39s WALL (       1 calls)

     Called by init_run:
     wfcinit      :      6.27s CPU      6.48s WALL (       1 calls)
     wfcinit:atom :      0.04s CPU      0.07s WALL (       5 calls)
     wfcinit:wfcr :      5.97s CPU      6.08s WALL (       5 calls)
     potinit      :      0.17s CPU      0.20s WALL (       1 calls)
     hinit0       :      0.70s CPU      0.80s WALL (       1 calls)

     Called by electrons:
     c_bands      :    616.16s CPU    627.53s WALL (      46 calls)
     sum_band     :    109.92s CPU    144.12s WALL (      46 calls)
     v_of_rho     :      5.12s CPU      5.46s WALL (      47 calls)
     v_h          :      0.43s CPU      0.43s WALL (      47 calls)
     v_xc         :      4.69s CPU      5.03s WALL (      47 calls)
     newd         :     18.03s CPU     45.87s WALL (      47 calls)
     PAW_pot      :      1.69s CPU      1.72s WALL (      47 calls)
     mix_rho      :     11.78s CPU     12.14s WALL (      46 calls)

     Called by c_bands:
     init_us_2    :      6.00s CPU      6.09s WALL (     465 calls)
     init_us_2:cp :      6.00s CPU      6.09s WALL (     465 calls)
     cegterg      :    577.05s CPU    588.06s WALL (     230 calls)

     Called by sum_band:
     sum_band:wei :      0.33s CPU      0.34s WALL (      46 calls)
     sum_band:loo :     85.68s CPU     86.35s WALL (      46 calls)
     sum_band:buf :      1.23s CPU      1.26s WALL (     230 calls)
     sum_band:ini :      2.63s CPU      2.64s WALL (     230 calls)
     sum_band:cal :     17.56s CPU     17.63s WALL (     230 calls)
     sum_band:bec :      0.51s CPU      0.53s WALL (     230 calls)
     addusdens    :     19.38s CPU     52.84s WALL (      46 calls)
                                        0.00s GPU  (      46 calls)
     addusd:skk   :      0.27s CPU      1.79s WALL (     184 calls)
                                        0.00s GPU  (     184 calls)

     Called by *egterg:
     cdiaghg      :     56.33s CPU     56.59s WALL (    1331 calls)
     cegterg:over :     46.19s CPU     46.37s WALL (    1101 calls)
     cegterg:upda :     49.08s CPU     50.14s WALL (    1101 calls)
     cegterg:last :     64.79s CPU     65.06s WALL (     415 calls)
     cdiaghg:chol :      3.30s CPU      3.32s WALL (    1331 calls)
     cdiaghg:inve :      3.57s CPU      3.58s WALL (    1331 calls)
     cdiaghg:para :      7.27s CPU      7.33s WALL (    2662 calls)
     h_psi        :    299.01s CPU    303.43s WALL (    1336 calls)
     s_psi        :     37.24s CPU     37.35s WALL (    1336 calls)
     g_psi        :      2.58s CPU      2.59s WALL (    1101 calls)

     Called by h_psi:
     h_psi:calbec :     43.33s CPU     43.52s WALL (    1336 calls)
     vloc_psi     :    213.48s CPU    215.36s WALL (    1336 calls)
     add_vuspsi   :     36.79s CPU     36.98s WALL (    1336 calls)

     General routines
     calbec       :     60.87s CPU     61.14s WALL (    1566 calls)
     fft          :      3.97s CPU      4.04s WALL (     609 calls)
     ffts         :      4.43s CPU      4.46s WALL (    4936 calls)
     fftw         :    185.43s CPU    186.83s WALL (  312974 calls)
     interpolate  :      0.39s CPU      0.41s WALL (      47 calls)
 
     Parallel routines

     PAW routines
     PAW_pot      :      1.69s CPU      1.72s WALL (      47 calls)
 
     PWSCF        :  12m53.12s CPU  14m10.66s WALL

 
   This run was terminated on:  17:54: 6  21Jun2024            

=------------------------------------------------------------------------------=
   JOB DONE.
=------------------------------------------------------------------------------=
