
     Program PWSCF v.7.2 starts on 21Jun2024 at 23:34:20 

     This program is part of the open-source Quantum ESPRESSO suite
     for quantum simulation of materials; please cite
         "P. Giannozzi et al., J. Phys.:Condens. Matter 21 395502 (2009);
         "P. Giannozzi et al., J. Phys.:Condens. Matter 29 465901 (2017);
         "P. Giannozzi et al., J. Chem. Phys. 152 154105 (2020);
          URL http://www.quantum-espresso.org", 
     in publications or presentations arising from this work. More details at
     http://www.quantum-espresso.org/quote

     Parallel version (MPI & OpenMP), running on      48 processor cores
     Number of MPI processes:                48
     Threads/MPI process:                     1

     MPI processes distributed on     1 nodes
     60574 MiB available memory on the printing compute node when the environment starts
 
     Reading input from espresso.pwi
Warning: card &CELL ignored
Warning: card / ignored
Warning: card &FCP ignored
Warning: card / ignored
Warning: card &RISM ignored
Warning: card / ignored

     Current dimensions of program PWSCF are:
     Max number of different atomic species (ntypx) = 10
     Max number of k-points (npk) =  40000
     Max angular momentum in pseudopotentials (lmaxx) =  4
     file O.pbe-n-kjpaw_psl.0.1.UPF: wavefunction(s)  2P renormalized
     signal trapping enabled: kill the code with -SIGUSR1 to stop cleanly the simulation 
 
     K-points division:     npool     =       2
     R & G space division:  proc/nbgrp/npool/nimage =      24
     Subspace diagonalization in iterative solution of the eigenvalue problem:
     one sub-group per band group will be used
     scalapack distributed-memory algorithm (size of sub-group:  3*  3 procs)

 
     Parallelization info
     --------------------
     sticks:   dense  smooth     PW     G-vecs:    dense   smooth      PW
     Min         350     175     47                61430    21716    3036
     Max         351     177     48                61449    21727    3041
     Sum        8421    4205   1137              1474595   521381   72913
 
     Using Slab Decomposition
 


     bravais-lattice index     =            0
     lattice parameter (alat)  =      14.8599  a.u.
     unit-cell volume          =    8305.1283 (a.u.)^3
     number of atoms/cell      =           49
     number of atomic types    =            3
     number of electrons       =       430.00
     number of Kohn-Sham states=          258
     kinetic-energy cutoff     =      60.0000  Ry
     charge density cutoff     =     480.0000  Ry
     scf convergence threshold =      1.0E-08
     mixing beta               =       0.1500
     number of iterations used =            8  local-TF  mixing
     Exchange-correlation= SLA  PW   PBE  PBE
                           (   1   4   3   4   0   0   0)

     celldm(1)=  14.859904  celldm(2)=   0.000000  celldm(3)=   0.000000
     celldm(4)=   0.000000  celldm(5)=   0.000000  celldm(6)=   0.000000

     crystal axes: (cart. coord. in units of alat)
               a(1) = (   1.000000   0.000000   0.000000 )  
               a(2) = (   0.000000   1.000000   0.000000 )  
               a(3) = (   0.000000   0.000000   2.531036 )  

     reciprocal axes: (cart. coord. in units 2 pi/alat)
               b(1) = (  1.000000  0.000000  0.000000 )  
               b(2) = (  0.000000  1.000000  0.000000 )  
               b(3) = (  0.000000  0.000000  0.395095 )  


     PseudoPot. # 1 for Sr read from file:
     /bsuhome/zayahcortright/q-e/pseudo/Sr_pbe_v1.uspp.F.UPF
     MD5 check sum: 6b418c05fbe9db5448babca5e47b7a5b
     Pseudo is Ultrasoft + core correction, Zval = 10.0
     Generated by new atomic code, or converted to UPF format
     Using radial grid of  883 points,  6 beta functions with: 
                l(1) =   0
                l(2) =   0
                l(3) =   1
                l(4) =   1
                l(5) =   2
                l(6) =   2
     Q(r) pseudized with  6 coefficients,  rinner =    1.400   1.400   1.400
                                                       1.400   1.400

     PseudoPot. # 2 for O  read from file:
     /bsuhome/zayahcortright/q-e/pseudo/O.pbe-n-kjpaw_psl.0.1.UPF
     MD5 check sum: 0234752ac141de4415c5fc33072bef88
     Pseudo is Projector augmented-wave + core cor, Zval =  6.0
     Generated using "atomic" code by A. Dal Corso  v.5.0.99 svn rev. 10869
     Shape of augmentation charge: BESSEL
     Using radial grid of 1095 points,  4 beta functions with: 
                l(1) =   0
                l(2) =   0
                l(3) =   1
                l(4) =   1
     Q(r) pseudized with 0 coefficients 


     PseudoPot. # 3 for Co read from file:
     /bsuhome/zayahcortright/q-e/pseudo/Co_pbe_v1.2.uspp.F.UPF
     MD5 check sum: 5f91765df6ddd3222702df6e7b74a16d
     Pseudo is Ultrasoft + core correction, Zval = 17.0
     Generated by new atomic code, or converted to UPF format
     Using radial grid of  863 points,  6 beta functions with: 
                l(1) =   0
                l(2) =   0
                l(3) =   1
                l(4) =   1
                l(5) =   2
                l(6) =   2
     Q(r) pseudized with  8 coefficients,  rinner =    1.200   1.200   1.200
                                                       1.200   1.200

     atomic species   valence    mass     pseudopotential
        Sr            10.00    87.62000     Sr( 1.00)
        O              6.00    15.99900     O ( 1.00)
        Co            17.00    58.93319     Co( 1.00)

     No symmetry found


                                    s                        frac. trans.

      isym =  1     identity                                     

 cryst.   s( 1) = (     1          0          0      )
                  (     0          1          0      )
                  (     0          0          1      )

 cart.    s( 1) = (  1.0000000  0.0000000  0.0000000 )
                  (  0.0000000  1.0000000  0.0000000 )
                  (  0.0000000  0.0000000  1.0000000 )


   Cartesian axes

     site n.     atom                  positions (alat units)
         1           Sr  tau(   1) = (   0.2508693   0.7491307   1.7574407  )
         2           O   tau(   2) = (   0.4985141   0.5014859   1.7715967  )
         3           Sr  tau(   3) = (   0.7482398   0.7454518   1.7648669  )
         4           Sr  tau(   4) = (   0.7441748   0.2558252   1.7667843  )
         5           Sr  tau(   5) = (   0.2508693   0.7491307   1.2696799  )
         6           Sr  tau(   6) = (   0.2508693   0.7491307   0.7632319  )
         7           Co  tau(   7) = (   0.4998914   0.5001086   1.0164559  )
         8           Co  tau(   8) = (   0.4936915   0.5063085   1.5135603  )
         9           O   tau(   9) = (   0.4988895   0.7610401   1.0164559  )
        10           O   tau(  10) = (   0.2389599   0.5011105   1.0164559  )
        11           O   tau(  11) = (   0.0070918   0.7374880   1.0164559  )
        12           O   tau(  12) = (   0.0088340   0.7405089   1.5135603  )
        13           O   tau(  13) = (   0.5066944   0.7415376   1.5135603  )
        14           O   tau(  14) = (   0.2584624   0.4933056   1.5135603  )
        15           O   tau(  15) = (   0.4985141   0.5014859   0.7773880  )
        16           O   tau(  16) = (   0.4985141   0.5014859   1.2555238  )
        17           Sr  tau(  17) = (   0.7482398   0.7454518   0.7706582  )
        18           Sr  tau(  18) = (   0.7482398   0.7454518   1.2622536  )
        19           Sr  tau(  19) = (   0.7441748   0.2558252   0.7725755  )
        20           Sr  tau(  20) = (   0.7441748   0.2558252   1.2603363  )
        21           O   tau(  21) = (   0.7322655   0.0078049   1.5135603  )
        22           O   tau(  22) = (   0.7558175   0.4996027   1.5135603  )
        23           O   tau(  23) = (   0.5003973   0.2441825   1.5135603  )
        24           O   tau(  24) = (   0.7527966   0.4978604   1.0164559  )
        25           O   tau(  25) = (   0.5021396   0.2472034   1.0164559  )
        26           O   tau(  26) = (   0.7517679   0.0000000   1.0164559  )
        27           O   tau(  27) = (   0.0114961   0.4948124   1.7455321  )
        28           O   tau(  28) = (   0.0048226   0.0077944   1.7715967  )
        29           Sr  tau(  29) = (   0.2545482   0.2517602   1.7648669  )
        30           O   tau(  30) = (   0.5048017   0.0015068   1.7786929  )
        31           Co  tau(  31) = (   0.0056869   0.5006215   1.0164559  )
        32           Co  tau(  32) = (   0.0065315   0.4997770   1.5135603  )
        33           Co  tau(  33) = (   0.0061999   0.0064171   1.0164559  )
        34           Co  tau(  34) = (   0.0000000   0.0126169   1.5135603  )
        35           O   tau(  35) = (   0.0114961   0.4948124   1.2815885  )
        36           O   tau(  36) = (   0.0114961   0.4948124   0.7513233  )
        37           O   tau(  37) = (   0.0051979   0.2673486   1.0164559  )
        38           O   tau(  38) = (   0.0130029   0.2478461   1.5135603  )
        39           O   tau(  39) = (   0.0048226   0.0077944   0.7773880  )
        40           O   tau(  40) = (   0.0048226   0.0077944   1.2555238  )
        41           Sr  tau(  41) = (   0.2545482   0.2517602   0.7706582  )
        42           Sr  tau(  42) = (   0.2545482   0.2517602   1.2622536  )
        43           Co  tau(  43) = (   0.4989925   0.0073160   1.5135603  )
        44           Co  tau(  44) = (   0.4998370   0.0064714   1.0164559  )
        45           O   tau(  45) = (   0.5048017   0.0015068   0.7844841  )
        46           O   tau(  46) = (   0.5048017   0.0015068   1.2484277  )
        47           O   tau(  47) = (   0.2621260   0.0059111   1.5135603  )
        48           O   tau(  48) = (   0.2591051   0.0041689   1.0164559  )
        49           O   tau(  49) = (   0.7108228   0.5686583   2.1602013  )

   Crystallographic axes

     site n.     atom                  positions (cryst. coord.)
         1           Sr  tau(   1) = (  0.2508693  0.7491307  0.6943562  )
         2           O   tau(   2) = (  0.4985141  0.5014859  0.6999492  )
         3           Sr  tau(   3) = (  0.7482398  0.7454518  0.6972903  )
         4           Sr  tau(   4) = (  0.7441748  0.2558252  0.6980478  )
         5           Sr  tau(   5) = (  0.2508693  0.7491307  0.5016443  )
         6           Sr  tau(   6) = (  0.2508693  0.7491307  0.3015492  )
         7           Co  tau(   7) = (  0.4998914  0.5001086  0.4015968  )
         8           Co  tau(   8) = (  0.4936915  0.5063085  0.5980003  )
         9           O   tau(   9) = (  0.4988895  0.7610401  0.4015968  )
        10           O   tau(  10) = (  0.2389599  0.5011105  0.4015968  )
        11           O   tau(  11) = (  0.0070918  0.7374880  0.4015968  )
        12           O   tau(  12) = (  0.0088340  0.7405089  0.5980003  )
        13           O   tau(  13) = (  0.5066944  0.7415376  0.5980003  )
        14           O   tau(  14) = (  0.2584624  0.4933056  0.5980003  )
        15           O   tau(  15) = (  0.4985141  0.5014859  0.3071422  )
        16           O   tau(  16) = (  0.4985141  0.5014859  0.4960513  )
        17           Sr  tau(  17) = (  0.7482398  0.7454518  0.3044833  )
        18           Sr  tau(  18) = (  0.7482398  0.7454518  0.4987103  )
        19           Sr  tau(  19) = (  0.7441748  0.2558252  0.3052408  )
        20           Sr  tau(  20) = (  0.7441748  0.2558252  0.4979527  )
        21           O   tau(  21) = (  0.7322655  0.0078049  0.5980003  )
        22           O   tau(  22) = (  0.7558175  0.4996027  0.5980003  )
        23           O   tau(  23) = (  0.5003973  0.2441825  0.5980003  )
        24           O   tau(  24) = (  0.7527966  0.4978604  0.4015968  )
        25           O   tau(  25) = (  0.5021396  0.2472034  0.4015968  )
        26           O   tau(  26) = (  0.7517679  0.0000000  0.4015968  )
        27           O   tau(  27) = (  0.0114961  0.4948124  0.6896512  )
        28           O   tau(  28) = (  0.0048226  0.0077944  0.6999492  )
        29           Sr  tau(  29) = (  0.2545482  0.2517602  0.6972903  )
        30           O   tau(  30) = (  0.5048017  0.0015068  0.7027529  )
        31           Co  tau(  31) = (  0.0056869  0.5006215  0.4015968  )
        32           Co  tau(  32) = (  0.0065315  0.4997770  0.5980003  )
        33           Co  tau(  33) = (  0.0061999  0.0064171  0.4015968  )
        34           Co  tau(  34) = (  0.0000000  0.0126169  0.5980003  )
        35           O   tau(  35) = (  0.0114961  0.4948124  0.5063494  )
        36           O   tau(  36) = (  0.0114961  0.4948124  0.2968442  )
        37           O   tau(  37) = (  0.0051979  0.2673486  0.4015968  )
        38           O   tau(  38) = (  0.0130029  0.2478461  0.5980003  )
        39           O   tau(  39) = (  0.0048226  0.0077944  0.3071422  )
        40           O   tau(  40) = (  0.0048226  0.0077944  0.4960513  )
        41           Sr  tau(  41) = (  0.2545482  0.2517602  0.3044833  )
        42           Sr  tau(  42) = (  0.2545482  0.2517602  0.4987103  )
        43           Co  tau(  43) = (  0.4989925  0.0073160  0.5980003  )
        44           Co  tau(  44) = (  0.4998370  0.0064714  0.4015968  )
        45           O   tau(  45) = (  0.5048017  0.0015068  0.3099459  )
        46           O   tau(  46) = (  0.5048017  0.0015068  0.4932477  )
        47           O   tau(  47) = (  0.2621260  0.0059111  0.5980003  )
        48           O   tau(  48) = (  0.2591051  0.0041689  0.4015968  )
        49           O   tau(  49) = (  0.7108228  0.5686583  0.8534850  )

     number of k points=    10  Gaussian smearing, width (Ry)=  0.0700
                       cart. coord. in units 2pi/alat
        k(    1) = (   0.0000000   0.0000000   0.0000000), wk =   0.1250000
        k(    2) = (   0.0000000   0.2500000   0.0000000), wk =   0.2500000
        k(    3) = (   0.0000000  -0.5000000   0.0000000), wk =   0.1250000
        k(    4) = (   0.2500000   0.2500000   0.0000000), wk =   0.2500000
        k(    5) = (   0.2500000  -0.5000000   0.0000000), wk =   0.2500000
        k(    6) = (  -0.5000000  -0.5000000   0.0000000), wk =   0.1250000
        k(    7) = (   0.2500000   0.0000000   0.0000000), wk =   0.2500000
        k(    8) = (  -0.5000000   0.0000000   0.0000000), wk =   0.1250000
        k(    9) = (  -0.2500000   0.2500000   0.0000000), wk =   0.2500000
        k(   10) = (  -0.5000000   0.2500000   0.0000000), wk =   0.2500000

                       cryst. coord.
        k(    1) = (   0.0000000   0.0000000   0.0000000), wk =   0.1250000
        k(    2) = (   0.0000000   0.2500000   0.0000000), wk =   0.2500000
        k(    3) = (   0.0000000  -0.5000000   0.0000000), wk =   0.1250000
        k(    4) = (   0.2500000   0.2500000   0.0000000), wk =   0.2500000
        k(    5) = (   0.2500000  -0.5000000   0.0000000), wk =   0.2500000
        k(    6) = (  -0.5000000  -0.5000000   0.0000000), wk =   0.1250000
        k(    7) = (   0.2500000   0.0000000   0.0000000), wk =   0.2500000
        k(    8) = (  -0.5000000   0.0000000   0.0000000), wk =   0.1250000
        k(    9) = (  -0.2500000   0.2500000   0.0000000), wk =   0.2500000
        k(   10) = (  -0.5000000   0.2500000   0.0000000), wk =   0.2500000

     Dense  grid:  1474595 G-vectors     FFT dimensions: ( 108, 108, 270)

     Smooth grid:   521381 G-vectors     FFT dimensions: (  75,  75, 192)

     Dynamical RAM for                 wfc:      10.69 MB

     Dynamical RAM for     wfc (w. buffer):      64.13 MB

     Dynamical RAM for           str. fact:       2.81 MB

     Dynamical RAM for           local pot:       0.00 MB

     Dynamical RAM for          nlocal pot:      24.53 MB

     Dynamical RAM for                qrad:       5.27 MB

     Dynamical RAM for          rho,v,vnew:       6.02 MB

     Dynamical RAM for               rhoin:       2.01 MB

     Dynamical RAM for            rho*nmix:      15.00 MB

     Dynamical RAM for           G-vectors:       3.68 MB

     Dynamical RAM for          h,s,v(r/c):       1.35 MB

     Dynamical RAM for          <psi|beta>:       2.33 MB

     Dynamical RAM for                 psi:      21.38 MB

     Dynamical RAM for                hpsi:      21.38 MB

     Dynamical RAM for                spsi:      21.38 MB

     Dynamical RAM for      wfcinit/wfcrot:      34.39 MB

     Dynamical RAM for           addusdens:     101.26 MB

     Estimated static dynamical RAM per process >     117.53 MB

     Estimated max dynamical RAM per process >     233.79 MB

     Estimated total dynamical RAM >      10.61 GB

     Check: negative core charge=   -0.000004

     Initial potential from superposition of free atoms

     starting charge     421.5961, renormalised to     430.0000

     negative rho (up, down):  7.826E-01 0.000E+00
     Starting wfcs are  376 randomized atomic wfcs
     Checking if some PAW data can be deallocated... 
       PAW data deallocated on   19 nodes for type:  2

     total cpu time spent up to now is        9.5 secs

     Self-consistent Calculation

     iteration #  1     ecut=    60.00 Ry     beta= 0.15
     Davidson diagonalization with overlap

---- Real-time Memory Report at c_bands before calling an iterative solver
             0 MiB given to the printing process from OS
             0 MiB allocation reported by mallinfo(arena+hblkhd)
         51482 MiB available memory on the node where the printing process lives
------------------
     ethr =  1.00E-02,  avg # of iterations =  2.0

     negative rho (up, down):  7.717E-01 0.000E+00

     total cpu time spent up to now is       25.2 secs

     total energy              =   -4445.22514749 Ry
     estimated scf accuracy    <      53.96079062 Ry

     iteration #  2     ecut=    60.00 Ry     beta= 0.15
     Davidson diagonalization with overlap

---- Real-time Memory Report at c_bands before calling an iterative solver
             0 MiB given to the printing process from OS
             0 MiB allocation reported by mallinfo(arena+hblkhd)
         51829 MiB available memory on the node where the printing process lives
------------------
     ethr =  1.00E-02,  avg # of iterations =  1.0

     negative rho (up, down):  7.592E-01 0.000E+00

     total cpu time spent up to now is       37.8 secs

     total energy              =   -4441.96878820 Ry
     estimated scf accuracy    <      28.29801925 Ry

     iteration #  3     ecut=    60.00 Ry     beta= 0.15
     Davidson diagonalization with overlap

---- Real-time Memory Report at c_bands before calling an iterative solver
             0 MiB given to the printing process from OS
             0 MiB allocation reported by mallinfo(arena+hblkhd)
         51081 MiB available memory on the node where the printing process lives
------------------
     ethr =  6.58E-03,  avg # of iterations =  1.0

     negative rho (up, down):  7.530E-01 0.000E+00

     total cpu time spent up to now is       50.7 secs

     total energy              =   -4442.58877686 Ry
     estimated scf accuracy    <      29.68567611 Ry

     iteration #  4     ecut=    60.00 Ry     beta= 0.15
     Davidson diagonalization with overlap

---- Real-time Memory Report at c_bands before calling an iterative solver
             0 MiB given to the printing process from OS
             0 MiB allocation reported by mallinfo(arena+hblkhd)
         51033 MiB available memory on the node where the printing process lives
------------------
     ethr =  6.58E-03,  avg # of iterations =  1.0

     negative rho (up, down):  7.533E-01 0.000E+00

     total cpu time spent up to now is       63.4 secs

     total energy              =   -4442.74089554 Ry
     estimated scf accuracy    <      27.93963077 Ry

     iteration #  5     ecut=    60.00 Ry     beta= 0.15
     Davidson diagonalization with overlap

---- Real-time Memory Report at c_bands before calling an iterative solver
             0 MiB given to the printing process from OS
             0 MiB allocation reported by mallinfo(arena+hblkhd)
         51019 MiB available memory on the node where the printing process lives
------------------
     ethr =  6.50E-03,  avg # of iterations =  1.0

     negative rho (up, down):  7.402E-01 0.000E+00

     total cpu time spent up to now is       76.1 secs

     total energy              =   -4442.20038352 Ry
     estimated scf accuracy    <      24.56011406 Ry

     iteration #  6     ecut=    60.00 Ry     beta= 0.15
     Davidson diagonalization with overlap

---- Real-time Memory Report at c_bands before calling an iterative solver
             0 MiB given to the printing process from OS
             0 MiB allocation reported by mallinfo(arena+hblkhd)
         50994 MiB available memory on the node where the printing process lives
------------------
     ethr =  5.71E-03,  avg # of iterations =  1.0

     negative rho (up, down):  7.454E-01 0.000E+00

     total cpu time spent up to now is       88.7 secs

     total energy              =   -4442.45748589 Ry
     estimated scf accuracy    <      52.02239469 Ry

     iteration #  7     ecut=    60.00 Ry     beta= 0.15
     Davidson diagonalization with overlap

---- Real-time Memory Report at c_bands before calling an iterative solver
             0 MiB given to the printing process from OS
             0 MiB allocation reported by mallinfo(arena+hblkhd)
         50978 MiB available memory on the node where the printing process lives
------------------
     ethr =  5.71E-03,  avg # of iterations =  1.0

     negative rho (up, down):  7.505E-01 0.000E+00

     total cpu time spent up to now is      101.3 secs

     total energy              =   -4439.85608149 Ry
     estimated scf accuracy    <      34.62661387 Ry

     iteration #  8     ecut=    60.00 Ry     beta= 0.15
     Davidson diagonalization with overlap

---- Real-time Memory Report at c_bands before calling an iterative solver
             0 MiB given to the printing process from OS
             0 MiB allocation reported by mallinfo(arena+hblkhd)
         50960 MiB available memory on the node where the printing process lives
------------------
     ethr =  5.71E-03,  avg # of iterations =  1.0

     negative rho (up, down):  7.466E-01 0.000E+00

     total cpu time spent up to now is      113.7 secs

     total energy              =   -4440.77963627 Ry
     estimated scf accuracy    <       7.61565984 Ry

     iteration #  9     ecut=    60.00 Ry     beta= 0.15
     Davidson diagonalization with overlap

---- Real-time Memory Report at c_bands before calling an iterative solver
             0 MiB given to the printing process from OS
             0 MiB allocation reported by mallinfo(arena+hblkhd)
         50940 MiB available memory on the node where the printing process lives
------------------
     ethr =  1.77E-03,  avg # of iterations =  1.5

     negative rho (up, down):  7.557E-01 0.000E+00

     total cpu time spent up to now is      127.2 secs

     total energy              =   -4441.30574608 Ry
     estimated scf accuracy    <       7.94674525 Ry

     iteration # 10     ecut=    60.00 Ry     beta= 0.15
     Davidson diagonalization with overlap

---- Real-time Memory Report at c_bands before calling an iterative solver
             0 MiB given to the printing process from OS
             0 MiB allocation reported by mallinfo(arena+hblkhd)
         50922 MiB available memory on the node where the printing process lives
------------------
     ethr =  1.77E-03,  avg # of iterations =  2.0

     negative rho (up, down):  7.696E-01 0.000E+00

     total cpu time spent up to now is      141.1 secs

     total energy              =   -4439.46285729 Ry
     estimated scf accuracy    <      35.94469567 Ry

     iteration # 11     ecut=    60.00 Ry     beta= 0.15
     Davidson diagonalization with overlap

---- Real-time Memory Report at c_bands before calling an iterative solver
             0 MiB given to the printing process from OS
             0 MiB allocation reported by mallinfo(arena+hblkhd)
         50905 MiB available memory on the node where the printing process lives
------------------
     ethr =  1.77E-03,  avg # of iterations =  5.8

     negative rho (up, down):  7.791E-01 0.000E+00

     total cpu time spent up to now is      156.6 secs

     total energy              =   -4440.48277811 Ry
     estimated scf accuracy    <       1.37853838 Ry

     iteration # 12     ecut=    60.00 Ry     beta= 0.15
     Davidson diagonalization with overlap

---- Real-time Memory Report at c_bands before calling an iterative solver
             0 MiB given to the printing process from OS
             0 MiB allocation reported by mallinfo(arena+hblkhd)
         50790 MiB available memory on the node where the printing process lives
------------------
     ethr =  3.21E-04,  avg # of iterations = 13.2

     negative rho (up, down):  7.828E-01 0.000E+00

     total cpu time spent up to now is      177.0 secs

     total energy              =   -4440.52160097 Ry
     estimated scf accuracy    <       0.73863749 Ry

     iteration # 13     ecut=    60.00 Ry     beta= 0.15
     Davidson diagonalization with overlap

---- Real-time Memory Report at c_bands before calling an iterative solver
             0 MiB given to the printing process from OS
             0 MiB allocation reported by mallinfo(arena+hblkhd)
         50278 MiB available memory on the node where the printing process lives
------------------
     ethr =  1.72E-04,  avg # of iterations =  3.0

     negative rho (up, down):  7.970E-01 0.000E+00

     total cpu time spent up to now is      191.1 secs

     total energy              =   -4440.45385486 Ry
     estimated scf accuracy    <       0.75868922 Ry

     iteration # 14     ecut=    60.00 Ry     beta= 0.15
     Davidson diagonalization with overlap

---- Real-time Memory Report at c_bands before calling an iterative solver
             0 MiB given to the printing process from OS
             0 MiB allocation reported by mallinfo(arena+hblkhd)
         50313 MiB available memory on the node where the printing process lives
------------------
     ethr =  1.72E-04,  avg # of iterations =  2.0

     negative rho (up, down):  8.207E-01 0.000E+00

     total cpu time spent up to now is      205.2 secs

     total energy              =   -4440.38584755 Ry
     estimated scf accuracy    <       0.61610586 Ry

     iteration # 15     ecut=    60.00 Ry     beta= 0.15
     Davidson diagonalization with overlap

---- Real-time Memory Report at c_bands before calling an iterative solver
             0 MiB given to the printing process from OS
             0 MiB allocation reported by mallinfo(arena+hblkhd)
         50330 MiB available memory on the node where the printing process lives
------------------
     ethr =  1.43E-04,  avg # of iterations =  5.9

     negative rho (up, down):  8.209E-01 0.000E+00

     total cpu time spent up to now is      220.7 secs

     total energy              =   -4440.37978636 Ry
     estimated scf accuracy    <       0.58366051 Ry

     iteration # 16     ecut=    60.00 Ry     beta= 0.15
     Davidson diagonalization with overlap

---- Real-time Memory Report at c_bands before calling an iterative solver
             0 MiB given to the printing process from OS
             0 MiB allocation reported by mallinfo(arena+hblkhd)
         50359 MiB available memory on the node where the printing process lives
------------------
     ethr =  1.36E-04,  avg # of iterations =  8.3

     negative rho (up, down):  8.174E-01 0.000E+00

     total cpu time spent up to now is      237.5 secs

     total energy              =   -4440.39224736 Ry
     estimated scf accuracy    <       0.30221271 Ry

     iteration # 17     ecut=    60.00 Ry     beta= 0.15
     Davidson diagonalization with overlap

---- Real-time Memory Report at c_bands before calling an iterative solver
             0 MiB given to the printing process from OS
             0 MiB allocation reported by mallinfo(arena+hblkhd)
         50409 MiB available memory on the node where the printing process lives
------------------
     ethr =  7.03E-05,  avg # of iterations =  3.1

     negative rho (up, down):  8.128E-01 0.000E+00

     total cpu time spent up to now is      252.3 secs

     total energy              =   -4440.39299001 Ry
     estimated scf accuracy    <       0.36374431 Ry

     iteration # 18     ecut=    60.00 Ry     beta= 0.15
     Davidson diagonalization with overlap

---- Real-time Memory Report at c_bands before calling an iterative solver
             0 MiB given to the printing process from OS
             0 MiB allocation reported by mallinfo(arena+hblkhd)
         50415 MiB available memory on the node where the printing process lives
------------------
     ethr =  7.03E-05,  avg # of iterations =  1.0

     negative rho (up, down):  8.161E-01 0.000E+00

     total cpu time spent up to now is      265.4 secs

     total energy              =   -4440.36012924 Ry
     estimated scf accuracy    <       0.21795992 Ry

     iteration # 19     ecut=    60.00 Ry     beta= 0.15
     Davidson diagonalization with overlap

---- Real-time Memory Report at c_bands before calling an iterative solver
             0 MiB given to the printing process from OS
             0 MiB allocation reported by mallinfo(arena+hblkhd)
         50418 MiB available memory on the node where the printing process lives
------------------
     ethr =  5.07E-05,  avg # of iterations =  7.8

     negative rho (up, down):  8.157E-01 0.000E+00

     total cpu time spent up to now is      281.9 secs

     total energy              =   -4440.35199102 Ry
     estimated scf accuracy    <       0.15668767 Ry

     iteration # 20     ecut=    60.00 Ry     beta= 0.15
     Davidson diagonalization with overlap

---- Real-time Memory Report at c_bands before calling an iterative solver
             0 MiB given to the printing process from OS
             0 MiB allocation reported by mallinfo(arena+hblkhd)
         50462 MiB available memory on the node where the printing process lives
------------------
     c_bands:  1 eigenvalues not converged
     ethr =  3.64E-05,  avg # of iterations = 11.0

     negative rho (up, down):  8.167E-01 0.000E+00

     total cpu time spent up to now is      299.1 secs

     total energy              =   -4440.33407656 Ry
     estimated scf accuracy    <       0.11866049 Ry

     iteration # 21     ecut=    60.00 Ry     beta= 0.15
     Davidson diagonalization with overlap

---- Real-time Memory Report at c_bands before calling an iterative solver
             0 MiB given to the printing process from OS
             0 MiB allocation reported by mallinfo(arena+hblkhd)
         50433 MiB available memory on the node where the printing process lives
------------------
     ethr =  2.76E-05,  avg # of iterations =  8.7

     negative rho (up, down):  8.334E-01 0.000E+00

     total cpu time spent up to now is      317.1 secs

     total energy              =   -4440.32147930 Ry
     estimated scf accuracy    <       0.07827051 Ry

     iteration # 22     ecut=    60.00 Ry     beta= 0.15
     Davidson diagonalization with overlap

---- Real-time Memory Report at c_bands before calling an iterative solver
             0 MiB given to the printing process from OS
             0 MiB allocation reported by mallinfo(arena+hblkhd)
         50350 MiB available memory on the node where the printing process lives
------------------
     c_bands:  1 eigenvalues not converged
     ethr =  1.82E-05,  avg # of iterations = 11.9

     negative rho (up, down):  8.294E-01 0.000E+00

     total cpu time spent up to now is      336.7 secs

     total energy              =   -4440.31929748 Ry
     estimated scf accuracy    <       0.03981503 Ry

     iteration # 23     ecut=    60.00 Ry     beta= 0.15
     Davidson diagonalization with overlap

---- Real-time Memory Report at c_bands before calling an iterative solver
             0 MiB given to the printing process from OS
             0 MiB allocation reported by mallinfo(arena+hblkhd)
         50369 MiB available memory on the node where the printing process lives
------------------
     ethr =  9.26E-06,  avg # of iterations =  6.2

     negative rho (up, down):  8.181E-01 0.000E+00

     total cpu time spent up to now is      352.8 secs

     total energy              =   -4440.31744199 Ry
     estimated scf accuracy    <       0.03040364 Ry

     iteration # 24     ecut=    60.00 Ry     beta= 0.15
     Davidson diagonalization with overlap

---- Real-time Memory Report at c_bands before calling an iterative solver
             0 MiB given to the printing process from OS
             0 MiB allocation reported by mallinfo(arena+hblkhd)
         50372 MiB available memory on the node where the printing process lives
------------------
     ethr =  7.07E-06,  avg # of iterations =  2.0

     negative rho (up, down):  8.058E-01 0.000E+00

     total cpu time spent up to now is      366.8 secs

     total energy              =   -4440.31326086 Ry
     estimated scf accuracy    <       0.02315297 Ry

     iteration # 25     ecut=    60.00 Ry     beta= 0.15
     Davidson diagonalization with overlap

---- Real-time Memory Report at c_bands before calling an iterative solver
             0 MiB given to the printing process from OS
             0 MiB allocation reported by mallinfo(arena+hblkhd)
         50372 MiB available memory on the node where the printing process lives
------------------
     ethr =  5.38E-06,  avg # of iterations =  9.3

     negative rho (up, down):  8.128E-01 0.000E+00

     total cpu time spent up to now is      384.8 secs

     total energy              =   -4440.31247695 Ry
     estimated scf accuracy    <       0.01348818 Ry

     iteration # 26     ecut=    60.00 Ry     beta= 0.15
     Davidson diagonalization with overlap

---- Real-time Memory Report at c_bands before calling an iterative solver
             0 MiB given to the printing process from OS
             0 MiB allocation reported by mallinfo(arena+hblkhd)
         50357 MiB available memory on the node where the printing process lives
------------------
     c_bands:  1 eigenvalues not converged
     ethr =  3.14E-06,  avg # of iterations = 12.8

     negative rho (up, down):  8.095E-01 0.000E+00

     total cpu time spent up to now is      404.3 secs

     total energy              =   -4440.31223954 Ry
     estimated scf accuracy    <       0.00780650 Ry

     iteration # 27     ecut=    60.00 Ry     beta= 0.15
     Davidson diagonalization with overlap

---- Real-time Memory Report at c_bands before calling an iterative solver
             0 MiB given to the printing process from OS
             0 MiB allocation reported by mallinfo(arena+hblkhd)
         50375 MiB available memory on the node where the printing process lives
------------------
     ethr =  1.82E-06,  avg # of iterations =  2.1

     negative rho (up, down):  7.983E-01 0.000E+00

     total cpu time spent up to now is      418.3 secs

     total energy              =   -4440.31110271 Ry
     estimated scf accuracy    <       0.00551496 Ry

     iteration # 28     ecut=    60.00 Ry     beta= 0.15
     Davidson diagonalization with overlap

---- Real-time Memory Report at c_bands before calling an iterative solver
             0 MiB given to the printing process from OS
             0 MiB allocation reported by mallinfo(arena+hblkhd)
         50288 MiB available memory on the node where the printing process lives
------------------
     c_bands:  1 eigenvalues not converged
     ethr =  1.28E-06,  avg # of iterations =  8.2

     negative rho (up, down):  7.973E-01 0.000E+00

     total cpu time spent up to now is      435.8 secs

     total energy              =   -4440.31113165 Ry
     estimated scf accuracy    <       0.00321439 Ry

     iteration # 29     ecut=    60.00 Ry     beta= 0.15
     Davidson diagonalization with overlap

---- Real-time Memory Report at c_bands before calling an iterative solver
             0 MiB given to the printing process from OS
             0 MiB allocation reported by mallinfo(arena+hblkhd)
         50284 MiB available memory on the node where the printing process lives
------------------
     ethr =  7.48E-07,  avg # of iterations =  3.0

     negative rho (up, down):  7.938E-01 0.000E+00

     total cpu time spent up to now is      450.5 secs

     total energy              =   -4440.31096798 Ry
     estimated scf accuracy    <       0.00170155 Ry

     iteration # 30     ecut=    60.00 Ry     beta= 0.15
     Davidson diagonalization with overlap

---- Real-time Memory Report at c_bands before calling an iterative solver
             0 MiB given to the printing process from OS
             0 MiB allocation reported by mallinfo(arena+hblkhd)
         50309 MiB available memory on the node where the printing process lives
------------------
     c_bands:  1 eigenvalues not converged
     ethr =  3.96E-07,  avg # of iterations = 11.0

     negative rho (up, down):  7.929E-01 0.000E+00

     total cpu time spent up to now is      469.5 secs

     total energy              =   -4440.31087373 Ry
     estimated scf accuracy    <       0.00101133 Ry

     iteration # 31     ecut=    60.00 Ry     beta= 0.15
     Davidson diagonalization with overlap

---- Real-time Memory Report at c_bands before calling an iterative solver
             0 MiB given to the printing process from OS
             0 MiB allocation reported by mallinfo(arena+hblkhd)
         50299 MiB available memory on the node where the printing process lives
------------------
     c_bands:  1 eigenvalues not converged
     ethr =  2.35E-07,  avg # of iterations =  8.4

     negative rho (up, down):  7.933E-01 0.000E+00

     total cpu time spent up to now is      487.4 secs

     total energy              =   -4440.31083359 Ry
     estimated scf accuracy    <       0.00038750 Ry

     iteration # 32     ecut=    60.00 Ry     beta= 0.15
     Davidson diagonalization with overlap

---- Real-time Memory Report at c_bands before calling an iterative solver
             0 MiB given to the printing process from OS
             0 MiB allocation reported by mallinfo(arena+hblkhd)
         50239 MiB available memory on the node where the printing process lives
------------------
     ethr =  9.01E-08,  avg # of iterations =  4.2

     negative rho (up, down):  7.941E-01 0.000E+00

     total cpu time spent up to now is      503.3 secs

     total energy              =   -4440.31085372 Ry
     estimated scf accuracy    <       0.00015110 Ry

     iteration # 33     ecut=    60.00 Ry     beta= 0.15
     Davidson diagonalization with overlap

---- Real-time Memory Report at c_bands before calling an iterative solver
             0 MiB given to the printing process from OS
             0 MiB allocation reported by mallinfo(arena+hblkhd)
         50237 MiB available memory on the node where the printing process lives
------------------
     ethr =  3.51E-08,  avg # of iterations =  2.3

     negative rho (up, down):  7.927E-01 0.000E+00

     total cpu time spent up to now is      517.9 secs

     total energy              =   -4440.31085475 Ry
     estimated scf accuracy    <       0.00007415 Ry

     iteration # 34     ecut=    60.00 Ry     beta= 0.15
     Davidson diagonalization with overlap

---- Real-time Memory Report at c_bands before calling an iterative solver
             0 MiB given to the printing process from OS
             0 MiB allocation reported by mallinfo(arena+hblkhd)
         50258 MiB available memory on the node where the printing process lives
------------------
     ethr =  1.72E-08,  avg # of iterations =  2.1

     negative rho (up, down):  7.925E-01 0.000E+00

     total cpu time spent up to now is      532.0 secs

     total energy              =   -4440.31086999 Ry
     estimated scf accuracy    <       0.00004904 Ry

     iteration # 35     ecut=    60.00 Ry     beta= 0.15
     Davidson diagonalization with overlap

---- Real-time Memory Report at c_bands before calling an iterative solver
             0 MiB given to the printing process from OS
             0 MiB allocation reported by mallinfo(arena+hblkhd)
         50268 MiB available memory on the node where the printing process lives
------------------
     ethr =  1.14E-08,  avg # of iterations =  2.0

     negative rho (up, down):  7.926E-01 0.000E+00

     total cpu time spent up to now is      546.3 secs

     total energy              =   -4440.31087958 Ry
     estimated scf accuracy    <       0.00002082 Ry

     iteration # 36     ecut=    60.00 Ry     beta= 0.15
     Davidson diagonalization with overlap

---- Real-time Memory Report at c_bands before calling an iterative solver
             0 MiB given to the printing process from OS
             0 MiB allocation reported by mallinfo(arena+hblkhd)
         50277 MiB available memory on the node where the printing process lives
------------------
     ethr =  4.84E-09,  avg # of iterations =  2.0

     negative rho (up, down):  7.925E-01 0.000E+00

     total cpu time spent up to now is      560.5 secs

     total energy              =   -4440.31088710 Ry
     estimated scf accuracy    <       0.00001346 Ry

     iteration # 37     ecut=    60.00 Ry     beta= 0.15
     Davidson diagonalization with overlap

---- Real-time Memory Report at c_bands before calling an iterative solver
             0 MiB given to the printing process from OS
             0 MiB allocation reported by mallinfo(arena+hblkhd)
         50283 MiB available memory on the node where the printing process lives
------------------
     ethr =  3.13E-09,  avg # of iterations =  2.5

     negative rho (up, down):  7.926E-01 0.000E+00

     total cpu time spent up to now is      574.9 secs

     total energy              =   -4440.31089027 Ry
     estimated scf accuracy    <       0.00000858 Ry

     iteration # 38     ecut=    60.00 Ry     beta= 0.15
     Davidson diagonalization with overlap

---- Real-time Memory Report at c_bands before calling an iterative solver
             0 MiB given to the printing process from OS
             0 MiB allocation reported by mallinfo(arena+hblkhd)
         50280 MiB available memory on the node where the printing process lives
------------------
     ethr =  2.00E-09,  avg # of iterations =  2.7

     negative rho (up, down):  7.926E-01 0.000E+00

     total cpu time spent up to now is      589.6 secs

     total energy              =   -4440.31088942 Ry
     estimated scf accuracy    <       0.00000432 Ry

     iteration # 39     ecut=    60.00 Ry     beta= 0.15
     Davidson diagonalization with overlap

---- Real-time Memory Report at c_bands before calling an iterative solver
             0 MiB given to the printing process from OS
             0 MiB allocation reported by mallinfo(arena+hblkhd)
         50280 MiB available memory on the node where the printing process lives
------------------
     ethr =  1.01E-09,  avg # of iterations =  3.7

     negative rho (up, down):  7.925E-01 0.000E+00

     total cpu time spent up to now is      604.5 secs

     total energy              =   -4440.31088911 Ry
     estimated scf accuracy    <       0.00000348 Ry

     iteration # 40     ecut=    60.00 Ry     beta= 0.15
     Davidson diagonalization with overlap

---- Real-time Memory Report at c_bands before calling an iterative solver
             0 MiB given to the printing process from OS
             0 MiB allocation reported by mallinfo(arena+hblkhd)
         50263 MiB available memory on the node where the printing process lives
------------------
     ethr =  8.09E-10,  avg # of iterations =  1.0

     negative rho (up, down):  7.925E-01 0.000E+00

     total cpu time spent up to now is      617.2 secs

     total energy              =   -4440.31088903 Ry
     estimated scf accuracy    <       0.00000251 Ry

     iteration # 41     ecut=    60.00 Ry     beta= 0.15
     Davidson diagonalization with overlap

---- Real-time Memory Report at c_bands before calling an iterative solver
             0 MiB given to the printing process from OS
             0 MiB allocation reported by mallinfo(arena+hblkhd)
         50265 MiB available memory on the node where the printing process lives
------------------
     ethr =  5.83E-10,  avg # of iterations =  1.0

     negative rho (up, down):  7.926E-01 0.000E+00

     total cpu time spent up to now is      629.9 secs

     total energy              =   -4440.31089014 Ry
     estimated scf accuracy    <       0.00000195 Ry

     iteration # 42     ecut=    60.00 Ry     beta= 0.15
     Davidson diagonalization with overlap

---- Real-time Memory Report at c_bands before calling an iterative solver
             0 MiB given to the printing process from OS
             0 MiB allocation reported by mallinfo(arena+hblkhd)
         50266 MiB available memory on the node where the printing process lives
------------------
     ethr =  4.55E-10,  avg # of iterations =  2.8

     negative rho (up, down):  7.926E-01 0.000E+00

     total cpu time spent up to now is      644.3 secs

     total energy              =   -4440.31089078 Ry
     estimated scf accuracy    <       0.00000069 Ry

     iteration # 43     ecut=    60.00 Ry     beta= 0.15
     Davidson diagonalization with overlap

---- Real-time Memory Report at c_bands before calling an iterative solver
             0 MiB given to the printing process from OS
             0 MiB allocation reported by mallinfo(arena+hblkhd)
         50270 MiB available memory on the node where the printing process lives
------------------
     ethr =  1.61E-10,  avg # of iterations =  3.2

     negative rho (up, down):  7.927E-01 0.000E+00

     total cpu time spent up to now is      659.1 secs

     total energy              =   -4440.31089085 Ry
     estimated scf accuracy    <       0.00000031 Ry

     iteration # 44     ecut=    60.00 Ry     beta= 0.15
     Davidson diagonalization with overlap

---- Real-time Memory Report at c_bands before calling an iterative solver
             0 MiB given to the printing process from OS
             0 MiB allocation reported by mallinfo(arena+hblkhd)
         50301 MiB available memory on the node where the printing process lives
------------------
     ethr =  7.17E-11,  avg # of iterations =  2.1

     negative rho (up, down):  7.927E-01 0.000E+00

     total cpu time spent up to now is      673.3 secs

     total energy              =   -4440.31089083 Ry
     estimated scf accuracy    <       0.00000023 Ry

     iteration # 45     ecut=    60.00 Ry     beta= 0.15
     Davidson diagonalization with overlap

---- Real-time Memory Report at c_bands before calling an iterative solver
             0 MiB given to the printing process from OS
             0 MiB allocation reported by mallinfo(arena+hblkhd)
         50344 MiB available memory on the node where the printing process lives
------------------
     ethr =  5.36E-11,  avg # of iterations =  2.0

     negative rho (up, down):  7.926E-01 0.000E+00

     total cpu time spent up to now is      687.6 secs

     total energy              =   -4440.31089078 Ry
     estimated scf accuracy    <       0.00000017 Ry

     iteration # 46     ecut=    60.00 Ry     beta= 0.15
     Davidson diagonalization with overlap

---- Real-time Memory Report at c_bands before calling an iterative solver
             0 MiB given to the printing process from OS
             0 MiB allocation reported by mallinfo(arena+hblkhd)
         50329 MiB available memory on the node where the printing process lives
------------------
     ethr =  3.86E-11,  avg # of iterations =  3.6

     negative rho (up, down):  7.926E-01 0.000E+00

     total cpu time spent up to now is      705.2 secs

     total energy              =   -4440.31089081 Ry
     estimated scf accuracy    <       0.00000004 Ry

     iteration # 47     ecut=    60.00 Ry     beta= 0.15
     Davidson diagonalization with overlap

---- Real-time Memory Report at c_bands before calling an iterative solver
             0 MiB given to the printing process from OS
             0 MiB allocation reported by mallinfo(arena+hblkhd)
         50293 MiB available memory on the node where the printing process lives
------------------
     ethr =  8.95E-12,  avg # of iterations =  2.0

     negative rho (up, down):  7.926E-01 0.000E+00

     total cpu time spent up to now is      719.3 secs

     total energy              =   -4440.31089080 Ry
     estimated scf accuracy    <       0.00000003 Ry

     iteration # 48     ecut=    60.00 Ry     beta= 0.15
     Davidson diagonalization with overlap

---- Real-time Memory Report at c_bands before calling an iterative solver
             0 MiB given to the printing process from OS
             0 MiB allocation reported by mallinfo(arena+hblkhd)
         50319 MiB available memory on the node where the printing process lives
------------------
     ethr =  6.56E-12,  avg # of iterations =  1.0

     negative rho (up, down):  7.926E-01 0.000E+00

     total cpu time spent up to now is      732.1 secs

     total energy              =   -4440.31089080 Ry
     estimated scf accuracy    <       0.00000002 Ry

     iteration # 49     ecut=    60.00 Ry     beta= 0.15
     Davidson diagonalization with overlap

---- Real-time Memory Report at c_bands before calling an iterative solver
             0 MiB given to the printing process from OS
             0 MiB allocation reported by mallinfo(arena+hblkhd)
         50321 MiB available memory on the node where the printing process lives
------------------
     ethr =  4.45E-12,  avg # of iterations =  2.0

     negative rho (up, down):  7.926E-01 0.000E+00

     total cpu time spent up to now is      746.4 secs

     End of self-consistent calculation

          k = 0.0000 0.0000 0.0000 ( 65197 PWs)   bands (ev):

   -92.8954 -92.8470 -92.7497 -92.7034 -92.6456 -92.6026 -92.5843 -92.4628
   -56.2490 -56.2340 -56.1064 -56.0958 -56.0899 -56.0827 -56.0489 -56.0185
   -56.0032 -56.0027 -55.9979 -55.9527 -55.9343 -55.8962 -55.8765 -55.8444
   -55.8390 -55.7897 -55.7889 -55.7872 -55.7788 -55.7378 -55.7145 -55.6285
   -31.4576 -31.4384 -31.2967 -31.2107 -31.0749 -31.0593 -30.9810 -30.9420
   -30.0388 -29.9959 -29.9700 -29.8633 -15.2716 -15.2250 -15.1448 -15.0156
   -14.8147 -14.6940 -14.4071 -14.3801 -14.3570 -14.3091 -14.2609 -14.2518
   -14.2414 -14.2189 -14.1962 -14.1434 -14.1190 -13.9647 -13.7805 -13.7516
   -13.7241 -13.6849 -13.6727 -13.6112 -13.5761 -13.5005 -13.4330 -13.2925
   -13.2815 -13.2784 -13.2557 -13.2378 -13.1825 -13.1752 -13.1580 -13.1337
   -13.1083 -13.1036 -13.0805 -12.9711 -12.9485 -12.9342 -12.9120 -12.8692
   -12.8556 -12.8454 -12.8304 -12.8128 -12.5246 -12.3787 -12.1857 -12.1072
   -12.0521 -11.9938 -11.9784 -11.9672 -11.9443 -11.9267 -11.8635 -11.8462
   -11.8110 -11.7811 -11.6712 -11.5914 -11.5878  -3.1321  -2.9009  -2.6710
    -2.5233  -2.4615  -2.3201  -2.0119  -1.9971  -1.9790  -1.8922  -1.8727
    -1.8046  -1.7873  -1.7468  -1.7051  -1.5219  -1.2959  -1.2641  -1.1223
    -1.1073  -1.0592  -1.0387  -0.9923  -0.9762  -0.9253  -0.8976  -0.8195
    -0.8109  -0.7380  -0.6026  -0.5892  -0.5607  -0.4818  -0.4495  -0.4285
    -0.3857  -0.3171  -0.2548  -0.2150  -0.1905  -0.1099  -0.0560  -0.0096
     0.0132   0.0288   0.2895   0.3023   0.4781   0.5374   0.6059   0.6558
     0.7411   0.7514   0.7680   0.8359   0.8628   0.8952   0.9535   1.0824
     1.1449   1.1655   1.1894   1.2072   1.2657   1.3284   1.4483   1.4623
     1.5257   1.5292   1.5770   1.5920   1.6041   1.6611   1.7250   1.7325
     1.7728   1.7968   1.8396   1.9720   2.0658   2.1010   2.1160   2.2660
     2.2811   2.3192   2.3305   2.4294   2.4671   2.4897   2.5108   2.5271
     2.5530   2.6045   2.6161   2.6443   2.7172   2.7522   2.7612   2.7658
     2.8331   2.8407   2.8623   2.8682   2.8787   2.8924   2.8984   2.9137
     2.9202   2.9305   2.9370   2.9470   2.9647   2.9865   2.9904   3.0032
     3.0331   3.1447   3.2412   3.9277   4.2453   4.5970   4.8223   4.8639
     5.7617   5.8041   5.8195   5.9054   6.1240   6.1686   6.4268   6.4362
     6.9331   6.9870   7.0845   7.1509   7.4882   7.5290   7.5409   7.5695
     7.7031   7.8679   7.9221   8.0231   8.0545   8.1612   8.3151   8.5316
     8.7600   8.9222

     occupation numbers 
     1.0000   1.0000   1.0000   1.0000   1.0000   1.0000   1.0000   1.0000
     1.0000   1.0000   1.0000   1.0000   1.0000   1.0000   1.0000   1.0000
     1.0000   1.0000   1.0000   1.0000   1.0000   1.0000   1.0000   1.0000
     1.0000   1.0000   1.0000   1.0000   1.0000   1.0000   1.0000   1.0000
     1.0000   1.0000   1.0000   1.0000   1.0000   1.0000   1.0000   1.0000
     1.0000   1.0000   1.0000   1.0000   1.0000   1.0000   1.0000   1.0000
     1.0000   1.0000   1.0000   1.0000   1.0000   1.0000   1.0000   1.0000
     1.0000   1.0000   1.0000   1.0000   1.0000   1.0000   1.0000   1.0000
     1.0000   1.0000   1.0000   1.0000   1.0000   1.0000   1.0000   1.0000
     1.0000   1.0000   1.0000   1.0000   1.0000   1.0000   1.0000   1.0000
     1.0000   1.0000   1.0000   1.0000   1.0000   1.0000   1.0000   1.0000
     1.0000   1.0000   1.0000   1.0000   1.0000   1.0000   1.0000   1.0000
     1.0000   1.0000   1.0000   1.0000   1.0000   1.0000   1.0000   1.0000
     1.0000   1.0000   1.0000   1.0000   1.0000   1.0000   1.0000   1.0000
     1.0000   1.0000   1.0000   1.0000   1.0000   1.0000   1.0000   1.0000
     1.0000   1.0000   1.0000   1.0000   1.0000   1.0000   1.0000   1.0000
     1.0000   1.0000   1.0000   1.0000   1.0000   1.0000   1.0000   1.0000
     1.0000   1.0000   1.0000   1.0000   1.0000   1.0000   1.0000   1.0000
     1.0000   1.0000   1.0000   1.0000   1.0000   1.0000   1.0000   1.0000
     1.0000   1.0000   1.0000   1.0000   1.0000   0.9999   0.9999   0.9999
     0.9998   0.9998   0.9998   0.9997   0.9996   0.9996   0.9994   0.9988
     0.9984   0.9983   0.9981   0.9979   0.9972   0.9963   0.9938   0.9935
     0.9915   0.9914   0.9896   0.9890   0.9884   0.9856   0.9817   0.9812
     0.9783   0.9764   0.9726   0.9577   0.9435   0.9374   0.9346   0.9011
     0.8971   0.8867   0.8834   0.8520   0.8387   0.8304   0.8224   0.8160
     0.8056   0.7839   0.7788   0.7661   0.7317   0.7143   0.7097   0.7074
     0.6722   0.6680   0.6563   0.6531   0.6473   0.6398   0.6364   0.6279
     0.6242   0.6184   0.6147   0.6090   0.5989   0.5863   0.5840   0.5766
     0.5591   0.4933   0.4364   0.1191   0.0494   0.0149   0.0061   0.0051
     0.0000   0.0000   0.0000   0.0000   0.0000   0.0000   0.0000   0.0000
     0.0000   0.0000   0.0000   0.0000   0.0000   0.0000   0.0000   0.0000
     0.0000   0.0000   0.0000   0.0000   0.0000   0.0000   0.0000   0.0000
     0.0000   0.0000

          k = 0.0000 0.2500 0.0000 ( 65257 PWs)   bands (ev):

   -92.8954 -92.8470 -92.7497 -92.7034 -92.6456 -92.6026 -92.5843 -92.4628
   -56.2490 -56.2340 -56.1064 -56.0958 -56.0899 -56.0827 -56.0489 -56.0185
   -56.0032 -56.0027 -55.9979 -55.9527 -55.9343 -55.8962 -55.8765 -55.8444
   -55.8390 -55.7897 -55.7889 -55.7872 -55.7788 -55.7378 -55.7145 -55.6285
   -31.4574 -31.4383 -31.2969 -31.2108 -31.0745 -31.0592 -30.9813 -30.9423
   -30.0382 -29.9956 -29.9706 -29.8636 -15.2351 -15.1991 -15.1198 -14.9858
   -14.8585 -14.6824 -14.5531 -14.3728 -14.3314 -14.3117 -14.2842 -14.2260
   -14.2189 -14.2061 -14.1778 -14.1128 -14.0381 -13.9951 -13.8335 -13.8030
   -13.7641 -13.7281 -13.6733 -13.6364 -13.5705 -13.5262 -13.4863 -13.3891
   -13.3305 -13.3240 -13.2888 -13.2691 -13.1670 -13.1424 -13.1154 -13.1064
   -13.0823 -13.0481 -13.0028 -12.9807 -12.9267 -12.9098 -12.8884 -12.8607
   -12.8462 -12.8045 -12.7440 -12.6520 -12.5859 -12.4298 -12.2430 -12.1750
   -12.0178 -11.9939 -11.9751 -11.9467 -11.9189 -11.9025 -11.8550 -11.8437
   -11.8208 -11.7861 -11.6858 -11.6331 -11.6226  -2.9967  -2.7767  -2.6383
    -2.4564  -2.4129  -2.2501  -2.0281  -1.9468  -1.9336  -1.8730  -1.7705
    -1.7550  -1.7231  -1.6938  -1.6501  -1.4530  -1.3225  -1.3119  -1.2353
    -1.2257  -1.1216  -1.0926  -1.0317  -1.0051  -0.9688  -0.9032  -0.8746
    -0.8436  -0.8096  -0.7944  -0.7614  -0.6871  -0.6384  -0.5641  -0.4498
    -0.4284  -0.3878  -0.2746  -0.2251  -0.1761  -0.1239  -0.0698  -0.0558
    -0.0266   0.0358   0.3360   0.4229   0.4623   0.5442   0.5894   0.6125
     0.7203   0.7384   0.8415   0.8647   0.8877   1.0004   1.1005   1.1212
     1.1476   1.1649   1.1855   1.2456   1.2745   1.3036   1.3484   1.3881
     1.4217   1.5149   1.5450   1.5769   1.6275   1.6870   1.7361   1.7551
     1.7716   1.7874   1.8914   2.0133   2.0854   2.1009   2.1703   2.2189
     2.2624   2.2701   2.3269   2.3633   2.4473   2.4840   2.5049   2.5521
     2.6016   2.6422   2.6748   2.6980   2.7314   2.7561   2.7676   2.7763
     2.7835   2.7912   2.8215   2.8234   2.8413   2.8486   2.8556   2.8787
     2.8895   2.8972   2.9158   2.9272   2.9319   2.9673   2.9838   3.0442
     3.4252   3.4595   3.6888   4.1197   4.2420   4.5398   4.8778   4.9840
     5.5067   5.6307   5.7985   5.9019   5.9470   6.0538   6.0767   6.5404
     7.0203   7.0893   7.2129   7.2368   7.3371   7.3964   7.5357   7.7148
     7.7780   7.9977   8.0616   8.2094   8.2804   8.3112   8.3286   8.4101
     8.5790   8.8071

     occupation numbers 
     1.0000   1.0000   1.0000   1.0000   1.0000   1.0000   1.0000   1.0000
     1.0000   1.0000   1.0000   1.0000   1.0000   1.0000   1.0000   1.0000
     1.0000   1.0000   1.0000   1.0000   1.0000   1.0000   1.0000   1.0000
     1.0000   1.0000   1.0000   1.0000   1.0000   1.0000   1.0000   1.0000
     1.0000   1.0000   1.0000   1.0000   1.0000   1.0000   1.0000   1.0000
     1.0000   1.0000   1.0000   1.0000   1.0000   1.0000   1.0000   1.0000
     1.0000   1.0000   1.0000   1.0000   1.0000   1.0000   1.0000   1.0000
     1.0000   1.0000   1.0000   1.0000   1.0000   1.0000   1.0000   1.0000
     1.0000   1.0000   1.0000   1.0000   1.0000   1.0000   1.0000   1.0000
     1.0000   1.0000   1.0000   1.0000   1.0000   1.0000   1.0000   1.0000
     1.0000   1.0000   1.0000   1.0000   1.0000   1.0000   1.0000   1.0000
     1.0000   1.0000   1.0000   1.0000   1.0000   1.0000   1.0000   1.0000
     1.0000   1.0000   1.0000   1.0000   1.0000   1.0000   1.0000   1.0000
     1.0000   1.0000   1.0000   1.0000   1.0000   1.0000   1.0000   1.0000
     1.0000   1.0000   1.0000   1.0000   1.0000   1.0000   1.0000   1.0000
     1.0000   1.0000   1.0000   1.0000   1.0000   1.0000   1.0000   1.0000
     1.0000   1.0000   1.0000   1.0000   1.0000   1.0000   1.0000   1.0000
     1.0000   1.0000   1.0000   1.0000   1.0000   1.0000   1.0000   1.0000
     1.0000   1.0000   1.0000   1.0000   1.0000   1.0000   1.0000   1.0000
     1.0000   1.0000   1.0000   1.0000   1.0000   0.9999   0.9999   0.9999
     0.9998   0.9998   0.9997   0.9996   0.9996   0.9992   0.9987   0.9986
     0.9984   0.9983   0.9981   0.9975   0.9971   0.9967   0.9960   0.9952
     0.9945   0.9919   0.9908   0.9896   0.9873   0.9841   0.9810   0.9796
     0.9784   0.9772   0.9674   0.9519   0.9402   0.9374   0.9236   0.9127
     0.9020   0.9001   0.8844   0.8736   0.8458   0.8325   0.8246   0.8059
     0.7851   0.7671   0.7520   0.7410   0.7247   0.7123   0.7064   0.7020
     0.6983   0.6943   0.6784   0.6773   0.6677   0.6638   0.6600   0.6473
     0.6414   0.6371   0.6267   0.6202   0.6176   0.5974   0.5879   0.5526
     0.3324   0.3141   0.2047   0.0715   0.0499   0.0184   0.0048   0.0030
     0.0002   0.0001   0.0000   0.0000   0.0000   0.0000   0.0000   0.0000
     0.0000   0.0000   0.0000   0.0000   0.0000   0.0000   0.0000   0.0000
     0.0000   0.0000   0.0000   0.0000   0.0000   0.0000   0.0000   0.0000
     0.0000   0.0000

          k = 0.0000-0.5000 0.0000 ( 65180 PWs)   bands (ev):

   -92.8954 -92.8470 -92.7497 -92.7034 -92.6456 -92.6026 -92.5843 -92.4628
   -56.2490 -56.2340 -56.1064 -56.0958 -56.0899 -56.0827 -56.0489 -56.0185
   -56.0032 -56.0027 -55.9979 -55.9527 -55.9343 -55.8962 -55.8765 -55.8444
   -55.8390 -55.7897 -55.7889 -55.7872 -55.7788 -55.7378 -55.7145 -55.6285
   -31.4572 -31.4382 -31.2971 -31.2110 -31.0741 -31.0590 -30.9816 -30.9426
   -30.0375 -29.9953 -29.9713 -29.8640 -15.1991 -15.1504 -15.0970 -14.9622
   -14.8843 -14.7453 -14.5888 -14.4604 -14.3464 -14.2621 -14.2294 -14.2160
   -14.1687 -14.1565 -14.1102 -14.0807 -14.0609 -14.0234 -13.9641 -13.9372
   -13.7719 -13.7128 -13.6756 -13.6448 -13.5453 -13.5418 -13.4787 -13.4623
   -13.4208 -13.3971 -13.2896 -13.2694 -13.1508 -13.1389 -13.1101 -13.0783
   -13.0664 -13.0583 -12.9285 -12.9003 -12.8878 -12.8772 -12.8557 -12.8477
   -12.8341 -12.8085 -12.6968 -12.5847 -12.5048 -12.4314 -12.3429 -12.3149
   -11.9942 -11.9720 -11.9691 -11.9416 -11.9054 -11.8702 -11.8587 -11.8164
   -11.8123 -11.7678 -11.7078 -11.6941 -11.6801  -2.7816  -2.7235  -2.5737
    -2.5019  -2.2172  -2.1353  -2.0085  -1.8722  -1.8314  -1.8143  -1.7374
    -1.7024  -1.6233  -1.5867  -1.5070  -1.4695  -1.4321  -1.4042  -1.3447
    -1.3078  -1.2595  -1.2223  -1.1928  -1.1576  -1.0487  -1.0049  -0.9667
    -0.9631  -0.8770  -0.8483  -0.8240  -0.7772  -0.6891  -0.6133  -0.5215
    -0.4914  -0.3784  -0.3563  -0.2205  -0.1666  -0.1423  -0.1000   0.0268
     0.1005   0.2009   0.2729   0.2848   0.4077   0.4809   0.5590   0.6906
     0.7918   0.8260   0.8671   0.8812   0.9110   0.9268   0.9623   0.9797
     0.9994   1.1037   1.1620   1.1923   1.2188   1.4958   1.5164   1.5460
     1.6319   1.6494   1.6902   1.7100   1.7247   1.7551   1.7655   1.7785
     1.8174   1.8439   1.8770   1.8782   1.9101   1.9638   2.0556   2.1009
     2.2553   2.4113   2.4181   2.4402   2.4753   2.4822   2.4890   2.5386
     2.5488   2.5577   2.6025   2.6067   2.6276   2.6481   2.7116   2.7228
     2.7928   2.7978   2.8216   2.8244   2.8380   2.8416   2.8455   2.8531
     2.8574   2.8733   2.8862   2.8902   2.9529   2.9561   2.9737   3.0319
     3.9372   3.9605   4.0255   4.0844   4.5468   4.7314   4.8942   4.9989
     5.2738   5.3577   5.4806   5.5791   5.8497   5.8624   6.4172   6.6057
     6.7822   6.8872   7.1339   7.2992   7.5715   7.6490   7.7331   7.7650
     7.8716   8.0163   8.1472   8.1586   8.2801   8.3392   8.4626   8.5133
     8.6779   8.7275

     occupation numbers 
     1.0000   1.0000   1.0000   1.0000   1.0000   1.0000   1.0000   1.0000
     1.0000   1.0000   1.0000   1.0000   1.0000   1.0000   1.0000   1.0000
     1.0000   1.0000   1.0000   1.0000   1.0000   1.0000   1.0000   1.0000
     1.0000   1.0000   1.0000   1.0000   1.0000   1.0000   1.0000   1.0000
     1.0000   1.0000   1.0000   1.0000   1.0000   1.0000   1.0000   1.0000
     1.0000   1.0000   1.0000   1.0000   1.0000   1.0000   1.0000   1.0000
     1.0000   1.0000   1.0000   1.0000   1.0000   1.0000   1.0000   1.0000
     1.0000   1.0000   1.0000   1.0000   1.0000   1.0000   1.0000   1.0000
     1.0000   1.0000   1.0000   1.0000   1.0000   1.0000   1.0000   1.0000
     1.0000   1.0000   1.0000   1.0000   1.0000   1.0000   1.0000   1.0000
     1.0000   1.0000   1.0000   1.0000   1.0000   1.0000   1.0000   1.0000
     1.0000   1.0000   1.0000   1.0000   1.0000   1.0000   1.0000   1.0000
     1.0000   1.0000   1.0000   1.0000   1.0000   1.0000   1.0000   1.0000
     1.0000   1.0000   1.0000   1.0000   1.0000   1.0000   1.0000   1.0000
     1.0000   1.0000   1.0000   1.0000   1.0000   1.0000   1.0000   1.0000
     1.0000   1.0000   1.0000   1.0000   1.0000   1.0000   1.0000   1.0000
     1.0000   1.0000   1.0000   1.0000   1.0000   1.0000   1.0000   1.0000
     1.0000   1.0000   1.0000   1.0000   1.0000   1.0000   1.0000   1.0000
     1.0000   1.0000   1.0000   1.0000   1.0000   1.0000   1.0000   1.0000
     1.0000   1.0000   1.0000   1.0000   1.0000   1.0000   0.9999   0.9999
     0.9997   0.9997   0.9996   0.9996   0.9995   0.9995   0.9994   0.9993
     0.9992   0.9987   0.9983   0.9980   0.9978   0.9925   0.9918   0.9908
     0.9871   0.9862   0.9839   0.9827   0.9818   0.9796   0.9789   0.9779
     0.9746   0.9722   0.9690   0.9688   0.9653   0.9588   0.9452   0.9374
     0.9038   0.8582   0.8559   0.8483   0.8357   0.8332   0.8307   0.8114
     0.8073   0.8037   0.7847   0.7829   0.7737   0.7644   0.7344   0.7289
     0.6935   0.6908   0.6783   0.6768   0.6695   0.6676   0.6654   0.6613
     0.6590   0.6503   0.6432   0.6409   0.6056   0.6038   0.5937   0.5599
     0.1163   0.1097   0.0926   0.0789   0.0179   0.0088   0.0045   0.0028
     0.0007   0.0005   0.0002   0.0001   0.0000   0.0000   0.0000   0.0000
     0.0000   0.0000   0.0000   0.0000   0.0000   0.0000   0.0000   0.0000
     0.0000   0.0000   0.0000   0.0000   0.0000   0.0000   0.0000   0.0000
     0.0000   0.0000

          k = 0.2500 0.2500 0.0000 ( 65198 PWs)   bands (ev):

   -92.8954 -92.8470 -92.7497 -92.7034 -92.6456 -92.6026 -92.5843 -92.4628
   -56.2490 -56.2340 -56.1064 -56.0958 -56.0899 -56.0827 -56.0489 -56.0185
   -56.0032 -56.0027 -55.9979 -55.9527 -55.9343 -55.8962 -55.8765 -55.8444
   -55.8390 -55.7897 -55.7889 -55.7872 -55.7788 -55.7378 -55.7145 -55.6285
   -31.4557 -31.4400 -31.2965 -31.2112 -31.0742 -31.0588 -30.9817 -30.9425
   -30.0372 -29.9966 -29.9702 -29.8641 -15.2061 -15.1652 -15.0918 -14.9750
   -14.8507 -14.7254 -14.6581 -14.4437 -14.2954 -14.2791 -14.2434 -14.2130
   -14.1930 -14.1667 -14.1229 -14.0757 -14.0261 -14.0081 -13.8480 -13.8340
   -13.8048 -13.7853 -13.7145 -13.6963 -13.6106 -13.5883 -13.4482 -13.4170
   -13.3993 -13.3220 -13.2815 -13.2296 -13.1991 -13.1557 -13.1290 -13.0970
   -13.0599 -13.0124 -12.9473 -12.9318 -12.9238 -12.8957 -12.8850 -12.8636
   -12.8425 -12.7995 -12.6818 -12.6343 -12.5286 -12.4589 -12.2698 -12.2320
   -11.9946 -11.9893 -11.9587 -11.9475 -11.9400 -11.8780 -11.8428 -11.8367
   -11.8014 -11.7922 -11.7026 -11.6613 -11.6442  -2.8582  -2.6508  -2.5319
    -2.4373  -2.3178  -2.2535  -2.0527  -1.9111  -1.8925  -1.8603  -1.7652
    -1.7336  -1.6375  -1.6102  -1.5594  -1.4287  -1.3808  -1.3069  -1.2624
    -1.2168  -1.1942  -1.1710  -1.1271  -1.1132  -1.0219  -0.9709  -0.9017
    -0.8536  -0.8231  -0.7785  -0.7619  -0.6976  -0.6488  -0.5853  -0.5570
    -0.4647  -0.4150  -0.3861  -0.3499  -0.2942  -0.1997  -0.1823  -0.1530
    -0.0718  -0.0455   0.2239   0.3762   0.4063   0.4714   0.5162   0.5683
     0.6139   0.6861   0.7221   0.9917   1.0535   1.1261   1.1507   1.2061
     1.2304   1.2677   1.3058   1.3216   1.3491   1.3994   1.4046   1.4212
     1.4656   1.5019   1.5425   1.6178   1.6476   1.6574   1.6956   1.7251
     1.7806   1.8019   1.9283   1.9930   2.0296   2.0433   2.1166   2.1797
     2.2078   2.2416   2.2723   2.2829   2.3917   2.4288   2.5166   2.5472
     2.5981   2.6429   2.6860   2.7038   2.7088   2.7255   2.7432   2.7541
     2.7664   2.7711   2.7839   2.7959   2.8105   2.8260   2.8324   2.8445
     2.8698   2.8782   2.8880   2.9187   3.2183   3.3117   3.3612   3.4338
     3.4635   3.6734   3.7625   4.1288   4.3303   4.5433   4.8029   5.1236
     5.4937   5.5524   5.5953   5.6473   5.7105   6.0845   6.1482   6.2069
     6.8279   7.1390   7.2650   7.3887   7.4449   7.4753   7.5838   7.7494
     7.9189   8.0422   8.1976   8.2650   8.3169   8.4346   8.4688   8.4790
     8.5765   8.6306

     occupation numbers 
     1.0000   1.0000   1.0000   1.0000   1.0000   1.0000   1.0000   1.0000
     1.0000   1.0000   1.0000   1.0000   1.0000   1.0000   1.0000   1.0000
     1.0000   1.0000   1.0000   1.0000   1.0000   1.0000   1.0000   1.0000
     1.0000   1.0000   1.0000   1.0000   1.0000   1.0000   1.0000   1.0000
     1.0000   1.0000   1.0000   1.0000   1.0000   1.0000   1.0000   1.0000
     1.0000   1.0000   1.0000   1.0000   1.0000   1.0000   1.0000   1.0000
     1.0000   1.0000   1.0000   1.0000   1.0000   1.0000   1.0000   1.0000
     1.0000   1.0000   1.0000   1.0000   1.0000   1.0000   1.0000   1.0000
     1.0000   1.0000   1.0000   1.0000   1.0000   1.0000   1.0000   1.0000
     1.0000   1.0000   1.0000   1.0000   1.0000   1.0000   1.0000   1.0000
     1.0000   1.0000   1.0000   1.0000   1.0000   1.0000   1.0000   1.0000
     1.0000   1.0000   1.0000   1.0000   1.0000   1.0000   1.0000   1.0000
     1.0000   1.0000   1.0000   1.0000   1.0000   1.0000   1.0000   1.0000
     1.0000   1.0000   1.0000   1.0000   1.0000   1.0000   1.0000   1.0000
     1.0000   1.0000   1.0000   1.0000   1.0000   1.0000   1.0000   1.0000
     1.0000   1.0000   1.0000   1.0000   1.0000   1.0000   1.0000   1.0000
     1.0000   1.0000   1.0000   1.0000   1.0000   1.0000   1.0000   1.0000
     1.0000   1.0000   1.0000   1.0000   1.0000   1.0000   1.0000   1.0000
     1.0000   1.0000   1.0000   1.0000   1.0000   1.0000   1.0000   1.0000
     1.0000   1.0000   1.0000   1.0000   1.0000   1.0000   0.9999   0.9999
     0.9999   0.9999   0.9998   0.9993   0.9990   0.9986   0.9984   0.9979
     0.9976   0.9972   0.9967   0.9964   0.9960   0.9950   0.9949   0.9945
     0.9934   0.9923   0.9909   0.9878   0.9863   0.9858   0.9836   0.9817
     0.9777   0.9760   0.9632   0.9548   0.9494   0.9472   0.9345   0.9216
     0.9153   0.9073   0.8995   0.8967   0.8646   0.8522   0.8201   0.8079
     0.7866   0.7668   0.7467   0.7382   0.7358   0.7276   0.7188   0.7133
     0.7071   0.7047   0.6981   0.6918   0.6842   0.6759   0.6725   0.6660
     0.6522   0.6476   0.6422   0.6250   0.4498   0.3956   0.3675   0.3277
     0.3120   0.2113   0.1751   0.0697   0.0378   0.0181   0.0066   0.0016
     0.0002   0.0002   0.0001   0.0001   0.0001   0.0000   0.0000   0.0000
     0.0000   0.0000   0.0000   0.0000   0.0000   0.0000   0.0000   0.0000
     0.0000   0.0000   0.0000   0.0000   0.0000   0.0000   0.0000   0.0000
     0.0000   0.0000

          k = 0.2500-0.5000 0.0000 ( 65138 PWs)   bands (ev):

   -92.8954 -92.8470 -92.7497 -92.7034 -92.6456 -92.6026 -92.5843 -92.4628
   -56.2490 -56.2340 -56.1064 -56.0958 -56.0899 -56.0827 -56.0489 -56.0185
   -56.0032 -56.0027 -55.9979 -55.9527 -55.9343 -55.8962 -55.8765 -55.8444
   -55.8390 -55.7897 -55.7889 -55.7872 -55.7788 -55.7378 -55.7145 -55.6285
   -31.4555 -31.4399 -31.2967 -31.2113 -31.0738 -31.0586 -30.9820 -30.9428
   -30.0366 -29.9963 -29.9709 -29.8644 -15.1688 -15.1237 -15.0543 -14.9337
   -14.9050 -14.7869 -14.6906 -14.5589 -14.2605 -14.2015 -14.1793 -14.1544
   -14.1357 -14.1304 -14.0941 -14.0706 -14.0355 -14.0044 -13.9681 -13.9185
   -13.8529 -13.8036 -13.7309 -13.7248 -13.6516 -13.5805 -13.5086 -13.4742
   -13.3881 -13.3227 -13.2987 -13.2146 -13.1712 -13.1551 -13.1257 -13.0941
   -13.0430 -13.0322 -12.9421 -12.9126 -12.8984 -12.8704 -12.8401 -12.8353
   -12.8115 -12.8045 -12.7031 -12.5677 -12.5022 -12.4158 -12.3284 -12.3108
   -11.9942 -11.9657 -11.9535 -11.9428 -11.9154 -11.8836 -11.8554 -11.8132
   -11.7874 -11.7644 -11.7210 -11.6952 -11.6843  -2.6390  -2.5751  -2.4474
    -2.3704  -2.2375  -2.1552  -2.0328  -1.8831  -1.8277  -1.8059  -1.7438
    -1.7309  -1.6339  -1.5655  -1.4819  -1.4299  -1.4198  -1.3596  -1.3155
    -1.2819  -1.2331  -1.1955  -1.1607  -1.1227  -1.1093  -1.0648  -1.0350
    -0.9899  -0.9610  -0.8940  -0.7899  -0.7532  -0.6723  -0.6046  -0.5515
    -0.5148  -0.4959  -0.4284  -0.2772  -0.2620  -0.1557  -0.1330  -0.1237
    -0.0819  -0.0373  -0.0070   0.0265   0.0871   0.3858   0.4833   0.5265
     0.5811   0.8624   0.8755   0.9650   0.9895   1.1503   1.1889   1.2258
     1.2517   1.2609   1.2838   1.3483   1.4002   1.4340   1.5059   1.6218
     1.6477   1.6658   1.6712   1.7139   1.7206   1.7424   1.7794   1.7859
     1.8098   1.8356   1.8521   1.8713   1.9070   1.9641   2.0108   2.0932
     2.2203   2.3629   2.3812   2.3993   2.4280   2.4519   2.4769   2.4975
     2.5126   2.5337   2.5496   2.5994   2.6319   2.6486   2.6898   2.7061
     2.7118   2.7231   2.7422   2.7550   2.7752   2.7838   2.8245   2.8286
     2.8418   2.8494   2.8588   2.8689   3.3873   3.4195   3.5504   3.6106
     3.9432   4.0012   4.0253   4.1379   4.5662   4.7506   4.9131   4.9606
     5.1225   5.2967   5.4994   5.5229   5.6202   5.6622   6.3350   6.4372
     6.5173   6.7022   7.4062   7.5766   7.6568   7.7046   7.7520   7.7978
     7.9114   7.9545   8.3040   8.3300   8.3975   8.4703   8.5401   8.5778
     8.6248   8.6456

     occupation numbers 
     1.0000   1.0000   1.0000   1.0000   1.0000   1.0000   1.0000   1.0000
     1.0000   1.0000   1.0000   1.0000   1.0000   1.0000   1.0000   1.0000
     1.0000   1.0000   1.0000   1.0000   1.0000   1.0000   1.0000   1.0000
     1.0000   1.0000   1.0000   1.0000   1.0000   1.0000   1.0000   1.0000
     1.0000   1.0000   1.0000   1.0000   1.0000   1.0000   1.0000   1.0000
     1.0000   1.0000   1.0000   1.0000   1.0000   1.0000   1.0000   1.0000
     1.0000   1.0000   1.0000   1.0000   1.0000   1.0000   1.0000   1.0000
     1.0000   1.0000   1.0000   1.0000   1.0000   1.0000   1.0000   1.0000
     1.0000   1.0000   1.0000   1.0000   1.0000   1.0000   1.0000   1.0000
     1.0000   1.0000   1.0000   1.0000   1.0000   1.0000   1.0000   1.0000
     1.0000   1.0000   1.0000   1.0000   1.0000   1.0000   1.0000   1.0000
     1.0000   1.0000   1.0000   1.0000   1.0000   1.0000   1.0000   1.0000
     1.0000   1.0000   1.0000   1.0000   1.0000   1.0000   1.0000   1.0000
     1.0000   1.0000   1.0000   1.0000   1.0000   1.0000   1.0000   1.0000
     1.0000   1.0000   1.0000   1.0000   1.0000   1.0000   1.0000   1.0000
     1.0000   1.0000   1.0000   1.0000   1.0000   1.0000   1.0000   1.0000
     1.0000   1.0000   1.0000   1.0000   1.0000   1.0000   1.0000   1.0000
     1.0000   1.0000   1.0000   1.0000   1.0000   1.0000   1.0000   1.0000
     1.0000   1.0000   1.0000   1.0000   1.0000   1.0000   1.0000   1.0000
     1.0000   1.0000   1.0000   1.0000   1.0000   1.0000   1.0000   0.9999
     0.9999   0.9996   0.9996   0.9994   0.9993   0.9984   0.9981   0.9977
     0.9974   0.9973   0.9970   0.9960   0.9950   0.9942   0.9922   0.9876
     0.9863   0.9853   0.9850   0.9825   0.9820   0.9806   0.9778   0.9773
     0.9753   0.9730   0.9715   0.9695   0.9657   0.9587   0.9522   0.9388
     0.9124   0.8737   0.8680   0.8621   0.8525   0.8442   0.8351   0.8275
     0.8217   0.8134   0.8070   0.7861   0.7717   0.7642   0.7449   0.7371
     0.7343   0.7288   0.7193   0.7129   0.7026   0.6981   0.6768   0.6746
     0.6675   0.6634   0.6582   0.6527   0.3530   0.3354   0.2678   0.2392
     0.1146   0.0988   0.0927   0.0679   0.0167   0.0082   0.0041   0.0033
     0.0016   0.0007   0.0002   0.0002   0.0001   0.0001   0.0000   0.0000
     0.0000   0.0000   0.0000   0.0000   0.0000   0.0000   0.0000   0.0000
     0.0000   0.0000   0.0000   0.0000   0.0000   0.0000   0.0000   0.0000
     0.0000   0.0000

          k =-0.5000-0.5000 0.0000 ( 65132 PWs)   bands (ev):

   -92.8954 -92.8470 -92.7497 -92.7034 -92.6456 -92.6026 -92.5843 -92.4628
   -56.2490 -56.2340 -56.1064 -56.0958 -56.0899 -56.0827 -56.0489 -56.0185
   -56.0032 -56.0027 -55.9979 -55.9527 -55.9343 -55.8962 -55.8765 -55.8444
   -55.8390 -55.7897 -55.7889 -55.7872 -55.7788 -55.7378 -55.7145 -55.6285
   -31.4533 -31.4421 -31.2963 -31.2117 -31.0736 -31.0582 -30.9825 -30.9430
   -30.0355 -29.9974 -29.9705 -29.8648 -15.1230 -15.0968 -14.9786 -14.9657
   -14.8648 -14.8368 -14.7899 -14.6588 -14.1727 -14.1548 -14.1249 -14.1042
   -14.0908 -14.0685 -14.0491 -14.0379 -14.0180 -14.0059 -13.9845 -13.9182
   -13.9114 -13.8650 -13.8441 -13.8184 -13.7387 -13.6242 -13.5431 -13.5185
   -13.3391 -13.2952 -13.2308 -13.2069 -13.1709 -13.1658 -13.1565 -13.1379
   -13.0186 -12.9930 -12.9494 -12.9463 -12.8998 -12.8624 -12.8418 -12.8316
   -12.7869 -12.7787 -12.7192 -12.5514 -12.4984 -12.3993 -12.3128 -12.3080
   -11.9942 -11.9627 -11.9497 -11.9315 -11.9151 -11.8795 -11.8622 -11.8269
   -11.7681 -11.7467 -11.7433 -11.6929 -11.6902  -2.4128  -2.3392  -2.3305
    -2.2598  -2.2208  -2.1423  -2.0742  -1.9477  -1.8338  -1.8036  -1.7623
    -1.7074  -1.6341  -1.6197  -1.5490  -1.5067  -1.3873  -1.3568  -1.3092
    -1.2845  -1.2198  -1.1711  -1.1527  -1.1396  -1.0857  -1.0445  -1.0220
    -0.9133  -0.8576  -0.8119  -0.7592  -0.7304  -0.7156  -0.6828  -0.6401
    -0.6014  -0.5937  -0.5113  -0.4379  -0.4013  -0.3680  -0.2991  -0.2276
    -0.2241  -0.1606  -0.1341  -0.1291  -0.1176   0.3555   0.4198   0.4772
     0.4930   0.8907   0.9001   0.9334   0.9690   1.2374   1.2570   1.2640
     1.3046   1.4286   1.5222   1.5508   1.5875   1.6255   1.6333   1.6442
     1.6763   1.6948   1.7159   1.7247   1.7587   1.7650   1.7917   1.8231
     1.8279   1.8431   1.8852   1.9067   1.9218   1.9526   1.9849   2.0451
     2.1120   2.3756   2.4059   2.4268   2.4442   2.4573   2.4801   2.4884
     2.5030   2.5201   2.5367   2.5418   2.5660   2.5682   2.6008   2.6330
     2.6387   2.6491   2.6603   2.6743   2.7015   2.7106   2.7132   2.7261
     2.8255   2.8364   2.8545   2.8682   3.8131   3.8609   3.8773   3.9381
     4.1259   4.2011   4.2252   4.4664   4.5891   4.6708   4.8044   4.9087
     4.9300   5.0171   5.1549   5.2583   5.8115   5.8347   5.8854   6.0016
     6.7020   6.8380   7.0554   7.5531   7.8279   7.8427   7.9212   8.0586
     8.1635   8.1988   8.2318   8.2865   8.4565   8.4816   8.4867   8.5240
     8.5512   8.6717

     occupation numbers 
     1.0000   1.0000   1.0000   1.0000   1.0000   1.0000   1.0000   1.0000
     1.0000   1.0000   1.0000   1.0000   1.0000   1.0000   1.0000   1.0000
     1.0000   1.0000   1.0000   1.0000   1.0000   1.0000   1.0000   1.0000
     1.0000   1.0000   1.0000   1.0000   1.0000   1.0000   1.0000   1.0000
     1.0000   1.0000   1.0000   1.0000   1.0000   1.0000   1.0000   1.0000
     1.0000   1.0000   1.0000   1.0000   1.0000   1.0000   1.0000   1.0000
     1.0000   1.0000   1.0000   1.0000   1.0000   1.0000   1.0000   1.0000
     1.0000   1.0000   1.0000   1.0000   1.0000   1.0000   1.0000   1.0000
     1.0000   1.0000   1.0000   1.0000   1.0000   1.0000   1.0000   1.0000
     1.0000   1.0000   1.0000   1.0000   1.0000   1.0000   1.0000   1.0000
     1.0000   1.0000   1.0000   1.0000   1.0000   1.0000   1.0000   1.0000
     1.0000   1.0000   1.0000   1.0000   1.0000   1.0000   1.0000   1.0000
     1.0000   1.0000   1.0000   1.0000   1.0000   1.0000   1.0000   1.0000
     1.0000   1.0000   1.0000   1.0000   1.0000   1.0000   1.0000   1.0000
     1.0000   1.0000   1.0000   1.0000   1.0000   1.0000   1.0000   1.0000
     1.0000   1.0000   1.0000   1.0000   1.0000   1.0000   1.0000   1.0000
     1.0000   1.0000   1.0000   1.0000   1.0000   1.0000   1.0000   1.0000
     1.0000   1.0000   1.0000   1.0000   1.0000   1.0000   1.0000   1.0000
     1.0000   1.0000   1.0000   1.0000   1.0000   1.0000   1.0000   1.0000
     1.0000   1.0000   1.0000   1.0000   1.0000   1.0000   1.0000   1.0000
     1.0000   0.9996   0.9995   0.9995   0.9993   0.9976   0.9973   0.9972
     0.9967   0.9943   0.9916   0.9906   0.9891   0.9874   0.9870   0.9865
     0.9848   0.9837   0.9823   0.9818   0.9794   0.9789   0.9768   0.9741
     0.9737   0.9723   0.9681   0.9657   0.9640   0.9602   0.9559   0.9469
     0.9353   0.8697   0.8600   0.8529   0.8469   0.8423   0.8340   0.8309
     0.8254   0.8188   0.8122   0.8101   0.8002   0.7993   0.7854   0.7713
     0.7687   0.7639   0.7588   0.7523   0.7393   0.7349   0.7336   0.7273
     0.6762   0.6704   0.6606   0.6531   0.1564   0.1400   0.1347   0.1161
     0.0703   0.0564   0.0525   0.0239   0.0153   0.0112   0.0065   0.0042
     0.0038   0.0026   0.0013   0.0008   0.0000   0.0000   0.0000   0.0000
     0.0000   0.0000   0.0000   0.0000   0.0000   0.0000   0.0000   0.0000
     0.0000   0.0000   0.0000   0.0000   0.0000   0.0000   0.0000   0.0000
     0.0000   0.0000

          k = 0.2500 0.0000 0.0000 ( 65257 PWs)   bands (ev):

   -92.8954 -92.8470 -92.7497 -92.7034 -92.6456 -92.6026 -92.5843 -92.4628
   -56.2490 -56.2340 -56.1064 -56.0958 -56.0899 -56.0827 -56.0489 -56.0185
   -56.0032 -56.0027 -55.9979 -55.9527 -55.9343 -55.8962 -55.8765 -55.8444
   -55.8390 -55.7897 -55.7889 -55.7872 -55.7788 -55.7378 -55.7145 -55.6285
   -31.4559 -31.4402 -31.2963 -31.2111 -31.0746 -31.0590 -30.9813 -30.9423
[...]
     0.6327   0.6209   0.6185   0.6141   0.6100   0.6045   0.5988   0.5228
     0.3523   0.3164   0.2017   0.0747   0.0445   0.0207   0.0048   0.0029
     0.0002   0.0001   0.0000   0.0000   0.0000   0.0000   0.0000   0.0000
     0.0000   0.0000   0.0000   0.0000   0.0000   0.0000   0.0000   0.0000
     0.0000   0.0000   0.0000   0.0000   0.0000   0.0000   0.0000   0.0000
     0.0000   0.0000

          k =-0.5000 0.0000 0.0000 ( 65180 PWs)   bands (ev):

   -92.8954 -92.8470 -92.7497 -92.7034 -92.6456 -92.6026 -92.5843 -92.4628
   -56.2490 -56.2340 -56.1064 -56.0958 -56.0899 -56.0827 -56.0489 -56.0185
   -56.0032 -56.0027 -55.9979 -55.9527 -55.9343 -55.8962 -55.8765 -55.8444
   -55.8390 -55.7897 -55.7889 -55.7872 -55.7788 -55.7378 -55.7145 -55.6285
   -31.4537 -31.4424 -31.2959 -31.2114 -31.0743 -31.0587 -30.9817 -30.9425
   -30.0368 -29.9980 -29.9692 -29.8642 -15.2046 -15.1528 -15.0904 -14.9719
   -14.8781 -14.7328 -14.5885 -14.4255 -14.3212 -14.2990 -14.2955 -14.2277
   -14.1765 -14.1476 -14.0959 -14.0756 -14.0680 -14.0211 -13.9795 -13.8872
   -13.7438 -13.7036 -13.6821 -13.6739 -13.5553 -13.5485 -13.4830 -13.4468
   -13.4236 -13.3898 -13.2348 -13.2218 -13.1965 -13.1860 -13.1298 -13.1091
   -13.0911 -13.0515 -12.9343 -12.8941 -12.8835 -12.8566 -12.8461 -12.8227
   -12.8137 -12.8058 -12.7229 -12.5782 -12.5087 -12.4220 -12.3520 -12.3188
   -11.9939 -11.9690 -11.9475 -11.9405 -11.9270 -11.9082 -11.8665 -11.8044
   -11.7856 -11.7517 -11.7106 -11.7014 -11.6856  -2.7719  -2.7336  -2.5715
    -2.5315  -2.2165  -2.1411  -1.9962  -1.8772  -1.8374  -1.7918  -1.7451
    -1.7206  -1.5959  -1.5522  -1.5356  -1.4545  -1.4178  -1.4018  -1.3720
    -1.3094  -1.2443  -1.2170  -1.1818  -1.0854  -1.0443  -0.9950  -0.9616
    -0.9415  -0.9080  -0.8609  -0.8361  -0.7946  -0.6931  -0.6281  -0.5514
    -0.4934  -0.3204  -0.2953  -0.2453  -0.1953  -0.1351  -0.1230   0.0176
     0.0459   0.0798   0.2503   0.3505   0.4013   0.4893   0.5681   0.6701
     0.6895   0.8237   0.8451   0.8974   0.9299   0.9650   0.9776   1.0259
     1.0439   1.1180   1.1631   1.2071   1.2236   1.5229   1.5371   1.5554
     1.5817   1.6793   1.6890   1.7042   1.7142   1.7398   1.7546   1.7907
     1.8072   1.8384   1.8870   1.9090   1.9570   1.9810   2.0346   2.1418
     2.2515   2.3130   2.3311   2.4054   2.4337   2.4598   2.5295   2.5381
     2.5447   2.5535   2.5811   2.6006   2.6417   2.6493   2.6944   2.7507
     2.7670   2.8087   2.8142   2.8186   2.8255   2.8417   2.8530   2.8661
     2.8720   2.8934   2.8943   2.9201   2.9367   2.9425   3.0726   3.0800
     3.8728   3.9528   4.0261   4.1454   4.6065   4.6960   4.8768   4.9171
     5.3618   5.3981   5.4762   5.5132   5.8507   5.8615   6.3335   6.7279
     6.7484   6.9373   7.1951   7.2468   7.6133   7.6542   7.6843   7.6978
     7.7820   7.9724   8.1426   8.1938   8.2842   8.3628   8.4739   8.5347
     8.6262   8.7970

     occupation numbers 
     1.0000   1.0000   1.0000   1.0000   1.0000   1.0000   1.0000   1.0000
     1.0000   1.0000   1.0000   1.0000   1.0000   1.0000   1.0000   1.0000
     1.0000   1.0000   1.0000   1.0000   1.0000   1.0000   1.0000   1.0000
     1.0000   1.0000   1.0000   1.0000   1.0000   1.0000   1.0000   1.0000
     1.0000   1.0000   1.0000   1.0000   1.0000   1.0000   1.0000   1.0000
     1.0000   1.0000   1.0000   1.0000   1.0000   1.0000   1.0000   1.0000
     1.0000   1.0000   1.0000   1.0000   1.0000   1.0000   1.0000   1.0000
     1.0000   1.0000   1.0000   1.0000   1.0000   1.0000   1.0000   1.0000
     1.0000   1.0000   1.0000   1.0000   1.0000   1.0000   1.0000   1.0000
     1.0000   1.0000   1.0000   1.0000   1.0000   1.0000   1.0000   1.0000
     1.0000   1.0000   1.0000   1.0000   1.0000   1.0000   1.0000   1.0000
     1.0000   1.0000   1.0000   1.0000   1.0000   1.0000   1.0000   1.0000
     1.0000   1.0000   1.0000   1.0000   1.0000   1.0000   1.0000   1.0000
     1.0000   1.0000   1.0000   1.0000   1.0000   1.0000   1.0000   1.0000
     1.0000   1.0000   1.0000   1.0000   1.0000   1.0000   1.0000   1.0000
     1.0000   1.0000   1.0000   1.0000   1.0000   1.0000   1.0000   1.0000
     1.0000   1.0000   1.0000   1.0000   1.0000   1.0000   1.0000   1.0000
     1.0000   1.0000   1.0000   1.0000   1.0000   1.0000   1.0000   1.0000
     1.0000   1.0000   1.0000   1.0000   1.0000   1.0000   1.0000   1.0000
     1.0000   1.0000   1.0000   1.0000   1.0000   1.0000   0.9999   0.9999
     0.9999   0.9997   0.9997   0.9996   0.9995   0.9994   0.9993   0.9991
     0.9990   0.9986   0.9983   0.9979   0.9977   0.9916   0.9911   0.9904
     0.9894   0.9846   0.9840   0.9831   0.9825   0.9807   0.9797   0.9769
     0.9755   0.9727   0.9679   0.9655   0.9597   0.9565   0.9486   0.9295
     0.9048   0.8884   0.8832   0.8601   0.8506   0.8414   0.8150   0.8116
     0.8090   0.8054   0.7939   0.7855   0.7673   0.7639   0.7427   0.7151
     0.7068   0.6851   0.6822   0.6799   0.6762   0.6675   0.6614   0.6542
     0.6510   0.6392   0.6387   0.6243   0.6149   0.6116   0.5360   0.5316
     0.1361   0.1118   0.0925   0.0664   0.0144   0.0102   0.0048   0.0040
     0.0005   0.0004   0.0003   0.0002   0.0000   0.0000   0.0000   0.0000
     0.0000   0.0000   0.0000   0.0000   0.0000   0.0000   0.0000   0.0000
     0.0000   0.0000   0.0000   0.0000   0.0000   0.0000   0.0000   0.0000
     0.0000   0.0000

          k =-0.2500 0.2500 0.0000 ( 65198 PWs)   bands (ev):

   -92.8954 -92.8470 -92.7497 -92.7034 -92.6456 -92.6026 -92.5843 -92.4628
   -56.2490 -56.2340 -56.1064 -56.0958 -56.0899 -56.0827 -56.0489 -56.0185
   -56.0032 -56.0027 -55.9979 -55.9527 -55.9343 -55.8962 -55.8765 -55.8444
   -55.8390 -55.7897 -55.7889 -55.7872 -55.7788 -55.7378 -55.7145 -55.6285
   -31.4557 -31.4400 -31.2965 -31.2112 -31.0742 -31.0588 -30.9817 -30.9425
   -30.0372 -29.9966 -29.9702 -29.8641 -15.2075 -15.1641 -15.0901 -14.9741
   -14.8557 -14.7313 -14.6498 -14.4338 -14.3013 -14.2729 -14.2538 -14.2112
   -14.1838 -14.1653 -14.1387 -14.0822 -14.0212 -14.0078 -13.8567 -13.8310
   -13.7999 -13.7813 -13.7209 -13.6840 -13.6182 -13.5730 -13.4524 -13.4223
   -13.4008 -13.3263 -13.2823 -13.2209 -13.1880 -13.1656 -13.1274 -13.1089
   -13.0681 -13.0043 -12.9545 -12.9464 -12.9317 -12.8777 -12.8732 -12.8657
   -12.8363 -12.8039 -12.6401 -12.6241 -12.5734 -12.4646 -12.2831 -12.2144
   -11.9945 -11.9886 -11.9678 -11.9409 -11.9284 -11.8872 -11.8526 -11.8297
   -11.8077 -11.7855 -11.7023 -11.6568 -11.6474  -2.8565  -2.6498  -2.5280
    -2.4387  -2.3220  -2.2563  -2.0502  -1.9082  -1.8901  -1.8583  -1.7658
    -1.7326  -1.6374  -1.6033  -1.5766  -1.4356  -1.3779  -1.3092  -1.2819
    -1.2205  -1.2003  -1.1607  -1.1321  -1.0919  -1.0275  -0.9794  -0.9112
    -0.8465  -0.8192  -0.7716  -0.7421  -0.6961  -0.6383  -0.5873  -0.5528
    -0.4453  -0.4198  -0.4027  -0.3614  -0.2967  -0.2062  -0.1802  -0.1421
    -0.0666  -0.0488   0.2038   0.3796   0.4144   0.4606   0.5218   0.5681
     0.6186   0.6939   0.7184   0.9997   1.1045   1.1445   1.1770   1.1849
     1.2239   1.2403   1.2871   1.3192   1.3300   1.3562   1.4079   1.4241
     1.4604   1.4825   1.5270   1.6318   1.6379   1.6589   1.6950   1.7230
     1.7633   1.8101   1.9175   2.0257   2.0473   2.0930   2.1128   2.1788
     2.2185   2.2454   2.2736   2.2909   2.3914   2.4277   2.5200   2.5435
     2.5979   2.6428   2.6923   2.7022   2.7161   2.7246   2.7351   2.7496
     2.7590   2.7760   2.7851   2.7961   2.8073   2.8177   2.8266   2.8351
     2.8693   2.8795   2.8863   2.9210   3.2116   3.2931   3.3639   3.4343
     3.4753   3.6587   3.7713   4.1280   4.3281   4.5451   4.8114   5.1237
     5.4954   5.5490   5.5986   5.6439   5.7115   6.1002   6.1307   6.2086
     6.8290   7.1321   7.2731   7.3915   7.4570   7.4787   7.5617   7.7599
     7.8897   8.0731   8.1969   8.2874   8.3192   8.3834   8.4572   8.4669
     8.5683   8.6942

     occupation numbers 
     1.0000   1.0000   1.0000   1.0000   1.0000   1.0000   1.0000   1.0000
     1.0000   1.0000   1.0000   1.0000   1.0000   1.0000   1.0000   1.0000
     1.0000   1.0000   1.0000   1.0000   1.0000   1.0000   1.0000   1.0000
     1.0000   1.0000   1.0000   1.0000   1.0000   1.0000   1.0000   1.0000
     1.0000   1.0000   1.0000   1.0000   1.0000   1.0000   1.0000   1.0000
     1.0000   1.0000   1.0000   1.0000   1.0000   1.0000   1.0000   1.0000
     1.0000   1.0000   1.0000   1.0000   1.0000   1.0000   1.0000   1.0000
     1.0000   1.0000   1.0000   1.0000   1.0000   1.0000   1.0000   1.0000
     1.0000   1.0000   1.0000   1.0000   1.0000   1.0000   1.0000   1.0000
     1.0000   1.0000   1.0000   1.0000   1.0000   1.0000   1.0000   1.0000
     1.0000   1.0000   1.0000   1.0000   1.0000   1.0000   1.0000   1.0000
     1.0000   1.0000   1.0000   1.0000   1.0000   1.0000   1.0000   1.0000
     1.0000   1.0000   1.0000   1.0000   1.0000   1.0000   1.0000   1.0000
     1.0000   1.0000   1.0000   1.0000   1.0000   1.0000   1.0000   1.0000
     1.0000   1.0000   1.0000   1.0000   1.0000   1.0000   1.0000   1.0000
     1.0000   1.0000   1.0000   1.0000   1.0000   1.0000   1.0000   1.0000
     1.0000   1.0000   1.0000   1.0000   1.0000   1.0000   1.0000   1.0000
     1.0000   1.0000   1.0000   1.0000   1.0000   1.0000   1.0000   1.0000
     1.0000   1.0000   1.0000   1.0000   1.0000   1.0000   1.0000   1.0000
     1.0000   1.0000   1.0000   1.0000   1.0000   1.0000   0.9999   0.9999
     0.9999   0.9999   0.9998   0.9992   0.9987   0.9984   0.9982   0.9981
     0.9977   0.9975   0.9969   0.9965   0.9963   0.9958   0.9948   0.9944
     0.9935   0.9929   0.9915   0.9871   0.9868   0.9857   0.9837   0.9819
     0.9790   0.9753   0.9645   0.9500   0.9466   0.9388   0.9352   0.9218
     0.9128   0.9063   0.8991   0.8945   0.8647   0.8526   0.8188   0.8094
     0.7867   0.7668   0.7437   0.7390   0.7322   0.7281   0.7228   0.7156
     0.7108   0.7022   0.6975   0.6917   0.6858   0.6804   0.6756   0.6711
     0.6525   0.6469   0.6431   0.6238   0.4537   0.4062   0.3660   0.3275
     0.3058   0.2177   0.1717   0.0698   0.0380   0.0180   0.0064   0.0016
     0.0002   0.0002   0.0001   0.0001   0.0001   0.0000   0.0000   0.0000
     0.0000   0.0000   0.0000   0.0000   0.0000   0.0000   0.0000   0.0000
     0.0000   0.0000   0.0000   0.0000   0.0000   0.0000   0.0000   0.0000
     0.0000   0.0000

          k =-0.5000 0.2500 0.0000 ( 65138 PWs)   bands (ev):

   -92.8954 -92.8470 -92.7497 -92.7034 -92.6456 -92.6026 -92.5843 -92.4628
   -56.2490 -56.2340 -56.1064 -56.0958 -56.0899 -56.0827 -56.0489 -56.0185
   -56.0032 -56.0027 -55.9979 -55.9527 -55.9343 -55.8962 -55.8765 -55.8444
   -55.8390 -55.7897 -55.7889 -55.7872 -55.7788 -55.7378 -55.7145 -55.6285
   -31.4535 -31.4423 -31.2961 -31.2116 -31.0740 -31.0585 -30.9821 -30.9428
   -30.0362 -29.9977 -29.9698 -29.8645 -15.1719 -15.1265 -15.0477 -14.9409
   -14.9031 -14.7804 -14.6899 -14.5485 -14.2528 -14.2209 -14.2076 -14.1656
   -14.1382 -14.1193 -14.0826 -14.0580 -14.0488 -14.0090 -13.9816 -13.8817
   -13.8241 -13.7752 -13.7680 -13.7443 -13.6526 -13.5898 -13.5132 -13.4542
   -13.3811 -13.3446 -13.2465 -13.2077 -13.1971 -13.1658 -13.1313 -13.1205
   -13.0601 -13.0157 -12.9473 -12.9168 -12.8902 -12.8713 -12.8444 -12.8098
   -12.8021 -12.7943 -12.7207 -12.5647 -12.5039 -12.4113 -12.3342 -12.3116
   -11.9941 -11.9619 -11.9494 -11.9350 -11.9226 -11.9017 -11.8713 -11.7901
   -11.7830 -11.7580 -11.7250 -11.6970 -11.6880  -2.6288  -2.5877  -2.4410
    -2.3980  -2.2358  -2.1597  -2.0202  -1.8828  -1.8261  -1.7994  -1.7612
    -1.7231  -1.6420  -1.5257  -1.4686  -1.4451  -1.4184  -1.3414  -1.3138
    -1.2737  -1.2582  -1.1981  -1.1648  -1.1293  -1.0943  -1.0652  -1.0062
    -0.9779  -0.9355  -0.9005  -0.7966  -0.7685  -0.6749  -0.6191  -0.5878
    -0.5269  -0.4479  -0.4094  -0.3130  -0.2614  -0.2118  -0.1515  -0.1277
    -0.0622  -0.0395  -0.0073   0.0413   0.0842   0.4087   0.4899   0.5259
     0.5393   0.8384   0.8936   0.9682   0.9922   1.1649   1.2001   1.2382
     1.2469   1.2654   1.2835   1.3530   1.4017   1.4451   1.4730   1.6090
     1.6450   1.6620   1.6727   1.7139   1.7401   1.7558   1.7658   1.7837
     1.8107   1.8511   1.8633   1.9007   1.9243   1.9598   2.0094   2.1344
     2.2337   2.2618   2.3297   2.3606   2.4233   2.4562   2.4647   2.5070
     2.5334   2.5455   2.5637   2.5985   2.6413   2.6500   2.6928   2.7024
     2.7121   2.7319   2.7492   2.7619   2.7780   2.7939   2.8153   2.8252
     2.8359   2.8428   2.8523   2.8650   3.3954   3.4499   3.5825   3.6045
     3.8814   3.9746   4.0265   4.2244   4.5988   4.7084   4.8670   4.9317
     5.2271   5.2559   5.4850   5.5665   5.6058   5.6364   6.3285   6.4352
     6.4530   6.8638   7.2618   7.5944   7.6629   7.7203   7.7793   7.7987
     7.8965   7.9501   8.2677   8.3641   8.4116   8.4203   8.4923   8.5533
     8.6744   8.6925

     occupation numbers 
     1.0000   1.0000   1.0000   1.0000   1.0000   1.0000   1.0000   1.0000
     1.0000   1.0000   1.0000   1.0000   1.0000   1.0000   1.0000   1.0000
     1.0000   1.0000   1.0000   1.0000   1.0000   1.0000   1.0000   1.0000
     1.0000   1.0000   1.0000   1.0000   1.0000   1.0000   1.0000   1.0000
     1.0000   1.0000   1.0000   1.0000   1.0000   1.0000   1.0000   1.0000
     1.0000   1.0000   1.0000   1.0000   1.0000   1.0000   1.0000   1.0000
     1.0000   1.0000   1.0000   1.0000   1.0000   1.0000   1.0000   1.0000
     1.0000   1.0000   1.0000   1.0000   1.0000   1.0000   1.0000   1.0000
     1.0000   1.0000   1.0000   1.0000   1.0000   1.0000   1.0000   1.0000
     1.0000   1.0000   1.0000   1.0000   1.0000   1.0000   1.0000   1.0000
     1.0000   1.0000   1.0000   1.0000   1.0000   1.0000   1.0000   1.0000
     1.0000   1.0000   1.0000   1.0000   1.0000   1.0000   1.0000   1.0000
     1.0000   1.0000   1.0000   1.0000   1.0000   1.0000   1.0000   1.0000
     1.0000   1.0000   1.0000   1.0000   1.0000   1.0000   1.0000   1.0000
     1.0000   1.0000   1.0000   1.0000   1.0000   1.0000   1.0000   1.0000
     1.0000   1.0000   1.0000   1.0000   1.0000   1.0000   1.0000   1.0000
     1.0000   1.0000   1.0000   1.0000   1.0000   1.0000   1.0000   1.0000
     1.0000   1.0000   1.0000   1.0000   1.0000   1.0000   1.0000   1.0000
     1.0000   1.0000   1.0000   1.0000   1.0000   1.0000   1.0000   1.0000
     1.0000   1.0000   1.0000   1.0000   1.0000   1.0000   1.0000   0.9999
     0.9999   0.9997   0.9996   0.9993   0.9993   0.9983   0.9980   0.9976
     0.9975   0.9972   0.9970   0.9959   0.9949   0.9939   0.9932   0.9882
     0.9865   0.9855   0.9850   0.9825   0.9807   0.9796   0.9789   0.9775
     0.9752   0.9715   0.9703   0.9664   0.9637   0.9593   0.9524   0.9310
     0.9092   0.9022   0.8836   0.8744   0.8541   0.8427   0.8396   0.8238
     0.8135   0.8087   0.8012   0.7865   0.7675   0.7635   0.7435   0.7389
     0.7342   0.7244   0.7158   0.7094   0.7011   0.6929   0.6816   0.6764
     0.6706   0.6669   0.6618   0.6549   0.3486   0.3191   0.2524   0.2421
     0.1333   0.1058   0.0924   0.0526   0.0148   0.0097   0.0050   0.0038
     0.0009   0.0008   0.0002   0.0002   0.0001   0.0001   0.0000   0.0000
     0.0000   0.0000   0.0000   0.0000   0.0000   0.0000   0.0000   0.0000
     0.0000   0.0000   0.0000   0.0000   0.0000   0.0000   0.0000   0.0000
     0.0000   0.0000

     the Fermi energy is     3.1333 ev

!    total energy              =   -4440.31089078 Ry
     estimated scf accuracy    <          9.2E-09 Ry
     smearing contrib. (-TS)   =      -1.20775822 Ry
     internal energy E=F+TS    =   -4439.10313256 Ry

     The total energy is F=E-TS. E is the sum of the following terms:
     one-electron contribution =  -20889.38423325 Ry
     hartree contribution      =   10573.53849973 Ry
     xc contribution           =    -693.24944482 Ry
     ewald contribution        =    6846.18301069 Ry
     one-center paw contrib.   =    -276.19096491 Ry
      -> PAW hartree energy AE =      25.07606244 Ry
      -> PAW hartree energy PS =     -24.96092447 Ry
      -> PAW xc energy AE      =     -16.50503229 Ry
      -> PAW xc energy PS      =       6.86393546 Ry
      -> total E_H with PAW    =   10573.65363771 Ry
      -> total E_XC with PAW   =    -702.89054164 Ry

     convergence has been achieved in  49 iterations

     Writing all to output data dir /bsuhome/zayahcortright/scratch/pwscf.save/
 
     init_run     :      7.87s CPU      8.83s WALL (       1 calls)
     electrons    :    703.25s CPU    737.11s WALL (       1 calls)

     Called by init_run:
     wfcinit      :      6.33s CPU      6.53s WALL (       1 calls)
     wfcinit:atom :      0.05s CPU      0.07s WALL (       5 calls)
     wfcinit:wfcr :      5.99s CPU      6.12s WALL (       5 calls)
     potinit      :      0.16s CPU      0.19s WALL (       1 calls)
     hinit0       :      0.53s CPU      0.97s WALL (       1 calls)

     Called by electrons:
     c_bands      :    556.66s CPU    563.67s WALL (      49 calls)
     sum_band     :    109.68s CPU    124.56s WALL (      49 calls)
     v_of_rho     :      5.38s CPU      5.77s WALL (      50 calls)
     v_h          :      0.45s CPU      0.45s WALL (      50 calls)
     v_xc         :      4.94s CPU      5.32s WALL (      50 calls)
     newd         :     16.30s CPU     27.53s WALL (      50 calls)
     PAW_pot      :      1.60s CPU      1.63s WALL (      50 calls)
     mix_rho      :     13.31s CPU     13.72s WALL (      49 calls)

     Called by c_bands:
     init_us_2    :      7.01s CPU      7.07s WALL (     495 calls)
     init_us_2:cp :      7.00s CPU      7.07s WALL (     495 calls)
     cegterg      :    525.30s CPU    532.01s WALL (     245 calls)

     Called by sum_band:
     sum_band:wei :      0.36s CPU      0.37s WALL (      49 calls)
     sum_band:loo :     92.00s CPU     92.79s WALL (      49 calls)
     sum_band:buf :      1.48s CPU      1.56s WALL (     245 calls)
     sum_band:ini :      3.31s CPU      3.32s WALL (     245 calls)
     sum_band:cal :     19.53s CPU     19.59s WALL (     245 calls)
     sum_band:bec :      0.52s CPU      0.52s WALL (     245 calls)
     addusdens    :     15.57s CPU     29.60s WALL (      49 calls)
                                        0.00s GPU  (      49 calls)
     addusd:skk   :      0.31s CPU      0.98s WALL (     147 calls)
                                        0.00s GPU  (     147 calls)

     Called by *egterg:
     cdiaghg      :     54.20s CPU     54.44s WALL (    1258 calls)
     cegterg:over :     38.43s CPU     38.58s WALL (    1013 calls)
     cegterg:upda :     28.33s CPU     28.85s WALL (    1013 calls)
     cegterg:last :     55.71s CPU     55.94s WALL (     428 calls)
     cdiaghg:chol :      3.05s CPU      3.07s WALL (    1258 calls)
     cdiaghg:inve :      2.62s CPU      2.64s WALL (    1258 calls)
     cdiaghg:para :      6.98s CPU      7.03s WALL (    2516 calls)
     h_psi        :    293.05s CPU    296.37s WALL (    1263 calls)
     s_psi        :     39.92s CPU     40.05s WALL (    1263 calls)
     g_psi        :      1.14s CPU      1.14s WALL (    1013 calls)

     Called by h_psi:
     h_psi:calbec :     44.79s CPU     45.02s WALL (    1263 calls)
     vloc_psi     :    205.60s CPU    207.81s WALL (    1263 calls)
     add_vuspsi   :     39.66s CPU     39.87s WALL (    1263 calls)

     General routines
     calbec       :     64.31s CPU     64.61s WALL (    1508 calls)
     fft          :      3.88s CPU      3.93s WALL (     648 calls)
     ffts         :      4.67s CPU      4.72s WALL (    5231 calls)
     fftw         :    174.67s CPU    176.23s WALL (  331182 calls)
     interpolate  :      0.41s CPU      0.42s WALL (      50 calls)
 
     Parallel routines

     PAW routines
     PAW_pot      :      1.60s CPU      1.63s WALL (      50 calls)
 
     PWSCF        :  11m52.92s CPU  12m31.47s WALL

 
   This run was terminated on:  23:46:51  21Jun2024            

=------------------------------------------------------------------------------=
   JOB DONE.
=------------------------------------------------------------------------------=
