
     Program PWSCF v.7.2 starts on 21Jun2024 at 19:36:25 

     This program is part of the open-source Quantum ESPRESSO suite
     for quantum simulation of materials; please cite
         "P. Giannozzi et al., J. Phys.:Condens. Matter 21 395502 (2009);
         "P. Giannozzi et al., J. Phys.:Condens. Matter 29 465901 (2017);
         "P. Giannozzi et al., J. Chem. Phys. 152 154105 (2020);
          URL http://www.quantum-espresso.org", 
     in publications or presentations arising from this work. More details at
     http://www.quantum-espresso.org/quote

     Parallel version (MPI & OpenMP), running on      48 processor cores
     Number of MPI processes:                48
     Threads/MPI process:                     1

     MPI processes distributed on     1 nodes
     33229 MiB available memory on the printing compute node when the environment starts
 
     Reading input from espresso.pwi
Warning: card &CELL ignored
Warning: card / ignored
Warning: card &FCP ignored
Warning: card / ignored
Warning: card &RISM ignored
Warning: card / ignored

     Current dimensions of program PWSCF are:
     Max number of different atomic species (ntypx) = 10
     Max number of k-points (npk) =  40000
     Max angular momentum in pseudopotentials (lmaxx) =  4
     file O.pbe-n-kjpaw_psl.0.1.UPF: wavefunction(s)  2P renormalized
     signal trapping enabled: kill the code with -SIGUSR1 to stop cleanly the simulation 
 
     K-points division:     npool     =       2
     R & G space division:  proc/nbgrp/npool/nimage =      24
     Subspace diagonalization in iterative solution of the eigenvalue problem:
     one sub-group per band group will be used
     scalapack distributed-memory algorithm (size of sub-group:  3*  3 procs)

 
     Parallelization info
     --------------------
     sticks:   dense  smooth     PW     G-vecs:    dense   smooth      PW
     Min         350     175     47                61430    21716    3036
     Max         351     177     48                61449    21727    3041
     Sum        8421    4205   1137              1474595   521381   72913
 
     Using Slab Decomposition
 


     bravais-lattice index     =            0
     lattice parameter (alat)  =      14.8599  a.u.
     unit-cell volume          =    8305.1283 (a.u.)^3
     number of atoms/cell      =           50
     number of atomic types    =            4
     number of electrons       =       431.00
     number of Kohn-Sham states=          259
     kinetic-energy cutoff     =      60.0000  Ry
     charge density cutoff     =     480.0000  Ry
     scf convergence threshold =      1.0E-08
     mixing beta               =       0.1500
     number of iterations used =            8  local-TF  mixing
     Exchange-correlation= PBE
                           (   1   4   3   4   0   0   0)

     celldm(1)=  14.859904  celldm(2)=   0.000000  celldm(3)=   0.000000
     celldm(4)=   0.000000  celldm(5)=   0.000000  celldm(6)=   0.000000

     crystal axes: (cart. coord. in units of alat)
               a(1) = (   1.000000   0.000000   0.000000 )  
               a(2) = (   0.000000   1.000000   0.000000 )  
               a(3) = (   0.000000   0.000000   2.531036 )  

     reciprocal axes: (cart. coord. in units 2 pi/alat)
               b(1) = (  1.000000  0.000000  0.000000 )  
               b(2) = (  0.000000  1.000000  0.000000 )  
               b(3) = (  0.000000  0.000000  0.395095 )  


     PseudoPot. # 1 for Sr read from file:
     /bsuhome/zayahcortright/q-e/pseudo/Sr_pbe_v1.uspp.F.UPF
     MD5 check sum: 6b418c05fbe9db5448babca5e47b7a5b
     Pseudo is Ultrasoft + core correction, Zval = 10.0
     Generated by new atomic code, or converted to UPF format
     Using radial grid of  883 points,  6 beta functions with: 
                l(1) =   0
                l(2) =   0
                l(3) =   1
                l(4) =   1
                l(5) =   2
                l(6) =   2
     Q(r) pseudized with  6 coefficients,  rinner =    1.400   1.400   1.400
                                                       1.400   1.400

     PseudoPot. # 2 for O  read from file:
     /bsuhome/zayahcortright/q-e/pseudo/O.pbe-n-kjpaw_psl.0.1.UPF
     MD5 check sum: 0234752ac141de4415c5fc33072bef88
     Pseudo is Projector augmented-wave + core cor, Zval =  6.0
     Generated using "atomic" code by A. Dal Corso  v.5.0.99 svn rev. 10869
     Shape of augmentation charge: BESSEL
     Using radial grid of 1095 points,  4 beta functions with: 
                l(1) =   0
                l(2) =   0
                l(3) =   1
                l(4) =   1
     Q(r) pseudized with 0 coefficients 


     PseudoPot. # 3 for Co read from file:
     /bsuhome/zayahcortright/q-e/pseudo/Co_pbe_v1.2.uspp.F.UPF
     MD5 check sum: 5f91765df6ddd3222702df6e7b74a16d
     Pseudo is Ultrasoft + core correction, Zval = 17.0
     Generated by new atomic code, or converted to UPF format
     Using radial grid of  863 points,  6 beta functions with: 
                l(1) =   0
                l(2) =   0
                l(3) =   1
                l(4) =   1
                l(5) =   2
                l(6) =   2
     Q(r) pseudized with  8 coefficients,  rinner =    1.200   1.200   1.200
                                                       1.200   1.200

     PseudoPot. # 4 for H  read from file:
     /bsuhome/zayahcortright/q-e/pseudo/H.pbe-rrkjus_psl.1.0.0.UPF
     MD5 check sum: f52b6d4d1c606e5624b1dc7b2218f220
     Pseudo is Ultrasoft, Zval =  1.0
     Generated using "atomic" code by A. Dal Corso  v.5.1
     Using radial grid of  929 points,  2 beta functions with: 
                l(1) =   0
                l(2) =   0
     Q(r) pseudized with 0 coefficients 


     atomic species   valence    mass     pseudopotential
        Sr            10.00    87.62000     Sr( 1.00)
        O              6.00    15.99900     O ( 1.00)
        Co            17.00    58.93319     Co( 1.00)
        H              1.00     1.00800     H ( 1.00)

     No symmetry found


                                    s                        frac. trans.

      isym =  1     identity                                     

 cryst.   s( 1) = (     1          0          0      )
                  (     0          1          0      )
                  (     0          0          1      )

 cart.    s( 1) = (  1.0000000  0.0000000  0.0000000 )
                  (  0.0000000  1.0000000  0.0000000 )
                  (  0.0000000  0.0000000  1.0000000 )


   Cartesian axes

     site n.     atom                  positions (alat units)
         1           Sr  tau(   1) = (   0.2508693   0.7491307   1.7574407  )
         2           O   tau(   2) = (   0.4985141   0.5014859   1.7715967  )
         3           Sr  tau(   3) = (   0.7482398   0.7454518   1.7648669  )
         4           Sr  tau(   4) = (   0.7441748   0.2558252   1.7667843  )
         5           Sr  tau(   5) = (   0.2508693   0.7491307   1.2696799  )
         6           Sr  tau(   6) = (   0.2508693   0.7491307   0.7632319  )
         7           Co  tau(   7) = (   0.4998914   0.5001086   1.0164559  )
         8           Co  tau(   8) = (   0.4936915   0.5063085   1.5135603  )
         9           O   tau(   9) = (   0.4988895   0.7610401   1.0164559  )
        10           O   tau(  10) = (   0.2389599   0.5011105   1.0164559  )
        11           O   tau(  11) = (   0.0070918   0.7374880   1.0164559  )
        12           O   tau(  12) = (   0.0088340   0.7405089   1.5135603  )
        13           O   tau(  13) = (   0.5066944   0.7415376   1.5135603  )
        14           O   tau(  14) = (   0.2584624   0.4933056   1.5135603  )
        15           O   tau(  15) = (   0.4985141   0.5014859   0.7773880  )
        16           O   tau(  16) = (   0.4985141   0.5014859   1.2555238  )
        17           Sr  tau(  17) = (   0.7482398   0.7454518   0.7706582  )
        18           Sr  tau(  18) = (   0.7482398   0.7454518   1.2622536  )
        19           Sr  tau(  19) = (   0.7441748   0.2558252   0.7725755  )
        20           Sr  tau(  20) = (   0.7441748   0.2558252   1.2603363  )
        21           O   tau(  21) = (   0.7322655   0.0078049   1.5135603  )
        22           O   tau(  22) = (   0.7558175   0.4996027   1.5135603  )
        23           O   tau(  23) = (   0.5003973   0.2441825   1.5135603  )
        24           O   tau(  24) = (   0.7527966   0.4978604   1.0164559  )
        25           O   tau(  25) = (   0.5021396   0.2472034   1.0164559  )
        26           O   tau(  26) = (   0.7517679   0.0000000   1.0164559  )
        27           O   tau(  27) = (   0.0114961   0.4948124   1.7455321  )
        28           O   tau(  28) = (   0.0048226   0.0077944   1.7715967  )
        29           Sr  tau(  29) = (   0.2545482   0.2517602   1.7648669  )
        30           O   tau(  30) = (   0.5048017   0.0015068   1.7786929  )
        31           Co  tau(  31) = (   0.0056869   0.5006215   1.0164559  )
        32           Co  tau(  32) = (   0.0065315   0.4997770   1.5135603  )
        33           Co  tau(  33) = (   0.0061999   0.0064171   1.0164559  )
        34           Co  tau(  34) = (   0.0000000   0.0126169   1.5135603  )
        35           O   tau(  35) = (   0.0114961   0.4948124   1.2815885  )
        36           O   tau(  36) = (   0.0114961   0.4948124   0.7513233  )
        37           O   tau(  37) = (   0.0051979   0.2673486   1.0164559  )
        38           O   tau(  38) = (   0.0130029   0.2478461   1.5135603  )
        39           O   tau(  39) = (   0.0048226   0.0077944   0.7773880  )
        40           O   tau(  40) = (   0.0048226   0.0077944   1.2555238  )
        41           Sr  tau(  41) = (   0.2545482   0.2517602   0.7706582  )
        42           Sr  tau(  42) = (   0.2545482   0.2517602   1.2622536  )
        43           Co  tau(  43) = (   0.4989925   0.0073160   1.5135603  )
        44           Co  tau(  44) = (   0.4998370   0.0064714   1.0164559  )
        45           O   tau(  45) = (   0.5048017   0.0015068   0.7844841  )
        46           O   tau(  46) = (   0.5048017   0.0015068   1.2484277  )
        47           O   tau(  47) = (   0.2621260   0.0059111   1.5135603  )
        48           O   tau(  48) = (   0.2591051   0.0041689   1.0164559  )
        49           O   tau(  49) = (   0.2843291   0.8529874   2.1602013  )
        50           H   tau(  50) = (   0.2843291   0.8529874   2.2847091  )

   Crystallographic axes

     site n.     atom                  positions (cryst. coord.)
         1           Sr  tau(   1) = (  0.2508693  0.7491307  0.6943562  )
         2           O   tau(   2) = (  0.4985141  0.5014859  0.6999492  )
         3           Sr  tau(   3) = (  0.7482398  0.7454518  0.6972903  )
         4           Sr  tau(   4) = (  0.7441748  0.2558252  0.6980478  )
         5           Sr  tau(   5) = (  0.2508693  0.7491307  0.5016443  )
         6           Sr  tau(   6) = (  0.2508693  0.7491307  0.3015492  )
         7           Co  tau(   7) = (  0.4998914  0.5001086  0.4015968  )
         8           Co  tau(   8) = (  0.4936915  0.5063085  0.5980003  )
         9           O   tau(   9) = (  0.4988895  0.7610401  0.4015968  )
        10           O   tau(  10) = (  0.2389599  0.5011105  0.4015968  )
        11           O   tau(  11) = (  0.0070918  0.7374880  0.4015968  )
        12           O   tau(  12) = (  0.0088340  0.7405089  0.5980003  )
        13           O   tau(  13) = (  0.5066944  0.7415376  0.5980003  )
        14           O   tau(  14) = (  0.2584624  0.4933056  0.5980003  )
        15           O   tau(  15) = (  0.4985141  0.5014859  0.3071422  )
        16           O   tau(  16) = (  0.4985141  0.5014859  0.4960513  )
        17           Sr  tau(  17) = (  0.7482398  0.7454518  0.3044833  )
        18           Sr  tau(  18) = (  0.7482398  0.7454518  0.4987103  )
        19           Sr  tau(  19) = (  0.7441748  0.2558252  0.3052408  )
        20           Sr  tau(  20) = (  0.7441748  0.2558252  0.4979527  )
        21           O   tau(  21) = (  0.7322655  0.0078049  0.5980003  )
        22           O   tau(  22) = (  0.7558175  0.4996027  0.5980003  )
        23           O   tau(  23) = (  0.5003973  0.2441825  0.5980003  )
        24           O   tau(  24) = (  0.7527966  0.4978604  0.4015968  )
        25           O   tau(  25) = (  0.5021396  0.2472034  0.4015968  )
        26           O   tau(  26) = (  0.7517679  0.0000000  0.4015968  )
        27           O   tau(  27) = (  0.0114961  0.4948124  0.6896512  )
        28           O   tau(  28) = (  0.0048226  0.0077944  0.6999492  )
        29           Sr  tau(  29) = (  0.2545482  0.2517602  0.6972903  )
        30           O   tau(  30) = (  0.5048017  0.0015068  0.7027529  )
        31           Co  tau(  31) = (  0.0056869  0.5006215  0.4015968  )
        32           Co  tau(  32) = (  0.0065315  0.4997770  0.5980003  )
        33           Co  tau(  33) = (  0.0061999  0.0064171  0.4015968  )
        34           Co  tau(  34) = (  0.0000000  0.0126169  0.5980003  )
        35           O   tau(  35) = (  0.0114961  0.4948124  0.5063494  )
        36           O   tau(  36) = (  0.0114961  0.4948124  0.2968442  )
        37           O   tau(  37) = (  0.0051979  0.2673486  0.4015968  )
        38           O   tau(  38) = (  0.0130029  0.2478461  0.5980003  )
        39           O   tau(  39) = (  0.0048226  0.0077944  0.3071422  )
        40           O   tau(  40) = (  0.0048226  0.0077944  0.4960513  )
        41           Sr  tau(  41) = (  0.2545482  0.2517602  0.3044833  )
        42           Sr  tau(  42) = (  0.2545482  0.2517602  0.4987103  )
        43           Co  tau(  43) = (  0.4989925  0.0073160  0.5980003  )
        44           Co  tau(  44) = (  0.4998370  0.0064714  0.4015968  )
        45           O   tau(  45) = (  0.5048017  0.0015068  0.3099459  )
        46           O   tau(  46) = (  0.5048017  0.0015068  0.4932477  )
        47           O   tau(  47) = (  0.2621260  0.0059111  0.5980003  )
        48           O   tau(  48) = (  0.2591051  0.0041689  0.4015968  )
        49           O   tau(  49) = (  0.2843291  0.8529874  0.8534850  )
        50           H   tau(  50) = (  0.2843291  0.8529874  0.9026774  )

     number of k points=    10  Gaussian smearing, width (Ry)=  0.0700
                       cart. coord. in units 2pi/alat
        k(    1) = (   0.0000000   0.0000000   0.0000000), wk =   0.1250000
        k(    2) = (   0.0000000   0.2500000   0.0000000), wk =   0.2500000
        k(    3) = (   0.0000000  -0.5000000   0.0000000), wk =   0.1250000
        k(    4) = (   0.2500000   0.2500000   0.0000000), wk =   0.2500000
        k(    5) = (   0.2500000  -0.5000000   0.0000000), wk =   0.2500000
        k(    6) = (  -0.5000000  -0.5000000   0.0000000), wk =   0.1250000
        k(    7) = (   0.2500000   0.0000000   0.0000000), wk =   0.2500000
        k(    8) = (  -0.5000000   0.0000000   0.0000000), wk =   0.1250000
        k(    9) = (  -0.2500000   0.2500000   0.0000000), wk =   0.2500000
        k(   10) = (  -0.5000000   0.2500000   0.0000000), wk =   0.2500000

                       cryst. coord.
        k(    1) = (   0.0000000   0.0000000   0.0000000), wk =   0.1250000
        k(    2) = (   0.0000000   0.2500000   0.0000000), wk =   0.2500000
        k(    3) = (   0.0000000  -0.5000000   0.0000000), wk =   0.1250000
        k(    4) = (   0.2500000   0.2500000   0.0000000), wk =   0.2500000
        k(    5) = (   0.2500000  -0.5000000   0.0000000), wk =   0.2500000
        k(    6) = (  -0.5000000  -0.5000000   0.0000000), wk =   0.1250000
        k(    7) = (   0.2500000   0.0000000   0.0000000), wk =   0.2500000
        k(    8) = (  -0.5000000   0.0000000   0.0000000), wk =   0.1250000
        k(    9) = (  -0.2500000   0.2500000   0.0000000), wk =   0.2500000
        k(   10) = (  -0.5000000   0.2500000   0.0000000), wk =   0.2500000

     Dense  grid:  1474595 G-vectors     FFT dimensions: ( 108, 108, 270)

     Smooth grid:   521381 G-vectors     FFT dimensions: (  75,  75, 192)

     Dynamical RAM for                 wfc:      10.73 MB

     Dynamical RAM for     wfc (w. buffer):      64.38 MB

     Dynamical RAM for           str. fact:       3.75 MB

     Dynamical RAM for           local pot:       0.00 MB

     Dynamical RAM for          nlocal pot:      24.61 MB

     Dynamical RAM for                qrad:       7.03 MB

     Dynamical RAM for          rho,v,vnew:       6.02 MB

     Dynamical RAM for               rhoin:       2.01 MB

     Dynamical RAM for            rho*nmix:      15.00 MB

     Dynamical RAM for           G-vectors:       3.68 MB

     Dynamical RAM for          h,s,v(r/c):       1.35 MB

     Dynamical RAM for          <psi|beta>:       2.35 MB

     Dynamical RAM for                 psi:      21.46 MB

     Dynamical RAM for                hpsi:      21.46 MB

     Dynamical RAM for                spsi:      21.46 MB

     Dynamical RAM for      wfcinit/wfcrot:      34.49 MB

     Dynamical RAM for           addusdens:     101.26 MB

     Estimated static dynamical RAM per process >     121.50 MB

     Estimated max dynamical RAM per process >     237.76 MB

     Estimated total dynamical RAM >      10.79 GB

     Check: negative core charge=   -0.000004

     Initial potential from superposition of free atoms

     starting charge     422.5961, renormalised to     431.0000

     negative rho (up, down):  7.819E-01 0.000E+00
     Starting wfcs are  377 randomized atomic wfcs
     Checking if some PAW data can be deallocated... 
       PAW data deallocated on   19 nodes for type:  2

     total cpu time spent up to now is        9.1 secs

     Self-consistent Calculation

     iteration #  1     ecut=    60.00 Ry     beta= 0.15
     Davidson diagonalization with overlap

---- Real-time Memory Report at c_bands before calling an iterative solver
             0 MiB given to the printing process from OS
             0 MiB allocation reported by mallinfo(arena+hblkhd)
         23990 MiB available memory on the node where the printing process lives
------------------
     ethr =  1.00E-02,  avg # of iterations =  2.0

     negative rho (up, down):  7.717E-01 0.000E+00

     total cpu time spent up to now is       25.6 secs

     total energy              =   -4446.65702751 Ry
     estimated scf accuracy    <      44.57460134 Ry

     iteration #  2     ecut=    60.00 Ry     beta= 0.15
     Davidson diagonalization with overlap

---- Real-time Memory Report at c_bands before calling an iterative solver
             0 MiB given to the printing process from OS
             0 MiB allocation reported by mallinfo(arena+hblkhd)
         24273 MiB available memory on the node where the printing process lives
------------------
     ethr =  1.00E-02,  avg # of iterations =  1.0

     negative rho (up, down):  7.585E-01 0.000E+00

     total cpu time spent up to now is       39.9 secs

     total energy              =   -4443.35724117 Ry
     estimated scf accuracy    <      29.86374371 Ry

     iteration #  3     ecut=    60.00 Ry     beta= 0.15
     Davidson diagonalization with overlap

---- Real-time Memory Report at c_bands before calling an iterative solver
             0 MiB given to the printing process from OS
             0 MiB allocation reported by mallinfo(arena+hblkhd)
         23432 MiB available memory on the node where the printing process lives
------------------
     ethr =  6.93E-03,  avg # of iterations =  1.0

     negative rho (up, down):  7.556E-01 0.000E+00

     total cpu time spent up to now is       54.4 secs

     total energy              =   -4444.27117559 Ry
     estimated scf accuracy    <      27.76154664 Ry

     iteration #  4     ecut=    60.00 Ry     beta= 0.15
     Davidson diagonalization with overlap

---- Real-time Memory Report at c_bands before calling an iterative solver
             0 MiB given to the printing process from OS
             0 MiB allocation reported by mallinfo(arena+hblkhd)
         23405 MiB available memory on the node where the printing process lives
------------------
     ethr =  6.44E-03,  avg # of iterations =  1.0

     negative rho (up, down):  7.501E-01 0.000E+00

     total cpu time spent up to now is       68.7 secs

     total energy              =   -4443.11135443 Ry
     estimated scf accuracy    <      20.24717004 Ry

     iteration #  5     ecut=    60.00 Ry     beta= 0.15
     Davidson diagonalization with overlap

---- Real-time Memory Report at c_bands before calling an iterative solver
             0 MiB given to the printing process from OS
             0 MiB allocation reported by mallinfo(arena+hblkhd)
         23386 MiB available memory on the node where the printing process lives
------------------
     ethr =  4.70E-03,  avg # of iterations =  1.0

     negative rho (up, down):  7.397E-01 0.000E+00

     total cpu time spent up to now is       83.1 secs

     total energy              =   -4442.47610801 Ry
     estimated scf accuracy    <      11.59803933 Ry

     iteration #  6     ecut=    60.00 Ry     beta= 0.15
     Davidson diagonalization with overlap

---- Real-time Memory Report at c_bands before calling an iterative solver
             0 MiB given to the printing process from OS
             0 MiB allocation reported by mallinfo(arena+hblkhd)
         23365 MiB available memory on the node where the printing process lives
------------------
     ethr =  2.69E-03,  avg # of iterations =  1.1

     negative rho (up, down):  7.427E-01 0.000E+00

     total cpu time spent up to now is       98.0 secs

     total energy              =   -4442.82061876 Ry
     estimated scf accuracy    <       5.02071908 Ry

     iteration #  7     ecut=    60.00 Ry     beta= 0.15
     Davidson diagonalization with overlap

---- Real-time Memory Report at c_bands before calling an iterative solver
             0 MiB given to the printing process from OS
             0 MiB allocation reported by mallinfo(arena+hblkhd)
         23349 MiB available memory on the node where the printing process lives
------------------
     ethr =  1.16E-03,  avg # of iterations =  1.7

     negative rho (up, down):  7.641E-01 0.000E+00

     total cpu time spent up to now is      113.2 secs

     total energy              =   -4441.61092106 Ry
     estimated scf accuracy    <       3.96585397 Ry

     iteration #  8     ecut=    60.00 Ry     beta= 0.15
     Davidson diagonalization with overlap

---- Real-time Memory Report at c_bands before calling an iterative solver
             0 MiB given to the printing process from OS
             0 MiB allocation reported by mallinfo(arena+hblkhd)
         23331 MiB available memory on the node where the printing process lives
------------------
     ethr =  9.20E-04,  avg # of iterations =  5.2

     negative rho (up, down):  7.724E-01 0.000E+00

     total cpu time spent up to now is      132.5 secs

     total energy              =   -4441.31704774 Ry
     estimated scf accuracy    <      18.58489024 Ry

     iteration #  9     ecut=    60.00 Ry     beta= 0.15
     Davidson diagonalization with overlap

---- Real-time Memory Report at c_bands before calling an iterative solver
             0 MiB given to the printing process from OS
             0 MiB allocation reported by mallinfo(arena+hblkhd)
         23113 MiB available memory on the node where the printing process lives
------------------
     ethr =  9.20E-04,  avg # of iterations = 10.1

     negative rho (up, down):  7.701E-01 0.000E+00

     total cpu time spent up to now is      153.9 secs

     total energy              =   -4441.75041088 Ry
     estimated scf accuracy    <       3.13499430 Ry

     iteration # 10     ecut=    60.00 Ry     beta= 0.15
     Davidson diagonalization with overlap

---- Real-time Memory Report at c_bands before calling an iterative solver
             0 MiB given to the printing process from OS
             0 MiB allocation reported by mallinfo(arena+hblkhd)
         22850 MiB available memory on the node where the printing process lives
------------------
     ethr =  7.27E-04,  avg # of iterations =  1.4

     negative rho (up, down):  7.769E-01 0.000E+00

     total cpu time spent up to now is      169.2 secs

     total energy              =   -4441.90407429 Ry
     estimated scf accuracy    <       1.35316275 Ry

     iteration # 11     ecut=    60.00 Ry     beta= 0.15
     Davidson diagonalization with overlap

---- Real-time Memory Report at c_bands before calling an iterative solver
             0 MiB given to the printing process from OS
             0 MiB allocation reported by mallinfo(arena+hblkhd)
         22826 MiB available memory on the node where the printing process lives
------------------
     ethr =  3.14E-04,  avg # of iterations =  2.4

     negative rho (up, down):  8.037E-01 0.000E+00

     total cpu time spent up to now is      185.7 secs

     total energy              =   -4441.74775033 Ry
     estimated scf accuracy    <       1.38304160 Ry

     iteration # 12     ecut=    60.00 Ry     beta= 0.15
     Davidson diagonalization with overlap

---- Real-time Memory Report at c_bands before calling an iterative solver
             0 MiB given to the printing process from OS
             0 MiB allocation reported by mallinfo(arena+hblkhd)
         22841 MiB available memory on the node where the printing process lives
------------------
     ethr =  3.14E-04,  avg # of iterations =  8.5

     negative rho (up, down):  8.124E-01 0.000E+00

     total cpu time spent up to now is      205.6 secs

     total energy              =   -4441.86406876 Ry
     estimated scf accuracy    <       1.07411651 Ry

     iteration # 13     ecut=    60.00 Ry     beta= 0.15
     Davidson diagonalization with overlap

---- Real-time Memory Report at c_bands before calling an iterative solver
             0 MiB given to the printing process from OS
             0 MiB allocation reported by mallinfo(arena+hblkhd)
         22770 MiB available memory on the node where the printing process lives
------------------
     ethr =  2.49E-04,  avg # of iterations =  4.5

     negative rho (up, down):  8.195E-01 0.000E+00

     total cpu time spent up to now is      223.6 secs

     total energy              =   -4441.80568704 Ry
     estimated scf accuracy    <       0.71789373 Ry

     iteration # 14     ecut=    60.00 Ry     beta= 0.15
     Davidson diagonalization with overlap

---- Real-time Memory Report at c_bands before calling an iterative solver
             0 MiB given to the printing process from OS
             0 MiB allocation reported by mallinfo(arena+hblkhd)
         22758 MiB available memory on the node where the printing process lives
------------------
     ethr =  1.67E-04,  avg # of iterations =  6.5

     negative rho (up, down):  8.250E-01 0.000E+00

     total cpu time spent up to now is      242.9 secs

     total energy              =   -4441.73732972 Ry
     estimated scf accuracy    <       0.37567261 Ry

     iteration # 15     ecut=    60.00 Ry     beta= 0.15
     Davidson diagonalization with overlap

---- Real-time Memory Report at c_bands before calling an iterative solver
             0 MiB given to the printing process from OS
             0 MiB allocation reported by mallinfo(arena+hblkhd)
         22762 MiB available memory on the node where the printing process lives
------------------
     ethr =  8.72E-05,  avg # of iterations = 12.4

     negative rho (up, down):  8.312E-01 0.000E+00

     total cpu time spent up to now is      266.3 secs

     total energy              =   -4441.73339942 Ry
     estimated scf accuracy    <       0.38732645 Ry

     iteration # 16     ecut=    60.00 Ry     beta= 0.15
     Davidson diagonalization with overlap

---- Real-time Memory Report at c_bands before calling an iterative solver
             0 MiB given to the printing process from OS
             0 MiB allocation reported by mallinfo(arena+hblkhd)
         22760 MiB available memory on the node where the printing process lives
------------------
     ethr =  8.72E-05,  avg # of iterations =  3.1

     negative rho (up, down):  8.306E-01 0.000E+00

     total cpu time spent up to now is      283.9 secs

     total energy              =   -4441.71701431 Ry
     estimated scf accuracy    <       0.30126255 Ry

     iteration # 17     ecut=    60.00 Ry     beta= 0.15
     Davidson diagonalization with overlap

---- Real-time Memory Report at c_bands before calling an iterative solver
             0 MiB given to the printing process from OS
             0 MiB allocation reported by mallinfo(arena+hblkhd)
         22751 MiB available memory on the node where the printing process lives
------------------
     c_bands:  1 eigenvalues not converged
     c_bands:  1 eigenvalues not converged
     ethr =  6.99E-05,  avg # of iterations =  8.4

     negative rho (up, down):  8.096E-01 0.000E+00

     total cpu time spent up to now is      303.8 secs

     total energy              =   -4441.68854569 Ry
     estimated scf accuracy    <       0.17717765 Ry

     iteration # 18     ecut=    60.00 Ry     beta= 0.15
     Davidson diagonalization with overlap

---- Real-time Memory Report at c_bands before calling an iterative solver
             0 MiB given to the printing process from OS
             0 MiB allocation reported by mallinfo(arena+hblkhd)
         22748 MiB available memory on the node where the printing process lives
------------------
     ethr =  4.11E-05,  avg # of iterations =  9.4

     negative rho (up, down):  8.356E-01 0.000E+00

     total cpu time spent up to now is      325.8 secs

     total energy              =   -4441.66942601 Ry
     estimated scf accuracy    <       0.15712715 Ry

     iteration # 19     ecut=    60.00 Ry     beta= 0.15
     Davidson diagonalization with overlap

---- Real-time Memory Report at c_bands before calling an iterative solver
             0 MiB given to the printing process from OS
             0 MiB allocation reported by mallinfo(arena+hblkhd)
         22690 MiB available memory on the node where the printing process lives
------------------
     ethr =  3.65E-05,  avg # of iterations =  8.2

     negative rho (up, down):  8.380E-01 0.000E+00

     total cpu time spent up to now is      346.9 secs

     total energy              =   -4441.67142736 Ry
     estimated scf accuracy    <       0.05290195 Ry

     iteration # 20     ecut=    60.00 Ry     beta= 0.15
     Davidson diagonalization with overlap

---- Real-time Memory Report at c_bands before calling an iterative solver
             0 MiB given to the printing process from OS
             0 MiB allocation reported by mallinfo(arena+hblkhd)
         22690 MiB available memory on the node where the printing process lives
------------------
     ethr =  1.23E-05,  avg # of iterations = 10.1

     negative rho (up, down):  8.155E-01 0.000E+00

     total cpu time spent up to now is      369.4 secs

     total energy              =   -4441.67060345 Ry
     estimated scf accuracy    <       0.03017808 Ry

     iteration # 21     ecut=    60.00 Ry     beta= 0.15
     Davidson diagonalization with overlap

---- Real-time Memory Report at c_bands before calling an iterative solver
             0 MiB given to the printing process from OS
             0 MiB allocation reported by mallinfo(arena+hblkhd)
         22593 MiB available memory on the node where the printing process lives
------------------
     c_bands:  1 eigenvalues not converged
     ethr =  7.00E-06,  avg # of iterations =  4.8

     negative rho (up, down):  8.091E-01 0.000E+00

     total cpu time spent up to now is      387.8 secs

     total energy              =   -4441.66786779 Ry
     estimated scf accuracy    <       0.02610610 Ry

     iteration # 22     ecut=    60.00 Ry     beta= 0.15
     Davidson diagonalization with overlap

---- Real-time Memory Report at c_bands before calling an iterative solver
             0 MiB given to the printing process from OS
             0 MiB allocation reported by mallinfo(arena+hblkhd)
         22605 MiB available memory on the node where the printing process lives
------------------
     ethr =  6.06E-06,  avg # of iterations =  9.9

     negative rho (up, down):  7.952E-01 0.000E+00

     total cpu time spent up to now is      409.3 secs

     total energy              =   -4441.66550927 Ry
     estimated scf accuracy    <       0.01844340 Ry

     iteration # 23     ecut=    60.00 Ry     beta= 0.15
     Davidson diagonalization with overlap

---- Real-time Memory Report at c_bands before calling an iterative solver
             0 MiB given to the printing process from OS
             0 MiB allocation reported by mallinfo(arena+hblkhd)
         22660 MiB available memory on the node where the printing process lives
------------------
     ethr =  4.28E-06,  avg # of iterations =  8.5

     negative rho (up, down):  7.946E-01 0.000E+00

     total cpu time spent up to now is      430.1 secs

     total energy              =   -4441.66429720 Ry
     estimated scf accuracy    <       0.01337505 Ry

     iteration # 24     ecut=    60.00 Ry     beta= 0.15
     Davidson diagonalization with overlap

---- Real-time Memory Report at c_bands before calling an iterative solver
             0 MiB given to the printing process from OS
             0 MiB allocation reported by mallinfo(arena+hblkhd)
         22680 MiB available memory on the node where the printing process lives
------------------
     ethr =  3.10E-06,  avg # of iterations =  9.0

     negative rho (up, down):  7.908E-01 0.000E+00

     total cpu time spent up to now is      450.5 secs

     total energy              =   -4441.66359042 Ry
     estimated scf accuracy    <       0.00897098 Ry

     iteration # 25     ecut=    60.00 Ry     beta= 0.15
     Davidson diagonalization with overlap

---- Real-time Memory Report at c_bands before calling an iterative solver
             0 MiB given to the printing process from OS
             0 MiB allocation reported by mallinfo(arena+hblkhd)
         22651 MiB available memory on the node where the printing process lives
------------------
     c_bands:  1 eigenvalues not converged
     ethr =  2.08E-06,  avg # of iterations =  9.9

     negative rho (up, down):  7.926E-01 0.000E+00

     total cpu time spent up to now is      472.4 secs

     total energy              =   -4441.66300922 Ry
     estimated scf accuracy    <       0.00480785 Ry

     iteration # 26     ecut=    60.00 Ry     beta= 0.15
     Davidson diagonalization with overlap

---- Real-time Memory Report at c_bands before calling an iterative solver
             0 MiB given to the printing process from OS
             0 MiB allocation reported by mallinfo(arena+hblkhd)
         22657 MiB available memory on the node where the printing process lives
------------------
     ethr =  1.12E-06,  avg # of iterations = 10.6

     negative rho (up, down):  7.933E-01 0.000E+00

     total cpu time spent up to now is      495.3 secs

     total energy              =   -4441.66317990 Ry
     estimated scf accuracy    <       0.00231367 Ry

     iteration # 27     ecut=    60.00 Ry     beta= 0.15
     Davidson diagonalization with overlap

---- Real-time Memory Report at c_bands before calling an iterative solver
             0 MiB given to the printing process from OS
             0 MiB allocation reported by mallinfo(arena+hblkhd)
         22658 MiB available memory on the node where the printing process lives
------------------
     ethr =  5.37E-07,  avg # of iterations =  7.7

     negative rho (up, down):  7.924E-01 0.000E+00

     total cpu time spent up to now is      515.7 secs

     total energy              =   -4441.66322525 Ry
     estimated scf accuracy    <       0.00133546 Ry

     iteration # 28     ecut=    60.00 Ry     beta= 0.15
     Davidson diagonalization with overlap

---- Real-time Memory Report at c_bands before calling an iterative solver
             0 MiB given to the printing process from OS
             0 MiB allocation reported by mallinfo(arena+hblkhd)
         22582 MiB available memory on the node where the printing process lives
------------------
     c_bands:  1 eigenvalues not converged
     ethr =  3.10E-07,  avg # of iterations = 12.2

     negative rho (up, down):  7.920E-01 0.000E+00

     total cpu time spent up to now is      538.6 secs

     total energy              =   -4441.66324999 Ry
     estimated scf accuracy    <       0.00070067 Ry

     iteration # 29     ecut=    60.00 Ry     beta= 0.15
     Davidson diagonalization with overlap

---- Real-time Memory Report at c_bands before calling an iterative solver
             0 MiB given to the printing process from OS
             0 MiB allocation reported by mallinfo(arena+hblkhd)
         22550 MiB available memory on the node where the printing process lives
------------------
     ethr =  1.63E-07,  avg # of iterations =  3.2

     negative rho (up, down):  7.917E-01 0.000E+00

     total cpu time spent up to now is      556.3 secs

     total energy              =   -4441.66323132 Ry
     estimated scf accuracy    <       0.00034223 Ry

     iteration # 30     ecut=    60.00 Ry     beta= 0.15
     Davidson diagonalization with overlap

---- Real-time Memory Report at c_bands before calling an iterative solver
             0 MiB given to the printing process from OS
             0 MiB allocation reported by mallinfo(arena+hblkhd)
         22581 MiB available memory on the node where the printing process lives
------------------
     ethr =  7.94E-08,  avg # of iterations =  2.1

     negative rho (up, down):  7.915E-01 0.000E+00

     total cpu time spent up to now is      573.5 secs

     total energy              =   -4441.66323504 Ry
     estimated scf accuracy    <       0.00010403 Ry

     iteration # 31     ecut=    60.00 Ry     beta= 0.15
     Davidson diagonalization with overlap

---- Real-time Memory Report at c_bands before calling an iterative solver
             0 MiB given to the printing process from OS
             0 MiB allocation reported by mallinfo(arena+hblkhd)
         22614 MiB available memory on the node where the printing process lives
------------------
     ethr =  2.41E-08,  avg # of iterations =  1.9

     negative rho (up, down):  7.913E-01 0.000E+00

     total cpu time spent up to now is      590.6 secs

     total energy              =   -4441.66321492 Ry
     estimated scf accuracy    <       0.00005997 Ry

     iteration # 32     ecut=    60.00 Ry     beta= 0.15
     Davidson diagonalization with overlap

---- Real-time Memory Report at c_bands before calling an iterative solver
             0 MiB given to the printing process from OS
             0 MiB allocation reported by mallinfo(arena+hblkhd)
         22605 MiB available memory on the node where the printing process lives
------------------
     ethr =  1.39E-08,  avg # of iterations =  5.4

     negative rho (up, down):  7.917E-01 0.000E+00

     total cpu time spent up to now is      609.8 secs

     total energy              =   -4441.66321059 Ry
     estimated scf accuracy    <       0.00002480 Ry

     iteration # 33     ecut=    60.00 Ry     beta= 0.15
     Davidson diagonalization with overlap

---- Real-time Memory Report at c_bands before calling an iterative solver
             0 MiB given to the printing process from OS
             0 MiB allocation reported by mallinfo(arena+hblkhd)
         22605 MiB available memory on the node where the printing process lives
------------------
     ethr =  5.76E-09,  avg # of iterations =  2.2

     negative rho (up, down):  7.921E-01 0.000E+00

     total cpu time spent up to now is      626.8 secs

     total energy              =   -4441.66321087 Ry
     estimated scf accuracy    <       0.00001168 Ry

     iteration # 34     ecut=    60.00 Ry     beta= 0.15
     Davidson diagonalization with overlap

---- Real-time Memory Report at c_bands before calling an iterative solver
             0 MiB given to the printing process from OS
             0 MiB allocation reported by mallinfo(arena+hblkhd)
         22603 MiB available memory on the node where the printing process lives
------------------
     ethr =  2.71E-09,  avg # of iterations =  3.2

     negative rho (up, down):  7.922E-01 0.000E+00

     total cpu time spent up to now is      644.7 secs

     total energy              =   -4441.66321441 Ry
     estimated scf accuracy    <       0.00000522 Ry

     iteration # 35     ecut=    60.00 Ry     beta= 0.15
     Davidson diagonalization with overlap

---- Real-time Memory Report at c_bands before calling an iterative solver
             0 MiB given to the printing process from OS
             0 MiB allocation reported by mallinfo(arena+hblkhd)
         22601 MiB available memory on the node where the printing process lives
------------------
     ethr =  1.21E-09,  avg # of iterations =  2.1

     negative rho (up, down):  7.923E-01 0.000E+00

     total cpu time spent up to now is      661.8 secs

     total energy              =   -4441.66321889 Ry
     estimated scf accuracy    <       0.00000390 Ry

     iteration # 36     ecut=    60.00 Ry     beta= 0.15
     Davidson diagonalization with overlap

---- Real-time Memory Report at c_bands before calling an iterative solver
             0 MiB given to the printing process from OS
             0 MiB allocation reported by mallinfo(arena+hblkhd)
         22609 MiB available memory on the node where the printing process lives
------------------
     ethr =  9.05E-10,  avg # of iterations =  2.9

     negative rho (up, down):  7.923E-01 0.000E+00

     total cpu time spent up to now is      679.5 secs

     total energy              =   -4441.66322235 Ry
     estimated scf accuracy    <       0.00000317 Ry

     iteration # 37     ecut=    60.00 Ry     beta= 0.15
     Davidson diagonalization with overlap

---- Real-time Memory Report at c_bands before calling an iterative solver
             0 MiB given to the printing process from OS
             0 MiB allocation reported by mallinfo(arena+hblkhd)
         22612 MiB available memory on the node where the printing process lives
------------------
     ethr =  7.34E-10,  avg # of iterations =  3.1

     negative rho (up, down):  7.924E-01 0.000E+00

     total cpu time spent up to now is      697.2 secs

     total energy              =   -4441.66322335 Ry
     estimated scf accuracy    <       0.00000233 Ry

     iteration # 38     ecut=    60.00 Ry     beta= 0.15
     Davidson diagonalization with overlap

---- Real-time Memory Report at c_bands before calling an iterative solver
             0 MiB given to the printing process from OS
             0 MiB allocation reported by mallinfo(arena+hblkhd)
         22615 MiB available memory on the node where the printing process lives
------------------
     ethr =  5.40E-10,  avg # of iterations =  2.2

     negative rho (up, down):  7.925E-01 0.000E+00

     total cpu time spent up to now is      714.3 secs

     total energy              =   -4441.66322425 Ry
     estimated scf accuracy    <       0.00000158 Ry

     iteration # 39     ecut=    60.00 Ry     beta= 0.15
     Davidson diagonalization with overlap

---- Real-time Memory Report at c_bands before calling an iterative solver
             0 MiB given to the printing process from OS
             0 MiB allocation reported by mallinfo(arena+hblkhd)
         22624 MiB available memory on the node where the printing process lives
------------------
     ethr =  3.67E-10,  avg # of iterations =  3.5

     negative rho (up, down):  7.925E-01 0.000E+00

     total cpu time spent up to now is      732.1 secs

     total energy              =   -4441.66322441 Ry
     estimated scf accuracy    <       0.00000100 Ry

     iteration # 40     ecut=    60.00 Ry     beta= 0.15
     Davidson diagonalization with overlap

---- Real-time Memory Report at c_bands before calling an iterative solver
             0 MiB given to the printing process from OS
             0 MiB allocation reported by mallinfo(arena+hblkhd)
         22630 MiB available memory on the node where the printing process lives
------------------
     ethr =  2.31E-10,  avg # of iterations =  2.3

     negative rho (up, down):  7.925E-01 0.000E+00

     total cpu time spent up to now is      749.3 secs

     total energy              =   -4441.66322444 Ry
     estimated scf accuracy    <       0.00000053 Ry

     iteration # 41     ecut=    60.00 Ry     beta= 0.15
     Davidson diagonalization with overlap

---- Real-time Memory Report at c_bands before calling an iterative solver
             0 MiB given to the printing process from OS
             0 MiB allocation reported by mallinfo(arena+hblkhd)
         22629 MiB available memory on the node where the printing process lives
------------------
     ethr =  1.23E-10,  avg # of iterations =  2.2

     negative rho (up, down):  7.925E-01 0.000E+00

     total cpu time spent up to now is      766.5 secs

     total energy              =   -4441.66322444 Ry
     estimated scf accuracy    <       0.00000033 Ry

     iteration # 42     ecut=    60.00 Ry     beta= 0.15
     Davidson diagonalization with overlap

---- Real-time Memory Report at c_bands before calling an iterative solver
             0 MiB given to the printing process from OS
             0 MiB allocation reported by mallinfo(arena+hblkhd)
         22635 MiB available memory on the node where the printing process lives
------------------
     ethr =  7.65E-11,  avg # of iterations =  2.2

     negative rho (up, down):  7.925E-01 0.000E+00

     total cpu time spent up to now is      783.6 secs

     total energy              =   -4441.66322444 Ry
     estimated scf accuracy    <       0.00000020 Ry

     iteration # 43     ecut=    60.00 Ry     beta= 0.15
     Davidson diagonalization with overlap

---- Real-time Memory Report at c_bands before calling an iterative solver
             0 MiB given to the printing process from OS
             0 MiB allocation reported by mallinfo(arena+hblkhd)
         22640 MiB available memory on the node where the printing process lives
------------------
     ethr =  4.59E-11,  avg # of iterations =  1.9

     negative rho (up, down):  7.925E-01 0.000E+00

     total cpu time spent up to now is      800.2 secs

     total energy              =   -4441.66322443 Ry
     estimated scf accuracy    <       0.00000011 Ry

     iteration # 44     ecut=    60.00 Ry     beta= 0.15
     Davidson diagonalization with overlap

---- Real-time Memory Report at c_bands before calling an iterative solver
             0 MiB given to the printing process from OS
             0 MiB allocation reported by mallinfo(arena+hblkhd)
         22641 MiB available memory on the node where the printing process lives
------------------
     ethr =  2.64E-11,  avg # of iterations =  2.2

     negative rho (up, down):  7.925E-01 0.000E+00

     total cpu time spent up to now is      817.5 secs

     total energy              =   -4441.66322443 Ry
     estimated scf accuracy    <       0.00000006 Ry

     iteration # 45     ecut=    60.00 Ry     beta= 0.15
     Davidson diagonalization with overlap

---- Real-time Memory Report at c_bands before calling an iterative solver
             0 MiB given to the printing process from OS
             0 MiB allocation reported by mallinfo(arena+hblkhd)
         22646 MiB available memory on the node where the printing process lives
------------------
     ethr =  1.33E-11,  avg # of iterations =  2.3

     negative rho (up, down):  7.925E-01 0.000E+00

     total cpu time spent up to now is      834.4 secs

     total energy              =   -4441.66322443 Ry
     estimated scf accuracy    <       0.00000004 Ry

     iteration # 46     ecut=    60.00 Ry     beta= 0.15
     Davidson diagonalization with overlap

---- Real-time Memory Report at c_bands before calling an iterative solver
             0 MiB given to the printing process from OS
             0 MiB allocation reported by mallinfo(arena+hblkhd)
         22651 MiB available memory on the node where the printing process lives
------------------
     ethr =  9.24E-12,  avg # of iterations =  1.8

     negative rho (up, down):  7.925E-01 0.000E+00

     total cpu time spent up to now is      851.0 secs

     total energy              =   -4441.66322442 Ry
     estimated scf accuracy    <       0.00000003 Ry

     iteration # 47     ecut=    60.00 Ry     beta= 0.15
     Davidson diagonalization with overlap

---- Real-time Memory Report at c_bands before calling an iterative solver
             0 MiB given to the printing process from OS
             0 MiB allocation reported by mallinfo(arena+hblkhd)
         22658 MiB available memory on the node where the printing process lives
------------------
     ethr =  7.48E-12,  avg # of iterations =  2.2

     negative rho (up, down):  7.925E-01 0.000E+00

     total cpu time spent up to now is      868.1 secs

     total energy              =   -4441.66322442 Ry
     estimated scf accuracy    <       0.00000002 Ry

     iteration # 48     ecut=    60.00 Ry     beta= 0.15
     Davidson diagonalization with overlap

---- Real-time Memory Report at c_bands before calling an iterative solver
             0 MiB given to the printing process from OS
             0 MiB allocation reported by mallinfo(arena+hblkhd)
         22658 MiB available memory on the node where the printing process lives
------------------
     ethr =  5.16E-12,  avg # of iterations =  2.3

     negative rho (up, down):  7.925E-01 0.000E+00

     total cpu time spent up to now is      885.2 secs

     total energy              =   -4441.66322441 Ry
     estimated scf accuracy    <       0.00000001 Ry

     iteration # 49     ecut=    60.00 Ry     beta= 0.15
     Davidson diagonalization with overlap

---- Real-time Memory Report at c_bands before calling an iterative solver
             0 MiB given to the printing process from OS
             0 MiB allocation reported by mallinfo(arena+hblkhd)
         22662 MiB available memory on the node where the printing process lives
------------------
     ethr =  2.52E-12,  avg # of iterations =  2.9

     negative rho (up, down):  7.925E-01 0.000E+00

     total cpu time spent up to now is      903.0 secs

     End of self-consistent calculation

          k = 0.0000 0.0000 0.0000 ( 65197 PWs)   bands (ev):

   -92.6894 -92.6374 -92.5430 -92.4970 -92.4396 -92.3956 -92.3783 -92.2580
   -56.0429 -56.0240 -55.9004 -55.8900 -55.8833 -55.8768 -55.8419 -55.8123
   -55.7970 -55.7951 -55.7876 -55.7466 -55.7279 -55.6908 -55.6694 -55.6394
   -55.6324 -55.5839 -55.5828 -55.5809 -55.5724 -55.5332 -55.5086 -55.4246
   -31.2668 -31.2473 -31.1060 -31.0828 -31.0403 -31.0189 -30.7438 -30.5721
   -29.8356 -29.7920 -29.7683 -29.6581 -15.0694 -15.0212 -14.9443 -14.8144
   -14.6197 -14.4954 -14.2059 -14.1878 -14.1561 -14.1122 -14.0674 -14.0570
   -14.0438 -14.0249 -13.9949 -13.9766 -13.9659 -13.9169 -13.7663 -13.5894
   -13.5543 -13.5238 -13.4942 -13.4761 -13.4216 -13.3879 -13.3114 -13.2394
   -13.1141 -13.0995 -13.0969 -13.0741 -13.0630 -13.0462 -13.0036 -12.9917
   -12.9684 -12.9467 -12.9153 -12.9113 -12.8958 -12.8874 -12.8728 -12.7596
   -12.7223 -12.7060 -12.5439 -12.5085 -12.4629 -12.3314 -12.1857 -11.9752
   -11.9090 -11.8486 -11.7746 -11.7643 -11.7405 -11.7235 -11.6597 -11.6428
   -11.6072 -11.5792 -11.4669 -11.3875 -11.3838  -2.9291  -2.6970  -2.4676
    -2.3202  -2.2575  -2.1157  -1.8084  -1.7943  -1.7750  -1.6905  -1.6705
    -1.6028  -1.5862  -1.5456  -1.5014  -1.3209  -1.2011  -1.0940  -1.0639
    -0.9191  -0.9043  -0.8556  -0.8396  -0.7929  -0.7755  -0.7213  -0.6949
    -0.6202  -0.6069  -0.5348  -0.4027  -0.3898  -0.3614  -0.2795  -0.2607
    -0.2553  -0.1882  -0.1146  -0.0600  -0.0177   0.0147   0.0808   0.1487
     0.1936   0.2188   0.2265   0.4844   0.5025   0.6755   0.7389   0.8091
     0.8557   0.9377   0.9541   0.9704   1.0366   1.0624   1.0993   1.1547
     1.2859   1.3476   1.3670   1.3862   1.3980   1.4646   1.5334   1.6415
     1.6532   1.7248   1.7316   1.7734   1.7909   1.7983   1.8557   1.9117
     1.9316   1.9655   2.0210   2.0414   2.1719   2.2576   2.2984   2.3207
     2.4604   2.4675   2.4767   2.4933   2.5247   2.5368   2.6391   2.6704
     2.6976   2.7158   2.7295   2.8114   2.9199   2.9509   2.9630   2.9695
     3.0375   3.0416   3.0652   3.0730   3.0822   3.0955   3.1009   3.1150
     3.1206   3.1329   3.1417   3.1500   3.1691   3.1897   3.1948   3.2070
     3.2373   3.3478   3.4243   4.1185   4.4474   4.7805   4.8709   5.0565
     5.7446   5.9478   5.9980   6.0205   6.3258   6.3729   6.4843   6.4943
     6.7179   7.0131   7.0972   7.3246   7.3942   7.6303   7.6735   7.6816
     7.7229   7.8567   7.9515   8.0139   8.1186   8.1775   8.4419   8.4893
     8.7240   8.8157   8.8560

     occupation numbers 
     1.0000   1.0000   1.0000   1.0000   1.0000   1.0000   1.0000   1.0000
     1.0000   1.0000   1.0000   1.0000   1.0000   1.0000   1.0000   1.0000
     1.0000   1.0000   1.0000   1.0000   1.0000   1.0000   1.0000   1.0000
     1.0000   1.0000   1.0000   1.0000   1.0000   1.0000   1.0000   1.0000
     1.0000   1.0000   1.0000   1.0000   1.0000   1.0000   1.0000   1.0000
     1.0000   1.0000   1.0000   1.0000   1.0000   1.0000   1.0000   1.0000
     1.0000   1.0000   1.0000   1.0000   1.0000   1.0000   1.0000   1.0000
     1.0000   1.0000   1.0000   1.0000   1.0000   1.0000   1.0000   1.0000
     1.0000   1.0000   1.0000   1.0000   1.0000   1.0000   1.0000   1.0000
     1.0000   1.0000   1.0000   1.0000   1.0000   1.0000   1.0000   1.0000
     1.0000   1.0000   1.0000   1.0000   1.0000   1.0000   1.0000   1.0000
     1.0000   1.0000   1.0000   1.0000   1.0000   1.0000   1.0000   1.0000
     1.0000   1.0000   1.0000   1.0000   1.0000   1.0000   1.0000   1.0000
     1.0000   1.0000   1.0000   1.0000   1.0000   1.0000   1.0000   1.0000
     1.0000   1.0000   1.0000   1.0000   1.0000   1.0000   1.0000   1.0000
     1.0000   1.0000   1.0000   1.0000   1.0000   1.0000   1.0000   1.0000
     1.0000   1.0000   1.0000   1.0000   1.0000   1.0000   1.0000   1.0000
     1.0000   1.0000   1.0000   1.0000   1.0000   1.0000   1.0000   1.0000
     1.0000   1.0000   1.0000   1.0000   1.0000   1.0000   1.0000   1.0000
     1.0000   1.0000   1.0000   1.0000   1.0000   1.0000   0.9999   0.9999
     0.9999   0.9998   0.9998   0.9998   0.9997   0.9996   0.9996   0.9994
     0.9988   0.9984   0.9983   0.9981   0.9980   0.9973   0.9963   0.9941
     0.9938   0.9917   0.9915   0.9899   0.9892   0.9889   0.9862   0.9829
     0.9816   0.9793   0.9748   0.9730   0.9584   0.9458   0.9388   0.9346
     0.9039   0.9020   0.8997   0.8953   0.8866   0.8831   0.8505   0.8394
     0.8294   0.8224   0.8171   0.7831   0.7329   0.7175   0.7114   0.7081
     0.6725   0.6703   0.6576   0.6533   0.6482   0.6409   0.6378   0.6300
     0.6269   0.6199   0.6149   0.6102   0.5993   0.5874   0.5845   0.5774
     0.5597   0.4945   0.4493   0.1234   0.0498   0.0161   0.0114   0.0054
     0.0002   0.0001   0.0000   0.0000   0.0000   0.0000   0.0000   0.0000
     0.0000   0.0000   0.0000   0.0000   0.0000   0.0000   0.0000   0.0000
     0.0000   0.0000   0.0000   0.0000   0.0000   0.0000   0.0000   0.0000
     0.0000   0.0000   0.0000

          k = 0.0000 0.2500 0.0000 ( 65257 PWs)   bands (ev):

   -92.6894 -92.6374 -92.5430 -92.4970 -92.4396 -92.3956 -92.3783 -92.2580
   -56.0429 -56.0240 -55.9004 -55.8900 -55.8833 -55.8768 -55.8419 -55.8123
   -55.7970 -55.7951 -55.7876 -55.7466 -55.7279 -55.6908 -55.6694 -55.6394
   -55.6324 -55.5839 -55.5828 -55.5809 -55.5724 -55.5332 -55.5087 -55.4246
   -31.2666 -31.2471 -31.1063 -31.0821 -31.0410 -31.0191 -30.7437 -30.5723
   -29.8349 -29.7917 -29.7690 -29.6584 -15.0330 -14.9952 -14.9191 -14.7850
   -14.6596 -14.4871 -14.3519 -14.1732 -14.1353 -14.1174 -14.0888 -14.0295
   -14.0226 -14.0076 -13.9857 -13.9719 -13.9383 -13.8359 -13.7955 -13.6364
   -13.6121 -13.5654 -13.5306 -13.4852 -13.4412 -13.3964 -13.3311 -13.2968
   -13.2250 -13.1613 -13.1364 -13.0985 -13.0873 -13.0548 -12.9860 -12.9643
   -12.9331 -12.9194 -12.8898 -12.8554 -12.8249 -12.7895 -12.7870 -12.7521
   -12.7197 -12.6873 -12.5011 -12.4289 -12.3929 -12.3922 -12.2369 -12.0314
   -11.9756 -11.8141 -11.7714 -11.7437 -11.7162 -11.6996 -11.6513 -11.6404
   -11.6180 -11.5826 -11.4815 -11.4291 -11.4184  -2.7938  -2.5727  -2.4349
    -2.2529  -2.2095  -2.0461  -1.8269  -1.7422  -1.7293  -1.6717  -1.5691
    -1.5526  -1.5195  -1.4922  -1.4486  -1.2552  -1.1981  -1.1213  -1.1083
    -1.0334  -1.0220  -0.9181  -0.8896  -0.8318  -0.8054  -0.7659  -0.7014
    -0.6740  -0.6423  -0.6083  -0.5920  -0.5591  -0.4874  -0.4361  -0.3704
    -0.2586  -0.2399  -0.1959  -0.0761  -0.0376   0.0259   0.0707   0.1394
     0.1480   0.1735   0.2362   0.5352   0.6207   0.6522   0.7435   0.7909
     0.8119   0.9249   0.9442   1.0381   1.0651   1.0897   1.2038   1.2983
     1.3216   1.3446   1.3619   1.3884   1.4479   1.4753   1.5027   1.5502
     1.5864   1.6165   1.7010   1.7354   1.7776   1.8228   1.8794   1.9293
     1.9538   1.9772   1.9993   2.0949   2.2081   2.2812   2.3020   2.3726
     2.4195   2.4505   2.4586   2.4805   2.4975   2.5332   2.5666   2.6556
     2.6898   2.7074   2.8771   2.8992   2.9322   2.9538   2.9702   2.9786
     2.9864   2.9960   3.0250   3.0273   3.0460   3.0498   3.0598   3.0779
     3.0901   3.0974   3.1197   3.1311   3.1356   3.1707   3.1875   3.2476
     3.6238   3.6486   3.8925   4.3094   4.4439   4.7212   5.0228   5.0804
     5.6514   5.8051   5.9188   5.9934   6.0939   6.1176   6.1945   6.6007
     6.8182   7.0541   7.1197   7.3370   7.4926   7.5050   7.6330   7.6515
     7.8742   7.9579   7.9889   8.1756   8.2549   8.3612   8.4157   8.4654
     8.6176   8.8504   8.9334

     occupation numbers 
     1.0000   1.0000   1.0000   1.0000   1.0000   1.0000   1.0000   1.0000
     1.0000   1.0000   1.0000   1.0000   1.0000   1.0000   1.0000   1.0000
     1.0000   1.0000   1.0000   1.0000   1.0000   1.0000   1.0000   1.0000
     1.0000   1.0000   1.0000   1.0000   1.0000   1.0000   1.0000   1.0000
     1.0000   1.0000   1.0000   1.0000   1.0000   1.0000   1.0000   1.0000
     1.0000   1.0000   1.0000   1.0000   1.0000   1.0000   1.0000   1.0000
     1.0000   1.0000   1.0000   1.0000   1.0000   1.0000   1.0000   1.0000
     1.0000   1.0000   1.0000   1.0000   1.0000   1.0000   1.0000   1.0000
     1.0000   1.0000   1.0000   1.0000   1.0000   1.0000   1.0000   1.0000
     1.0000   1.0000   1.0000   1.0000   1.0000   1.0000   1.0000   1.0000
     1.0000   1.0000   1.0000   1.0000   1.0000   1.0000   1.0000   1.0000
     1.0000   1.0000   1.0000   1.0000   1.0000   1.0000   1.0000   1.0000
     1.0000   1.0000   1.0000   1.0000   1.0000   1.0000   1.0000   1.0000
     1.0000   1.0000   1.0000   1.0000   1.0000   1.0000   1.0000   1.0000
     1.0000   1.0000   1.0000   1.0000   1.0000   1.0000   1.0000   1.0000
     1.0000   1.0000   1.0000   1.0000   1.0000   1.0000   1.0000   1.0000
     1.0000   1.0000   1.0000   1.0000   1.0000   1.0000   1.0000   1.0000
     1.0000   1.0000   1.0000   1.0000   1.0000   1.0000   1.0000   1.0000
     1.0000   1.0000   1.0000   1.0000   1.0000   1.0000   1.0000   1.0000
     1.0000   1.0000   1.0000   1.0000   1.0000   1.0000   0.9999   0.9999
     0.9999   0.9998   0.9998   0.9997   0.9996   0.9996   0.9992   0.9988
     0.9986   0.9985   0.9983   0.9981   0.9975   0.9972   0.9968   0.9960
     0.9954   0.9947   0.9925   0.9914   0.9898   0.9878   0.9849   0.9818
     0.9801   0.9784   0.9766   0.9676   0.9534   0.9418   0.9381   0.9242
     0.9138   0.9063   0.9043   0.8987   0.8941   0.8841   0.8741   0.8447
     0.8323   0.8256   0.7533   0.7429   0.7268   0.7161   0.7078   0.7034
     0.6994   0.6945   0.6792   0.6780   0.6679   0.6659   0.6605   0.6506
     0.6438   0.6398   0.6274   0.6209   0.6184   0.5983   0.5887   0.5537
     0.3359   0.3226   0.2054   0.0747   0.0503   0.0200   0.0062   0.0048
     0.0003   0.0001   0.0001   0.0000   0.0000   0.0000   0.0000   0.0000
     0.0000   0.0000   0.0000   0.0000   0.0000   0.0000   0.0000   0.0000
     0.0000   0.0000   0.0000   0.0000   0.0000   0.0000   0.0000   0.0000
     0.0000   0.0000   0.0000

          k = 0.0000-0.5000 0.0000 ( 65180 PWs)   bands (ev):

   -92.6894 -92.6374 -92.5430 -92.4970 -92.4396 -92.3956 -92.3783 -92.2580
   -56.0429 -56.0240 -55.9004 -55.8900 -55.8833 -55.8768 -55.8419 -55.8123
   -55.7970 -55.7951 -55.7876 -55.7466 -55.7279 -55.6908 -55.6694 -55.6394
   -55.6324 -55.5839 -55.5828 -55.5809 -55.5724 -55.5332 -55.5086 -55.4246
   -31.2664 -31.2470 -31.1065 -31.0813 -31.0418 -31.0192 -30.7435 -30.5725
   -29.8343 -29.7914 -29.7696 -29.6587 -14.9965 -14.9475 -14.8952 -14.7618
   -14.6847 -14.5435 -14.3961 -14.2617 -14.1458 -14.0744 -14.0292 -14.0248
   -13.9756 -13.9711 -13.9572 -13.9111 -13.8877 -13.8651 -13.8275 -13.7782
   -13.7485 -13.5720 -13.5134 -13.4920 -13.4452 -13.3957 -13.3468 -13.2981
   -13.2721 -13.2416 -13.2070 -13.0995 -13.0879 -13.0204 -13.0159 -12.9563
   -12.9399 -12.9178 -12.8709 -12.8018 -12.7784 -12.7486 -12.7116 -12.6941
   -12.6700 -12.6407 -12.5042 -12.4866 -12.3146 -12.3111 -12.1927 -12.1413
   -12.1151 -11.7683 -11.7658 -11.7387 -11.7028 -11.6679 -11.6568 -11.6128
   -11.6089 -11.5631 -11.5039 -11.4900 -11.4756  -2.5795  -2.5193  -2.3695
    -2.2976  -2.0164  -1.9321  -1.8058  -1.6681  -1.6313  -1.6113  -1.5330
    -1.4998  -1.4198  -1.3836  -1.3062  -1.2668  -1.2290  -1.2086  -1.1984
    -1.1420  -1.1068  -1.0522  -1.0215  -0.9908  -0.9502  -0.8466  -0.8015
    -0.7659  -0.7650  -0.6778  -0.6459  -0.6223  -0.5719  -0.4903  -0.4165
    -0.3302  -0.3039  -0.1969  -0.1521  -0.0173   0.0227   0.0489   0.1084
     0.2474   0.2826   0.4038   0.4750   0.4819   0.6089   0.6618   0.7758
     0.8892   0.9967   1.0283   1.0667   1.0718   1.1142   1.1273   1.1628
     1.1856   1.1887   1.3013   1.3620   1.3895   1.4157   1.6770   1.7110
     1.7381   1.8306   1.8630   1.8847   1.9017   1.9263   1.9475   1.9632
     1.9899   2.0181   2.0462   2.0791   2.0830   2.1155   2.1681   2.2521
     2.2833   2.4478   2.4651   2.4957   2.6162   2.6294   2.6484   2.6808
     2.6865   2.6964   2.7451   2.7563   2.8106   2.8326   2.9123   2.9227
     2.9915   2.9989   3.0211   3.0250   3.0426   3.0487   3.0508   3.0558
     3.0584   3.0710   3.0896   3.0914   3.1554   3.1613   3.1772   3.2309
     4.1471   4.1696   4.2023   4.2680   4.7531   4.9142   5.0353   5.1724
     5.4221   5.4744   5.5926   5.7336   6.0354   6.0619   6.2463   6.4819
     6.8571   6.9580   7.2272   7.2847   7.3493   7.4840   7.7465   7.7765
     7.9181   7.9739   8.2252   8.2641   8.3886   8.4683   8.5350   8.6769
     8.8220   8.8288   8.8792

     occupation numbers 
     1.0000   1.0000   1.0000   1.0000   1.0000   1.0000   1.0000   1.0000
     1.0000   1.0000   1.0000   1.0000   1.0000   1.0000   1.0000   1.0000
     1.0000   1.0000   1.0000   1.0000   1.0000   1.0000   1.0000   1.0000
     1.0000   1.0000   1.0000   1.0000   1.0000   1.0000   1.0000   1.0000
     1.0000   1.0000   1.0000   1.0000   1.0000   1.0000   1.0000   1.0000
     1.0000   1.0000   1.0000   1.0000   1.0000   1.0000   1.0000   1.0000
     1.0000   1.0000   1.0000   1.0000   1.0000   1.0000   1.0000   1.0000
     1.0000   1.0000   1.0000   1.0000   1.0000   1.0000   1.0000   1.0000
     1.0000   1.0000   1.0000   1.0000   1.0000   1.0000   1.0000   1.0000
     1.0000   1.0000   1.0000   1.0000   1.0000   1.0000   1.0000   1.0000
     1.0000   1.0000   1.0000   1.0000   1.0000   1.0000   1.0000   1.0000
     1.0000   1.0000   1.0000   1.0000   1.0000   1.0000   1.0000   1.0000
     1.0000   1.0000   1.0000   1.0000   1.0000   1.0000   1.0000   1.0000
     1.0000   1.0000   1.0000   1.0000   1.0000   1.0000   1.0000   1.0000
     1.0000   1.0000   1.0000   1.0000   1.0000   1.0000   1.0000   1.0000
     1.0000   1.0000   1.0000   1.0000   1.0000   1.0000   1.0000   1.0000
     1.0000   1.0000   1.0000   1.0000   1.0000   1.0000   1.0000   1.0000
     1.0000   1.0000   1.0000   1.0000   1.0000   1.0000   1.0000   1.0000
     1.0000   1.0000   1.0000   1.0000   1.0000   1.0000   1.0000   1.0000
     1.0000   1.0000   1.0000   1.0000   1.0000   1.0000   1.0000   0.9999
     0.9999   0.9997   0.9997   0.9996   0.9996   0.9995   0.9995   0.9994
     0.9993   0.9993   0.9988   0.9983   0.9981   0.9978   0.9932   0.9922
     0.9913   0.9874   0.9858   0.9846   0.9836   0.9820   0.9806   0.9794
     0.9774   0.9750   0.9725   0.9693   0.9689   0.9653   0.9589   0.9466
     0.9414   0.9070   0.9027   0.8946   0.8583   0.8538   0.8472   0.8356
     0.8335   0.8298   0.8109   0.8063   0.7834   0.7737   0.7366   0.7315
     0.6968   0.6929   0.6813   0.6792   0.6698   0.6665   0.6653   0.6627
     0.6612   0.6544   0.6441   0.6431   0.6071   0.6037   0.5946   0.5635
     0.1149   0.1086   0.0998   0.0837   0.0178   0.0096   0.0059   0.0032
     0.0010   0.0008   0.0004   0.0002   0.0000   0.0000   0.0000   0.0000
     0.0000   0.0000   0.0000   0.0000   0.0000   0.0000   0.0000   0.0000
     0.0000   0.0000   0.0000   0.0000   0.0000   0.0000   0.0000   0.0000
     0.0000   0.0000   0.0000

          k = 0.2500 0.2500 0.0000 ( 65198 PWs)   bands (ev):

   -92.6894 -92.6374 -92.5430 -92.4970 -92.4396 -92.3956 -92.3783 -92.2580
   -56.0429 -56.0240 -55.9004 -55.8900 -55.8833 -55.8768 -55.8419 -55.8123
   -55.7970 -55.7951 -55.7876 -55.7466 -55.7279 -55.6908 -55.6694 -55.6394
   -55.6324 -55.5839 -55.5828 -55.5809 -55.5724 -55.5332 -55.5086 -55.4246
   -31.2650 -31.2488 -31.1059 -31.0820 -31.0409 -31.0194 -30.7438 -30.5724
   -29.8340 -29.7927 -29.7686 -29.6588 -15.0040 -14.9602 -14.8912 -14.7744
   -14.6533 -14.5272 -14.4579 -14.2488 -14.0969 -14.0833 -14.0459 -14.0171
   -13.9940 -13.9704 -13.9653 -13.9307 -13.9057 -13.8277 -13.8092 -13.6523
   -13.6358 -13.6074 -13.5877 -13.5342 -13.4987 -13.4250 -13.4151 -13.2720
   -13.2464 -13.2181 -13.1307 -13.0914 -13.0468 -13.0332 -13.0073 -12.9818
   -12.9396 -12.9344 -12.9056 -12.8595 -12.8283 -12.7342 -12.7159 -12.7024
   -12.6779 -12.6185 -12.4918 -12.4413 -12.3908 -12.3538 -12.2660 -12.0675
   -12.0076 -11.7865 -11.7549 -11.7439 -11.7374 -11.6741 -11.6408 -11.6334
   -11.5971 -11.5904 -11.4980 -11.4575 -11.4397  -2.6555  -2.4469  -2.3290
    -2.2346  -2.1139  -2.0492  -1.8517  -1.7066  -1.6880  -1.6584  -1.5640
    -1.5298  -1.4352  -1.4079  -1.3579  -1.2324  -1.2024  -1.1725  -1.1033
    -1.0582  -1.0165  -0.9925  -0.9686  -0.9257  -0.9100  -0.8189  -0.7685
    -0.7034  -0.6547  -0.6234  -0.5753  -0.5576  -0.4972  -0.4482  -0.3907
    -0.3583  -0.2718  -0.2169  -0.1888  -0.1514  -0.0963  -0.0136   0.0180
     0.0445   0.1271   0.1569   0.4230   0.5704   0.6048   0.6676   0.7076
     0.7725   0.8334   0.8857   0.9153   1.1875   1.2542   1.3272   1.3519
     1.4018   1.4324   1.4689   1.5055   1.5219   1.5491   1.5947   1.6026
     1.6174   1.6623   1.7042   1.7404   1.8022   1.8459   1.8527   1.8941
     1.9210   1.9788   2.0095   2.1331   2.1914   2.2239   2.2475   2.3171
     2.3860   2.4070   2.4436   2.4580   2.4677   2.4845   2.4989   2.6012
     2.6310   2.7196   2.8884   2.9050   2.9114   2.9276   2.9422   2.9552
     2.9690   2.9755   2.9858   2.9993   3.0119   3.0300   3.0356   3.0480
     3.0700   3.0815   3.0909   3.1224   3.4229   3.5173   3.5587   3.6323
     3.6596   3.8693   3.9660   4.3189   4.5307   4.7283   4.9945   5.1703
     5.6566   5.7118   5.7708   5.8480   5.9065   6.0593   6.1653   6.2201
     6.8935   6.9081   7.0923   7.2807   7.5596   7.6131   7.7202   7.8533
     7.8937   8.0223   8.1996   8.2527   8.2877   8.3543   8.4449   8.4607
     8.6055   8.7663   8.9250

     occupation numbers 
     1.0000   1.0000   1.0000   1.0000   1.0000   1.0000   1.0000   1.0000
     1.0000   1.0000   1.0000   1.0000   1.0000   1.0000   1.0000   1.0000
     1.0000   1.0000   1.0000   1.0000   1.0000   1.0000   1.0000   1.0000
     1.0000   1.0000   1.0000   1.0000   1.0000   1.0000   1.0000   1.0000
     1.0000   1.0000   1.0000   1.0000   1.0000   1.0000   1.0000   1.0000
     1.0000   1.0000   1.0000   1.0000   1.0000   1.0000   1.0000   1.0000
     1.0000   1.0000   1.0000   1.0000   1.0000   1.0000   1.0000   1.0000
     1.0000   1.0000   1.0000   1.0000   1.0000   1.0000   1.0000   1.0000
     1.0000   1.0000   1.0000   1.0000   1.0000   1.0000   1.0000   1.0000
     1.0000   1.0000   1.0000   1.0000   1.0000   1.0000   1.0000   1.0000
     1.0000   1.0000   1.0000   1.0000   1.0000   1.0000   1.0000   1.0000
     1.0000   1.0000   1.0000   1.0000   1.0000   1.0000   1.0000   1.0000
     1.0000   1.0000   1.0000   1.0000   1.0000   1.0000   1.0000   1.0000
     1.0000   1.0000   1.0000   1.0000   1.0000   1.0000   1.0000   1.0000
     1.0000   1.0000   1.0000   1.0000   1.0000   1.0000   1.0000   1.0000
     1.0000   1.0000   1.0000   1.0000   1.0000   1.0000   1.0000   1.0000
     1.0000   1.0000   1.0000   1.0000   1.0000   1.0000   1.0000   1.0000
     1.0000   1.0000   1.0000   1.0000   1.0000   1.0000   1.0000   1.0000
     1.0000   1.0000   1.0000   1.0000   1.0000   1.0000   1.0000   1.0000
     1.0000   1.0000   1.0000   1.0000   1.0000   1.0000   1.0000   1.0000
     0.9999   0.9999   0.9999   0.9998   0.9993   0.9990   0.9986   0.9984
     0.9980   0.9977   0.9972   0.9968   0.9965   0.9961   0.9952   0.9950
     0.9947   0.9936   0.9924   0.9912   0.9887   0.9867   0.9863   0.9840
     0.9823   0.9783   0.9758   0.9633   0.9557   0.9510   0.9474   0.9353
     0.9214   0.9167   0.9080   0.9045   0.9020   0.8976   0.8937   0.8632
     0.8533   0.8209   0.7480   0.7401   0.7370   0.7291   0.7219   0.7154
     0.7084   0.7051   0.6997   0.6927   0.6861   0.6766   0.6735   0.6669
     0.6549   0.6486   0.6434   0.6258   0.4501   0.3953   0.3718   0.3313
     0.3168   0.2153   0.1757   0.0727   0.0383   0.0195   0.0070   0.0033
     0.0003   0.0002   0.0002   0.0001   0.0001   0.0000   0.0000   0.0000
     0.0000   0.0000   0.0000   0.0000   0.0000   0.0000   0.0000   0.0000
     0.0000   0.0000   0.0000   0.0000   0.0000   0.0000   0.0000   0.0000
     0.0000   0.0000   0.0000

          k = 0.2500-0.5000 0.0000 ( 65138 PWs)   bands (ev):

   -92.6894 -92.6374 -92.5430 -92.4970 -92.4396 -92.3956 -92.3783 -92.2580
   -56.0429 -56.0240 -55.9004 -55.8900 -55.8833 -55.8768 -55.8419 -55.8123
   -55.7970 -55.7951 -55.7876 -55.7466 -55.7279 -55.6908 -55.6694 -55.6394
   -55.6324 -55.5839 -55.5828 -55.5809 -55.5724 -55.5332 -55.5086 -55.4246
   -31.2648 -31.2487 -31.1061 -31.0813 -31.0417 -31.0196 -30.7436 -30.5726
   -29.8333 -29.7923 -29.7692 -29.6592 -14.9657 -14.9205 -14.8518 -14.7325
   -14.7069 -14.5851 -14.4979 -14.3610 -14.0616 -14.0072 -13.9807 -13.9725
   -13.9582 -13.9437 -13.9304 -13.8948 -13.8766 -13.8421 -13.8073 -13.7737
   -13.7362 -13.6544 -13.6054 -13.5508 -13.5270 -13.4591 -13.4409 -13.3311
   -13.2958 -13.1955 -13.1312 -13.1102 -13.0280 -13.0042 -12.9946 -12.9749
   -12.9552 -12.9314 -12.9004 -12.8130 -12.7944 -12.7265 -12.6994 -12.6843
   -12.6442 -12.6129 -12.5119 -12.4881 -12.3107 -12.3030 -12.1860 -12.1266
   -12.1079 -11.7621 -11.7501 -11.7395 -11.7129 -11.6805 -11.6533 -11.6104
   -11.5841 -11.5608 -11.5165 -11.4912 -11.4793  -2.4375  -2.3711  -2.2432
    -2.1664  -2.0367  -1.9521  -1.8301  -1.6794  -1.6260  -1.6032  -1.5398
    -1.5273  -1.4309  -1.3620  -1.2782  -1.2292  -1.2196  -1.2029  -1.1563
    -1.1125  -1.0790  -1.0314  -0.9929  -0.9575  -0.9187  -0.9081  -0.8609
    -0.8307  -0.7904  -0.7593  -0.6930  -0.5916  -0.5495  -0.4734  -0.4073
    -0.3579  -0.3166  -0.2957  -0.2399  -0.0800  -0.0683   0.0345   0.0722
     0.0786   0.1226   0.1569   0.2018   0.2233   0.2879   0.5624   0.6633
     0.7415   0.8027   1.0490   1.0769   1.1631   1.1851   1.3511   1.3847
     1.4263   1.4481   1.4645   1.4847   1.5470   1.5934   1.6297   1.7104
     1.8042   1.8441   1.8626   1.8733   1.9117   1.9238   1.9304   1.9795
     1.9878   2.0120   2.0410   2.0579   2.0730   2.1117   2.1682   2.2063
     2.2848   2.4224   2.4610   2.4828   2.5693   2.5877   2.6084   2.6321
     2.6583   2.6828   2.7036   2.7189   2.7415   2.8383   2.8892   2.9066
     2.9105   2.9252   2.9450   2.9587   2.9778   2.9861   3.0186   3.0300
     3.0441   3.0537   3.0616   3.0727   3.6000   3.6063   3.7547   3.8064
     4.1585   4.2019   4.2093   4.3278   4.7726   4.9363   5.0728   5.1453
     5.3172   5.4405   5.6130   5.6422   5.7802   5.7984   6.3321   6.4033
     6.4968   6.6063   7.2584   7.3195   7.5754   7.7088   7.8223   7.8841
     7.9490   8.0495   8.2453   8.4301   8.4579   8.5515   8.5656   8.5779
     8.7222   8.7373   8.8029

     occupation numbers 
     1.0000   1.0000   1.0000   1.0000   1.0000   1.0000   1.0000   1.0000
     1.0000   1.0000   1.0000   1.0000   1.0000   1.0000   1.0000   1.0000
     1.0000   1.0000   1.0000   1.0000   1.0000   1.0000   1.0000   1.0000
     1.0000   1.0000   1.0000   1.0000   1.0000   1.0000   1.0000   1.0000
     1.0000   1.0000   1.0000   1.0000   1.0000   1.0000   1.0000   1.0000
     1.0000   1.0000   1.0000   1.0000   1.0000   1.0000   1.0000   1.0000
     1.0000   1.0000   1.0000   1.0000   1.0000   1.0000   1.0000   1.0000
     1.0000   1.0000   1.0000   1.0000   1.0000   1.0000   1.0000   1.0000
     1.0000   1.0000   1.0000   1.0000   1.0000   1.0000   1.0000   1.0000
     1.0000   1.0000   1.0000   1.0000   1.0000   1.0000   1.0000   1.0000
     1.0000   1.0000   1.0000   1.0000   1.0000   1.0000   1.0000   1.0000
     1.0000   1.0000   1.0000   1.0000   1.0000   1.0000   1.0000   1.0000
     1.0000   1.0000   1.0000   1.0000   1.0000   1.0000   1.0000   1.0000
     1.0000   1.0000   1.0000   1.0000   1.0000   1.0000   1.0000   1.0000
     1.0000   1.0000   1.0000   1.0000   1.0000   1.0000   1.0000   1.0000
     1.0000   1.0000   1.0000   1.0000   1.0000   1.0000   1.0000   1.0000
     1.0000   1.0000   1.0000   1.0000   1.0000   1.0000   1.0000   1.0000
     1.0000   1.0000   1.0000   1.0000   1.0000   1.0000   1.0000   1.0000
     1.0000   1.0000   1.0000   1.0000   1.0000   1.0000   1.0000   1.0000
     1.0000   1.0000   1.0000   1.0000   1.0000   1.0000   1.0000   1.0000
     0.9999   0.9999   0.9997   0.9996   0.9994   0.9993   0.9984   0.9981
     0.9977   0.9975   0.9973   0.9970   0.9961   0.9952   0.9944   0.9922
     0.9886   0.9868   0.9858   0.9852   0.9829   0.9822   0.9817   0.9782
     0.9775   0.9756   0.9730   0.9714   0.9699   0.9657   0.9589   0.9536
     0.9412   0.9131   0.9037   0.8981   0.8733   0.8675   0.8608   0.8529
     0.8437   0.8349   0.8271   0.8212   0.8123   0.7712   0.7476   0.7393
     0.7374   0.7303   0.7205   0.7136   0.7039   0.6996   0.6826   0.6766
     0.6690   0.6638   0.6595   0.6535   0.3489   0.3454   0.2683   0.2436
     0.1117   0.0999   0.0980   0.0709   0.0166   0.0088   0.0050   0.0036
     0.0017   0.0009   0.0004   0.0003   0.0001   0.0001   0.0000   0.0000
     0.0000   0.0000   0.0000   0.0000   0.0000   0.0000   0.0000   0.0000
     0.0000   0.0000   0.0000   0.0000   0.0000   0.0000   0.0000   0.0000
     0.0000   0.0000   0.0000

          k =-0.5000-0.5000 0.0000 ( 65132 PWs)   bands (ev):

   -92.6894 -92.6374 -92.5430 -92.4970 -92.4396 -92.3956 -92.3783 -92.2580
   -56.0429 -56.0240 -55.9004 -55.8900 -55.8833 -55.8768 -55.8419 -55.8123
   -55.7970 -55.7951 -55.7876 -55.7466 -55.7279 -55.6908 -55.6694 -55.6394
   -55.6324 -55.5839 -55.5828 -55.5809 -55.5724 -55.5332 -55.5086 -55.4246
   -31.2626 -31.2508 -31.1057 -31.0812 -31.0416 -31.0200 -30.7437 -30.5726
   -29.8323 -29.7934 -29.7688 -29.6596 -14.9182 -14.8938 -14.7752 -14.7640
   -14.6704 -14.6322 -14.5982 -14.4621 -13.9725 -13.9703 -13.9588 -13.9244
   -13.9084 -13.8886 -13.8762 -13.8453 -13.8352 -13.8241 -13.8106 -13.7982
   -13.7221 -13.7130 -13.6833 -13.6500 -13.6346 -13.5469 -13.5013 -13.3672
   -13.3402 -13.1448 -13.1083 -13.0407 -13.0145 -12.9946 -12.9852 -12.9730
   -12.9635 -12.9557 -12.9421 -12.8209 -12.8010 -12.7181 -12.7006 -12.6810
   -12.5944 -12.5864 -12.5288 -12.4937 -12.3073 -12.2933 -12.1777 -12.1106
   -12.1025 -11.7590 -11.7465 -11.7285 -11.7122 -11.6763 -11.6579 -11.6264
   -11.5647 -11.5446 -11.5383 -11.4886 -11.4847  -2.2132  -2.1380  -2.1269
    -2.0556  -2.0171  -1.9389  -1.8712  -1.7452  -1.6301  -1.5991  -1.5600
    -1.5026  -1.4308  -1.4170  -1.3456  -1.3034  -1.2048  -1.1863  -1.1566
    -1.1053  -1.0805  -1.0159  -0.9693  -0.9500  -0.9373  -0.8841  -0.8409
    -0.8252  -0.7104  -0.6500  -0.6067  -0.5582  -0.5300  -0.5189  -0.4846
    -0.4403  -0.4062  -0.3957  -0.3079  -0.2405  -0.1983  -0.1684  -0.0980
    -0.0400  -0.0208   0.0320   0.0568   0.0702   0.0828   0.5329   0.5861
     0.6892   0.7279   1.0814   1.0969   1.1261   1.1663   1.4356   1.4555
     1.4609   1.5011   1.6293   1.7264   1.7524   1.7896   1.8142   1.8373
     1.8438   1.8734   1.8851   1.9066   1.9110   1.9610   1.9626   1.9930
     2.0284   2.0316   2.0510   2.0874   2.1085   2.1240   2.1531   2.1840
     2.2441   2.3143   2.4523   2.4806   2.5852   2.6123   2.6330   2.6498
     2.6687   2.6920   2.6931   2.7140   2.7248   2.7421   2.7648   2.7740
     2.8395   2.8432   2.8631   2.8796   2.8897   2.9099   2.9139   2.9237
     3.0262   3.0319   3.0587   3.0687   4.0243   4.0491   4.0878   4.1039
     4.3312   4.4062   4.4302   4.6710   4.7934   4.8759   5.0047   5.0945
     5.1041   5.2177   5.3138   5.4153   5.8604   5.8893   5.9644   6.0358
     6.4911   6.8410   6.9447   7.1582   7.8994   7.9300   7.9610   7.9851
     8.0178   8.0737   8.1075   8.2770   8.4016   8.5969   8.6283   8.6636
     8.6738   8.7464   8.7623

     occupation numbers 
     1.0000   1.0000   1.0000   1.0000   1.0000   1.0000   1.0000   1.0000
     1.0000   1.0000   1.0000   1.0000   1.0000   1.0000   1.0000   1.0000
     1.0000   1.0000   1.0000   1.0000   1.0000   1.0000   1.0000   1.0000
     1.0000   1.0000   1.0000   1.0000   1.0000   1.0000   1.0000   1.0000
     1.0000   1.0000   1.0000   1.0000   1.0000   1.0000   1.0000   1.0000
     1.0000   1.0000   1.0000   1.0000   1.0000   1.0000   1.0000   1.0000
     1.0000   1.0000   1.0000   1.0000   1.0000   1.0000   1.0000   1.0000
     1.0000   1.0000   1.0000   1.0000   1.0000   1.0000   1.0000   1.0000
     1.0000   1.0000   1.0000   1.0000   1.0000   1.0000   1.0000   1.0000
     1.0000   1.0000   1.0000   1.0000   1.0000   1.0000   1.0000   1.0000
     1.0000   1.0000   1.0000   1.0000   1.0000   1.0000   1.0000   1.0000
     1.0000   1.0000   1.0000   1.0000   1.0000   1.0000   1.0000   1.0000
     1.0000   1.0000   1.0000   1.0000   1.0000   1.0000   1.0000   1.0000
     1.0000   1.0000   1.0000   1.0000   1.0000   1.0000   1.0000   1.0000
     1.0000   1.0000   1.0000   1.0000   1.0000   1.0000   1.0000   1.0000
     1.0000   1.0000   1.0000   1.0000   1.0000   1.0000   1.0000   1.0000
     1.0000   1.0000   1.0000   1.0000   1.0000   1.0000   1.0000   1.0000
     1.0000   1.0000   1.0000   1.0000   1.0000   1.0000   1.0000   1.0000
     1.0000   1.0000   1.0000   1.0000   1.0000   1.0000   1.0000   1.0000
     1.0000   1.0000   1.0000   1.0000   1.0000   1.0000   1.0000   1.0000
     1.0000   0.9999   0.9996   0.9996   0.9995   0.9994   0.9976   0.9974
     0.9973   0.9968   0.9944   0.9917   0.9907   0.9893   0.9882   0.9871
     0.9868   0.9852   0.9845   0.9833   0.9830   0.9796   0.9795   0.9771
     0.9741   0.9738   0.9720   0.9684   0.9661   0.9643   0.9608   0.9568
     0.9479   0.9358   0.9059   0.8986   0.8683   0.8595   0.8526   0.8468
     0.8400   0.8314   0.8311   0.8231   0.8189   0.8121   0.8028   0.7990
     0.7706   0.7690   0.7599   0.7522   0.7474   0.7377   0.7358   0.7310
     0.6785   0.6755   0.6611   0.6557   0.1542   0.1457   0.1329   0.1279
     0.0702   0.0564   0.0525   0.0239   0.0154   0.0112   0.0067   0.0046
[...]
     0.3504   0.3285   0.2047   0.0789   0.0450   0.0217   0.0061   0.0049
     0.0003   0.0001   0.0001   0.0000   0.0000   0.0000   0.0000   0.0000
     0.0000   0.0000   0.0000   0.0000   0.0000   0.0000   0.0000   0.0000
     0.0000   0.0000   0.0000   0.0000   0.0000   0.0000   0.0000   0.0000
     0.0000   0.0000   0.0000

          k =-0.5000 0.0000 0.0000 ( 65180 PWs)   bands (ev):

   -92.6894 -92.6374 -92.5430 -92.4970 -92.4396 -92.3956 -92.3783 -92.2580
   -56.0429 -56.0240 -55.9004 -55.8900 -55.8833 -55.8768 -55.8419 -55.8123
   -55.7970 -55.7951 -55.7876 -55.7466 -55.7279 -55.6908 -55.6694 -55.6394
   -55.6324 -55.5839 -55.5828 -55.5809 -55.5724 -55.5332 -55.5086 -55.4246
   -31.2630 -31.2511 -31.1053 -31.0827 -31.0401 -31.0197 -30.7441 -30.5722
   -29.8336 -29.7940 -29.7675 -29.6589 -15.0023 -14.9478 -14.8858 -14.7810
   -14.6751 -14.5328 -14.3793 -14.2485 -14.1201 -14.1082 -14.0967 -14.0237
   -13.9802 -13.9705 -13.9434 -13.8946 -13.8922 -13.8739 -13.8265 -13.8120
   -13.6922 -13.5431 -13.5126 -13.4826 -13.4758 -13.4052 -13.3528 -13.2725
   -13.2567 -13.2332 -13.2095 -13.0801 -13.0435 -13.0326 -13.0108 -12.9997
   -12.9543 -12.9368 -12.9175 -12.9028 -12.8883 -12.7043 -12.6293 -12.6203
   -12.5593 -12.5299 -12.5229 -12.4806 -12.4304 -12.3289 -12.3158 -12.1053
   -12.0610 -11.7659 -11.7440 -11.7375 -11.7226 -11.7045 -11.6625 -11.6017
   -11.5847 -11.5519 -11.5048 -11.4956 -11.4806  -2.5689  -2.5310  -2.3671
    -2.3282  -2.0140  -1.9400  -1.7904  -1.6737  -1.6351  -1.5896  -1.5409
    -1.5167  -1.3930  -1.3490  -1.3324  -1.2536  -1.2227  -1.2147  -1.1814
    -1.1679  -1.1074  -1.0397  -1.0130  -0.9841  -0.8856  -0.8413  -0.7908
    -0.7595  -0.7379  -0.7082  -0.6615  -0.6358  -0.5945  -0.4995  -0.4228
    -0.3616  -0.3002  -0.1237  -0.0955  -0.0437  -0.0108   0.0623   0.0677
     0.2124   0.2425   0.2882   0.4527   0.5516   0.6008   0.6877   0.7710
     0.8797   0.8893   1.0210   1.0441   1.0989   1.1247   1.1685   1.1770
     1.2207   1.2483   1.3156   1.3616   1.4098   1.4158   1.7222   1.7307
     1.7496   1.7704   1.8734   1.8820   1.9043   1.9132   1.9383   1.9478
     1.9926   2.0122   2.0428   2.0897   2.1080   2.1567   2.1850   2.2333
     2.3475   2.4534   2.4601   2.4716   2.5240   2.5316   2.6183   2.6383
     2.6701   2.7375   2.7442   2.7512   2.7809   2.8499   2.8943   2.9391
     2.9700   3.0124   3.0168   3.0174   3.0292   3.0446   3.0564   3.0706
     3.0738   3.0956   3.0994   3.1217   3.1412   3.1465   3.2781   3.2820
     4.0882   4.1386   4.2007   4.3503   4.8035   4.8761   5.0555   5.0602
     5.4914   5.5186   5.6075   5.6633   6.0386   6.0468   6.2128   6.5360
     6.8034   7.0100   7.2891   7.3267   7.3601   7.4089   7.6845   7.7871
     7.8808   7.9072   8.1623   8.3200   8.4054   8.5233   8.5971   8.6537
     8.7712   8.8130   8.9611

     occupation numbers 
     1.0000   1.0000   1.0000   1.0000   1.0000   1.0000   1.0000   1.0000
     1.0000   1.0000   1.0000   1.0000   1.0000   1.0000   1.0000   1.0000
     1.0000   1.0000   1.0000   1.0000   1.0000   1.0000   1.0000   1.0000
     1.0000   1.0000   1.0000   1.0000   1.0000   1.0000   1.0000   1.0000
     1.0000   1.0000   1.0000   1.0000   1.0000   1.0000   1.0000   1.0000
     1.0000   1.0000   1.0000   1.0000   1.0000   1.0000   1.0000   1.0000
     1.0000   1.0000   1.0000   1.0000   1.0000   1.0000   1.0000   1.0000
     1.0000   1.0000   1.0000   1.0000   1.0000   1.0000   1.0000   1.0000
     1.0000   1.0000   1.0000   1.0000   1.0000   1.0000   1.0000   1.0000
     1.0000   1.0000   1.0000   1.0000   1.0000   1.0000   1.0000   1.0000
     1.0000   1.0000   1.0000   1.0000   1.0000   1.0000   1.0000   1.0000
     1.0000   1.0000   1.0000   1.0000   1.0000   1.0000   1.0000   1.0000
     1.0000   1.0000   1.0000   1.0000   1.0000   1.0000   1.0000   1.0000
     1.0000   1.0000   1.0000   1.0000   1.0000   1.0000   1.0000   1.0000
     1.0000   1.0000   1.0000   1.0000   1.0000   1.0000   1.0000   1.0000
     1.0000   1.0000   1.0000   1.0000   1.0000   1.0000   1.0000   1.0000
     1.0000   1.0000   1.0000   1.0000   1.0000   1.0000   1.0000   1.0000
     1.0000   1.0000   1.0000   1.0000   1.0000   1.0000   1.0000   1.0000
     1.0000   1.0000   1.0000   1.0000   1.0000   1.0000   1.0000   1.0000
     1.0000   1.0000   1.0000   1.0000   1.0000   1.0000   1.0000   0.9999
     0.9999   0.9999   0.9997   0.9997   0.9996   0.9995   0.9994   0.9993
     0.9992   0.9990   0.9987   0.9983   0.9979   0.9978   0.9918   0.9915
     0.9908   0.9901   0.9852   0.9847   0.9834   0.9828   0.9812   0.9805
     0.9772   0.9755   0.9728   0.9682   0.9662   0.9604   0.9566   0.9496
     0.9294   0.9056   0.9039   0.9010   0.8867   0.8846   0.8575   0.8507
     0.8395   0.8139   0.8112   0.8084   0.7961   0.7659   0.7452   0.7234
     0.7079   0.6858   0.6836   0.6832   0.6769   0.6687   0.6623   0.6546
     0.6528   0.6408   0.6387   0.6262   0.6152   0.6122   0.5357   0.5334
     0.1328   0.1174   0.1002   0.0665   0.0148   0.0112   0.0054   0.0053
     0.0007   0.0006   0.0004   0.0003   0.0000   0.0000   0.0000   0.0000
     0.0000   0.0000   0.0000   0.0000   0.0000   0.0000   0.0000   0.0000
     0.0000   0.0000   0.0000   0.0000   0.0000   0.0000   0.0000   0.0000
     0.0000   0.0000   0.0000

          k =-0.2500 0.2500 0.0000 ( 65198 PWs)   bands (ev):

   -92.6894 -92.6374 -92.5430 -92.4970 -92.4396 -92.3956 -92.3783 -92.2580
   -56.0429 -56.0240 -55.9004 -55.8900 -55.8833 -55.8768 -55.8419 -55.8123
   -55.7970 -55.7951 -55.7876 -55.7466 -55.7279 -55.6908 -55.6694 -55.6394
   -55.6324 -55.5839 -55.5828 -55.5809 -55.5724 -55.5332 -55.5086 -55.4246
   -31.2650 -31.2488 -31.1059 -31.0820 -31.0409 -31.0194 -30.7438 -30.5724
   -29.8340 -29.7927 -29.7686 -29.6588 -15.0053 -14.9592 -14.8895 -14.7731
   -14.6595 -14.5307 -14.4504 -14.2405 -14.1029 -14.0731 -14.0619 -14.0110
   -13.9898 -13.9744 -13.9656 -13.9432 -13.9040 -13.8242 -13.8106 -13.6607
   -13.6332 -13.6027 -13.5842 -13.5369 -13.4853 -13.4249 -13.4220 -13.2831
   -13.2364 -13.2118 -13.1348 -13.0934 -13.0370 -13.0282 -13.0008 -12.9802
   -12.9528 -12.9217 -12.9150 -12.8607 -12.8351 -12.7600 -12.7116 -12.6808
   -12.6733 -12.6379 -12.4957 -12.4311 -12.4170 -12.3136 -12.2718 -12.0520
   -12.0270 -11.7856 -11.7642 -11.7374 -11.7253 -11.6836 -11.6505 -11.6259
   -11.6057 -11.5822 -11.4977 -11.4528 -11.4429  -2.6539  -2.4458  -2.3249
    -2.2361  -2.1181  -2.0519  -1.8494  -1.7035  -1.6857  -1.6564  -1.5646
    -1.5286  -1.4353  -1.4015  -1.3749  -1.2323  -1.2106  -1.1665  -1.1081
    -1.0792  -1.0180  -0.9978  -0.9580  -0.9293  -0.8889  -0.8255  -0.7770
    -0.7157  -0.6455  -0.6191  -0.5691  -0.5402  -0.4940  -0.4388  -0.3938
    -0.3523  -0.2532  -0.2174  -0.2069  -0.1648  -0.0973  -0.0187   0.0236
     0.0508   0.1319   0.1539   0.4036   0.5728   0.6138   0.6540   0.7161
     0.7781   0.8317   0.8878   0.9166   1.1955   1.3041   1.3445   1.3766
     1.3819   1.4279   1.4424   1.4870   1.5176   1.5320   1.5571   1.6034
     1.6183   1.6612   1.6790   1.7237   1.8204   1.8355   1.8511   1.8953
     1.9174   1.9566   2.0220   2.1251   2.2201   2.2463   2.2952   2.3153
     2.3824   2.4191   2.4460   2.4572   2.4711   2.4848   2.5082   2.5995
     2.6289   2.7202   2.8953   2.9034   2.9171   2.9270   2.9377   2.9521
     2.9586   2.9760   2.9851   2.9997   3.0093   3.0220   3.0313   3.0378
     3.0718   3.0819   3.0899   3.1242   3.4162   3.4983   3.5626   3.6454
     3.6585   3.8538   3.9748   4.3183   4.5290   4.7292   5.0044   5.1703
     5.6574   5.7100   5.7739   5.8456   5.9073   6.0584   6.1753   6.2078
     6.8911   6.9146   7.0834   7.2933   7.5737   7.6188   7.6788   7.8600
     7.9240   7.9901   8.1948   8.2527   8.3126   8.3652   8.4546   8.4643
     8.5434   8.7986   8.9247

     occupation numbers 
     1.0000   1.0000   1.0000   1.0000   1.0000   1.0000   1.0000   1.0000
     1.0000   1.0000   1.0000   1.0000   1.0000   1.0000   1.0000   1.0000
     1.0000   1.0000   1.0000   1.0000   1.0000   1.0000   1.0000   1.0000
     1.0000   1.0000   1.0000   1.0000   1.0000   1.0000   1.0000   1.0000
     1.0000   1.0000   1.0000   1.0000   1.0000   1.0000   1.0000   1.0000
     1.0000   1.0000   1.0000   1.0000   1.0000   1.0000   1.0000   1.0000
     1.0000   1.0000   1.0000   1.0000   1.0000   1.0000   1.0000   1.0000
     1.0000   1.0000   1.0000   1.0000   1.0000   1.0000   1.0000   1.0000
     1.0000   1.0000   1.0000   1.0000   1.0000   1.0000   1.0000   1.0000
     1.0000   1.0000   1.0000   1.0000   1.0000   1.0000   1.0000   1.0000
     1.0000   1.0000   1.0000   1.0000   1.0000   1.0000   1.0000   1.0000
     1.0000   1.0000   1.0000   1.0000   1.0000   1.0000   1.0000   1.0000
     1.0000   1.0000   1.0000   1.0000   1.0000   1.0000   1.0000   1.0000
     1.0000   1.0000   1.0000   1.0000   1.0000   1.0000   1.0000   1.0000
     1.0000   1.0000   1.0000   1.0000   1.0000   1.0000   1.0000   1.0000
     1.0000   1.0000   1.0000   1.0000   1.0000   1.0000   1.0000   1.0000
     1.0000   1.0000   1.0000   1.0000   1.0000   1.0000   1.0000   1.0000
     1.0000   1.0000   1.0000   1.0000   1.0000   1.0000   1.0000   1.0000
     1.0000   1.0000   1.0000   1.0000   1.0000   1.0000   1.0000   1.0000
     1.0000   1.0000   1.0000   1.0000   1.0000   1.0000   1.0000   1.0000
     0.9999   0.9999   0.9999   0.9998   0.9993   0.9987   0.9985   0.9982
     0.9982   0.9977   0.9976   0.9970   0.9966   0.9963   0.9959   0.9950
     0.9947   0.9936   0.9931   0.9918   0.9879   0.9872   0.9864   0.9839
     0.9826   0.9799   0.9747   0.9642   0.9516   0.9476   0.9393   0.9357
     0.9221   0.9139   0.9074   0.9047   0.9011   0.8975   0.8912   0.8637
     0.8540   0.8207   0.7447   0.7409   0.7342   0.7294   0.7241   0.7169
     0.7136   0.7048   0.7001   0.6925   0.6875   0.6808   0.6758   0.6724
     0.6539   0.6484   0.6440   0.6248   0.4541   0.4062   0.3696   0.3243
     0.3173   0.2221   0.1724   0.0728   0.0385   0.0195   0.0067   0.0033
     0.0003   0.0002   0.0001   0.0001   0.0001   0.0000   0.0000   0.0000
     0.0000   0.0000   0.0000   0.0000   0.0000   0.0000   0.0000   0.0000
     0.0000   0.0000   0.0000   0.0000   0.0000   0.0000   0.0000   0.0000
     0.0000   0.0000   0.0000

          k =-0.5000 0.2500 0.0000 ( 65138 PWs)   bands (ev):

   -92.6894 -92.6374 -92.5430 -92.4970 -92.4396 -92.3956 -92.3783 -92.2580
   -56.0429 -56.0240 -55.9004 -55.8900 -55.8833 -55.8768 -55.8419 -55.8123
   -55.7970 -55.7951 -55.7876 -55.7466 -55.7279 -55.6908 -55.6694 -55.6394
   -55.6324 -55.5839 -55.5828 -55.5809 -55.5724 -55.5332 -55.5086 -55.4246
   -31.2628 -31.2510 -31.1055 -31.0820 -31.0408 -31.0198 -30.7439 -30.5724
   -29.8330 -29.7937 -29.7682 -29.6592 -14.9690 -14.9220 -14.8429 -14.7463
   -14.7059 -14.5791 -14.4845 -14.3615 -14.0537 -14.0220 -14.0099 -13.9737
   -13.9615 -13.9408 -13.9187 -13.8815 -13.8772 -13.8519 -13.8164 -13.8051
   -13.6873 -13.6259 -13.5771 -13.5727 -13.5561 -13.4601 -13.4513 -13.3149
   -13.2861 -13.1884 -13.1535 -13.0584 -13.0349 -13.0151 -13.0048 -12.9845
   -12.9526 -12.9312 -12.9215 -12.8868 -12.8400 -12.7097 -12.6334 -12.6144
   -12.6096 -12.6036 -12.5287 -12.4871 -12.3496 -12.3111 -12.2491 -12.1051
   -12.0771 -11.7587 -11.7458 -11.7315 -11.7198 -11.6979 -11.6675 -11.5889
   -11.5802 -11.5572 -11.5193 -11.4914 -11.4833  -2.4266  -2.3851  -2.2368
    -2.1947  -2.0333  -1.9585  -1.8147  -1.6802  -1.6234  -1.5969  -1.5571
    -1.5191  -1.4379  -1.3230  -1.2658  -1.2436  -1.2171  -1.2097  -1.1334
    -1.1118  -1.0689  -1.0551  -0.9934  -0.9659  -0.9256  -0.8909  -0.8621
    -0.8045  -0.7765  -0.7354  -0.7016  -0.5970  -0.5683  -0.4815  -0.4191
    -0.3867  -0.3326  -0.2458  -0.2111  -0.1110  -0.0678  -0.0152   0.0415
     0.0604   0.1341   0.1619   0.1964   0.2439   0.2848   0.5970   0.6645
     0.7346   0.7675   1.0333   1.0881   1.1609   1.1898   1.3634   1.3999
     1.4379   1.4497   1.4684   1.4861   1.5562   1.5974   1.6415   1.6671
     1.8006   1.8302   1.8584   1.8700   1.9207   1.9354   1.9495   1.9679
     1.9860   2.0066   2.0566   2.0660   2.1024   2.1249   2.1614   2.2137
     2.3367   2.4354   2.4510   2.4598   2.4883   2.5349   2.5656   2.6347
     2.6655   2.6712   2.7107   2.7427   2.7660   2.8498   2.8906   2.9046
     2.9091   2.9303   2.9533   2.9659   2.9813   2.9929   3.0147   3.0276
     3.0380   3.0455   3.0564   3.0674   3.5960   3.6464   3.7872   3.8098
     4.0944   4.1621   4.2102   4.4274   4.7981   4.8938   5.0541   5.0881
     5.4169   5.4431   5.5957   5.6303   5.7589   5.7988   6.3002   6.4003
     6.5030   6.6690   7.2025   7.3634   7.5459   7.7210   7.8028   7.8898
     7.9672   8.0385   8.2140   8.4104   8.4747   8.5441   8.5701   8.5898
     8.6682   8.7476   8.8358

     occupation numbers 
     1.0000   1.0000   1.0000   1.0000   1.0000   1.0000   1.0000   1.0000
     1.0000   1.0000   1.0000   1.0000   1.0000   1.0000   1.0000   1.0000
     1.0000   1.0000   1.0000   1.0000   1.0000   1.0000   1.0000   1.0000
     1.0000   1.0000   1.0000   1.0000   1.0000   1.0000   1.0000   1.0000
     1.0000   1.0000   1.0000   1.0000   1.0000   1.0000   1.0000   1.0000
     1.0000   1.0000   1.0000   1.0000   1.0000   1.0000   1.0000   1.0000
     1.0000   1.0000   1.0000   1.0000   1.0000   1.0000   1.0000   1.0000
     1.0000   1.0000   1.0000   1.0000   1.0000   1.0000   1.0000   1.0000
     1.0000   1.0000   1.0000   1.0000   1.0000   1.0000   1.0000   1.0000
     1.0000   1.0000   1.0000   1.0000   1.0000   1.0000   1.0000   1.0000
     1.0000   1.0000   1.0000   1.0000   1.0000   1.0000   1.0000   1.0000
     1.0000   1.0000   1.0000   1.0000   1.0000   1.0000   1.0000   1.0000
     1.0000   1.0000   1.0000   1.0000   1.0000   1.0000   1.0000   1.0000
     1.0000   1.0000   1.0000   1.0000   1.0000   1.0000   1.0000   1.0000
     1.0000   1.0000   1.0000   1.0000   1.0000   1.0000   1.0000   1.0000
     1.0000   1.0000   1.0000   1.0000   1.0000   1.0000   1.0000   1.0000
     1.0000   1.0000   1.0000   1.0000   1.0000   1.0000   1.0000   1.0000
     1.0000   1.0000   1.0000   1.0000   1.0000   1.0000   1.0000   1.0000
     1.0000   1.0000   1.0000   1.0000   1.0000   1.0000   1.0000   1.0000
     1.0000   1.0000   1.0000   1.0000   1.0000   1.0000   1.0000   1.0000
     0.9999   0.9999   0.9997   0.9996   0.9994   0.9993   0.9983   0.9980
     0.9976   0.9975   0.9973   0.9970   0.9959   0.9951   0.9941   0.9935
     0.9888   0.9874   0.9860   0.9854   0.9824   0.9814   0.9804   0.9791
     0.9777   0.9760   0.9715   0.9706   0.9668   0.9642   0.9598   0.9526
     0.9316   0.9100   0.9062   0.9040   0.8966   0.8836   0.8744   0.8520
     0.8412   0.8391   0.8244   0.8118   0.8023   0.7659   0.7470   0.7403
     0.7381   0.7278   0.7163   0.7100   0.7020   0.6961   0.6847   0.6778
     0.6722   0.6682   0.6623   0.6564   0.3511   0.3238   0.2526   0.2420
     0.1308   0.1107   0.0978   0.0529   0.0151   0.0105   0.0054   0.0047
     0.0010   0.0009   0.0004   0.0003   0.0002   0.0001   0.0000   0.0000
     0.0000   0.0000   0.0000   0.0000   0.0000   0.0000   0.0000   0.0000
     0.0000   0.0000   0.0000   0.0000   0.0000   0.0000   0.0000   0.0000
     0.0000   0.0000   0.0000

     the Fermi energy is     3.3385 ev

!    total energy              =   -4441.66322440 Ry
     estimated scf accuracy    <          5.6E-09 Ry
     smearing contrib. (-TS)   =      -1.15510027 Ry
     internal energy E=F+TS    =   -4440.50812413 Ry

     The total energy is F=E-TS. E is the sum of the following terms:
     one-electron contribution =  -20804.51540578 Ry
     hartree contribution      =   10534.43036592 Ry
     xc contribution           =    -694.18725391 Ry
     ewald contribution        =    6799.93284204 Ry
     one-center paw contrib.   =    -276.16867239 Ry
      -> PAW hartree energy AE =      25.15637665 Ry
      -> PAW hartree energy PS =     -25.04033723 Ry
      -> PAW xc energy AE      =     -16.51657375 Ry
      -> PAW xc energy PS      =       6.87599007 Ry
      -> total E_H with PAW    =   10534.54640534 Ry
      -> total E_XC with PAW   =    -703.82783759 Ry

     convergence has been achieved in  49 iterations

     Writing all to output data dir /bsuhome/zayahcortright/scratch/pwscf.save/
 
     init_run     :      7.51s CPU      8.40s WALL (       1 calls)
     electrons    :    809.43s CPU    894.08s WALL (       1 calls)

     Called by init_run:
     wfcinit      :      6.08s CPU      6.30s WALL (       1 calls)
     wfcinit:atom :      0.04s CPU      0.06s WALL (       5 calls)
     wfcinit:wfcr :      5.79s CPU      5.92s WALL (       5 calls)
     potinit      :      0.18s CPU      0.21s WALL (       1 calls)
     hinit0       :      0.40s CPU      0.77s WALL (       1 calls)

     Called by electrons:
     c_bands      :    657.14s CPU    668.54s WALL (      49 calls)
     sum_band     :    113.77s CPU    154.93s WALL (      49 calls)
     v_of_rho     :      5.25s CPU      5.63s WALL (      50 calls)
     v_h          :      0.46s CPU      0.46s WALL (      50 calls)
     v_xc         :      4.79s CPU      5.17s WALL (      50 calls)
     newd         :     18.39s CPU     49.61s WALL (      50 calls)
     PAW_pot      :      1.71s CPU      1.74s WALL (      50 calls)
     mix_rho      :     12.77s CPU     13.32s WALL (      49 calls)

     Called by c_bands:
     init_us_2    :      6.72s CPU      6.84s WALL (     495 calls)
     init_us_2:cp :      6.71s CPU      6.84s WALL (     495 calls)
     cegterg      :    611.20s CPU    622.17s WALL (     245 calls)

     Called by sum_band:
     sum_band:wei :      0.35s CPU      0.35s WALL (      49 calls)
     sum_band:loo :     92.11s CPU     92.90s WALL (      49 calls)
     sum_band:buf :      1.35s CPU      1.44s WALL (     245 calls)
     sum_band:ini :      3.00s CPU      3.01s WALL (     245 calls)
     sum_band:cal :     19.22s CPU     19.30s WALL (     245 calls)
     sum_band:bec :      0.58s CPU      0.59s WALL (     245 calls)
     addusdens    :     16.90s CPU     57.22s WALL (      49 calls)
                                        0.00s GPU  (      49 calls)
     addusd:skk   :      0.31s CPU      2.36s WALL (     196 calls)
                                        0.00s GPU  (     196 calls)

     Called by *egterg:
     cdiaghg      :     59.92s CPU     60.18s WALL (    1387 calls)
     cegterg:over :     44.10s CPU     44.28s WALL (    1142 calls)
     cegterg:upda :     49.22s CPU     50.05s WALL (    1142 calls)
     cegterg:last :     70.06s CPU     70.35s WALL (     450 calls)
     cdiaghg:chol :      3.51s CPU      3.53s WALL (    1387 calls)
     cdiaghg:inve :      3.71s CPU      3.73s WALL (    1387 calls)
     cdiaghg:para :      7.71s CPU      7.76s WALL (    2774 calls)
     h_psi        :    317.52s CPU    322.09s WALL (    1392 calls)
     s_psi        :     43.97s CPU     44.11s WALL (    1392 calls)
     g_psi        :      2.13s CPU      2.15s WALL (    1142 calls)

     Called by h_psi:
     h_psi:calbec :     45.67s CPU     45.87s WALL (    1392 calls)
     vloc_psi     :    223.58s CPU    225.64s WALL (    1392 calls)
     add_vuspsi   :     43.15s CPU     43.37s WALL (    1392 calls)

     General routines
     calbec       :     64.88s CPU     65.17s WALL (    1637 calls)
     fft          :      4.23s CPU      4.29s WALL (     648 calls)
     ffts         :      4.87s CPU      5.02s WALL (    5317 calls)
     fftw         :    179.03s CPU    180.43s WALL (  331721 calls)
     interpolate  :      0.41s CPU      0.42s WALL (      50 calls)
 
     Parallel routines

     PAW routines
     PAW_pot      :      1.71s CPU      1.74s WALL (      50 calls)
 
     PWSCF        :  13m38.66s CPU  15m 7.69s WALL

 
   This run was terminated on:  19:51:33  21Jun2024            

=------------------------------------------------------------------------------=
   JOB DONE.
=------------------------------------------------------------------------------=
