
     Program PWSCF v.7.2 starts on 22Jun2024 at  5:13:27 

     This program is part of the open-source Quantum ESPRESSO suite
     for quantum simulation of materials; please cite
         "P. Giannozzi et al., J. Phys.:Condens. Matter 21 395502 (2009);
         "P. Giannozzi et al., J. Phys.:Condens. Matter 29 465901 (2017);
         "P. Giannozzi et al., J. Chem. Phys. 152 154105 (2020);
          URL http://www.quantum-espresso.org", 
     in publications or presentations arising from this work. More details at
     http://www.quantum-espresso.org/quote

     Parallel version (MPI & OpenMP), running on      48 processor cores
     Number of MPI processes:                48
     Threads/MPI process:                     1

     MPI processes distributed on     1 nodes
     33222 MiB available memory on the printing compute node when the environment starts
 
     Reading input from espresso.pwi
Warning: card &CELL ignored
Warning: card / ignored
Warning: card &FCP ignored
Warning: card / ignored
Warning: card &RISM ignored
Warning: card / ignored

     Current dimensions of program PWSCF are:
     Max number of different atomic species (ntypx) = 10
     Max number of k-points (npk) =  40000
     Max angular momentum in pseudopotentials (lmaxx) =  4
     file O.pbe-n-kjpaw_psl.0.1.UPF: wavefunction(s)  2P renormalized
     signal trapping enabled: kill the code with -SIGUSR1 to stop cleanly the simulation 
 
     K-points division:     npool     =       2
     R & G space division:  proc/nbgrp/npool/nimage =      24
     Subspace diagonalization in iterative solution of the eigenvalue problem:
     one sub-group per band group will be used
     scalapack distributed-memory algorithm (size of sub-group:  3*  3 procs)

 
     Parallelization info
     --------------------
     sticks:   dense  smooth     PW     G-vecs:    dense   smooth      PW
     Min         350     175     47                61430    21716    3036
     Max         351     177     48                61449    21727    3041
     Sum        8421    4205   1137              1474595   521381   72913
 
     Using Slab Decomposition
 


     bravais-lattice index     =            0
     lattice parameter (alat)  =      14.8599  a.u.
     unit-cell volume          =    8305.1283 (a.u.)^3
     number of atoms/cell      =           50
     number of atomic types    =            4
     number of electrons       =       431.00
     number of Kohn-Sham states=          259
     kinetic-energy cutoff     =      60.0000  Ry
     charge density cutoff     =     480.0000  Ry
     scf convergence threshold =      1.0E-08
     mixing beta               =       0.1500
     number of iterations used =            8  local-TF  mixing
     Exchange-correlation= PBE
                           (   1   4   3   4   0   0   0)

     celldm(1)=  14.859904  celldm(2)=   0.000000  celldm(3)=   0.000000
     celldm(4)=   0.000000  celldm(5)=   0.000000  celldm(6)=   0.000000

     crystal axes: (cart. coord. in units of alat)
               a(1) = (   1.000000   0.000000   0.000000 )  
               a(2) = (   0.000000   1.000000   0.000000 )  
               a(3) = (   0.000000   0.000000   2.531036 )  

     reciprocal axes: (cart. coord. in units 2 pi/alat)
               b(1) = (  1.000000  0.000000  0.000000 )  
               b(2) = (  0.000000  1.000000  0.000000 )  
               b(3) = (  0.000000  0.000000  0.395095 )  


     PseudoPot. # 1 for Sr read from file:
     /bsuhome/zayahcortright/q-e/pseudo/Sr_pbe_v1.uspp.F.UPF
     MD5 check sum: 6b418c05fbe9db5448babca5e47b7a5b
     Pseudo is Ultrasoft + core correction, Zval = 10.0
     Generated by new atomic code, or converted to UPF format
     Using radial grid of  883 points,  6 beta functions with: 
                l(1) =   0
                l(2) =   0
                l(3) =   1
                l(4) =   1
                l(5) =   2
                l(6) =   2
     Q(r) pseudized with  6 coefficients,  rinner =    1.400   1.400   1.400
                                                       1.400   1.400

     PseudoPot. # 2 for O  read from file:
     /bsuhome/zayahcortright/q-e/pseudo/O.pbe-n-kjpaw_psl.0.1.UPF
     MD5 check sum: 0234752ac141de4415c5fc33072bef88
     Pseudo is Projector augmented-wave + core cor, Zval =  6.0
     Generated using "atomic" code by A. Dal Corso  v.5.0.99 svn rev. 10869
     Shape of augmentation charge: BESSEL
     Using radial grid of 1095 points,  4 beta functions with: 
                l(1) =   0
                l(2) =   0
                l(3) =   1
                l(4) =   1
     Q(r) pseudized with 0 coefficients 


     PseudoPot. # 3 for Co read from file:
     /bsuhome/zayahcortright/q-e/pseudo/Co_pbe_v1.2.uspp.F.UPF
     MD5 check sum: 5f91765df6ddd3222702df6e7b74a16d
     Pseudo is Ultrasoft + core correction, Zval = 17.0
     Generated by new atomic code, or converted to UPF format
     Using radial grid of  863 points,  6 beta functions with: 
                l(1) =   0
                l(2) =   0
                l(3) =   1
                l(4) =   1
                l(5) =   2
                l(6) =   2
     Q(r) pseudized with  8 coefficients,  rinner =    1.200   1.200   1.200
                                                       1.200   1.200

     PseudoPot. # 4 for H  read from file:
     /bsuhome/zayahcortright/q-e/pseudo/H.pbe-rrkjus_psl.1.0.0.UPF
     MD5 check sum: f52b6d4d1c606e5624b1dc7b2218f220
     Pseudo is Ultrasoft, Zval =  1.0
     Generated using "atomic" code by A. Dal Corso  v.5.1
     Using radial grid of  929 points,  2 beta functions with: 
                l(1) =   0
                l(2) =   0
     Q(r) pseudized with 0 coefficients 


     atomic species   valence    mass     pseudopotential
        Sr            10.00    87.62000     Sr( 1.00)
        O              6.00    15.99900     O ( 1.00)
        Co            17.00    58.93319     Co( 1.00)
        H              1.00     1.00800     H ( 1.00)

     No symmetry found


                                    s                        frac. trans.

      isym =  1     identity                                     

 cryst.   s( 1) = (     1          0          0      )
                  (     0          1          0      )
                  (     0          0          1      )

 cart.    s( 1) = (  1.0000000  0.0000000  0.0000000 )
                  (  0.0000000  1.0000000  0.0000000 )
                  (  0.0000000  0.0000000  1.0000000 )


   Cartesian axes

     site n.     atom                  positions (alat units)
         1           Sr  tau(   1) = (   0.2508693   0.7491307   1.7574407  )
         2           O   tau(   2) = (   0.4985141   0.5014859   1.7715967  )
         3           Sr  tau(   3) = (   0.7482398   0.7454518   1.7648669  )
         4           Sr  tau(   4) = (   0.7441748   0.2558252   1.7667843  )
         5           Sr  tau(   5) = (   0.2508693   0.7491307   1.2696799  )
         6           Sr  tau(   6) = (   0.2508693   0.7491307   0.7632319  )
         7           Co  tau(   7) = (   0.4998914   0.5001086   1.0164559  )
         8           Co  tau(   8) = (   0.4936915   0.5063085   1.5135603  )
         9           O   tau(   9) = (   0.4988895   0.7610401   1.0164559  )
        10           O   tau(  10) = (   0.2389599   0.5011105   1.0164559  )
        11           O   tau(  11) = (   0.0070918   0.7374880   1.0164559  )
        12           O   tau(  12) = (   0.0088340   0.7405089   1.5135603  )
        13           O   tau(  13) = (   0.5066944   0.7415376   1.5135603  )
        14           O   tau(  14) = (   0.2584624   0.4933056   1.5135603  )
        15           O   tau(  15) = (   0.4985141   0.5014859   0.7773880  )
        16           O   tau(  16) = (   0.4985141   0.5014859   1.2555238  )
        17           Sr  tau(  17) = (   0.7482398   0.7454518   0.7706582  )
        18           Sr  tau(  18) = (   0.7482398   0.7454518   1.2622536  )
        19           Sr  tau(  19) = (   0.7441748   0.2558252   0.7725755  )
        20           Sr  tau(  20) = (   0.7441748   0.2558252   1.2603363  )
        21           O   tau(  21) = (   0.7322655   0.0078049   1.5135603  )
        22           O   tau(  22) = (   0.7558175   0.4996027   1.5135603  )
        23           O   tau(  23) = (   0.5003973   0.2441825   1.5135603  )
        24           O   tau(  24) = (   0.7527966   0.4978604   1.0164559  )
        25           O   tau(  25) = (   0.5021396   0.2472034   1.0164559  )
        26           O   tau(  26) = (   0.7517679   0.0000000   1.0164559  )
        27           O   tau(  27) = (   0.0114961   0.4948124   1.7455321  )
        28           O   tau(  28) = (   0.0048226   0.0077944   1.7715967  )
        29           Sr  tau(  29) = (   0.2545482   0.2517602   1.7648669  )
        30           O   tau(  30) = (   0.5048017   0.0015068   1.7786929  )
        31           Co  tau(  31) = (   0.0056869   0.5006215   1.0164559  )
        32           Co  tau(  32) = (   0.0065315   0.4997770   1.5135603  )
        33           Co  tau(  33) = (   0.0061999   0.0064171   1.0164559  )
        34           Co  tau(  34) = (   0.0000000   0.0126169   1.5135603  )
        35           O   tau(  35) = (   0.0114961   0.4948124   1.2815885  )
        36           O   tau(  36) = (   0.0114961   0.4948124   0.7513233  )
        37           O   tau(  37) = (   0.0051979   0.2673486   1.0164559  )
        38           O   tau(  38) = (   0.0130029   0.2478461   1.5135603  )
        39           O   tau(  39) = (   0.0048226   0.0077944   0.7773880  )
        40           O   tau(  40) = (   0.0048226   0.0077944   1.2555238  )
        41           Sr  tau(  41) = (   0.2545482   0.2517602   0.7706582  )
        42           Sr  tau(  42) = (   0.2545482   0.2517602   1.2622536  )
        43           Co  tau(  43) = (   0.4989925   0.0073160   1.5135603  )
        44           Co  tau(  44) = (   0.4998370   0.0064714   1.0164559  )
        45           O   tau(  45) = (   0.5048017   0.0015068   0.7844841  )
        46           O   tau(  46) = (   0.5048017   0.0015068   1.2484277  )
        47           O   tau(  47) = (   0.2621260   0.0059111   1.5135603  )
        48           O   tau(  48) = (   0.2591051   0.0041689   1.0164559  )
        49           O   tau(  49) = (   0.9951520   0.8529874   2.1602013  )
        50           H   tau(  50) = (   0.9951520   0.8529874   2.2847091  )

   Crystallographic axes

     site n.     atom                  positions (cryst. coord.)
         1           Sr  tau(   1) = (  0.2508693  0.7491307  0.6943562  )
         2           O   tau(   2) = (  0.4985141  0.5014859  0.6999492  )
         3           Sr  tau(   3) = (  0.7482398  0.7454518  0.6972903  )
         4           Sr  tau(   4) = (  0.7441748  0.2558252  0.6980478  )
         5           Sr  tau(   5) = (  0.2508693  0.7491307  0.5016443  )
         6           Sr  tau(   6) = (  0.2508693  0.7491307  0.3015492  )
         7           Co  tau(   7) = (  0.4998914  0.5001086  0.4015968  )
         8           Co  tau(   8) = (  0.4936915  0.5063085  0.5980003  )
         9           O   tau(   9) = (  0.4988895  0.7610401  0.4015968  )
        10           O   tau(  10) = (  0.2389599  0.5011105  0.4015968  )
        11           O   tau(  11) = (  0.0070918  0.7374880  0.4015968  )
        12           O   tau(  12) = (  0.0088340  0.7405089  0.5980003  )
        13           O   tau(  13) = (  0.5066944  0.7415376  0.5980003  )
        14           O   tau(  14) = (  0.2584624  0.4933056  0.5980003  )
        15           O   tau(  15) = (  0.4985141  0.5014859  0.3071422  )
        16           O   tau(  16) = (  0.4985141  0.5014859  0.4960513  )
        17           Sr  tau(  17) = (  0.7482398  0.7454518  0.3044833  )
        18           Sr  tau(  18) = (  0.7482398  0.7454518  0.4987103  )
        19           Sr  tau(  19) = (  0.7441748  0.2558252  0.3052408  )
        20           Sr  tau(  20) = (  0.7441748  0.2558252  0.4979527  )
        21           O   tau(  21) = (  0.7322655  0.0078049  0.5980003  )
        22           O   tau(  22) = (  0.7558175  0.4996027  0.5980003  )
        23           O   tau(  23) = (  0.5003973  0.2441825  0.5980003  )
        24           O   tau(  24) = (  0.7527966  0.4978604  0.4015968  )
        25           O   tau(  25) = (  0.5021396  0.2472034  0.4015968  )
        26           O   tau(  26) = (  0.7517679  0.0000000  0.4015968  )
        27           O   tau(  27) = (  0.0114961  0.4948124  0.6896512  )
        28           O   tau(  28) = (  0.0048226  0.0077944  0.6999492  )
        29           Sr  tau(  29) = (  0.2545482  0.2517602  0.6972903  )
        30           O   tau(  30) = (  0.5048017  0.0015068  0.7027529  )
        31           Co  tau(  31) = (  0.0056869  0.5006215  0.4015968  )
        32           Co  tau(  32) = (  0.0065315  0.4997770  0.5980003  )
        33           Co  tau(  33) = (  0.0061999  0.0064171  0.4015968  )
        34           Co  tau(  34) = (  0.0000000  0.0126169  0.5980003  )
        35           O   tau(  35) = (  0.0114961  0.4948124  0.5063494  )
        36           O   tau(  36) = (  0.0114961  0.4948124  0.2968442  )
        37           O   tau(  37) = (  0.0051979  0.2673486  0.4015968  )
        38           O   tau(  38) = (  0.0130029  0.2478461  0.5980003  )
        39           O   tau(  39) = (  0.0048226  0.0077944  0.3071422  )
        40           O   tau(  40) = (  0.0048226  0.0077944  0.4960513  )
        41           Sr  tau(  41) = (  0.2545482  0.2517602  0.3044833  )
        42           Sr  tau(  42) = (  0.2545482  0.2517602  0.4987103  )
        43           Co  tau(  43) = (  0.4989925  0.0073160  0.5980003  )
        44           Co  tau(  44) = (  0.4998370  0.0064714  0.4015968  )
        45           O   tau(  45) = (  0.5048017  0.0015068  0.3099459  )
        46           O   tau(  46) = (  0.5048017  0.0015068  0.4932477  )
        47           O   tau(  47) = (  0.2621260  0.0059111  0.5980003  )
        48           O   tau(  48) = (  0.2591051  0.0041689  0.4015968  )
        49           O   tau(  49) = (  0.9951520  0.8529874  0.8534850  )
        50           H   tau(  50) = (  0.9951520  0.8529874  0.9026774  )

     number of k points=    10  Gaussian smearing, width (Ry)=  0.0700
                       cart. coord. in units 2pi/alat
        k(    1) = (   0.0000000   0.0000000   0.0000000), wk =   0.1250000
        k(    2) = (   0.0000000   0.2500000   0.0000000), wk =   0.2500000
        k(    3) = (   0.0000000  -0.5000000   0.0000000), wk =   0.1250000
        k(    4) = (   0.2500000   0.2500000   0.0000000), wk =   0.2500000
        k(    5) = (   0.2500000  -0.5000000   0.0000000), wk =   0.2500000
        k(    6) = (  -0.5000000  -0.5000000   0.0000000), wk =   0.1250000
        k(    7) = (   0.2500000   0.0000000   0.0000000), wk =   0.2500000
        k(    8) = (  -0.5000000   0.0000000   0.0000000), wk =   0.1250000
        k(    9) = (  -0.2500000   0.2500000   0.0000000), wk =   0.2500000
        k(   10) = (  -0.5000000   0.2500000   0.0000000), wk =   0.2500000

                       cryst. coord.
        k(    1) = (   0.0000000   0.0000000   0.0000000), wk =   0.1250000
        k(    2) = (   0.0000000   0.2500000   0.0000000), wk =   0.2500000
        k(    3) = (   0.0000000  -0.5000000   0.0000000), wk =   0.1250000
        k(    4) = (   0.2500000   0.2500000   0.0000000), wk =   0.2500000
        k(    5) = (   0.2500000  -0.5000000   0.0000000), wk =   0.2500000
        k(    6) = (  -0.5000000  -0.5000000   0.0000000), wk =   0.1250000
        k(    7) = (   0.2500000   0.0000000   0.0000000), wk =   0.2500000
        k(    8) = (  -0.5000000   0.0000000   0.0000000), wk =   0.1250000
        k(    9) = (  -0.2500000   0.2500000   0.0000000), wk =   0.2500000
        k(   10) = (  -0.5000000   0.2500000   0.0000000), wk =   0.2500000

     Dense  grid:  1474595 G-vectors     FFT dimensions: ( 108, 108, 270)

     Smooth grid:   521381 G-vectors     FFT dimensions: (  75,  75, 192)

     Dynamical RAM for                 wfc:      10.73 MB

     Dynamical RAM for     wfc (w. buffer):      64.38 MB

     Dynamical RAM for           str. fact:       3.75 MB

     Dynamical RAM for           local pot:       0.00 MB

     Dynamical RAM for          nlocal pot:      24.61 MB

     Dynamical RAM for                qrad:       7.03 MB

     Dynamical RAM for          rho,v,vnew:       6.02 MB

     Dynamical RAM for               rhoin:       2.01 MB

     Dynamical RAM for            rho*nmix:      15.00 MB

     Dynamical RAM for           G-vectors:       3.68 MB

     Dynamical RAM for          h,s,v(r/c):       1.35 MB

     Dynamical RAM for          <psi|beta>:       2.35 MB

     Dynamical RAM for                 psi:      21.46 MB

     Dynamical RAM for                hpsi:      21.46 MB

     Dynamical RAM for                spsi:      21.46 MB

     Dynamical RAM for      wfcinit/wfcrot:      34.49 MB

     Dynamical RAM for           addusdens:     101.26 MB

     Estimated static dynamical RAM per process >     121.50 MB

     Estimated max dynamical RAM per process >     237.76 MB

     Estimated total dynamical RAM >      10.79 GB

     Check: negative core charge=   -0.000004

     Initial potential from superposition of free atoms

     starting charge     422.5961, renormalised to     431.0000

     negative rho (up, down):  7.819E-01 0.000E+00
     Starting wfcs are  377 randomized atomic wfcs
     Checking if some PAW data can be deallocated... 
       PAW data deallocated on   19 nodes for type:  2

     total cpu time spent up to now is        8.9 secs

     Self-consistent Calculation

     iteration #  1     ecut=    60.00 Ry     beta= 0.15
     Davidson diagonalization with overlap

---- Real-time Memory Report at c_bands before calling an iterative solver
             0 MiB given to the printing process from OS
             0 MiB allocation reported by mallinfo(arena+hblkhd)
         24003 MiB available memory on the node where the printing process lives
------------------
     ethr =  1.00E-02,  avg # of iterations =  2.0

     negative rho (up, down):  7.714E-01 0.000E+00

     total cpu time spent up to now is       25.4 secs

     total energy              =   -4446.60053637 Ry
     estimated scf accuracy    <      44.80216961 Ry

     iteration #  2     ecut=    60.00 Ry     beta= 0.15
     Davidson diagonalization with overlap

---- Real-time Memory Report at c_bands before calling an iterative solver
             0 MiB given to the printing process from OS
             0 MiB allocation reported by mallinfo(arena+hblkhd)
         24264 MiB available memory on the node where the printing process lives
------------------
     ethr =  1.00E-02,  avg # of iterations =  1.0

     negative rho (up, down):  7.580E-01 0.000E+00

     total cpu time spent up to now is       39.7 secs

     total energy              =   -4443.25425559 Ry
     estimated scf accuracy    <      29.54524283 Ry

     iteration #  3     ecut=    60.00 Ry     beta= 0.15
     Davidson diagonalization with overlap

---- Real-time Memory Report at c_bands before calling an iterative solver
             0 MiB given to the printing process from OS
             0 MiB allocation reported by mallinfo(arena+hblkhd)
         23414 MiB available memory on the node where the printing process lives
------------------
     ethr =  6.86E-03,  avg # of iterations =  1.0

     negative rho (up, down):  7.553E-01 0.000E+00

     total cpu time spent up to now is       54.2 secs

     total energy              =   -4444.26128741 Ry
     estimated scf accuracy    <      28.96374932 Ry

     iteration #  4     ecut=    60.00 Ry     beta= 0.15
     Davidson diagonalization with overlap

---- Real-time Memory Report at c_bands before calling an iterative solver
             0 MiB given to the printing process from OS
             0 MiB allocation reported by mallinfo(arena+hblkhd)
         23389 MiB available memory on the node where the printing process lives
------------------
     ethr =  6.72E-03,  avg # of iterations =  1.0

     negative rho (up, down):  7.492E-01 0.000E+00

     total cpu time spent up to now is       68.6 secs

     total energy              =   -4443.03305305 Ry
     estimated scf accuracy    <      20.89575570 Ry

     iteration #  5     ecut=    60.00 Ry     beta= 0.15
     Davidson diagonalization with overlap

---- Real-time Memory Report at c_bands before calling an iterative solver
             0 MiB given to the printing process from OS
             0 MiB allocation reported by mallinfo(arena+hblkhd)
         23371 MiB available memory on the node where the printing process lives
------------------
     ethr =  4.85E-03,  avg # of iterations =  1.0

     negative rho (up, down):  7.408E-01 0.000E+00

     total cpu time spent up to now is       83.0 secs

     total energy              =   -4442.61435982 Ry
     estimated scf accuracy    <      10.26397158 Ry

     iteration #  6     ecut=    60.00 Ry     beta= 0.15
     Davidson diagonalization with overlap

---- Real-time Memory Report at c_bands before calling an iterative solver
             0 MiB given to the printing process from OS
             0 MiB allocation reported by mallinfo(arena+hblkhd)
         23352 MiB available memory on the node where the printing process lives
------------------
     ethr =  2.38E-03,  avg # of iterations =  1.1

     negative rho (up, down):  7.430E-01 0.000E+00

     total cpu time spent up to now is       97.6 secs

     total energy              =   -4442.80649722 Ry
     estimated scf accuracy    <       4.86304468 Ry

     iteration #  7     ecut=    60.00 Ry     beta= 0.15
     Davidson diagonalization with overlap

---- Real-time Memory Report at c_bands before calling an iterative solver
             0 MiB given to the printing process from OS
             0 MiB allocation reported by mallinfo(arena+hblkhd)
         23335 MiB available memory on the node where the printing process lives
------------------
     ethr =  1.13E-03,  avg # of iterations =  1.7

     negative rho (up, down):  7.660E-01 0.000E+00

     total cpu time spent up to now is      112.4 secs

     total energy              =   -4441.66029543 Ry
     estimated scf accuracy    <       3.90934511 Ry

     iteration #  8     ecut=    60.00 Ry     beta= 0.15
     Davidson diagonalization with overlap

---- Real-time Memory Report at c_bands before calling an iterative solver
             0 MiB given to the printing process from OS
             0 MiB allocation reported by mallinfo(arena+hblkhd)
         23316 MiB available memory on the node where the printing process lives
------------------
     ethr =  9.07E-04,  avg # of iterations =  4.2

     negative rho (up, down):  7.728E-01 0.000E+00

     total cpu time spent up to now is      131.5 secs

     total energy              =   -4441.56305176 Ry
     estimated scf accuracy    <      15.25734298 Ry

     iteration #  9     ecut=    60.00 Ry     beta= 0.15
     Davidson diagonalization with overlap

---- Real-time Memory Report at c_bands before calling an iterative solver
             0 MiB given to the printing process from OS
             0 MiB allocation reported by mallinfo(arena+hblkhd)
         23173 MiB available memory on the node where the printing process lives
------------------
     ethr =  9.07E-04,  avg # of iterations =  9.6

     negative rho (up, down):  7.706E-01 0.000E+00

     total cpu time spent up to now is      152.9 secs

     total energy              =   -4441.77521829 Ry
     estimated scf accuracy    <       2.54744198 Ry

     iteration # 10     ecut=    60.00 Ry     beta= 0.15
     Davidson diagonalization with overlap

---- Real-time Memory Report at c_bands before calling an iterative solver
             0 MiB given to the printing process from OS
             0 MiB allocation reported by mallinfo(arena+hblkhd)
         22806 MiB available memory on the node where the printing process lives
------------------
     ethr =  5.91E-04,  avg # of iterations =  2.1

     negative rho (up, down):  7.767E-01 0.000E+00

     total cpu time spent up to now is      168.9 secs

     total energy              =   -4441.91989182 Ry
     estimated scf accuracy    <       1.13539740 Ry

     iteration # 11     ecut=    60.00 Ry     beta= 0.15
     Davidson diagonalization with overlap

---- Real-time Memory Report at c_bands before calling an iterative solver
             0 MiB given to the printing process from OS
             0 MiB allocation reported by mallinfo(arena+hblkhd)
         22783 MiB available memory on the node where the printing process lives
------------------
     ethr =  2.63E-04,  avg # of iterations =  2.4

     negative rho (up, down):  8.120E-01 0.000E+00

     total cpu time spent up to now is      185.6 secs

     total energy              =   -4441.70432751 Ry
     estimated scf accuracy    <       1.21573047 Ry

     iteration # 12     ecut=    60.00 Ry     beta= 0.15
     Davidson diagonalization with overlap

---- Real-time Memory Report at c_bands before calling an iterative solver
             0 MiB given to the printing process from OS
             0 MiB allocation reported by mallinfo(arena+hblkhd)
         22788 MiB available memory on the node where the printing process lives
------------------
     ethr =  2.63E-04,  avg # of iterations =  8.0

     negative rho (up, down):  8.179E-01 0.000E+00

     total cpu time spent up to now is      205.8 secs

     total energy              =   -4441.84813882 Ry
     estimated scf accuracy    <       1.30766115 Ry

     iteration # 13     ecut=    60.00 Ry     beta= 0.15
     Davidson diagonalization with overlap

---- Real-time Memory Report at c_bands before calling an iterative solver
             0 MiB given to the printing process from OS
             0 MiB allocation reported by mallinfo(arena+hblkhd)
         22761 MiB available memory on the node where the printing process lives
------------------
     ethr =  2.63E-04,  avg # of iterations =  2.5

     negative rho (up, down):  8.178E-01 0.000E+00

     total cpu time spent up to now is      222.1 secs

     total energy              =   -4441.79170194 Ry
     estimated scf accuracy    <       0.81238116 Ry

     iteration # 14     ecut=    60.00 Ry     beta= 0.15
     Davidson diagonalization with overlap

---- Real-time Memory Report at c_bands before calling an iterative solver
             0 MiB given to the printing process from OS
             0 MiB allocation reported by mallinfo(arena+hblkhd)
         22761 MiB available memory on the node where the printing process lives
------------------
     ethr =  1.88E-04,  avg # of iterations =  4.9

     negative rho (up, down):  8.216E-01 0.000E+00

     total cpu time spent up to now is      240.7 secs

     total energy              =   -4441.74652898 Ry
     estimated scf accuracy    <       0.35682776 Ry

     iteration # 15     ecut=    60.00 Ry     beta= 0.15
     Davidson diagonalization with overlap

---- Real-time Memory Report at c_bands before calling an iterative solver
             0 MiB given to the printing process from OS
             0 MiB allocation reported by mallinfo(arena+hblkhd)
         22746 MiB available memory on the node where the printing process lives
------------------
     c_bands:  1 eigenvalues not converged
     c_bands:  1 eigenvalues not converged
     ethr =  8.28E-05,  avg # of iterations = 13.1

     negative rho (up, down):  8.316E-01 0.000E+00

     total cpu time spent up to now is      263.9 secs

     total energy              =   -4441.72195832 Ry
     estimated scf accuracy    <       0.28160482 Ry

     iteration # 16     ecut=    60.00 Ry     beta= 0.15
     Davidson diagonalization with overlap

---- Real-time Memory Report at c_bands before calling an iterative solver
             0 MiB given to the printing process from OS
             0 MiB allocation reported by mallinfo(arena+hblkhd)
         22735 MiB available memory on the node where the printing process lives
------------------
     ethr =  6.53E-05,  avg # of iterations =  6.7

     negative rho (up, down):  8.323E-01 0.000E+00

     total cpu time spent up to now is      283.6 secs

     total energy              =   -4441.72127300 Ry
     estimated scf accuracy    <       0.26569049 Ry

     iteration # 17     ecut=    60.00 Ry     beta= 0.15
     Davidson diagonalization with overlap

---- Real-time Memory Report at c_bands before calling an iterative solver
             0 MiB given to the printing process from OS
             0 MiB allocation reported by mallinfo(arena+hblkhd)
         22751 MiB available memory on the node where the printing process lives
------------------
     ethr =  6.16E-05,  avg # of iterations =  1.0

     negative rho (up, down):  8.152E-01 0.000E+00

     total cpu time spent up to now is      298.3 secs

     total energy              =   -4441.69236565 Ry
     estimated scf accuracy    <       0.22073792 Ry

     iteration # 18     ecut=    60.00 Ry     beta= 0.15
     Davidson diagonalization with overlap

---- Real-time Memory Report at c_bands before calling an iterative solver
             0 MiB given to the printing process from OS
             0 MiB allocation reported by mallinfo(arena+hblkhd)
         22733 MiB available memory on the node where the printing process lives
------------------
     ethr =  5.12E-05,  avg # of iterations =  4.4

     negative rho (up, down):  8.134E-01 0.000E+00

     total cpu time spent up to now is      316.4 secs

     total energy              =   -4441.67747277 Ry
     estimated scf accuracy    <       0.12672803 Ry

     iteration # 19     ecut=    60.00 Ry     beta= 0.15
     Davidson diagonalization with overlap

---- Real-time Memory Report at c_bands before calling an iterative solver
             0 MiB given to the printing process from OS
             0 MiB allocation reported by mallinfo(arena+hblkhd)
         22727 MiB available memory on the node where the printing process lives
------------------
     ethr =  2.94E-05,  avg # of iterations = 10.1

     negative rho (up, down):  8.125E-01 0.000E+00

     total cpu time spent up to now is      338.1 secs

     total energy              =   -4441.67014694 Ry
     estimated scf accuracy    <       0.08858004 Ry

     iteration # 20     ecut=    60.00 Ry     beta= 0.15
     Davidson diagonalization with overlap

---- Real-time Memory Report at c_bands before calling an iterative solver
             0 MiB given to the printing process from OS
             0 MiB allocation reported by mallinfo(arena+hblkhd)
         22670 MiB available memory on the node where the printing process lives
------------------
     ethr =  2.06E-05,  avg # of iterations =  6.6

     negative rho (up, down):  8.234E-01 0.000E+00

     total cpu time spent up to now is      357.5 secs

     total energy              =   -4441.65905530 Ry
     estimated scf accuracy    <       0.06050141 Ry

     iteration # 21     ecut=    60.00 Ry     beta= 0.15
     Davidson diagonalization with overlap

---- Real-time Memory Report at c_bands before calling an iterative solver
             0 MiB given to the printing process from OS
             0 MiB allocation reported by mallinfo(arena+hblkhd)
         22600 MiB available memory on the node where the printing process lives
------------------
     ethr =  1.40E-05,  avg # of iterations = 10.4

     negative rho (up, down):  8.177E-01 0.000E+00

     total cpu time spent up to now is      379.8 secs

     total energy              =   -4441.66171058 Ry
     estimated scf accuracy    <       0.02489391 Ry

     iteration # 22     ecut=    60.00 Ry     beta= 0.15
     Davidson diagonalization with overlap

---- Real-time Memory Report at c_bands before calling an iterative solver
             0 MiB given to the printing process from OS
             0 MiB allocation reported by mallinfo(arena+hblkhd)
         22599 MiB available memory on the node where the printing process lives
------------------
     ethr =  5.78E-06,  avg # of iterations =  2.0

     negative rho (up, down):  8.113E-01 0.000E+00

     total cpu time spent up to now is      396.6 secs

     total energy              =   -4441.66099364 Ry
     estimated scf accuracy    <       0.01692010 Ry

     iteration # 23     ecut=    60.00 Ry     beta= 0.15
     Davidson diagonalization with overlap

---- Real-time Memory Report at c_bands before calling an iterative solver
             0 MiB given to the printing process from OS
             0 MiB allocation reported by mallinfo(arena+hblkhd)
         22617 MiB available memory on the node where the printing process lives
------------------
     ethr =  3.93E-06,  avg # of iterations =  3.3

     negative rho (up, down):  7.895E-01 0.000E+00

     total cpu time spent up to now is      413.6 secs

     total energy              =   -4441.65802267 Ry
     estimated scf accuracy    <       0.01311142 Ry

     iteration # 24     ecut=    60.00 Ry     beta= 0.15
     Davidson diagonalization with overlap

---- Real-time Memory Report at c_bands before calling an iterative solver
             0 MiB given to the printing process from OS
             0 MiB allocation reported by mallinfo(arena+hblkhd)
         22618 MiB available memory on the node where the printing process lives
------------------
     c_bands:  1 eigenvalues not converged
     ethr =  3.04E-06,  avg # of iterations = 13.0

     negative rho (up, down):  7.904E-01 0.000E+00

     total cpu time spent up to now is      437.3 secs

     total energy              =   -4441.65805012 Ry
     estimated scf accuracy    <       0.00596757 Ry

     iteration # 25     ecut=    60.00 Ry     beta= 0.15
     Davidson diagonalization with overlap

---- Real-time Memory Report at c_bands before calling an iterative solver
             0 MiB given to the printing process from OS
             0 MiB allocation reported by mallinfo(arena+hblkhd)
         22620 MiB available memory on the node where the printing process lives
------------------
     ethr =  1.38E-06,  avg # of iterations =  3.9

     negative rho (up, down):  7.951E-01 0.000E+00

     total cpu time spent up to now is      455.0 secs

     total energy              =   -4441.65776341 Ry
     estimated scf accuracy    <       0.00383557 Ry

     iteration # 26     ecut=    60.00 Ry     beta= 0.15
     Davidson diagonalization with overlap

---- Real-time Memory Report at c_bands before calling an iterative solver
             0 MiB given to the printing process from OS
             0 MiB allocation reported by mallinfo(arena+hblkhd)
         22631 MiB available memory on the node where the printing process lives
------------------
     ethr =  8.90E-07,  avg # of iterations =  8.0

     negative rho (up, down):  7.990E-01 0.000E+00

     total cpu time spent up to now is      475.6 secs

     total energy              =   -4441.65779324 Ry
     estimated scf accuracy    <       0.00176830 Ry

     iteration # 27     ecut=    60.00 Ry     beta= 0.15
     Davidson diagonalization with overlap

---- Real-time Memory Report at c_bands before calling an iterative solver
             0 MiB given to the printing process from OS
             0 MiB allocation reported by mallinfo(arena+hblkhd)
         22625 MiB available memory on the node where the printing process lives
------------------
     ethr =  4.10E-07,  avg # of iterations =  9.9

     negative rho (up, down):  7.985E-01 0.000E+00

     total cpu time spent up to now is      497.1 secs

     total energy              =   -4441.65789665 Ry
     estimated scf accuracy    <       0.00073830 Ry

     iteration # 28     ecut=    60.00 Ry     beta= 0.15
     Davidson diagonalization with overlap

---- Real-time Memory Report at c_bands before calling an iterative solver
             0 MiB given to the printing process from OS
             0 MiB allocation reported by mallinfo(arena+hblkhd)
         22622 MiB available memory on the node where the printing process lives
------------------
     ethr =  1.71E-07,  avg # of iterations =  2.3

     negative rho (up, down):  7.953E-01 0.000E+00

     total cpu time spent up to now is      513.9 secs

     total energy              =   -4441.65783496 Ry
     estimated scf accuracy    <       0.00037428 Ry

     iteration # 29     ecut=    60.00 Ry     beta= 0.15
     Davidson diagonalization with overlap

---- Real-time Memory Report at c_bands before calling an iterative solver
             0 MiB given to the printing process from OS
             0 MiB allocation reported by mallinfo(arena+hblkhd)
         22653 MiB available memory on the node where the printing process lives
------------------
     c_bands:  1 eigenvalues not converged
     ethr =  8.68E-08,  avg # of iterations =  9.3

     negative rho (up, down):  7.940E-01 0.000E+00

     total cpu time spent up to now is      534.8 secs

     total energy              =   -4441.65784676 Ry
     estimated scf accuracy    <       0.00014839 Ry

     iteration # 30     ecut=    60.00 Ry     beta= 0.15
     Davidson diagonalization with overlap

---- Real-time Memory Report at c_bands before calling an iterative solver
             0 MiB given to the printing process from OS
             0 MiB allocation reported by mallinfo(arena+hblkhd)
         22646 MiB available memory on the node where the printing process lives
------------------
     ethr =  3.44E-08,  avg # of iterations =  2.2

     negative rho (up, down):  7.932E-01 0.000E+00

     total cpu time spent up to now is      551.7 secs

     total energy              =   -4441.65784941 Ry
     estimated scf accuracy    <       0.00005844 Ry

     iteration # 31     ecut=    60.00 Ry     beta= 0.15
     Davidson diagonalization with overlap

---- Real-time Memory Report at c_bands before calling an iterative solver
             0 MiB given to the printing process from OS
             0 MiB allocation reported by mallinfo(arena+hblkhd)
         22671 MiB available memory on the node where the printing process lives
------------------
     ethr =  1.36E-08,  avg # of iterations =  2.8

     negative rho (up, down):  7.929E-01 0.000E+00

     total cpu time spent up to now is      568.8 secs

     total energy              =   -4441.65784795 Ry
     estimated scf accuracy    <       0.00003307 Ry

     iteration # 32     ecut=    60.00 Ry     beta= 0.15
     Davidson diagonalization with overlap

---- Real-time Memory Report at c_bands before calling an iterative solver
             0 MiB given to the printing process from OS
             0 MiB allocation reported by mallinfo(arena+hblkhd)
         22660 MiB available memory on the node where the printing process lives
------------------
     ethr =  7.67E-09,  avg # of iterations =  2.6

     negative rho (up, down):  7.928E-01 0.000E+00

     total cpu time spent up to now is      585.8 secs

     total energy              =   -4441.65784777 Ry
     estimated scf accuracy    <       0.00001668 Ry

     iteration # 33     ecut=    60.00 Ry     beta= 0.15
     Davidson diagonalization with overlap

---- Real-time Memory Report at c_bands before calling an iterative solver
             0 MiB given to the printing process from OS
             0 MiB allocation reported by mallinfo(arena+hblkhd)
         22659 MiB available memory on the node where the printing process lives
------------------
     ethr =  3.87E-09,  avg # of iterations =  2.1

     negative rho (up, down):  7.928E-01 0.000E+00

     total cpu time spent up to now is      602.5 secs

     total energy              =   -4441.65784919 Ry
     estimated scf accuracy    <       0.00000882 Ry

     iteration # 34     ecut=    60.00 Ry     beta= 0.15
     Davidson diagonalization with overlap

---- Real-time Memory Report at c_bands before calling an iterative solver
             0 MiB given to the printing process from OS
             0 MiB allocation reported by mallinfo(arena+hblkhd)
         22669 MiB available memory on the node where the printing process lives
------------------
     ethr =  2.05E-09,  avg # of iterations =  1.9

     negative rho (up, down):  7.925E-01 0.000E+00

     total cpu time spent up to now is      618.9 secs

     total energy              =   -4441.65785125 Ry
     estimated scf accuracy    <       0.00000594 Ry

     iteration # 35     ecut=    60.00 Ry     beta= 0.15
     Davidson diagonalization with overlap

---- Real-time Memory Report at c_bands before calling an iterative solver
             0 MiB given to the printing process from OS
             0 MiB allocation reported by mallinfo(arena+hblkhd)
         22671 MiB available memory on the node where the printing process lives
------------------
     ethr =  1.38E-09,  avg # of iterations =  2.8

     negative rho (up, down):  7.924E-01 0.000E+00

     total cpu time spent up to now is      636.2 secs

     total energy              =   -4441.65785219 Ry
     estimated scf accuracy    <       0.00000199 Ry

     iteration # 36     ecut=    60.00 Ry     beta= 0.15
     Davidson diagonalization with overlap

---- Real-time Memory Report at c_bands before calling an iterative solver
             0 MiB given to the printing process from OS
             0 MiB allocation reported by mallinfo(arena+hblkhd)
         22675 MiB available memory on the node where the printing process lives
------------------
     ethr =  4.63E-10,  avg # of iterations =  2.4

     negative rho (up, down):  7.924E-01 0.000E+00

     total cpu time spent up to now is      652.7 secs

     total energy              =   -4441.65785270 Ry
     estimated scf accuracy    <       0.00000111 Ry

     iteration # 37     ecut=    60.00 Ry     beta= 0.15
     Davidson diagonalization with overlap

---- Real-time Memory Report at c_bands before calling an iterative solver
             0 MiB given to the printing process from OS
             0 MiB allocation reported by mallinfo(arena+hblkhd)
         22675 MiB available memory on the node where the printing process lives
------------------
     ethr =  2.58E-10,  avg # of iterations =  3.4

     negative rho (up, down):  7.924E-01 0.000E+00

     total cpu time spent up to now is      669.9 secs

     total energy              =   -4441.65785278 Ry
     estimated scf accuracy    <       0.00000063 Ry

     iteration # 38     ecut=    60.00 Ry     beta= 0.15
     Davidson diagonalization with overlap

---- Real-time Memory Report at c_bands before calling an iterative solver
             0 MiB given to the printing process from OS
             0 MiB allocation reported by mallinfo(arena+hblkhd)
         22674 MiB available memory on the node where the printing process lives
------------------
     ethr =  1.47E-10,  avg # of iterations =  2.4

     negative rho (up, down):  7.924E-01 0.000E+00

     total cpu time spent up to now is      686.8 secs

     total energy              =   -4441.65785278 Ry
     estimated scf accuracy    <       0.00000042 Ry

     iteration # 39     ecut=    60.00 Ry     beta= 0.15
     Davidson diagonalization with overlap

---- Real-time Memory Report at c_bands before calling an iterative solver
             0 MiB given to the printing process from OS
             0 MiB allocation reported by mallinfo(arena+hblkhd)
         22673 MiB available memory on the node where the printing process lives
------------------
     ethr =  9.78E-11,  avg # of iterations =  2.1

     negative rho (up, down):  7.925E-01 0.000E+00

     total cpu time spent up to now is      703.4 secs

     total energy              =   -4441.65785274 Ry
     estimated scf accuracy    <       0.00000026 Ry

     iteration # 40     ecut=    60.00 Ry     beta= 0.15
     Davidson diagonalization with overlap

---- Real-time Memory Report at c_bands before calling an iterative solver
             0 MiB given to the printing process from OS
             0 MiB allocation reported by mallinfo(arena+hblkhd)
         22675 MiB available memory on the node where the printing process lives
------------------
     ethr =  5.96E-11,  avg # of iterations =  2.7

     negative rho (up, down):  7.925E-01 0.000E+00

     total cpu time spent up to now is      720.3 secs

     total energy              =   -4441.65785275 Ry
     estimated scf accuracy    <       0.00000015 Ry

     iteration # 41     ecut=    60.00 Ry     beta= 0.15
     Davidson diagonalization with overlap

---- Real-time Memory Report at c_bands before calling an iterative solver
             0 MiB given to the printing process from OS
             0 MiB allocation reported by mallinfo(arena+hblkhd)
         22681 MiB available memory on the node where the printing process lives
------------------
     ethr =  3.37E-11,  avg # of iterations =  2.2

     negative rho (up, down):  7.925E-01 0.000E+00

     total cpu time spent up to now is      737.0 secs

     total energy              =   -4441.65785275 Ry
     estimated scf accuracy    <       0.00000009 Ry

     iteration # 42     ecut=    60.00 Ry     beta= 0.15
     Davidson diagonalization with overlap

---- Real-time Memory Report at c_bands before calling an iterative solver
             0 MiB given to the printing process from OS
             0 MiB allocation reported by mallinfo(arena+hblkhd)
         22682 MiB available memory on the node where the printing process lives
------------------
     ethr =  2.17E-11,  avg # of iterations =  1.1

     negative rho (up, down):  7.925E-01 0.000E+00

     total cpu time spent up to now is      751.8 secs

     total energy              =   -4441.65785276 Ry
     estimated scf accuracy    <       0.00000006 Ry

     iteration # 43     ecut=    60.00 Ry     beta= 0.15
     Davidson diagonalization with overlap

---- Real-time Memory Report at c_bands before calling an iterative solver
             0 MiB given to the printing process from OS
             0 MiB allocation reported by mallinfo(arena+hblkhd)
         22686 MiB available memory on the node where the printing process lives
------------------
     ethr =  1.34E-11,  avg # of iterations =  2.2

     negative rho (up, down):  7.925E-01 0.000E+00

     total cpu time spent up to now is      768.5 secs

     total energy              =   -4441.65785277 Ry
     estimated scf accuracy    <       0.00000004 Ry

     iteration # 44     ecut=    60.00 Ry     beta= 0.15
     Davidson diagonalization with overlap

---- Real-time Memory Report at c_bands before calling an iterative solver
             0 MiB given to the printing process from OS
             0 MiB allocation reported by mallinfo(arena+hblkhd)
         22685 MiB available memory on the node where the printing process lives
------------------
     ethr =  9.58E-12,  avg # of iterations =  2.1

     negative rho (up, down):  7.925E-01 0.000E+00

     total cpu time spent up to now is      785.0 secs

     total energy              =   -4441.65785277 Ry
     estimated scf accuracy    <       0.00000003 Ry

     iteration # 45     ecut=    60.00 Ry     beta= 0.15
     Davidson diagonalization with overlap

---- Real-time Memory Report at c_bands before calling an iterative solver
             0 MiB given to the printing process from OS
             0 MiB allocation reported by mallinfo(arena+hblkhd)
         22693 MiB available memory on the node where the printing process lives
------------------
     ethr =  6.04E-12,  avg # of iterations =  2.2

     negative rho (up, down):  7.925E-01 0.000E+00

     total cpu time spent up to now is      801.7 secs

     total energy              =   -4441.65785277 Ry
     estimated scf accuracy    <       0.00000002 Ry

     iteration # 46     ecut=    60.00 Ry     beta= 0.15
     Davidson diagonalization with overlap

---- Real-time Memory Report at c_bands before calling an iterative solver
             0 MiB given to the printing process from OS
             0 MiB allocation reported by mallinfo(arena+hblkhd)
         22694 MiB available memory on the node where the printing process lives
------------------
     ethr =  5.38E-12,  avg # of iterations =  2.1

     negative rho (up, down):  7.925E-01 0.000E+00

     total cpu time spent up to now is      818.2 secs

     total energy              =   -4441.65785277 Ry
     estimated scf accuracy    <       0.00000001 Ry

     iteration # 47     ecut=    60.00 Ry     beta= 0.15
     Davidson diagonalization with overlap

---- Real-time Memory Report at c_bands before calling an iterative solver
             0 MiB given to the printing process from OS
             0 MiB allocation reported by mallinfo(arena+hblkhd)
         22697 MiB available memory on the node where the printing process lives
------------------
     ethr =  3.18E-12,  avg # of iterations =  2.1

     negative rho (up, down):  7.925E-01 0.000E+00

     total cpu time spent up to now is      834.5 secs

     End of self-consistent calculation

          k = 0.0000 0.0000 0.0000 ( 65197 PWs)   bands (ev):

   -92.6928 -92.6426 -92.5469 -92.4998 -92.4416 -92.3991 -92.3824 -92.2626
   -56.0462 -56.0296 -55.9042 -55.8935 -55.8874 -55.8803 -55.8472 -55.8161
   -55.8012 -55.7985 -55.7918 -55.7493 -55.7299 -55.6928 -55.6734 -55.6413
   -55.6355 -55.5878 -55.5866 -55.5844 -55.5760 -55.5377 -55.5126 -55.4291
   -31.2701 -31.2507 -31.1093 -31.0224 -31.0169 -30.9412 -30.7945 -30.7671
   -29.8395 -29.7960 -29.7711 -29.6629 -15.0733 -15.0282 -14.9483 -14.8183
   -14.6241 -14.5017 -14.2103 -14.1870 -14.1605 -14.1142 -14.0710 -14.0614
   -14.0460 -14.0296 -14.0022 -13.9698 -13.9515 -13.9202 -13.7697 -13.5907
   -13.5575 -13.5281 -13.4937 -13.4788 -13.4253 -13.3923 -13.3147 -13.2426
   -13.1166 -13.1020 -13.0895 -13.0669 -13.0492 -13.0303 -12.9930 -12.9871
   -12.9550 -12.9456 -12.9150 -12.8928 -12.8434 -12.8366 -12.8214 -12.7632
   -12.7373 -12.7302 -12.6701 -12.6369 -12.6261 -12.3347 -12.1891 -12.0193
   -11.9384 -11.8530 -11.7787 -11.7679 -11.7451 -11.7275 -11.6639 -11.6469
   -11.6116 -11.5827 -11.4718 -11.3917 -11.3880  -2.9329  -2.7010  -2.4713
    -2.3242  -2.2615  -2.1196  -1.8122  -1.7980  -1.7785  -1.6934  -1.6742
    -1.6065  -1.5900  -1.5495  -1.5034  -1.3232  -1.1204  -1.0838  -1.0688
    -0.9227  -0.9081  -0.8606  -0.8428  -0.7976  -0.7784  -0.7249  -0.6989
    -0.6261  -0.6128  -0.5386  -0.4075  -0.3943  -0.3644  -0.2837  -0.2659
    -0.2433  -0.1899  -0.1188  -0.0793  -0.0186   0.0036   0.0731   0.1568
     0.1889   0.2154   0.2349   0.4825   0.4957   0.6715   0.7327   0.7979
     0.8574   0.9388   0.9525   0.9700   1.0315   1.0586   1.0933   1.1504
     1.2822   1.3406   1.3645   1.3874   1.3953   1.4604   1.5294   1.6371
     1.6527   1.7122   1.7220   1.7654   1.7887   1.7959   1.8537   1.9078
     1.9228   1.9692   1.9938   2.0369   2.1687   2.2487   2.2929   2.3282
     2.4494   2.4619   2.4789   2.4924   2.5195   2.5213   2.6410   2.6668
     2.6956   2.7142   2.7293   2.8093   2.9157   2.9482   2.9592   2.9659
     3.0333   3.0377   3.0620   3.0693   3.0787   3.0939   3.0975   3.1121
     3.1170   3.1303   3.1382   3.1456   3.1648   3.1858   3.1912   3.2028
     3.2258   3.3436   3.4286   4.1186   4.4362   4.7746   4.8708   5.0551
     5.7816   5.9455   5.9912   6.0268   6.3223   6.3694   6.4864   6.4967
     6.7459   7.0131   7.1046   7.3251   7.5092   7.5720   7.6621   7.6832
     7.6963   7.8890   7.9450   8.0986   8.1186   8.1915   8.3992   8.4330
     8.7289   8.8565   8.8752

     occupation numbers 
     1.0000   1.0000   1.0000   1.0000   1.0000   1.0000   1.0000   1.0000
     1.0000   1.0000   1.0000   1.0000   1.0000   1.0000   1.0000   1.0000
     1.0000   1.0000   1.0000   1.0000   1.0000   1.0000   1.0000   1.0000
     1.0000   1.0000   1.0000   1.0000   1.0000   1.0000   1.0000   1.0000
     1.0000   1.0000   1.0000   1.0000   1.0000   1.0000   1.0000   1.0000
     1.0000   1.0000   1.0000   1.0000   1.0000   1.0000   1.0000   1.0000
     1.0000   1.0000   1.0000   1.0000   1.0000   1.0000   1.0000   1.0000
     1.0000   1.0000   1.0000   1.0000   1.0000   1.0000   1.0000   1.0000
     1.0000   1.0000   1.0000   1.0000   1.0000   1.0000   1.0000   1.0000
     1.0000   1.0000   1.0000   1.0000   1.0000   1.0000   1.0000   1.0000
     1.0000   1.0000   1.0000   1.0000   1.0000   1.0000   1.0000   1.0000
     1.0000   1.0000   1.0000   1.0000   1.0000   1.0000   1.0000   1.0000
     1.0000   1.0000   1.0000   1.0000   1.0000   1.0000   1.0000   1.0000
     1.0000   1.0000   1.0000   1.0000   1.0000   1.0000   1.0000   1.0000
     1.0000   1.0000   1.0000   1.0000   1.0000   1.0000   1.0000   1.0000
     1.0000   1.0000   1.0000   1.0000   1.0000   1.0000   1.0000   1.0000
     1.0000   1.0000   1.0000   1.0000   1.0000   1.0000   1.0000   1.0000
     1.0000   1.0000   1.0000   1.0000   1.0000   1.0000   1.0000   1.0000
     1.0000   1.0000   1.0000   1.0000   1.0000   1.0000   1.0000   1.0000
     1.0000   1.0000   1.0000   1.0000   1.0000   1.0000   0.9999   0.9999
     0.9999   0.9998   0.9998   0.9998   0.9997   0.9996   0.9996   0.9994
     0.9988   0.9985   0.9983   0.9981   0.9980   0.9973   0.9963   0.9941
     0.9938   0.9920   0.9917   0.9901   0.9892   0.9888   0.9861   0.9830
     0.9820   0.9787   0.9768   0.9730   0.9583   0.9466   0.9391   0.9325
     0.9057   0.9026   0.8981   0.8945   0.8870   0.8865   0.8486   0.8394
     0.8287   0.8216   0.8157   0.7824   0.7332   0.7170   0.7115   0.7081
     0.6728   0.6705   0.6573   0.6533   0.6481   0.6397   0.6378   0.6296
     0.6268   0.6193   0.6148   0.6107   0.5996   0.5876   0.5844   0.5777
     0.5643   0.4948   0.4446   0.1223   0.0510   0.0163   0.0113   0.0053
     0.0001   0.0001   0.0000   0.0000   0.0000   0.0000   0.0000   0.0000
     0.0000   0.0000   0.0000   0.0000   0.0000   0.0000   0.0000   0.0000
     0.0000   0.0000   0.0000   0.0000   0.0000   0.0000   0.0000   0.0000
     0.0000   0.0000   0.0000

          k = 0.0000 0.2500 0.0000 ( 65257 PWs)   bands (ev):

   -92.6928 -92.6426 -92.5469 -92.4998 -92.4416 -92.3991 -92.3824 -92.2626
   -56.0462 -56.0296 -55.9042 -55.8935 -55.8874 -55.8803 -55.8472 -55.8161
   -55.8012 -55.7985 -55.7918 -55.7493 -55.7299 -55.6928 -55.6734 -55.6413
   -55.6355 -55.5878 -55.5866 -55.5844 -55.5760 -55.5377 -55.5126 -55.4291
   -31.2699 -31.2505 -31.1095 -31.0226 -31.0165 -30.9416 -30.7933 -30.7683
   -29.8389 -29.7957 -29.7718 -29.6632 -15.0368 -15.0022 -14.9233 -14.7887
   -14.6651 -14.4916 -14.3557 -14.1766 -14.1382 -14.1189 -14.0909 -14.0318
   -14.0272 -14.0130 -13.9888 -13.9538 -13.9383 -13.8393 -13.7995 -13.6396
   -13.6149 -13.5689 -13.5336 -13.4833 -13.4451 -13.4013 -13.3344 -13.2999
   -13.2231 -13.1438 -13.1358 -13.1007 -13.0807 -13.0124 -12.9791 -12.9529
   -12.9274 -12.8965 -12.8819 -12.8587 -12.7926 -12.7863 -12.7755 -12.7581
   -12.7211 -12.7052 -12.6623 -12.5467 -12.4679 -12.3961 -12.2402 -12.0771
   -12.0072 -11.8185 -11.7755 -11.7479 -11.7198 -11.7032 -11.6556 -11.6445
   -11.6218 -11.5871 -11.4863 -11.4334 -11.4227  -2.7976  -2.5767  -2.4388
    -2.2569  -2.2134  -2.0500  -1.8302  -1.7462  -1.7332  -1.6742  -1.5730
    -1.5563  -1.5218  -1.4961  -1.4522  -1.2545  -1.1271  -1.1165  -1.1041
    -1.0344  -1.0260  -0.9222  -0.8933  -0.8355  -0.8095  -0.7697  -0.7045
    -0.6770  -0.6461  -0.6143  -0.5979  -0.5647  -0.4924  -0.4402  -0.3679
    -0.2636  -0.2388  -0.1996  -0.0844  -0.0490   0.0221   0.0641   0.1349
     0.1606   0.1759   0.2273   0.5311   0.6184   0.6462   0.7408   0.7849
     0.8170   0.9217   0.9410   1.0356   1.0607   1.0855   1.2011   1.2948
     1.3157   1.3398   1.3616   1.3840   1.4438   1.4729   1.4981   1.5465
     1.5823   1.6131   1.6972   1.7294   1.7687   1.8200   1.8719   1.9144
     1.9447   1.9741   1.9840   2.0941   2.2012   2.2752   2.3099   2.3692
     2.4135   2.4486   2.4540   2.4652   2.4904   2.5290   2.5630   2.6583
     2.6911   2.7066   2.8739   2.8953   2.9279   2.9512   2.9670   2.9756
     2.9824   2.9915   3.0211   3.0247   3.0422   3.0478   3.0565   3.0751
     3.0869   3.0940   3.1162   3.1271   3.1324   3.1666   3.1832   3.2444
     3.6077   3.6520   3.8924   4.3125   4.4296   4.7166   5.0236   5.0803
     5.6494   5.8195   5.9424   5.9916   6.0924   6.1200   6.1910   6.6038
     6.8413   7.1016   7.1742   7.3369   7.4936   7.5050   7.5742   7.6521
     7.8420   7.9484   8.0509   8.1749   8.2977   8.3808   8.4116   8.4362
     8.5500   8.8406   8.9525

     occupation numbers 
     1.0000   1.0000   1.0000   1.0000   1.0000   1.0000   1.0000   1.0000
     1.0000   1.0000   1.0000   1.0000   1.0000   1.0000   1.0000   1.0000
     1.0000   1.0000   1.0000   1.0000   1.0000   1.0000   1.0000   1.0000
     1.0000   1.0000   1.0000   1.0000   1.0000   1.0000   1.0000   1.0000
     1.0000   1.0000   1.0000   1.0000   1.0000   1.0000   1.0000   1.0000
     1.0000   1.0000   1.0000   1.0000   1.0000   1.0000   1.0000   1.0000
     1.0000   1.0000   1.0000   1.0000   1.0000   1.0000   1.0000   1.0000
     1.0000   1.0000   1.0000   1.0000   1.0000   1.0000   1.0000   1.0000
     1.0000   1.0000   1.0000   1.0000   1.0000   1.0000   1.0000   1.0000
     1.0000   1.0000   1.0000   1.0000   1.0000   1.0000   1.0000   1.0000
     1.0000   1.0000   1.0000   1.0000   1.0000   1.0000   1.0000   1.0000
     1.0000   1.0000   1.0000   1.0000   1.0000   1.0000   1.0000   1.0000
     1.0000   1.0000   1.0000   1.0000   1.0000   1.0000   1.0000   1.0000
     1.0000   1.0000   1.0000   1.0000   1.0000   1.0000   1.0000   1.0000
     1.0000   1.0000   1.0000   1.0000   1.0000   1.0000   1.0000   1.0000
     1.0000   1.0000   1.0000   1.0000   1.0000   1.0000   1.0000   1.0000
     1.0000   1.0000   1.0000   1.0000   1.0000   1.0000   1.0000   1.0000
     1.0000   1.0000   1.0000   1.0000   1.0000   1.0000   1.0000   1.0000
     1.0000   1.0000   1.0000   1.0000   1.0000   1.0000   1.0000   1.0000
     1.0000   1.0000   1.0000   1.0000   1.0000   1.0000   0.9999   0.9999
     0.9999   0.9998   0.9998   0.9997   0.9996   0.9996   0.9992   0.9988
     0.9986   0.9985   0.9983   0.9981   0.9975   0.9972   0.9968   0.9960
     0.9954   0.9947   0.9925   0.9914   0.9900   0.9878   0.9851   0.9825
     0.9805   0.9783   0.9776   0.9673   0.9538   0.9422   0.9360   0.9242
     0.9144   0.9059   0.9046   0.9017   0.8951   0.8842   0.8741   0.8424
     0.8304   0.8246   0.7531   0.7430   0.7271   0.7155   0.7075   0.7031
     0.6996   0.6949   0.6793   0.6774   0.6680   0.6650   0.6603   0.6501
     0.6436   0.6397   0.6273   0.6211   0.6181   0.5986   0.5891   0.5534
     0.3427   0.3188   0.2038   0.0733   0.0520   0.0201   0.0061   0.0048
     0.0003   0.0001   0.0001   0.0000   0.0000   0.0000   0.0000   0.0000
     0.0000   0.0000   0.0000   0.0000   0.0000   0.0000   0.0000   0.0000
     0.0000   0.0000   0.0000   0.0000   0.0000   0.0000   0.0000   0.0000
     0.0000   0.0000   0.0000

          k = 0.0000-0.5000 0.0000 ( 65180 PWs)   bands (ev):

   -92.6928 -92.6426 -92.5469 -92.4998 -92.4416 -92.3991 -92.3824 -92.2626
   -56.0462 -56.0296 -55.9042 -55.8935 -55.8874 -55.8803 -55.8472 -55.8161
   -55.8012 -55.7985 -55.7918 -55.7493 -55.7299 -55.6928 -55.6734 -55.6413
   -55.6355 -55.5878 -55.5866 -55.5844 -55.5760 -55.5377 -55.5126 -55.4291
   -31.2697 -31.2504 -31.1097 -31.0227 -31.0161 -30.9420 -30.7919 -30.7697
   -29.8383 -29.7954 -29.7724 -29.6635 -15.0013 -14.9524 -14.9005 -14.7673
   -14.6885 -14.5472 -14.3999 -14.2657 -14.1494 -14.0738 -14.0327 -14.0269
   -13.9778 -13.9626 -13.9520 -13.9151 -13.8899 -13.8675 -13.8297 -13.7801
   -13.7574 -13.5755 -13.5166 -13.4884 -13.4484 -13.4014 -13.3502 -13.2928
   -13.2754 -13.2267 -13.2102 -13.1015 -13.0810 -13.0028 -12.9614 -12.9455
   -12.9292 -12.9208 -12.8738 -12.7899 -12.7675 -12.7520 -12.7109 -12.6974
   -12.6879 -12.6698 -12.6441 -12.5071 -12.3986 -12.3153 -12.2298 -12.1941
   -12.1549 -11.7724 -11.7701 -11.7428 -11.7061 -11.6715 -11.6602 -11.6169
   -11.6129 -11.5684 -11.5083 -11.4944 -11.4800  -2.5833  -2.5231  -2.3738
    -2.3016  -2.0195  -1.9362  -1.8097  -1.6720  -1.6333  -1.6154  -1.5359
    -1.5034  -1.4240  -1.3877  -1.3102  -1.2706  -1.2319  -1.2047  -1.1468
    -1.1115  -1.1041  -1.0607  -1.0245  -0.9946  -0.9582  -0.8501  -0.8053
    -0.7689  -0.7676  -0.6819  -0.6486  -0.6272  -0.5769  -0.4914  -0.4231
    -0.3341  -0.3037  -0.2068  -0.1611  -0.0209   0.0302   0.0433   0.1152
     0.2419   0.2702   0.4001   0.4714   0.4777   0.6044   0.6589   0.7931
     0.8821   0.9922   1.0242   1.0614   1.0685   1.1139   1.1222   1.1581
     1.1792   1.1844   1.2945   1.3554   1.3909   1.4183   1.6771   1.7040
     1.7319   1.8244   1.8518   1.8753   1.8907   1.9201   1.9336   1.9576
     1.9754   2.0145   2.0434   2.0769   2.0903   2.1137   2.1614   2.2467
     2.2750   2.4442   2.4662   2.4835   2.6128   2.6252   2.6536   2.6776
     2.6838   2.6914   2.7419   2.7525   2.8071   2.8288   2.9086   2.9205
     2.9888   2.9957   3.0181   3.0227   3.0390   3.0448   3.0487   3.0532
     3.0559   3.0679   3.0863   3.0877   3.1515   3.1576   3.1728   3.2267
     4.1429   4.1613   4.1860   4.2691   4.7610   4.9076   5.0333   5.1766
     5.4214   5.4730   5.5903   5.7397   6.0369   6.0564   6.2778   6.5340
     6.8591   6.9586   7.2214   7.3517   7.3949   7.5015   7.6441   7.7607
     7.9160   7.9948   8.1832   8.2915   8.3959   8.4281   8.5253   8.6729
     8.7958   8.8246   8.8687

     occupation numbers 
     1.0000   1.0000   1.0000   1.0000   1.0000   1.0000   1.0000   1.0000
     1.0000   1.0000   1.0000   1.0000   1.0000   1.0000   1.0000   1.0000
     1.0000   1.0000   1.0000   1.0000   1.0000   1.0000   1.0000   1.0000
     1.0000   1.0000   1.0000   1.0000   1.0000   1.0000   1.0000   1.0000
     1.0000   1.0000   1.0000   1.0000   1.0000   1.0000   1.0000   1.0000
     1.0000   1.0000   1.0000   1.0000   1.0000   1.0000   1.0000   1.0000
     1.0000   1.0000   1.0000   1.0000   1.0000   1.0000   1.0000   1.0000
     1.0000   1.0000   1.0000   1.0000   1.0000   1.0000   1.0000   1.0000
     1.0000   1.0000   1.0000   1.0000   1.0000   1.0000   1.0000   1.0000
     1.0000   1.0000   1.0000   1.0000   1.0000   1.0000   1.0000   1.0000
     1.0000   1.0000   1.0000   1.0000   1.0000   1.0000   1.0000   1.0000
     1.0000   1.0000   1.0000   1.0000   1.0000   1.0000   1.0000   1.0000
     1.0000   1.0000   1.0000   1.0000   1.0000   1.0000   1.0000   1.0000
     1.0000   1.0000   1.0000   1.0000   1.0000   1.0000   1.0000   1.0000
     1.0000   1.0000   1.0000   1.0000   1.0000   1.0000   1.0000   1.0000
     1.0000   1.0000   1.0000   1.0000   1.0000   1.0000   1.0000   1.0000
     1.0000   1.0000   1.0000   1.0000   1.0000   1.0000   1.0000   1.0000
     1.0000   1.0000   1.0000   1.0000   1.0000   1.0000   1.0000   1.0000
     1.0000   1.0000   1.0000   1.0000   1.0000   1.0000   1.0000   1.0000
     1.0000   1.0000   1.0000   1.0000   1.0000   1.0000   1.0000   0.9999
     0.9999   0.9997   0.9997   0.9996   0.9996   0.9995   0.9995   0.9994
     0.9993   0.9993   0.9988   0.9984   0.9981   0.9978   0.9931   0.9923
     0.9913   0.9875   0.9862   0.9849   0.9840   0.9822   0.9813   0.9796
     0.9782   0.9750   0.9724   0.9691   0.9677   0.9651   0.9593   0.9469
     0.9422   0.9070   0.9014   0.8969   0.8582   0.8540   0.8441   0.8354
     0.8332   0.8303   0.8107   0.8064   0.7834   0.7738   0.7366   0.7308
     0.6963   0.6927   0.6809   0.6785   0.6698   0.6666   0.6646   0.6621
     0.6606   0.6541   0.6440   0.6432   0.6073   0.6038   0.5950   0.5638
     0.1151   0.1099   0.1031   0.0827   0.0171   0.0098   0.0058   0.0031
     0.0010   0.0007   0.0004   0.0002   0.0000   0.0000   0.0000   0.0000
     0.0000   0.0000   0.0000   0.0000   0.0000   0.0000   0.0000   0.0000
     0.0000   0.0000   0.0000   0.0000   0.0000   0.0000   0.0000   0.0000
     0.0000   0.0000   0.0000

          k = 0.2500 0.2500 0.0000 ( 65198 PWs)   bands (ev):

   -92.6928 -92.6426 -92.5469 -92.4998 -92.4416 -92.3991 -92.3824 -92.2626
   -56.0462 -56.0296 -55.9042 -55.8935 -55.8874 -55.8803 -55.8472 -55.8161
   -55.8012 -55.7985 -55.7918 -55.7493 -55.7299 -55.6928 -55.6734 -55.6413
   -55.6355 -55.5878 -55.5866 -55.5844 -55.5760 -55.5377 -55.5126 -55.4291
   -31.2682 -31.2522 -31.1091 -31.0229 -31.0164 -30.9415 -30.7934 -30.7685
   -29.8379 -29.7967 -29.7714 -29.6636 -15.0080 -14.9674 -14.8954 -14.7781
   -14.6577 -14.5325 -14.4611 -14.2517 -14.0999 -14.0857 -14.0494 -14.0189
   -13.9988 -13.9727 -13.9533 -13.9327 -13.9024 -13.8305 -13.8129 -13.6553
   -13.6398 -13.6109 -13.5914 -13.5287 -13.5022 -13.4359 -13.4183 -13.2801
   -13.2282 -13.2164 -13.1334 -13.0936 -13.0412 -13.0104 -12.9872 -12.9624
   -12.9389 -12.9088 -12.8708 -12.8259 -12.7774 -12.7611 -12.7365 -12.7201
   -12.7060 -12.6686 -12.6572 -12.4839 -12.4446 -12.3765 -12.2693 -12.1086
   -12.0551 -11.7907 -11.7591 -11.7483 -11.7411 -11.6784 -11.6441 -11.6374
   -11.6019 -11.5938 -11.5029 -11.4616 -11.4442  -2.6593  -2.4509  -2.3327
    -2.2385  -2.1180  -2.0533  -1.8548  -1.7109  -1.6917  -1.6613  -1.5677
    -1.5322  -1.4387  -1.4119  -1.3616  -1.2306  -1.1829  -1.1184  -1.0958
    -1.0635  -1.0188  -0.9953  -0.9718  -0.9295  -0.9140  -0.8231  -0.7728
    -0.7073  -0.6574  -0.6282  -0.5794  -0.5650  -0.5018  -0.4523  -0.3908
    -0.3609  -0.2731  -0.2227  -0.1923  -0.1551  -0.0989  -0.0282   0.0111
     0.0445   0.1186   0.1725   0.4189   0.5666   0.6009   0.6622   0.7011
     0.7822   0.8306   0.8770   0.9127   1.1856   1.2501   1.3238   1.3471
     1.4002   1.4294   1.4645   1.5008   1.5186   1.5454   1.5894   1.5988
     1.6138   1.6620   1.7029   1.7380   1.7911   1.8343   1.8440   1.8795
     1.9155   1.9729   1.9992   2.1303   2.1858   2.2195   2.2446   2.3220
     2.3788   2.4036   2.4361   2.4475   2.4671   2.4787   2.4933   2.6025
     2.6296   2.7198   2.8846   2.9021   2.9076   2.9234   2.9384   2.9521
     2.9641   2.9711   2.9826   2.9958   3.0092   3.0264   3.0327   3.0453
     3.0677   3.0783   3.0870   3.1193   3.4195   3.5125   3.5564   3.6260
     3.6507   3.8720   3.9627   4.3162   4.5199   4.7260   4.9929   5.1718
     5.6541   5.7113   5.7824   5.8441   5.9033   6.1012   6.1642   6.2221
     6.9022   6.9539   7.1227   7.2777   7.5584   7.6136   7.7202   7.8599
     7.8854   8.0149   8.1677   8.2275   8.3393   8.3743   8.4535   8.4969
     8.5854   8.7166   8.9199

     occupation numbers 
     1.0000   1.0000   1.0000   1.0000   1.0000   1.0000   1.0000   1.0000
     1.0000   1.0000   1.0000   1.0000   1.0000   1.0000   1.0000   1.0000
     1.0000   1.0000   1.0000   1.0000   1.0000   1.0000   1.0000   1.0000
     1.0000   1.0000   1.0000   1.0000   1.0000   1.0000   1.0000   1.0000
     1.0000   1.0000   1.0000   1.0000   1.0000   1.0000   1.0000   1.0000
     1.0000   1.0000   1.0000   1.0000   1.0000   1.0000   1.0000   1.0000
     1.0000   1.0000   1.0000   1.0000   1.0000   1.0000   1.0000   1.0000
     1.0000   1.0000   1.0000   1.0000   1.0000   1.0000   1.0000   1.0000
     1.0000   1.0000   1.0000   1.0000   1.0000   1.0000   1.0000   1.0000
     1.0000   1.0000   1.0000   1.0000   1.0000   1.0000   1.0000   1.0000
     1.0000   1.0000   1.0000   1.0000   1.0000   1.0000   1.0000   1.0000
     1.0000   1.0000   1.0000   1.0000   1.0000   1.0000   1.0000   1.0000
     1.0000   1.0000   1.0000   1.0000   1.0000   1.0000   1.0000   1.0000
     1.0000   1.0000   1.0000   1.0000   1.0000   1.0000   1.0000   1.0000
     1.0000   1.0000   1.0000   1.0000   1.0000   1.0000   1.0000   1.0000
     1.0000   1.0000   1.0000   1.0000   1.0000   1.0000   1.0000   1.0000
     1.0000   1.0000   1.0000   1.0000   1.0000   1.0000   1.0000   1.0000
     1.0000   1.0000   1.0000   1.0000   1.0000   1.0000   1.0000   1.0000
     1.0000   1.0000   1.0000   1.0000   1.0000   1.0000   1.0000   1.0000
     1.0000   1.0000   1.0000   1.0000   1.0000   1.0000   1.0000   1.0000
     0.9999   0.9999   0.9999   0.9998   0.9993   0.9990   0.9986   0.9984
     0.9980   0.9977   0.9973   0.9968   0.9965   0.9961   0.9952   0.9950
     0.9947   0.9935   0.9923   0.9911   0.9891   0.9871   0.9866   0.9847
     0.9825   0.9784   0.9763   0.9632   0.9560   0.9512   0.9473   0.9337
     0.9221   0.9166   0.9090   0.9062   0.9012   0.8982   0.8943   0.8616
     0.8525   0.8194   0.7481   0.7397   0.7371   0.7294   0.7219   0.7151
     0.7090   0.7055   0.6995   0.6927   0.6856   0.6765   0.6731   0.6664
     0.6542   0.6484   0.6435   0.6255   0.4500   0.3960   0.3711   0.3327
     0.3195   0.2125   0.1756   0.0725   0.0392   0.0194   0.0069   0.0032
     0.0003   0.0002   0.0001   0.0001   0.0001   0.0000   0.0000   0.0000
     0.0000   0.0000   0.0000   0.0000   0.0000   0.0000   0.0000   0.0000
     0.0000   0.0000   0.0000   0.0000   0.0000   0.0000   0.0000   0.0000
     0.0000   0.0000   0.0000

          k = 0.2500-0.5000 0.0000 ( 65138 PWs)   bands (ev):

   -92.6928 -92.6426 -92.5469 -92.4998 -92.4416 -92.3991 -92.3824 -92.2626
   -56.0462 -56.0296 -55.9042 -55.8935 -55.8874 -55.8803 -55.8472 -55.8161
   -55.8012 -55.7985 -55.7918 -55.7493 -55.7299 -55.6928 -55.6734 -55.6413
   -55.6355 -55.5878 -55.5866 -55.5844 -55.5760 -55.5377 -55.5126 -55.4291
   -31.2680 -31.2521 -31.1093 -31.0231 -31.0160 -30.9419 -30.7921 -30.7699
   -29.8373 -29.7964 -29.7720 -29.6640 -14.9708 -14.9255 -14.8575 -14.7375
   -14.7108 -14.5887 -14.5008 -14.3651 -14.0645 -14.0095 -13.9836 -13.9633
   -13.9535 -13.9441 -13.9348 -13.8993 -13.8783 -13.8426 -13.8103 -13.7746
   -13.7445 -13.6580 -13.6090 -13.5463 -13.5302 -13.4629 -13.4473 -13.3319
   -13.2790 -13.1990 -13.1344 -13.1102 -13.0250 -12.9915 -12.9759 -12.9547
   -12.9353 -12.9042 -12.8873 -12.7851 -12.7758 -12.7572 -12.7269 -12.7039
   -12.6678 -12.6474 -12.6163 -12.5137 -12.3822 -12.3128 -12.2118 -12.1825
   -12.1522 -11.7663 -11.7543 -11.7436 -11.7165 -11.6845 -11.6568 -11.6143
   -11.5879 -11.5651 -11.5213 -11.4955 -11.4840  -2.4414  -2.3750  -2.2477
    -2.1704  -2.0399  -1.9559  -1.8340  -1.6830  -1.6289  -1.6070  -1.5435
    -1.5308  -1.4348  -1.3661  -1.2822  -1.2321  -1.2224  -1.1602  -1.1195
    -1.1034  -1.0829  -1.0344  -0.9967  -0.9625  -0.9231  -0.9119  -0.8658
    -0.8367  -0.7940  -0.7625  -0.6965  -0.5935  -0.5539  -0.4769  -0.4114
    -0.3615  -0.3210  -0.3003  -0.2457  -0.0865  -0.0774   0.0407   0.0668
     0.0792   0.1257   0.1514   0.1968   0.2163   0.2836   0.5592   0.6540
     0.7479   0.8094   1.0447   1.0705   1.1588   1.1811   1.3471   1.3835
     1.4228   1.4442   1.4600   1.4808   1.5444   1.5928   1.6270   1.7105
     1.7937   1.8334   1.8578   1.8672   1.9018   1.9161   1.9213   1.9659
     1.9801   1.9955   2.0450   2.0606   2.0721   2.1060   2.1628   2.2019
     2.2820   2.4167   2.4495   2.4845   2.5667   2.5872   2.6076   2.6296
     2.6530   2.6786   2.6998   2.7154   2.7374   2.8351   2.8851   2.9030
     2.9094   2.9211   2.9413   2.9553   2.9739   2.9826   3.0159   3.0276
     3.0405   3.0504   3.0599   3.0697   3.5979   3.6024   3.7509   3.8013
     4.1486   4.1924   4.2044   4.3257   4.7791   4.9299   5.0711   5.1461
     5.3131   5.4400   5.6144   5.6525   5.7777   5.7955   6.3778   6.4045
     6.4956   6.6746   7.2180   7.4311   7.5706   7.7110   7.8029   7.8238
     7.8891   8.0476   8.2585   8.4105   8.5181   8.5362   8.5697   8.5760
     8.7152   8.7529   8.7936

     occupation numbers 
     1.0000   1.0000   1.0000   1.0000   1.0000   1.0000   1.0000   1.0000
     1.0000   1.0000   1.0000   1.0000   1.0000   1.0000   1.0000   1.0000
     1.0000   1.0000   1.0000   1.0000   1.0000   1.0000   1.0000   1.0000
     1.0000   1.0000   1.0000   1.0000   1.0000   1.0000   1.0000   1.0000
     1.0000   1.0000   1.0000   1.0000   1.0000   1.0000   1.0000   1.0000
     1.0000   1.0000   1.0000   1.0000   1.0000   1.0000   1.0000   1.0000
     1.0000   1.0000   1.0000   1.0000   1.0000   1.0000   1.0000   1.0000
     1.0000   1.0000   1.0000   1.0000   1.0000   1.0000   1.0000   1.0000
     1.0000   1.0000   1.0000   1.0000   1.0000   1.0000   1.0000   1.0000
     1.0000   1.0000   1.0000   1.0000   1.0000   1.0000   1.0000   1.0000
     1.0000   1.0000   1.0000   1.0000   1.0000   1.0000   1.0000   1.0000
     1.0000   1.0000   1.0000   1.0000   1.0000   1.0000   1.0000   1.0000
     1.0000   1.0000   1.0000   1.0000   1.0000   1.0000   1.0000   1.0000
     1.0000   1.0000   1.0000   1.0000   1.0000   1.0000   1.0000   1.0000
     1.0000   1.0000   1.0000   1.0000   1.0000   1.0000   1.0000   1.0000
     1.0000   1.0000   1.0000   1.0000   1.0000   1.0000   1.0000   1.0000
     1.0000   1.0000   1.0000   1.0000   1.0000   1.0000   1.0000   1.0000
     1.0000   1.0000   1.0000   1.0000   1.0000   1.0000   1.0000   1.0000
     1.0000   1.0000   1.0000   1.0000   1.0000   1.0000   1.0000   1.0000
     1.0000   1.0000   1.0000   1.0000   1.0000   1.0000   1.0000   1.0000
     0.9999   0.9999   0.9997   0.9996   0.9994   0.9993   0.9984   0.9981
     0.9977   0.9975   0.9973   0.9970   0.9961   0.9952   0.9944   0.9921
     0.9889   0.9871   0.9859   0.9853   0.9833   0.9824   0.9821   0.9790
     0.9779   0.9766   0.9723   0.9708   0.9696   0.9660   0.9591   0.9537
     0.9410   0.9136   0.9057   0.8966   0.8730   0.8665   0.8599   0.8525
     0.8443   0.8351   0.8272   0.8212   0.8125   0.7709   0.7479   0.7393
     0.7362   0.7305   0.7205   0.7135   0.7040   0.6995   0.6821   0.6759
     0.6689   0.6636   0.6584   0.6531   0.3480   0.3455   0.2683   0.2443
     0.1134   0.1014   0.0983   0.0706   0.0160   0.0089   0.0050   0.0036
     0.0017   0.0009   0.0004   0.0003   0.0001   0.0001   0.0000   0.0000
     0.0000   0.0000   0.0000   0.0000   0.0000   0.0000   0.0000   0.0000
     0.0000   0.0000   0.0000   0.0000   0.0000   0.0000   0.0000   0.0000
     0.0000   0.0000   0.0000

          k =-0.5000-0.5000 0.0000 ( 65132 PWs)   bands (ev):

   -92.6928 -92.6426 -92.5469 -92.4998 -92.4416 -92.3991 -92.3824 -92.2626
   -56.0462 -56.0296 -55.9042 -55.8935 -55.8874 -55.8803 -55.8472 -55.8161
   -55.8012 -55.7985 -55.7918 -55.7493 -55.7299 -55.6928 -55.6734 -55.6413
   -55.6355 -55.5878 -55.5866 -55.5844 -55.5760 -55.5377 -55.5126 -55.4291
   -31.2658 -31.2543 -31.1089 -31.0235 -31.0158 -30.9417 -30.7922 -30.7701
   -29.8363 -29.7974 -29.7716 -29.6644 -14.9244 -14.8987 -14.7804 -14.7692
   -14.6733 -14.6372 -14.5997 -14.4662 -13.9748 -13.9629 -13.9531 -13.9274
   -13.9106 -13.8936 -13.8773 -13.8502 -13.8387 -13.8272 -13.8133 -13.7958
   -13.7246 -13.7179 -13.6824 -13.6526 -13.6354 -13.5504 -13.5091 -13.3746
   -13.3199 -13.1491 -13.1075 -13.0429 -13.0178 -12.9874 -12.9766 -12.9673
   -12.9517 -12.9394 -12.8596 -12.7886 -12.7624 -12.7574 -12.7266 -12.7227
   -12.6911 -12.5974 -12.5895 -12.5300 -12.3667 -12.3091 -12.1921 -12.1705
   -12.1513 -11.7631 -11.7506 -11.7325 -11.7160 -11.6806 -11.6627 -11.6290
   -11.5686 -11.5478 -11.5433 -11.4930 -11.4898  -2.2165  -2.1421  -2.1322
    -2.0582  -2.0210  -1.9430  -1.8754  -1.7484  -1.6337  -1.6037  -1.5630
    -1.5069  -1.4344  -1.4207  -1.3496  -1.3067  -1.1900  -1.1603  -1.1112
    -1.1047  -1.0841  -1.0196  -0.9734  -0.9543  -0.9420  -0.8871  -0.8445
    -0.8274  -0.7145  -0.6566  -0.6125  -0.5622  -0.5320  -0.5201  -0.4880
    -0.4449  -0.4089  -0.3989  -0.3130  -0.2473  -0.2021  -0.1760  -0.1024
    -0.0452  -0.0340   0.0252   0.0619   0.0670   0.0937   0.5333   0.5696
     0.6817   0.7483   1.0781   1.0906   1.1214   1.1625   1.4332   1.4529
     1.4593   1.5008   1.6252   1.7216   1.7479   1.7842   1.8059   1.8327
     1.8391   1.8680   1.8771   1.8920   1.9058   1.9578   1.9623   1.9914
     2.0051   2.0326   2.0394   2.0760   2.1021   2.1219   2.1494   2.1927
     2.2406   2.3118   2.4415   2.4830   2.5845   2.6093   2.6310   2.6459
     2.6599   2.6885   2.6898   2.7096   2.7209   2.7378   2.7591   2.7694
     2.8364   2.8394   2.8599   2.8751   2.8879   2.9088   2.9101   2.9203
     3.0248   3.0288   3.0563   3.0677   4.0359   4.0523   4.0685   4.0803
     4.3289   4.4064   4.4266   4.6673   4.7897   4.8723   5.0013   5.0875
     5.1091   5.2154   5.3070   5.4328   5.8619   5.8878   5.9639   6.0398
     6.6154   6.8130   7.0481   7.0883   7.9039   7.9307   7.9536   7.9569
     7.9856   8.0314   8.0996   8.2755   8.4356   8.5945   8.6242   8.6675
     8.7394   8.7491   8.7779

     occupation numbers 
     1.0000   1.0000   1.0000   1.0000   1.0000   1.0000   1.0000   1.0000
     1.0000   1.0000   1.0000   1.0000   1.0000   1.0000   1.0000   1.0000
     1.0000   1.0000   1.0000   1.0000   1.0000   1.0000   1.0000   1.0000
     1.0000   1.0000   1.0000   1.0000   1.0000   1.0000   1.0000   1.0000
     1.0000   1.0000   1.0000   1.0000   1.0000   1.0000   1.0000   1.0000
     1.0000   1.0000   1.0000   1.0000   1.0000   1.0000   1.0000   1.0000
     1.0000   1.0000   1.0000   1.0000   1.0000   1.0000   1.0000   1.0000
     1.0000   1.0000   1.0000   1.0000   1.0000   1.0000   1.0000   1.0000
     1.0000   1.0000   1.0000   1.0000   1.0000   1.0000   1.0000   1.0000
     1.0000   1.0000   1.0000   1.0000   1.0000   1.0000   1.0000   1.0000
     1.0000   1.0000   1.0000   1.0000   1.0000   1.0000   1.0000   1.0000
     1.0000   1.0000   1.0000   1.0000   1.0000   1.0000   1.0000   1.0000
     1.0000   1.0000   1.0000   1.0000   1.0000   1.0000   1.0000   1.0000
     1.0000   1.0000   1.0000   1.0000   1.0000   1.0000   1.0000   1.0000
     1.0000   1.0000   1.0000   1.0000   1.0000   1.0000   1.0000   1.0000
     1.0000   1.0000   1.0000   1.0000   1.0000   1.0000   1.0000   1.0000
     1.0000   1.0000   1.0000   1.0000   1.0000   1.0000   1.0000   1.0000
     1.0000   1.0000   1.0000   1.0000   1.0000   1.0000   1.0000   1.0000
     1.0000   1.0000   1.0000   1.0000   1.0000   1.0000   1.0000   1.0000
     1.0000   1.0000   1.0000   1.0000   1.0000   1.0000   1.0000   1.0000
     1.0000   0.9999   0.9996   0.9996   0.9995   0.9994   0.9976   0.9974
     0.9973   0.9968   0.9944   0.9917   0.9908   0.9893   0.9884   0.9871
     0.9868   0.9853   0.9848   0.9839   0.9831   0.9796   0.9792   0.9770
     0.9758   0.9734   0.9728   0.9692   0.9664   0.9642   0.9608   0.9551
     0.9479   0.9356   0.9077   0.8970   0.8674   0.8593   0.8520   0.8468
     0.8419   0.8314   0.8309   0.8234   0.8190   0.8123   0.8037   0.7994
     0.7704   0.7690   0.7596   0.7526   0.7466   0.7365   0.7359   0.7309
     0.6774   0.6753   0.6604   0.6542   0.1489   0.1433   0.1380   0.1342
     0.0700   0.0558   0.0525   0.0239   0.0154   0.0112   0.0067   0.0046
     0.0042   0.0026   0.0017   0.0009   0.0001   0.0001   0.0000   0.0000
     0.0000   0.0000   0.0000   0.0000   0.0000   0.0000   0.0000   0.0000
     0.0000   0.0000   0.0000   0.0000   0.0000   0.0000   0.0000   0.0000
     0.0000   0.0000   0.0000

          k = 0.2500 0.0000 0.0000 ( 65257 PWs)   bands (ev):

   -92.6928 -92.6426 -92.5469 -92.4998 -92.4416 -92.3991 -92.3824 -92.2626
   -56.0462 -56.0296 -55.9042 -55.8935 -55.8874 -55.8803 -55.8472 -55.8161
   -55.8012 -55.7985 -55.7918 -55.7493 -55.7299 -55.6928 -55.6734 -55.6413
   -55.6355 -55.5878 -55.5866 -55.5844 -55.5760 -55.5377 -55.5126 -55.4291
   -31.2684 -31.2524 -31.1089 -31.0228 -31.0168 -30.9411 -30.7946 -30.7673
   -29.8385 -29.7970 -29.7708 -29.6633 -15.0405 -14.9975 -14.9286 -14.7819
   -14.6739 -14.4803 -14.3465 -14.1640 -14.1498 -14.1193 -14.0888 -14.0619
   -14.0317 -14.0136 -13.9875 -13.9559 -13.9402 -13.8310 -13.7998 -13.6515
   -13.5811 -13.5700 -13.5056 -13.4837 -13.4710 -13.4121 -13.3374 -13.3051
   -13.2084 -13.1512 -13.1299 -13.0532 -13.0383 -13.0274 -13.0161 -12.9964
   -12.9647 -12.9263 -12.8773 -12.8329 -12.8123 -12.8073 -12.7639 -12.7484
   -12.6816 -12.6375 -12.6268 -12.5947 -12.5051 -12.3982 -12.2412 -12.0746
   -12.0049 -11.8178 -11.7659 -11.7485 -11.7354 -11.7085 -11.6583 -11.6348
   -11.6270 -11.5761 -11.4876 -11.4316 -11.4257  -2.7971  -2.5758  -2.4455
[...]
     0.3492   0.3255   0.2049   0.0783   0.0463   0.0217   0.0060   0.0049
     0.0003   0.0001   0.0001   0.0000   0.0000   0.0000   0.0000   0.0000
     0.0000   0.0000   0.0000   0.0000   0.0000   0.0000   0.0000   0.0000
     0.0000   0.0000   0.0000   0.0000   0.0000   0.0000   0.0000   0.0000
     0.0000   0.0000   0.0000

          k =-0.5000 0.0000 0.0000 ( 65180 PWs)   bands (ev):

   -92.6928 -92.6426 -92.5469 -92.4998 -92.4416 -92.3991 -92.3824 -92.2626
   -56.0462 -56.0296 -55.9042 -55.8935 -55.8874 -55.8803 -55.8472 -55.8161
   -55.8012 -55.7985 -55.7918 -55.7493 -55.7299 -55.6928 -55.6734 -55.6413
   -55.6355 -55.5878 -55.5866 -55.5844 -55.5760 -55.5377 -55.5126 -55.4291
   -31.2662 -31.2546 -31.1085 -31.0232 -31.0166 -30.9409 -30.7948 -30.7674
   -29.8375 -29.7980 -29.7704 -29.6637 -15.0067 -14.9542 -14.8922 -14.7819
   -14.6805 -14.5356 -14.3907 -14.2444 -14.1238 -14.1066 -14.1000 -14.0323
   -13.9837 -13.9537 -13.9504 -13.8999 -13.8910 -13.8767 -13.8290 -13.8037
   -13.7003 -13.5470 -13.5122 -13.4860 -13.4782 -13.4127 -13.3564 -13.2861
   -13.2602 -13.2366 -13.2055 -13.0467 -13.0358 -13.0222 -13.0040 -12.9927
   -12.9388 -12.9192 -12.9134 -12.8331 -12.8064 -12.7392 -12.6799 -12.6375
   -12.6326 -12.6271 -12.6231 -12.5333 -12.4432 -12.3193 -12.2932 -12.1707
   -12.1276 -11.7699 -11.7482 -11.7416 -11.7270 -11.7087 -11.6672 -11.6052
   -11.5876 -11.5543 -11.5102 -11.5009 -11.4853  -2.5730  -2.5345  -2.3712
    -2.3320  -2.0184  -1.9428  -1.7956  -1.6775  -1.6388  -1.5915  -1.5450
    -1.5203  -1.3970  -1.3529  -1.3363  -1.2555  -1.2198  -1.2057  -1.1742
    -1.1170  -1.0968  -1.0450  -1.0166  -0.9870  -0.8909  -0.8452  -0.7955
    -0.7643  -0.7428  -0.7101  -0.6648  -0.6386  -0.6012  -0.5013  -0.4279
    -0.3622  -0.3009  -0.1419  -0.0880  -0.0481  -0.0108   0.0442   0.0671
     0.2072   0.2421   0.2996   0.4480   0.5474   0.5957   0.7044   0.7494
     0.8728   0.8887   1.0113   1.0393   1.0947   1.1268   1.1674   1.1732
     1.2227   1.2424   1.3110   1.3586   1.4066   1.4147   1.7139   1.7289
     1.7370   1.7622   1.8642   1.8777   1.8928   1.9026   1.9337   1.9474
     1.9859   2.0113   2.0323   2.0859   2.1044   2.1542   2.1785   2.2325
     2.3595   2.4352   2.4432   2.4928   2.5113   2.5239   2.6148   2.6346
     2.6670   2.7348   2.7419   2.7487   2.7785   2.8459   2.8897   2.9393
     2.9627   3.0097   3.0129   3.0166   3.0256   3.0424   3.0533   3.0664
     3.0712   3.0907   3.0959   3.1179   3.1375   3.1422   3.2708   3.2794
     4.1058   4.1328   4.1940   4.3289   4.7990   4.8698   5.0534   5.0655
     5.4904   5.5187   5.6078   5.6602   6.0409   6.0501   6.3548   6.4429
     6.8031   7.0112   7.2787   7.3021   7.3452   7.4350   7.7836   7.8154
     7.8900   8.0314   8.1822   8.3125   8.3330   8.4856   8.5286   8.6360
     8.7679   8.8454   8.9216

     occupation numbers 
     1.0000   1.0000   1.0000   1.0000   1.0000   1.0000   1.0000   1.0000
     1.0000   1.0000   1.0000   1.0000   1.0000   1.0000   1.0000   1.0000
     1.0000   1.0000   1.0000   1.0000   1.0000   1.0000   1.0000   1.0000
     1.0000   1.0000   1.0000   1.0000   1.0000   1.0000   1.0000   1.0000
     1.0000   1.0000   1.0000   1.0000   1.0000   1.0000   1.0000   1.0000
     1.0000   1.0000   1.0000   1.0000   1.0000   1.0000   1.0000   1.0000
     1.0000   1.0000   1.0000   1.0000   1.0000   1.0000   1.0000   1.0000
     1.0000   1.0000   1.0000   1.0000   1.0000   1.0000   1.0000   1.0000
     1.0000   1.0000   1.0000   1.0000   1.0000   1.0000   1.0000   1.0000
     1.0000   1.0000   1.0000   1.0000   1.0000   1.0000   1.0000   1.0000
     1.0000   1.0000   1.0000   1.0000   1.0000   1.0000   1.0000   1.0000
     1.0000   1.0000   1.0000   1.0000   1.0000   1.0000   1.0000   1.0000
     1.0000   1.0000   1.0000   1.0000   1.0000   1.0000   1.0000   1.0000
     1.0000   1.0000   1.0000   1.0000   1.0000   1.0000   1.0000   1.0000
     1.0000   1.0000   1.0000   1.0000   1.0000   1.0000   1.0000   1.0000
     1.0000   1.0000   1.0000   1.0000   1.0000   1.0000   1.0000   1.0000
     1.0000   1.0000   1.0000   1.0000   1.0000   1.0000   1.0000   1.0000
     1.0000   1.0000   1.0000   1.0000   1.0000   1.0000   1.0000   1.0000
     1.0000   1.0000   1.0000   1.0000   1.0000   1.0000   1.0000   1.0000
     1.0000   1.0000   1.0000   1.0000   1.0000   1.0000   1.0000   0.9999
     0.9999   0.9999   0.9997   0.9997   0.9996   0.9995   0.9994   0.9993
     0.9991   0.9991   0.9987   0.9983   0.9979   0.9978   0.9920   0.9915
     0.9912   0.9902   0.9855   0.9848   0.9839   0.9833   0.9813   0.9803
     0.9774   0.9753   0.9735   0.9682   0.9662   0.9602   0.9570   0.9492
     0.9262   0.9092   0.9072   0.8944   0.8893   0.8857   0.8575   0.8508
     0.8393   0.8135   0.8107   0.8079   0.7956   0.7661   0.7457   0.7215
     0.7097   0.6854   0.6837   0.6817   0.6769   0.6680   0.6620   0.6549
     0.6523   0.6415   0.6386   0.6263   0.6153   0.6126   0.5379   0.5328
     0.1262   0.1180   0.1010   0.0700   0.0148   0.0113   0.0054   0.0051
     0.0007   0.0006   0.0004   0.0003   0.0000   0.0000   0.0000   0.0000
     0.0000   0.0000   0.0000   0.0000   0.0000   0.0000   0.0000   0.0000
     0.0000   0.0000   0.0000   0.0000   0.0000   0.0000   0.0000   0.0000
     0.0000   0.0000   0.0000

          k =-0.2500 0.2500 0.0000 ( 65198 PWs)   bands (ev):

   -92.6928 -92.6426 -92.5469 -92.4998 -92.4416 -92.3991 -92.3824 -92.2626
   -56.0462 -56.0296 -55.9042 -55.8935 -55.8874 -55.8803 -55.8472 -55.8161
   -55.8012 -55.7985 -55.7918 -55.7493 -55.7299 -55.6928 -55.6734 -55.6413
   -55.6355 -55.5878 -55.5866 -55.5844 -55.5760 -55.5377 -55.5126 -55.4291
   -31.2682 -31.2522 -31.1091 -31.0229 -31.0164 -30.9415 -30.7934 -30.7685
   -29.8379 -29.7967 -29.7714 -29.6636 -15.0093 -14.9664 -14.8936 -14.7770
   -14.6635 -14.5371 -14.4534 -14.2428 -14.1060 -14.0770 -14.0620 -14.0154
   -13.9908 -13.9737 -13.9546 -13.9487 -13.9030 -13.8261 -13.8133 -13.6641
   -13.6364 -13.6066 -13.5879 -13.5347 -13.4886 -13.4296 -13.4249 -13.2850
   -13.2284 -13.2127 -13.1378 -13.0946 -13.0317 -13.0020 -12.9885 -12.9707
   -12.9373 -12.9197 -12.8693 -12.8235 -12.7828 -12.7653 -12.7520 -12.7129
   -12.6856 -12.6755 -12.6553 -12.4820 -12.4343 -12.3817 -12.2750 -12.1104
   -12.0525 -11.7899 -11.7684 -11.7415 -11.7293 -11.6879 -11.6537 -11.6302
   -11.6091 -11.5864 -11.5026 -11.4571 -11.4474  -2.6577  -2.4499  -2.3286
    -2.2400  -2.1222  -2.0560  -1.8525  -1.7078  -1.6894  -1.6592  -1.5684
    -1.5310  -1.4389  -1.4050  -1.3791  -1.2365  -1.1805  -1.1181  -1.0994
    -1.0831  -1.0222  -1.0011  -0.9616  -0.9331  -0.8930  -0.8288  -0.7818
    -0.7172  -0.6497  -0.6242  -0.5738  -0.5446  -0.4995  -0.4418  -0.3948
    -0.3555  -0.2552  -0.2222  -0.2112  -0.1670  -0.1018  -0.0320   0.0139
     0.0503   0.1228   0.1717   0.3992   0.5723   0.6087   0.6492   0.7088
     0.7808   0.8334   0.8848   0.9104   1.1929   1.3016   1.3408   1.3727
     1.3809   1.4219   1.4373   1.4841   1.5134   1.5279   1.5537   1.5990
     1.6139   1.6588   1.6793   1.7226   1.8032   1.8250   1.8444   1.8849
     1.9120   1.9499   2.0127   2.1185   2.2127   2.2432   2.2953   2.3181
     2.3762   2.4155   2.4377   2.4485   2.4645   2.4897   2.4959   2.6026
     2.6287   2.7191   2.8915   2.8998   2.9133   2.9231   2.9339   2.9478
     2.9550   2.9733   2.9826   2.9958   3.0062   3.0179   3.0278   3.0352
     3.0690   3.0790   3.0861   3.1212   3.4128   3.4944   3.5588   3.6348
     3.6541   3.8576   3.9714   4.3154   4.5177   4.7269   5.0027   5.1719
     5.6551   5.7091   5.7856   5.8414   5.9042   6.1012   6.1767   6.2069
     6.9036   6.9622   7.1042   7.2933   7.5725   7.6204   7.6808   7.8647
     7.9029   8.0048   8.1893   8.2164   8.3309   8.3570   8.4564   8.5045
     8.5816   8.7283   8.9178

     occupation numbers 
     1.0000   1.0000   1.0000   1.0000   1.0000   1.0000   1.0000   1.0000
     1.0000   1.0000   1.0000   1.0000   1.0000   1.0000   1.0000   1.0000
     1.0000   1.0000   1.0000   1.0000   1.0000   1.0000   1.0000   1.0000
     1.0000   1.0000   1.0000   1.0000   1.0000   1.0000   1.0000   1.0000
     1.0000   1.0000   1.0000   1.0000   1.0000   1.0000   1.0000   1.0000
     1.0000   1.0000   1.0000   1.0000   1.0000   1.0000   1.0000   1.0000
     1.0000   1.0000   1.0000   1.0000   1.0000   1.0000   1.0000   1.0000
     1.0000   1.0000   1.0000   1.0000   1.0000   1.0000   1.0000   1.0000
     1.0000   1.0000   1.0000   1.0000   1.0000   1.0000   1.0000   1.0000
     1.0000   1.0000   1.0000   1.0000   1.0000   1.0000   1.0000   1.0000
     1.0000   1.0000   1.0000   1.0000   1.0000   1.0000   1.0000   1.0000
     1.0000   1.0000   1.0000   1.0000   1.0000   1.0000   1.0000   1.0000
     1.0000   1.0000   1.0000   1.0000   1.0000   1.0000   1.0000   1.0000
     1.0000   1.0000   1.0000   1.0000   1.0000   1.0000   1.0000   1.0000
     1.0000   1.0000   1.0000   1.0000   1.0000   1.0000   1.0000   1.0000
     1.0000   1.0000   1.0000   1.0000   1.0000   1.0000   1.0000   1.0000
     1.0000   1.0000   1.0000   1.0000   1.0000   1.0000   1.0000   1.0000
     1.0000   1.0000   1.0000   1.0000   1.0000   1.0000   1.0000   1.0000
     1.0000   1.0000   1.0000   1.0000   1.0000   1.0000   1.0000   1.0000
     1.0000   1.0000   1.0000   1.0000   1.0000   1.0000   1.0000   1.0000
     0.9999   0.9999   0.9999   0.9998   0.9993   0.9987   0.9985   0.9982
     0.9981   0.9977   0.9976   0.9970   0.9966   0.9964   0.9959   0.9950
     0.9947   0.9936   0.9930   0.9917   0.9885   0.9875   0.9866   0.9843
     0.9827   0.9801   0.9752   0.9645   0.9522   0.9475   0.9387   0.9345
     0.9227   0.9139   0.9086   0.9059   0.9019   0.8952   0.8936   0.8615
     0.8528   0.8197   0.7448   0.7409   0.7343   0.7295   0.7242   0.7173
     0.7136   0.7043   0.6995   0.6927   0.6872   0.6810   0.6758   0.6718
     0.6535   0.6480   0.6440   0.6245   0.4539   0.4064   0.3697   0.3280
     0.3177   0.2188   0.1722   0.0727   0.0395   0.0194   0.0066   0.0032
     0.0003   0.0002   0.0001   0.0001   0.0001   0.0000   0.0000   0.0000
     0.0000   0.0000   0.0000   0.0000   0.0000   0.0000   0.0000   0.0000
     0.0000   0.0000   0.0000   0.0000   0.0000   0.0000   0.0000   0.0000
     0.0000   0.0000   0.0000

          k =-0.5000 0.2500 0.0000 ( 65138 PWs)   bands (ev):

   -92.6928 -92.6426 -92.5469 -92.4998 -92.4416 -92.3991 -92.3824 -92.2626
   -56.0462 -56.0296 -55.9042 -55.8935 -55.8874 -55.8803 -55.8472 -55.8161
   -55.8012 -55.7985 -55.7918 -55.7493 -55.7299 -55.6928 -55.6734 -55.6413
   -55.6355 -55.5878 -55.5866 -55.5844 -55.5760 -55.5377 -55.5126 -55.4291
   -31.2660 -31.2544 -31.1087 -31.0233 -31.0162 -30.9413 -30.7936 -30.7687
   -29.8369 -29.7977 -29.7710 -29.6640 -14.9738 -14.9281 -14.8494 -14.7483
   -14.7092 -14.5823 -14.4932 -14.3613 -14.0565 -14.0247 -14.0129 -13.9698
   -13.9537 -13.9448 -13.9241 -13.8861 -13.8750 -13.8559 -13.8161 -13.8018
   -13.6929 -13.6295 -13.5803 -13.5748 -13.5559 -13.4640 -13.4591 -13.3262
   -13.2686 -13.1922 -13.1559 -13.0593 -13.0188 -13.0081 -12.9868 -12.9681
   -12.9415 -12.9305 -12.8731 -12.8435 -12.7733 -12.7542 -12.6990 -12.6737
   -12.6617 -12.6144 -12.6063 -12.5314 -12.4008 -12.3145 -12.2488 -12.1649
   -12.1371 -11.7628 -11.7500 -11.7356 -11.7238 -11.7023 -11.6720 -11.5919
   -11.5838 -11.5599 -11.5247 -11.4965 -11.4879  -2.4306  -2.3887  -2.2409
    -2.1986  -2.0377  -1.9612  -1.8198  -1.6836  -1.6268  -1.5995  -1.5611
    -1.5228  -1.4422  -1.3267  -1.2697  -1.2468  -1.2199  -1.1488  -1.1179
    -1.0984  -1.0742  -1.0592  -0.9983  -0.9688  -0.9301  -0.8944  -0.8662
    -0.8081  -0.7811  -0.7397  -0.7047  -0.5993  -0.5744  -0.4829  -0.4226
    -0.3913  -0.3328  -0.2489  -0.2181  -0.1137  -0.0816  -0.0172   0.0285
     0.0614   0.1284   0.1645   0.2041   0.2414   0.2800   0.6028   0.6479
     0.7277   0.7779   1.0235   1.0896   1.1580   1.1857   1.3616   1.3958
     1.4343   1.4473   1.4657   1.4824   1.5514   1.5960   1.6340   1.6676
     1.7810   1.8239   1.8547   1.8704   1.9036   1.9263   1.9443   1.9627
     1.9794   2.0008   2.0495   2.0616   2.0997   2.1226   2.1541   2.2141
     2.3436   2.4249   2.4410   2.4614   2.4891   2.5246   2.5619   2.6312
     2.6621   2.6684   2.7081   2.7384   2.7626   2.8461   2.8879   2.9005
     2.9061   2.9272   2.9495   2.9622   2.9768   2.9894   3.0114   3.0252
     3.0344   3.0432   3.0537   3.0662   3.5976   3.6306   3.7856   3.8037
     4.1082   4.1532   4.2059   4.4132   4.7936   4.8878   5.0562   5.0880
     5.4168   5.4402   5.5954   5.6318   5.7542   5.8065   6.3967   6.4524
     6.4994   6.5680   7.2974   7.3899   7.5793   7.7212   7.7937   7.8154
     7.8996   8.0333   8.2530   8.4529   8.5186   8.5640   8.5805   8.5930
     8.6661   8.7483   8.7651

     occupation numbers 
     1.0000   1.0000   1.0000   1.0000   1.0000   1.0000   1.0000   1.0000
     1.0000   1.0000   1.0000   1.0000   1.0000   1.0000   1.0000   1.0000
     1.0000   1.0000   1.0000   1.0000   1.0000   1.0000   1.0000   1.0000
     1.0000   1.0000   1.0000   1.0000   1.0000   1.0000   1.0000   1.0000
     1.0000   1.0000   1.0000   1.0000   1.0000   1.0000   1.0000   1.0000
     1.0000   1.0000   1.0000   1.0000   1.0000   1.0000   1.0000   1.0000
     1.0000   1.0000   1.0000   1.0000   1.0000   1.0000   1.0000   1.0000
     1.0000   1.0000   1.0000   1.0000   1.0000   1.0000   1.0000   1.0000
     1.0000   1.0000   1.0000   1.0000   1.0000   1.0000   1.0000   1.0000
     1.0000   1.0000   1.0000   1.0000   1.0000   1.0000   1.0000   1.0000
     1.0000   1.0000   1.0000   1.0000   1.0000   1.0000   1.0000   1.0000
     1.0000   1.0000   1.0000   1.0000   1.0000   1.0000   1.0000   1.0000
     1.0000   1.0000   1.0000   1.0000   1.0000   1.0000   1.0000   1.0000
     1.0000   1.0000   1.0000   1.0000   1.0000   1.0000   1.0000   1.0000
     1.0000   1.0000   1.0000   1.0000   1.0000   1.0000   1.0000   1.0000
     1.0000   1.0000   1.0000   1.0000   1.0000   1.0000   1.0000   1.0000
     1.0000   1.0000   1.0000   1.0000   1.0000   1.0000   1.0000   1.0000
     1.0000   1.0000   1.0000   1.0000   1.0000   1.0000   1.0000   1.0000
     1.0000   1.0000   1.0000   1.0000   1.0000   1.0000   1.0000   1.0000
     1.0000   1.0000   1.0000   1.0000   1.0000   1.0000   1.0000   1.0000
     0.9999   0.9999   0.9997   0.9996   0.9994   0.9993   0.9983   0.9980
     0.9976   0.9975   0.9972   0.9970   0.9960   0.9951   0.9942   0.9933
     0.9895   0.9876   0.9860   0.9852   0.9832   0.9818   0.9805   0.9792
     0.9779   0.9762   0.9718   0.9707   0.9667   0.9641   0.9602   0.9520
     0.9295   0.9117   0.9078   0.9027   0.8954   0.8855   0.8745   0.8519
     0.8411   0.8388   0.8240   0.8121   0.8022   0.7660   0.7466   0.7405
     0.7378   0.7275   0.7164   0.7100   0.7025   0.6960   0.6845   0.6772
     0.6722   0.6675   0.6618   0.6550   0.3482   0.3302   0.2517   0.2432
     0.1254   0.1121   0.0979   0.0546   0.0152   0.0106   0.0053   0.0046
     0.0010   0.0009   0.0004   0.0003   0.0002   0.0001   0.0000   0.0000
     0.0000   0.0000   0.0000   0.0000   0.0000   0.0000   0.0000   0.0000
     0.0000   0.0000   0.0000   0.0000   0.0000   0.0000   0.0000   0.0000
     0.0000   0.0000   0.0000

     the Fermi energy is     3.3348 ev

!    total energy              =   -4441.65785276 Ry
     estimated scf accuracy    <          7.9E-09 Ry
     smearing contrib. (-TS)   =      -1.15486837 Ry
     internal energy E=F+TS    =   -4440.50298438 Ry

     The total energy is F=E-TS. E is the sum of the following terms:
     one-electron contribution =  -20803.31139654 Ry
     hartree contribution      =   10533.74505290 Ry
     xc contribution           =    -694.18203831 Ry
     ewald contribution        =    6799.41561797 Ry
     one-center paw contrib.   =    -276.17022040 Ry
      -> PAW hartree energy AE =      25.17470486 Ry
      -> PAW hartree energy PS =     -25.05847907 Ry
      -> PAW xc energy AE      =     -16.51917518 Ry
      -> PAW xc energy PS      =       6.87871730 Ry
      -> total E_H with PAW    =   10533.86127869 Ry
      -> total E_XC with PAW   =    -703.82249619 Ry

     convergence has been achieved in  47 iterations

     Writing all to output data dir /bsuhome/zayahcortright/scratch/pwscf.save/
 
     init_run     :      7.56s CPU      8.43s WALL (       1 calls)
     electrons    :    744.28s CPU    825.80s WALL (       1 calls)

     Called by init_run:
     wfcinit      :      6.11s CPU      6.30s WALL (       1 calls)
     wfcinit:atom :      0.06s CPU      0.08s WALL (       5 calls)
     wfcinit:wfcr :      5.77s CPU      5.87s WALL (       5 calls)
     potinit      :      0.16s CPU      0.19s WALL (       1 calls)
     hinit0       :      0.40s CPU      0.79s WALL (       1 calls)

     Called by electrons:
     c_bands      :    598.04s CPU    610.13s WALL (      47 calls)
     sum_band     :    107.54s CPU    146.76s WALL (      47 calls)
     v_of_rho     :      5.07s CPU      5.48s WALL (      48 calls)
     v_h          :      0.44s CPU      0.44s WALL (      48 calls)
     v_xc         :      4.63s CPU      5.04s WALL (      48 calls)
     newd         :     19.09s CPU     48.43s WALL (      48 calls)
     PAW_pot      :      1.58s CPU      1.61s WALL (      48 calls)
     mix_rho      :     12.64s CPU     13.10s WALL (      47 calls)

     Called by c_bands:
     init_us_2    :      6.51s CPU      6.61s WALL (     475 calls)
     init_us_2:cp :      6.50s CPU      6.61s WALL (     475 calls)
     cegterg      :    562.58s CPU    574.33s WALL (     235 calls)

     Called by sum_band:
     sum_band:wei :      0.33s CPU      0.34s WALL (      47 calls)
     sum_band:loo :     87.96s CPU     88.69s WALL (      47 calls)
     sum_band:buf :      1.37s CPU      1.43s WALL (     235 calls)
     sum_band:ini :      2.94s CPU      2.95s WALL (     235 calls)
     sum_band:cal :     18.72s CPU     18.77s WALL (     235 calls)
     sum_band:bec :      0.55s CPU      0.57s WALL (     235 calls)
     addusdens    :     17.66s CPU     56.07s WALL (      47 calls)
                                        0.00s GPU  (      47 calls)
     addusd:skk   :      0.31s CPU      2.17s WALL (     188 calls)
                                        0.00s GPU  (     188 calls)

     Called by *egterg:
     cdiaghg      :     51.84s CPU     52.08s WALL (    1189 calls)
     cegterg:over :     47.03s CPU     47.24s WALL (     954 calls)
     cegterg:upda :     48.01s CPU     49.04s WALL (     954 calls)
     cegterg:last :     68.30s CPU     68.54s WALL (     427 calls)
     cdiaghg:chol :      2.95s CPU      2.98s WALL (    1189 calls)
     cdiaghg:inve :      3.25s CPU      3.27s WALL (    1189 calls)
     cdiaghg:para :      6.80s CPU      6.86s WALL (    2378 calls)
     h_psi        :    283.74s CPU    288.35s WALL (    1194 calls)
     s_psi        :     36.92s CPU     37.03s WALL (    1194 calls)
     g_psi        :      2.58s CPU      2.60s WALL (     954 calls)

     Called by h_psi:
     h_psi:calbec :     43.46s CPU     43.66s WALL (    1194 calls)
     vloc_psi     :    197.55s CPU    199.53s WALL (    1194 calls)
     add_vuspsi   :     36.55s CPU     36.79s WALL (    1194 calls)

     General routines
     calbec       :     62.17s CPU     62.42s WALL (    1429 calls)
     fft          :      3.63s CPU      3.67s WALL (     622 calls)
     ffts         :      4.49s CPU      4.55s WALL (    5029 calls)
     fftw         :    169.52s CPU    170.96s WALL (  317983 calls)
     interpolate  :      0.40s CPU      0.40s WALL (      48 calls)
 
     Parallel routines

     PAW routines
     PAW_pot      :      1.58s CPU      1.61s WALL (      48 calls)
 
     PWSCF        :  12m33.46s CPU  13m58.82s WALL

 
   This run was terminated on:   5:27:26  22Jun2024            

=------------------------------------------------------------------------------=
   JOB DONE.
=------------------------------------------------------------------------------=
