
     Program PWSCF v.7.2 starts on 21Jun2024 at 14:16: 4 

     This program is part of the open-source Quantum ESPRESSO suite
     for quantum simulation of materials; please cite
         "P. Giannozzi et al., J. Phys.:Condens. Matter 21 395502 (2009);
         "P. Giannozzi et al., J. Phys.:Condens. Matter 29 465901 (2017);
         "P. Giannozzi et al., J. Chem. Phys. 152 154105 (2020);
          URL http://www.quantum-espresso.org", 
     in publications or presentations arising from this work. More details at
     http://www.quantum-espresso.org/quote

     Parallel version (MPI & OpenMP), running on      48 processor cores
     Number of MPI processes:                48
     Threads/MPI process:                     1

     MPI processes distributed on     1 nodes
     35853 MiB available memory on the printing compute node when the environment starts
 
     Reading input from espresso.pwi
Warning: card &CELL ignored
Warning: card / ignored
Warning: card &FCP ignored
Warning: card / ignored
Warning: card &RISM ignored
Warning: card / ignored

     Current dimensions of program PWSCF are:
     Max number of different atomic species (ntypx) = 10
     Max number of k-points (npk) =  40000
     Max angular momentum in pseudopotentials (lmaxx) =  4
     file O.pbe-n-kjpaw_psl.0.1.UPF: wavefunction(s)  2P renormalized
     signal trapping enabled: kill the code with -SIGUSR1 to stop cleanly the simulation 
 
     K-points division:     npool     =       2
     R & G space division:  proc/nbgrp/npool/nimage =      24
     Subspace diagonalization in iterative solution of the eigenvalue problem:
     one sub-group per band group will be used
     scalapack distributed-memory algorithm (size of sub-group:  3*  3 procs)

 
     Parallelization info
     --------------------
     sticks:   dense  smooth     PW     G-vecs:    dense   smooth      PW
     Min         350     175     47                61430    21716    3036
     Max         351     177     48                61449    21727    3041
     Sum        8421    4205   1137              1474595   521381   72913
 
     Using Slab Decomposition
 


     bravais-lattice index     =            0
     lattice parameter (alat)  =      14.8599  a.u.
     unit-cell volume          =    8305.1283 (a.u.)^3
     number of atoms/cell      =           50
     number of atomic types    =            4
     number of electrons       =       431.00
     number of Kohn-Sham states=          259
     kinetic-energy cutoff     =      60.0000  Ry
     charge density cutoff     =     480.0000  Ry
     scf convergence threshold =      1.0E-08
     mixing beta               =       0.1500
     number of iterations used =            8  local-TF  mixing
     Exchange-correlation= PBE
                           (   1   4   3   4   0   0   0)

     celldm(1)=  14.859904  celldm(2)=   0.000000  celldm(3)=   0.000000
     celldm(4)=   0.000000  celldm(5)=   0.000000  celldm(6)=   0.000000

     crystal axes: (cart. coord. in units of alat)
               a(1) = (   1.000000   0.000000   0.000000 )  
               a(2) = (   0.000000   1.000000   0.000000 )  
               a(3) = (   0.000000   0.000000   2.531036 )  

     reciprocal axes: (cart. coord. in units 2 pi/alat)
               b(1) = (  1.000000  0.000000  0.000000 )  
               b(2) = (  0.000000  1.000000  0.000000 )  
               b(3) = (  0.000000  0.000000  0.395095 )  


     PseudoPot. # 1 for Sr read from file:
     /bsuhome/zayahcortright/q-e/pseudo/Sr_pbe_v1.uspp.F.UPF
     MD5 check sum: 6b418c05fbe9db5448babca5e47b7a5b
     Pseudo is Ultrasoft + core correction, Zval = 10.0
     Generated by new atomic code, or converted to UPF format
     Using radial grid of  883 points,  6 beta functions with: 
                l(1) =   0
                l(2) =   0
                l(3) =   1
                l(4) =   1
                l(5) =   2
                l(6) =   2
     Q(r) pseudized with  6 coefficients,  rinner =    1.400   1.400   1.400
                                                       1.400   1.400

     PseudoPot. # 2 for O  read from file:
     /bsuhome/zayahcortright/q-e/pseudo/O.pbe-n-kjpaw_psl.0.1.UPF
     MD5 check sum: 0234752ac141de4415c5fc33072bef88
     Pseudo is Projector augmented-wave + core cor, Zval =  6.0
     Generated using "atomic" code by A. Dal Corso  v.5.0.99 svn rev. 10869
     Shape of augmentation charge: BESSEL
     Using radial grid of 1095 points,  4 beta functions with: 
                l(1) =   0
                l(2) =   0
                l(3) =   1
                l(4) =   1
     Q(r) pseudized with 0 coefficients 


     PseudoPot. # 3 for Co read from file:
     /bsuhome/zayahcortright/q-e/pseudo/Co_pbe_v1.2.uspp.F.UPF
     MD5 check sum: 5f91765df6ddd3222702df6e7b74a16d
     Pseudo is Ultrasoft + core correction, Zval = 17.0
     Generated by new atomic code, or converted to UPF format
     Using radial grid of  863 points,  6 beta functions with: 
                l(1) =   0
                l(2) =   0
                l(3) =   1
                l(4) =   1
                l(5) =   2
                l(6) =   2
     Q(r) pseudized with  8 coefficients,  rinner =    1.200   1.200   1.200
                                                       1.200   1.200

     PseudoPot. # 4 for H  read from file:
     /bsuhome/zayahcortright/q-e/pseudo/H.pbe-rrkjus_psl.1.0.0.UPF
     MD5 check sum: f52b6d4d1c606e5624b1dc7b2218f220
     Pseudo is Ultrasoft, Zval =  1.0
     Generated using "atomic" code by A. Dal Corso  v.5.1
     Using radial grid of  929 points,  2 beta functions with: 
                l(1) =   0
                l(2) =   0
     Q(r) pseudized with 0 coefficients 


     atomic species   valence    mass     pseudopotential
        Sr            10.00    87.62000     Sr( 1.00)
        O              6.00    15.99900     O ( 1.00)
        Co            17.00    58.93319     Co( 1.00)
        H              1.00     1.00800     H ( 1.00)

     No symmetry found


                                    s                        frac. trans.

      isym =  1     identity                                     

 cryst.   s( 1) = (     1          0          0      )
                  (     0          1          0      )
                  (     0          0          1      )

 cart.    s( 1) = (  1.0000000  0.0000000  0.0000000 )
                  (  0.0000000  1.0000000  0.0000000 )
                  (  0.0000000  0.0000000  1.0000000 )


   Cartesian axes

     site n.     atom                  positions (alat units)
         1           Sr  tau(   1) = (   0.2508693   0.7491307   1.7574407  )
         2           O   tau(   2) = (   0.4985141   0.5014859   1.7715967  )
         3           Sr  tau(   3) = (   0.7482398   0.7454518   1.7648669  )
         4           Sr  tau(   4) = (   0.7441748   0.2558252   1.7667843  )
         5           Sr  tau(   5) = (   0.2508693   0.7491307   1.2696799  )
         6           Sr  tau(   6) = (   0.2508693   0.7491307   0.7632319  )
         7           Co  tau(   7) = (   0.4998914   0.5001086   1.0164559  )
         8           Co  tau(   8) = (   0.4936915   0.5063085   1.5135603  )
         9           O   tau(   9) = (   0.4988895   0.7610401   1.0164559  )
        10           O   tau(  10) = (   0.2389599   0.5011105   1.0164559  )
        11           O   tau(  11) = (   0.0070918   0.7374880   1.0164559  )
        12           O   tau(  12) = (   0.0088340   0.7405089   1.5135603  )
        13           O   tau(  13) = (   0.5066944   0.7415376   1.5135603  )
        14           O   tau(  14) = (   0.2584624   0.4933056   1.5135603  )
        15           O   tau(  15) = (   0.4985141   0.5014859   0.7773880  )
        16           O   tau(  16) = (   0.4985141   0.5014859   1.2555238  )
        17           Sr  tau(  17) = (   0.7482398   0.7454518   0.7706582  )
        18           Sr  tau(  18) = (   0.7482398   0.7454518   1.2622536  )
        19           Sr  tau(  19) = (   0.7441748   0.2558252   0.7725755  )
        20           Sr  tau(  20) = (   0.7441748   0.2558252   1.2603363  )
        21           O   tau(  21) = (   0.7322655   0.0078049   1.5135603  )
        22           O   tau(  22) = (   0.7558175   0.4996027   1.5135603  )
        23           O   tau(  23) = (   0.5003973   0.2441825   1.5135603  )
        24           O   tau(  24) = (   0.7527966   0.4978604   1.0164559  )
        25           O   tau(  25) = (   0.5021396   0.2472034   1.0164559  )
        26           O   tau(  26) = (   0.7517679   0.0000000   1.0164559  )
        27           O   tau(  27) = (   0.0114961   0.4948124   1.7455321  )
        28           O   tau(  28) = (   0.0048226   0.0077944   1.7715967  )
        29           Sr  tau(  29) = (   0.2545482   0.2517602   1.7648669  )
        30           O   tau(  30) = (   0.5048017   0.0015068   1.7786929  )
        31           Co  tau(  31) = (   0.0056869   0.5006215   1.0164559  )
        32           Co  tau(  32) = (   0.0065315   0.4997770   1.5135603  )
        33           Co  tau(  33) = (   0.0061999   0.0064171   1.0164559  )
        34           Co  tau(  34) = (   0.0000000   0.0126169   1.5135603  )
        35           O   tau(  35) = (   0.0114961   0.4948124   1.2815885  )
        36           O   tau(  36) = (   0.0114961   0.4948124   0.7513233  )
        37           O   tau(  37) = (   0.0051979   0.2673486   1.0164559  )
        38           O   tau(  38) = (   0.0130029   0.2478461   1.5135603  )
        39           O   tau(  39) = (   0.0048226   0.0077944   0.7773880  )
        40           O   tau(  40) = (   0.0048226   0.0077944   1.2555238  )
        41           Sr  tau(  41) = (   0.2545482   0.2517602   0.7706582  )
        42           Sr  tau(  42) = (   0.2545482   0.2517602   1.2622536  )
        43           Co  tau(  43) = (   0.4989925   0.0073160   1.5135603  )
        44           Co  tau(  44) = (   0.4998370   0.0064714   1.0164559  )
        45           O   tau(  45) = (   0.5048017   0.0015068   0.7844841  )
        46           O   tau(  46) = (   0.5048017   0.0015068   1.2484277  )
        47           O   tau(  47) = (   0.2621260   0.0059111   1.5135603  )
        48           O   tau(  48) = (   0.2591051   0.0041689   1.0164559  )
        49           O   tau(  49) = (   0.0000000   0.0000000   2.1602013  )
        50           H   tau(  50) = (   0.0000000   0.0000000   2.2847091  )

   Crystallographic axes

     site n.     atom                  positions (cryst. coord.)
         1           Sr  tau(   1) = (  0.2508693  0.7491307  0.6943562  )
         2           O   tau(   2) = (  0.4985141  0.5014859  0.6999492  )
         3           Sr  tau(   3) = (  0.7482398  0.7454518  0.6972903  )
         4           Sr  tau(   4) = (  0.7441748  0.2558252  0.6980478  )
         5           Sr  tau(   5) = (  0.2508693  0.7491307  0.5016443  )
         6           Sr  tau(   6) = (  0.2508693  0.7491307  0.3015492  )
         7           Co  tau(   7) = (  0.4998914  0.5001086  0.4015968  )
         8           Co  tau(   8) = (  0.4936915  0.5063085  0.5980003  )
         9           O   tau(   9) = (  0.4988895  0.7610401  0.4015968  )
        10           O   tau(  10) = (  0.2389599  0.5011105  0.4015968  )
        11           O   tau(  11) = (  0.0070918  0.7374880  0.4015968  )
        12           O   tau(  12) = (  0.0088340  0.7405089  0.5980003  )
        13           O   tau(  13) = (  0.5066944  0.7415376  0.5980003  )
        14           O   tau(  14) = (  0.2584624  0.4933056  0.5980003  )
        15           O   tau(  15) = (  0.4985141  0.5014859  0.3071422  )
        16           O   tau(  16) = (  0.4985141  0.5014859  0.4960513  )
        17           Sr  tau(  17) = (  0.7482398  0.7454518  0.3044833  )
        18           Sr  tau(  18) = (  0.7482398  0.7454518  0.4987103  )
        19           Sr  tau(  19) = (  0.7441748  0.2558252  0.3052408  )
        20           Sr  tau(  20) = (  0.7441748  0.2558252  0.4979527  )
        21           O   tau(  21) = (  0.7322655  0.0078049  0.5980003  )
        22           O   tau(  22) = (  0.7558175  0.4996027  0.5980003  )
        23           O   tau(  23) = (  0.5003973  0.2441825  0.5980003  )
        24           O   tau(  24) = (  0.7527966  0.4978604  0.4015968  )
        25           O   tau(  25) = (  0.5021396  0.2472034  0.4015968  )
        26           O   tau(  26) = (  0.7517679  0.0000000  0.4015968  )
        27           O   tau(  27) = (  0.0114961  0.4948124  0.6896512  )
        28           O   tau(  28) = (  0.0048226  0.0077944  0.6999492  )
        29           Sr  tau(  29) = (  0.2545482  0.2517602  0.6972903  )
        30           O   tau(  30) = (  0.5048017  0.0015068  0.7027529  )
        31           Co  tau(  31) = (  0.0056869  0.5006215  0.4015968  )
        32           Co  tau(  32) = (  0.0065315  0.4997770  0.5980003  )
        33           Co  tau(  33) = (  0.0061999  0.0064171  0.4015968  )
        34           Co  tau(  34) = (  0.0000000  0.0126169  0.5980003  )
        35           O   tau(  35) = (  0.0114961  0.4948124  0.5063494  )
        36           O   tau(  36) = (  0.0114961  0.4948124  0.2968442  )
        37           O   tau(  37) = (  0.0051979  0.2673486  0.4015968  )
        38           O   tau(  38) = (  0.0130029  0.2478461  0.5980003  )
        39           O   tau(  39) = (  0.0048226  0.0077944  0.3071422  )
        40           O   tau(  40) = (  0.0048226  0.0077944  0.4960513  )
        41           Sr  tau(  41) = (  0.2545482  0.2517602  0.3044833  )
        42           Sr  tau(  42) = (  0.2545482  0.2517602  0.4987103  )
        43           Co  tau(  43) = (  0.4989925  0.0073160  0.5980003  )
        44           Co  tau(  44) = (  0.4998370  0.0064714  0.4015968  )
        45           O   tau(  45) = (  0.5048017  0.0015068  0.3099459  )
        46           O   tau(  46) = (  0.5048017  0.0015068  0.4932477  )
        47           O   tau(  47) = (  0.2621260  0.0059111  0.5980003  )
        48           O   tau(  48) = (  0.2591051  0.0041689  0.4015968  )
        49           O   tau(  49) = (  0.0000000  0.0000000  0.8534850  )
        50           H   tau(  50) = (  0.0000000  0.0000000  0.9026774  )

     number of k points=    10  Gaussian smearing, width (Ry)=  0.0700
                       cart. coord. in units 2pi/alat
        k(    1) = (   0.0000000   0.0000000   0.0000000), wk =   0.1250000
        k(    2) = (   0.0000000   0.2500000   0.0000000), wk =   0.2500000
        k(    3) = (   0.0000000  -0.5000000   0.0000000), wk =   0.1250000
        k(    4) = (   0.2500000   0.2500000   0.0000000), wk =   0.2500000
        k(    5) = (   0.2500000  -0.5000000   0.0000000), wk =   0.2500000
        k(    6) = (  -0.5000000  -0.5000000   0.0000000), wk =   0.1250000
        k(    7) = (   0.2500000   0.0000000   0.0000000), wk =   0.2500000
        k(    8) = (  -0.5000000   0.0000000   0.0000000), wk =   0.1250000
        k(    9) = (  -0.2500000   0.2500000   0.0000000), wk =   0.2500000
        k(   10) = (  -0.5000000   0.2500000   0.0000000), wk =   0.2500000

                       cryst. coord.
        k(    1) = (   0.0000000   0.0000000   0.0000000), wk =   0.1250000
        k(    2) = (   0.0000000   0.2500000   0.0000000), wk =   0.2500000
        k(    3) = (   0.0000000  -0.5000000   0.0000000), wk =   0.1250000
        k(    4) = (   0.2500000   0.2500000   0.0000000), wk =   0.2500000
        k(    5) = (   0.2500000  -0.5000000   0.0000000), wk =   0.2500000
        k(    6) = (  -0.5000000  -0.5000000   0.0000000), wk =   0.1250000
        k(    7) = (   0.2500000   0.0000000   0.0000000), wk =   0.2500000
        k(    8) = (  -0.5000000   0.0000000   0.0000000), wk =   0.1250000
        k(    9) = (  -0.2500000   0.2500000   0.0000000), wk =   0.2500000
        k(   10) = (  -0.5000000   0.2500000   0.0000000), wk =   0.2500000

     Dense  grid:  1474595 G-vectors     FFT dimensions: ( 108, 108, 270)

     Smooth grid:   521381 G-vectors     FFT dimensions: (  75,  75, 192)

     Dynamical RAM for                 wfc:      10.73 MB

     Dynamical RAM for     wfc (w. buffer):      64.38 MB

     Dynamical RAM for           str. fact:       3.75 MB

     Dynamical RAM for           local pot:       0.00 MB

     Dynamical RAM for          nlocal pot:      24.61 MB

     Dynamical RAM for                qrad:       7.03 MB

     Dynamical RAM for          rho,v,vnew:       6.02 MB

     Dynamical RAM for               rhoin:       2.01 MB

     Dynamical RAM for            rho*nmix:      15.00 MB

     Dynamical RAM for           G-vectors:       3.68 MB

     Dynamical RAM for          h,s,v(r/c):       1.35 MB

     Dynamical RAM for          <psi|beta>:       2.35 MB

     Dynamical RAM for                 psi:      21.46 MB

     Dynamical RAM for                hpsi:      21.46 MB

     Dynamical RAM for                spsi:      21.46 MB

     Dynamical RAM for      wfcinit/wfcrot:      34.49 MB

     Dynamical RAM for           addusdens:     101.26 MB

     Estimated static dynamical RAM per process >     121.50 MB

     Estimated max dynamical RAM per process >     237.76 MB

     Estimated total dynamical RAM >      10.79 GB

     Check: negative core charge=   -0.000004

     Initial potential from superposition of free atoms

     starting charge     422.5961, renormalised to     431.0000

     negative rho (up, down):  7.820E-01 0.000E+00
     Starting wfcs are  377 randomized atomic wfcs
     Checking if some PAW data can be deallocated... 
       PAW data deallocated on   19 nodes for type:  2

     total cpu time spent up to now is       10.8 secs

     Self-consistent Calculation

     iteration #  1     ecut=    60.00 Ry     beta= 0.15
     Davidson diagonalization with overlap

---- Real-time Memory Report at c_bands before calling an iterative solver
             0 MiB given to the printing process from OS
             0 MiB allocation reported by mallinfo(arena+hblkhd)
         26619 MiB available memory on the node where the printing process lives
------------------
     ethr =  1.00E-02,  avg # of iterations =  2.0

     negative rho (up, down):  7.717E-01 0.000E+00

     total cpu time spent up to now is       27.3 secs

     total energy              =   -4446.65476516 Ry
     estimated scf accuracy    <      44.93859814 Ry

     iteration #  2     ecut=    60.00 Ry     beta= 0.15
     Davidson diagonalization with overlap

---- Real-time Memory Report at c_bands before calling an iterative solver
             0 MiB given to the printing process from OS
             0 MiB allocation reported by mallinfo(arena+hblkhd)
         26875 MiB available memory on the node where the printing process lives
------------------
     ethr =  1.00E-02,  avg # of iterations =  1.0

     negative rho (up, down):  7.579E-01 0.000E+00

     total cpu time spent up to now is       41.9 secs

     total energy              =   -4443.19986402 Ry
     estimated scf accuracy    <      29.74173913 Ry

     iteration #  3     ecut=    60.00 Ry     beta= 0.15
     Davidson diagonalization with overlap

---- Real-time Memory Report at c_bands before calling an iterative solver
             0 MiB given to the printing process from OS
             0 MiB allocation reported by mallinfo(arena+hblkhd)
         26049 MiB available memory on the node where the printing process lives
------------------
     ethr =  6.90E-03,  avg # of iterations =  1.0

     negative rho (up, down):  7.553E-01 0.000E+00

     total cpu time spent up to now is       56.9 secs

     total energy              =   -4444.25908900 Ry
     estimated scf accuracy    <      29.59917868 Ry

     iteration #  4     ecut=    60.00 Ry     beta= 0.15
     Davidson diagonalization with overlap

---- Real-time Memory Report at c_bands before calling an iterative solver
             0 MiB given to the printing process from OS
             0 MiB allocation reported by mallinfo(arena+hblkhd)
         26032 MiB available memory on the node where the printing process lives
------------------
     ethr =  6.87E-03,  avg # of iterations =  1.0

     negative rho (up, down):  7.493E-01 0.000E+00

     total cpu time spent up to now is       71.8 secs

     total energy              =   -4443.05706243 Ry
     estimated scf accuracy    <      21.33118636 Ry

     iteration #  5     ecut=    60.00 Ry     beta= 0.15
     Davidson diagonalization with overlap

---- Real-time Memory Report at c_bands before calling an iterative solver
             0 MiB given to the printing process from OS
             0 MiB allocation reported by mallinfo(arena+hblkhd)
         26008 MiB available memory on the node where the printing process lives
------------------
     ethr =  4.95E-03,  avg # of iterations =  1.0

     negative rho (up, down):  7.409E-01 0.000E+00

     total cpu time spent up to now is       86.6 secs

     total energy              =   -4442.61413874 Ry
     estimated scf accuracy    <      10.03487616 Ry

     iteration #  6     ecut=    60.00 Ry     beta= 0.15
     Davidson diagonalization with overlap

---- Real-time Memory Report at c_bands before calling an iterative solver
             0 MiB given to the printing process from OS
             0 MiB allocation reported by mallinfo(arena+hblkhd)
         25990 MiB available memory on the node where the printing process lives
------------------
     ethr =  2.33E-03,  avg # of iterations =  1.1

     negative rho (up, down):  7.429E-01 0.000E+00

     total cpu time spent up to now is      101.6 secs

     total energy              =   -4442.80287389 Ry
     estimated scf accuracy    <       4.91435675 Ry

     iteration #  7     ecut=    60.00 Ry     beta= 0.15
     Davidson diagonalization with overlap

---- Real-time Memory Report at c_bands before calling an iterative solver
             0 MiB given to the printing process from OS
             0 MiB allocation reported by mallinfo(arena+hblkhd)
         25970 MiB available memory on the node where the printing process lives
------------------
     ethr =  1.14E-03,  avg # of iterations =  1.7

     negative rho (up, down):  7.662E-01 0.000E+00

     total cpu time spent up to now is      116.9 secs

     total energy              =   -4441.65962950 Ry
     estimated scf accuracy    <       3.97438635 Ry

     iteration #  8     ecut=    60.00 Ry     beta= 0.15
     Davidson diagonalization with overlap

---- Real-time Memory Report at c_bands before calling an iterative solver
             0 MiB given to the printing process from OS
             0 MiB allocation reported by mallinfo(arena+hblkhd)
         25950 MiB available memory on the node where the printing process lives
------------------
     ethr =  9.22E-04,  avg # of iterations =  4.2

     negative rho (up, down):  7.724E-01 0.000E+00

     total cpu time spent up to now is      136.1 secs

     total energy              =   -4441.58848959 Ry
     estimated scf accuracy    <      14.56600860 Ry

     iteration #  9     ecut=    60.00 Ry     beta= 0.15
     Davidson diagonalization with overlap

---- Real-time Memory Report at c_bands before calling an iterative solver
             0 MiB given to the printing process from OS
             0 MiB allocation reported by mallinfo(arena+hblkhd)
         25787 MiB available memory on the node where the printing process lives
------------------
     ethr =  9.22E-04,  avg # of iterations = 10.4

     negative rho (up, down):  7.706E-01 0.000E+00

     total cpu time spent up to now is      157.9 secs

     total energy              =   -4441.78555721 Ry
     estimated scf accuracy    <       2.33452717 Ry

     iteration # 10     ecut=    60.00 Ry     beta= 0.15
     Davidson diagonalization with overlap

---- Real-time Memory Report at c_bands before calling an iterative solver
             0 MiB given to the printing process from OS
             0 MiB allocation reported by mallinfo(arena+hblkhd)
         25446 MiB available memory on the node where the printing process lives
------------------
     ethr =  5.42E-04,  avg # of iterations =  1.7

     negative rho (up, down):  7.777E-01 0.000E+00

     total cpu time spent up to now is      173.7 secs

     total energy              =   -4441.91499313 Ry
     estimated scf accuracy    <       1.10309125 Ry

     iteration # 11     ecut=    60.00 Ry     beta= 0.15
     Davidson diagonalization with overlap

---- Real-time Memory Report at c_bands before calling an iterative solver
             0 MiB given to the printing process from OS
             0 MiB allocation reported by mallinfo(arena+hblkhd)
         25425 MiB available memory on the node where the printing process lives
------------------
     ethr =  2.56E-04,  avg # of iterations =  3.3

     negative rho (up, down):  8.140E-01 0.000E+00

     total cpu time spent up to now is      190.6 secs

     total energy              =   -4441.69158561 Ry
     estimated scf accuracy    <       1.25996474 Ry

     iteration # 12     ecut=    60.00 Ry     beta= 0.15
     Davidson diagonalization with overlap

---- Real-time Memory Report at c_bands before calling an iterative solver
             0 MiB given to the printing process from OS
             0 MiB allocation reported by mallinfo(arena+hblkhd)
         25440 MiB available memory on the node where the printing process lives
------------------
     ethr =  2.56E-04,  avg # of iterations =  9.0

     negative rho (up, down):  8.178E-01 0.000E+00

     total cpu time spent up to now is      210.6 secs

     total energy              =   -4441.83557703 Ry
     estimated scf accuracy    <       1.20787508 Ry

     iteration # 13     ecut=    60.00 Ry     beta= 0.15
     Davidson diagonalization with overlap

---- Real-time Memory Report at c_bands before calling an iterative solver
             0 MiB given to the printing process from OS
             0 MiB allocation reported by mallinfo(arena+hblkhd)
         25408 MiB available memory on the node where the printing process lives
------------------
     ethr =  2.56E-04,  avg # of iterations =  1.3

     negative rho (up, down):  8.176E-01 0.000E+00

     total cpu time spent up to now is      225.7 secs

     total energy              =   -4441.78317514 Ry
     estimated scf accuracy    <       0.74340307 Ry

     iteration # 14     ecut=    60.00 Ry     beta= 0.15
     Davidson diagonalization with overlap

---- Real-time Memory Report at c_bands before calling an iterative solver
             0 MiB given to the printing process from OS
             0 MiB allocation reported by mallinfo(arena+hblkhd)
         25437 MiB available memory on the node where the printing process lives
------------------
     ethr =  1.72E-04,  avg # of iterations =  3.5

     negative rho (up, down):  8.241E-01 0.000E+00

     total cpu time spent up to now is      243.0 secs

     total energy              =   -4441.72232613 Ry
     estimated scf accuracy    <       0.35053722 Ry

     iteration # 15     ecut=    60.00 Ry     beta= 0.15
     Davidson diagonalization with overlap

---- Real-time Memory Report at c_bands before calling an iterative solver
             0 MiB given to the printing process from OS
             0 MiB allocation reported by mallinfo(arena+hblkhd)
         25453 MiB available memory on the node where the printing process lives
------------------
     ethr =  8.13E-05,  avg # of iterations = 13.2

     negative rho (up, down):  8.317E-01 0.000E+00

     total cpu time spent up to now is      265.2 secs

     total energy              =   -4441.71466730 Ry
     estimated scf accuracy    <       0.28973423 Ry

     iteration # 16     ecut=    60.00 Ry     beta= 0.15
     Davidson diagonalization with overlap

---- Real-time Memory Report at c_bands before calling an iterative solver
             0 MiB given to the printing process from OS
             0 MiB allocation reported by mallinfo(arena+hblkhd)
         25385 MiB available memory on the node where the printing process lives
------------------
     c_bands:  1 eigenvalues not converged
     ethr =  6.72E-05,  avg # of iterations =  5.4

     negative rho (up, down):  8.311E-01 0.000E+00

     total cpu time spent up to now is      283.7 secs

     total energy              =   -4441.71019969 Ry
     estimated scf accuracy    <       0.25358795 Ry

     iteration # 17     ecut=    60.00 Ry     beta= 0.15
     Davidson diagonalization with overlap

---- Real-time Memory Report at c_bands before calling an iterative solver
             0 MiB given to the printing process from OS
             0 MiB allocation reported by mallinfo(arena+hblkhd)
         25386 MiB available memory on the node where the printing process lives
------------------
     ethr =  5.88E-05,  avg # of iterations =  1.0

     negative rho (up, down):  8.107E-01 0.000E+00

     total cpu time spent up to now is      298.3 secs

     total energy              =   -4441.67863241 Ry
     estimated scf accuracy    <       0.20718303 Ry

     iteration # 18     ecut=    60.00 Ry     beta= 0.15
     Davidson diagonalization with overlap

---- Real-time Memory Report at c_bands before calling an iterative solver
             0 MiB given to the printing process from OS
             0 MiB allocation reported by mallinfo(arena+hblkhd)
         25393 MiB available memory on the node where the printing process lives
------------------
     c_bands:  1 eigenvalues not converged
     ethr =  4.81E-05,  avg # of iterations = 10.9

     negative rho (up, down):  8.162E-01 0.000E+00

     total cpu time spent up to now is      320.1 secs

     total energy              =   -4441.66165328 Ry
     estimated scf accuracy    <       0.12411552 Ry

     iteration # 19     ecut=    60.00 Ry     beta= 0.15
     Davidson diagonalization with overlap

---- Real-time Memory Report at c_bands before calling an iterative solver
             0 MiB given to the printing process from OS
             0 MiB allocation reported by mallinfo(arena+hblkhd)
         25398 MiB available memory on the node where the printing process lives
------------------
     ethr =  2.88E-05,  avg # of iterations =  9.2

     negative rho (up, down):  8.153E-01 0.000E+00

     total cpu time spent up to now is      341.5 secs

     total energy              =   -4441.65884789 Ry
     estimated scf accuracy    <       0.06939768 Ry

     iteration # 20     ecut=    60.00 Ry     beta= 0.15
     Davidson diagonalization with overlap

---- Real-time Memory Report at c_bands before calling an iterative solver
             0 MiB given to the printing process from OS
             0 MiB allocation reported by mallinfo(arena+hblkhd)
         25304 MiB available memory on the node where the printing process lives
------------------
     ethr =  1.61E-05,  avg # of iterations =  6.1

     negative rho (up, down):  8.188E-01 0.000E+00

     total cpu time spent up to now is      361.0 secs

     total energy              =   -4441.64995166 Ry
     estimated scf accuracy    <       0.04647658 Ry

     iteration # 21     ecut=    60.00 Ry     beta= 0.15
     Davidson diagonalization with overlap

---- Real-time Memory Report at c_bands before calling an iterative solver
             0 MiB given to the printing process from OS
             0 MiB allocation reported by mallinfo(arena+hblkhd)
         25322 MiB available memory on the node where the printing process lives
------------------
     ethr =  1.08E-05,  avg # of iterations = 11.4

     negative rho (up, down):  8.143E-01 0.000E+00

     total cpu time spent up to now is      384.3 secs

     total energy              =   -4441.65237862 Ry
     estimated scf accuracy    <       0.01958572 Ry

     iteration # 22     ecut=    60.00 Ry     beta= 0.15
     Davidson diagonalization with overlap

---- Real-time Memory Report at c_bands before calling an iterative solver
             0 MiB given to the printing process from OS
             0 MiB allocation reported by mallinfo(arena+hblkhd)
         25282 MiB available memory on the node where the printing process lives
------------------
     ethr =  4.54E-06,  avg # of iterations =  1.6

     negative rho (up, down):  7.942E-01 0.000E+00

     total cpu time spent up to now is      400.1 secs

     total energy              =   -4441.64959052 Ry
     estimated scf accuracy    <       0.01654449 Ry

     iteration # 23     ecut=    60.00 Ry     beta= 0.15
     Davidson diagonalization with overlap

---- Real-time Memory Report at c_bands before calling an iterative solver
             0 MiB given to the printing process from OS
             0 MiB allocation reported by mallinfo(arena+hblkhd)
         25299 MiB available memory on the node where the printing process lives
------------------
     ethr =  3.84E-06,  avg # of iterations =  5.5

     negative rho (up, down):  7.896E-01 0.000E+00

     total cpu time spent up to now is      418.3 secs

     total energy              =   -4441.64867034 Ry
     estimated scf accuracy    <       0.01056526 Ry

     iteration # 24     ecut=    60.00 Ry     beta= 0.15
     Davidson diagonalization with overlap

---- Real-time Memory Report at c_bands before calling an iterative solver
             0 MiB given to the printing process from OS
             0 MiB allocation reported by mallinfo(arena+hblkhd)
         25305 MiB available memory on the node where the printing process lives
------------------
     ethr =  2.45E-06,  avg # of iterations = 10.3

     negative rho (up, down):  7.903E-01 0.000E+00

     total cpu time spent up to now is      439.7 secs

     total energy              =   -4441.64830407 Ry
     estimated scf accuracy    <       0.00555715 Ry

     iteration # 25     ecut=    60.00 Ry     beta= 0.15
     Davidson diagonalization with overlap

---- Real-time Memory Report at c_bands before calling an iterative solver
             0 MiB given to the printing process from OS
             0 MiB allocation reported by mallinfo(arena+hblkhd)
         25305 MiB available memory on the node where the printing process lives
------------------
     ethr =  1.29E-06,  avg # of iterations =  2.0

     negative rho (up, down):  7.950E-01 0.000E+00

     total cpu time spent up to now is      456.3 secs

     total energy              =   -4441.64824759 Ry
     estimated scf accuracy    <       0.00294179 Ry

     iteration # 26     ecut=    60.00 Ry     beta= 0.15
     Davidson diagonalization with overlap

---- Real-time Memory Report at c_bands before calling an iterative solver
             0 MiB given to the printing process from OS
             0 MiB allocation reported by mallinfo(arena+hblkhd)
         25307 MiB available memory on the node where the printing process lives
------------------
     ethr =  6.83E-07,  avg # of iterations =  9.4

     negative rho (up, down):  7.963E-01 0.000E+00

     total cpu time spent up to now is      477.4 secs

     total energy              =   -4441.64827553 Ry
     estimated scf accuracy    <       0.00158884 Ry

     iteration # 27     ecut=    60.00 Ry     beta= 0.15
     Davidson diagonalization with overlap

---- Real-time Memory Report at c_bands before calling an iterative solver
             0 MiB given to the printing process from OS
             0 MiB allocation reported by mallinfo(arena+hblkhd)
         25271 MiB available memory on the node where the printing process lives
------------------
     ethr =  3.69E-07,  avg # of iterations = 10.2

     negative rho (up, down):  7.951E-01 0.000E+00

     total cpu time spent up to now is      498.4 secs

     total energy              =   -4441.64832644 Ry
     estimated scf accuracy    <       0.00083966 Ry

     iteration # 28     ecut=    60.00 Ry     beta= 0.15
     Davidson diagonalization with overlap

---- Real-time Memory Report at c_bands before calling an iterative solver
             0 MiB given to the printing process from OS
             0 MiB allocation reported by mallinfo(arena+hblkhd)
         25266 MiB available memory on the node where the printing process lives
------------------
     ethr =  1.95E-07,  avg # of iterations =  3.8

     negative rho (up, down):  7.942E-01 0.000E+00

     total cpu time spent up to now is      515.8 secs

     total energy              =   -4441.64833319 Ry
     estimated scf accuracy    <       0.00045966 Ry

     iteration # 29     ecut=    60.00 Ry     beta= 0.15
     Davidson diagonalization with overlap

---- Real-time Memory Report at c_bands before calling an iterative solver
             0 MiB given to the printing process from OS
             0 MiB allocation reported by mallinfo(arena+hblkhd)
         25274 MiB available memory on the node where the printing process lives
------------------
     ethr =  1.07E-07,  avg # of iterations =  6.5

     negative rho (up, down):  7.941E-01 0.000E+00

     total cpu time spent up to now is      535.0 secs

     total energy              =   -4441.64837090 Ry
     estimated scf accuracy    <       0.00025380 Ry

     iteration # 30     ecut=    60.00 Ry     beta= 0.15
     Davidson diagonalization with overlap

---- Real-time Memory Report at c_bands before calling an iterative solver
             0 MiB given to the printing process from OS
             0 MiB allocation reported by mallinfo(arena+hblkhd)
         25286 MiB available memory on the node where the printing process lives
------------------
     ethr =  5.89E-08,  avg # of iterations =  2.2

     negative rho (up, down):  7.933E-01 0.000E+00

     total cpu time spent up to now is      551.8 secs

     total energy              =   -4441.64837017 Ry
     estimated scf accuracy    <       0.00017011 Ry

     iteration # 31     ecut=    60.00 Ry     beta= 0.15
     Davidson diagonalization with overlap

---- Real-time Memory Report at c_bands before calling an iterative solver
             0 MiB given to the printing process from OS
             0 MiB allocation reported by mallinfo(arena+hblkhd)
         25351 MiB available memory on the node where the printing process lives
------------------
     ethr =  3.95E-08,  avg # of iterations =  2.0

     negative rho (up, down):  7.924E-01 0.000E+00

     total cpu time spent up to now is      568.5 secs

     total energy              =   -4441.64837278 Ry
     estimated scf accuracy    <       0.00010075 Ry

     iteration # 32     ecut=    60.00 Ry     beta= 0.15
     Davidson diagonalization with overlap

---- Real-time Memory Report at c_bands before calling an iterative solver
             0 MiB given to the printing process from OS
             0 MiB allocation reported by mallinfo(arena+hblkhd)
         25352 MiB available memory on the node where the printing process lives
------------------
     ethr =  2.34E-08,  avg # of iterations =  4.1

     negative rho (up, down):  7.921E-01 0.000E+00

     total cpu time spent up to now is      586.3 secs

     total energy              =   -4441.64837944 Ry
     estimated scf accuracy    <       0.00002685 Ry

     iteration # 33     ecut=    60.00 Ry     beta= 0.15
     Davidson diagonalization with overlap

---- Real-time Memory Report at c_bands before calling an iterative solver
             0 MiB given to the printing process from OS
             0 MiB allocation reported by mallinfo(arena+hblkhd)
         25415 MiB available memory on the node where the printing process lives
------------------
     ethr =  6.23E-09,  avg # of iterations =  2.2

     negative rho (up, down):  7.920E-01 0.000E+00

     total cpu time spent up to now is      603.0 secs

     total energy              =   -4441.64837893 Ry
     estimated scf accuracy    <       0.00001398 Ry

     iteration # 34     ecut=    60.00 Ry     beta= 0.15
     Davidson diagonalization with overlap

---- Real-time Memory Report at c_bands before calling an iterative solver
             0 MiB given to the printing process from OS
             0 MiB allocation reported by mallinfo(arena+hblkhd)
         25408 MiB available memory on the node where the printing process lives
------------------
     ethr =  3.24E-09,  avg # of iterations =  2.8

     negative rho (up, down):  7.920E-01 0.000E+00

     total cpu time spent up to now is      619.7 secs

     total energy              =   -4441.64837597 Ry
     estimated scf accuracy    <       0.00000937 Ry

     iteration # 35     ecut=    60.00 Ry     beta= 0.15
     Davidson diagonalization with overlap

---- Real-time Memory Report at c_bands before calling an iterative solver
             0 MiB given to the printing process from OS
             0 MiB allocation reported by mallinfo(arena+hblkhd)
         25405 MiB available memory on the node where the printing process lives
------------------
     ethr =  2.17E-09,  avg # of iterations =  2.7

     negative rho (up, down):  7.921E-01 0.000E+00

     total cpu time spent up to now is      636.6 secs

     total energy              =   -4441.64837282 Ry
     estimated scf accuracy    <       0.00000601 Ry

     iteration # 36     ecut=    60.00 Ry     beta= 0.15
     Davidson diagonalization with overlap

---- Real-time Memory Report at c_bands before calling an iterative solver
             0 MiB given to the printing process from OS
             0 MiB allocation reported by mallinfo(arena+hblkhd)
         25409 MiB available memory on the node where the printing process lives
------------------
     ethr =  1.39E-09,  avg # of iterations =  3.1

     negative rho (up, down):  7.922E-01 0.000E+00

     total cpu time spent up to now is      653.7 secs

     total energy              =   -4441.64837485 Ry
     estimated scf accuracy    <       0.00000307 Ry

     iteration # 37     ecut=    60.00 Ry     beta= 0.15
     Davidson diagonalization with overlap

---- Real-time Memory Report at c_bands before calling an iterative solver
             0 MiB given to the printing process from OS
             0 MiB allocation reported by mallinfo(arena+hblkhd)
         25420 MiB available memory on the node where the printing process lives
------------------
     ethr =  7.12E-10,  avg # of iterations =  2.1

     negative rho (up, down):  7.923E-01 0.000E+00

     total cpu time spent up to now is      670.3 secs

     total energy              =   -4441.64837677 Ry
     estimated scf accuracy    <       0.00000222 Ry

     iteration # 38     ecut=    60.00 Ry     beta= 0.15
     Davidson diagonalization with overlap

---- Real-time Memory Report at c_bands before calling an iterative solver
             0 MiB given to the printing process from OS
             0 MiB allocation reported by mallinfo(arena+hblkhd)
         25425 MiB available memory on the node where the printing process lives
------------------
     ethr =  5.14E-10,  avg # of iterations =  3.0

     negative rho (up, down):  7.924E-01 0.000E+00

     total cpu time spent up to now is      687.3 secs

     total energy              =   -4441.64837768 Ry
     estimated scf accuracy    <       0.00000124 Ry

     iteration # 39     ecut=    60.00 Ry     beta= 0.15
     Davidson diagonalization with overlap

---- Real-time Memory Report at c_bands before calling an iterative solver
             0 MiB given to the printing process from OS
             0 MiB allocation reported by mallinfo(arena+hblkhd)
         25421 MiB available memory on the node where the printing process lives
------------------
     ethr =  2.88E-10,  avg # of iterations =  3.8

     negative rho (up, down):  7.925E-01 0.000E+00

     total cpu time spent up to now is      704.9 secs

     total energy              =   -4441.64837758 Ry
     estimated scf accuracy    <       0.00000068 Ry

     iteration # 40     ecut=    60.00 Ry     beta= 0.15
     Davidson diagonalization with overlap

---- Real-time Memory Report at c_bands before calling an iterative solver
             0 MiB given to the printing process from OS
             0 MiB allocation reported by mallinfo(arena+hblkhd)
         25419 MiB available memory on the node where the printing process lives
------------------
     ethr =  1.57E-10,  avg # of iterations =  4.2

     negative rho (up, down):  7.925E-01 0.000E+00

     total cpu time spent up to now is      723.6 secs

     total energy              =   -4441.64837754 Ry
     estimated scf accuracy    <       0.00000014 Ry

     iteration # 41     ecut=    60.00 Ry     beta= 0.15
     Davidson diagonalization with overlap

---- Real-time Memory Report at c_bands before calling an iterative solver
             0 MiB given to the printing process from OS
             0 MiB allocation reported by mallinfo(arena+hblkhd)
         25405 MiB available memory on the node where the printing process lives
------------------
     ethr =  3.31E-11,  avg # of iterations =  3.4

     negative rho (up, down):  7.925E-01 0.000E+00

     total cpu time spent up to now is      741.9 secs

     total energy              =   -4441.64837757 Ry
     estimated scf accuracy    <       0.00000008 Ry

     iteration # 42     ecut=    60.00 Ry     beta= 0.15
     Davidson diagonalization with overlap

---- Real-time Memory Report at c_bands before calling an iterative solver
             0 MiB given to the printing process from OS
             0 MiB allocation reported by mallinfo(arena+hblkhd)
         25401 MiB available memory on the node where the printing process lives
------------------
     ethr =  1.94E-11,  avg # of iterations =  1.5

     negative rho (up, down):  7.925E-01 0.000E+00

     total cpu time spent up to now is      758.2 secs

     total energy              =   -4441.64837767 Ry
     estimated scf accuracy    <       0.00000007 Ry

     iteration # 43     ecut=    60.00 Ry     beta= 0.15
     Davidson diagonalization with overlap

---- Real-time Memory Report at c_bands before calling an iterative solver
             0 MiB given to the printing process from OS
             0 MiB allocation reported by mallinfo(arena+hblkhd)
         25419 MiB available memory on the node where the printing process lives
------------------
     ethr =  1.55E-11,  avg # of iterations =  2.9

     negative rho (up, down):  7.925E-01 0.000E+00

     total cpu time spent up to now is      776.1 secs

     total energy              =   -4441.64837771 Ry
     estimated scf accuracy    <       0.00000004 Ry

     iteration # 44     ecut=    60.00 Ry     beta= 0.15
     Davidson diagonalization with overlap

---- Real-time Memory Report at c_bands before calling an iterative solver
             0 MiB given to the printing process from OS
             0 MiB allocation reported by mallinfo(arena+hblkhd)
         25423 MiB available memory on the node where the printing process lives
------------------
     ethr =  8.99E-12,  avg # of iterations =  2.8

     negative rho (up, down):  7.925E-01 0.000E+00

     total cpu time spent up to now is      793.6 secs

     total energy              =   -4441.64837775 Ry
     estimated scf accuracy    <       0.00000003 Ry

     iteration # 45     ecut=    60.00 Ry     beta= 0.15
     Davidson diagonalization with overlap

---- Real-time Memory Report at c_bands before calling an iterative solver
             0 MiB given to the printing process from OS
             0 MiB allocation reported by mallinfo(arena+hblkhd)
         25428 MiB available memory on the node where the printing process lives
------------------
     ethr =  7.00E-12,  avg # of iterations =  2.9

     negative rho (up, down):  7.925E-01 0.000E+00

     total cpu time spent up to now is      811.3 secs

     total energy              =   -4441.64837778 Ry
     estimated scf accuracy    <       0.00000002 Ry

     iteration # 46     ecut=    60.00 Ry     beta= 0.15
     Davidson diagonalization with overlap

---- Real-time Memory Report at c_bands before calling an iterative solver
             0 MiB given to the printing process from OS
             0 MiB allocation reported by mallinfo(arena+hblkhd)
         25429 MiB available memory on the node where the printing process lives
------------------
     ethr =  4.94E-12,  avg # of iterations =  3.7

     negative rho (up, down):  7.925E-01 0.000E+00

     total cpu time spent up to now is      829.3 secs

     total energy              =   -4441.64837779 Ry
     estimated scf accuracy    <       0.00000001 Ry

     iteration # 47     ecut=    60.00 Ry     beta= 0.15
     Davidson diagonalization with overlap

---- Real-time Memory Report at c_bands before calling an iterative solver
             0 MiB given to the printing process from OS
             0 MiB allocation reported by mallinfo(arena+hblkhd)
         25431 MiB available memory on the node where the printing process lives
------------------
     ethr =  3.03E-12,  avg # of iterations =  2.7

     negative rho (up, down):  7.925E-01 0.000E+00

     total cpu time spent up to now is      846.7 secs

     total energy              =   -4441.64837779 Ry
     estimated scf accuracy    <       0.00000001 Ry

     iteration # 48     ecut=    60.00 Ry     beta= 0.15
     Davidson diagonalization with overlap

---- Real-time Memory Report at c_bands before calling an iterative solver
             0 MiB given to the printing process from OS
             0 MiB allocation reported by mallinfo(arena+hblkhd)
         25425 MiB available memory on the node where the printing process lives
------------------
     ethr =  2.67E-12,  avg # of iterations =  2.4

     negative rho (up, down):  7.925E-01 0.000E+00

     total cpu time spent up to now is      863.7 secs

     End of self-consistent calculation

          k = 0.0000 0.0000 0.0000 ( 65197 PWs)   bands (ev):

   -92.6816 -92.6294 -92.5356 -92.4886 -92.4292 -92.3879 -92.3715 -92.2521
   -56.0351 -56.0163 -55.8930 -55.8824 -55.8762 -55.8692 -55.8343 -55.8049
   -55.7903 -55.7873 -55.7792 -55.7372 -55.7188 -55.6807 -55.6620 -55.6290
   -55.6245 -55.5768 -55.5757 -55.5733 -55.5648 -55.5271 -55.5016 -55.4188
   -31.2593 -31.2399 -31.0982 -31.0368 -31.0114 -30.9529 -30.8440 -30.7278
   -29.8292 -29.7859 -29.7601 -29.6518 -15.0624 -15.0193 -14.9382 -14.8076
   -14.6163 -14.4926 -14.2003 -14.1795 -14.1513 -14.1048 -14.0601 -14.0507
   -14.0388 -14.0216 -14.0006 -13.9626 -13.9277 -13.9105 -13.7602 -13.5832
   -13.5481 -13.5181 -13.4864 -13.4700 -13.4155 -13.3825 -13.3039 -13.2320
   -13.1121 -13.0916 -13.0815 -13.0563 -13.0437 -13.0378 -12.9843 -12.9801
   -12.9484 -12.9356 -12.9043 -12.8855 -12.8692 -12.8417 -12.8309 -12.7702
   -12.7577 -12.7396 -12.6690 -12.6361 -12.6217 -12.3238 -12.1782 -12.0154
   -11.9334 -11.8427 -11.7685 -11.7574 -11.7348 -11.7171 -11.6534 -11.6362
   -11.6015 -11.5724 -11.4608 -11.3809 -11.3772  -2.9225  -2.6903  -2.4604
    -2.3142  -2.2508  -2.1087  -1.8018  -1.7876  -1.7676  -1.6837  -1.6642
    -1.5959  -1.5797  -1.5390  -1.4927  -1.3129  -1.0888  -1.0595  -1.0325
    -0.9119  -0.8974  -0.8515  -0.8329  -0.7878  -0.7712  -0.7145  -0.6883
    -0.6167  -0.6027  -0.5280  -0.3971  -0.3836  -0.3546  -0.2737  -0.2574
    -0.2445  -0.1768  -0.1092  -0.0712  -0.0100   0.0133   0.0860   0.1706
     0.2001   0.2257   0.2648   0.4905   0.5050   0.6809   0.7427   0.8075
     0.8795   0.9521   0.9676   0.9813   1.0408   1.0680   1.1029   1.1606
     1.2925   1.3501   1.3744   1.3959   1.4039   1.4689   1.5404   1.6443
     1.6596   1.7190   1.7324   1.7749   1.7986   1.8035   1.8664   1.9158
     1.9371   1.9705   2.0051   2.0475   2.1777   2.2573   2.3023   2.3248
     2.4601   2.4799   2.5006   2.5094   2.5321   2.5389   2.6572   2.6777
     2.7080   2.7258   2.7383   2.8179   2.9261   2.9579   2.9702   2.9769
     3.0440   3.0477   3.0731   3.0804   3.0896   3.1038   3.1082   3.1225
     3.1273   3.1416   3.1493   3.1564   3.1755   3.1965   3.2024   3.2134
     3.2370   3.3546   3.4402   4.1307   4.4469   4.7840   4.8784   5.0670
     5.7507   5.9510   6.0018   6.0404   6.3331   6.3805   6.4952   6.5048
     6.7451   7.0206   7.1113   7.3338   7.4566   7.5579   7.6577   7.6806
     7.6958   7.8529   7.9290   8.1193   8.1277   8.1935   8.4154   8.4914
     8.6777   8.7773   8.8891

     occupation numbers 
     1.0000   1.0000   1.0000   1.0000   1.0000   1.0000   1.0000   1.0000
     1.0000   1.0000   1.0000   1.0000   1.0000   1.0000   1.0000   1.0000
     1.0000   1.0000   1.0000   1.0000   1.0000   1.0000   1.0000   1.0000
     1.0000   1.0000   1.0000   1.0000   1.0000   1.0000   1.0000   1.0000
     1.0000   1.0000   1.0000   1.0000   1.0000   1.0000   1.0000   1.0000
     1.0000   1.0000   1.0000   1.0000   1.0000   1.0000   1.0000   1.0000
     1.0000   1.0000   1.0000   1.0000   1.0000   1.0000   1.0000   1.0000
     1.0000   1.0000   1.0000   1.0000   1.0000   1.0000   1.0000   1.0000
     1.0000   1.0000   1.0000   1.0000   1.0000   1.0000   1.0000   1.0000
     1.0000   1.0000   1.0000   1.0000   1.0000   1.0000   1.0000   1.0000
     1.0000   1.0000   1.0000   1.0000   1.0000   1.0000   1.0000   1.0000
     1.0000   1.0000   1.0000   1.0000   1.0000   1.0000   1.0000   1.0000
     1.0000   1.0000   1.0000   1.0000   1.0000   1.0000   1.0000   1.0000
     1.0000   1.0000   1.0000   1.0000   1.0000   1.0000   1.0000   1.0000
     1.0000   1.0000   1.0000   1.0000   1.0000   1.0000   1.0000   1.0000
     1.0000   1.0000   1.0000   1.0000   1.0000   1.0000   1.0000   1.0000
     1.0000   1.0000   1.0000   1.0000   1.0000   1.0000   1.0000   1.0000
     1.0000   1.0000   1.0000   1.0000   1.0000   1.0000   1.0000   1.0000
     1.0000   1.0000   1.0000   1.0000   1.0000   1.0000   1.0000   1.0000
     1.0000   1.0000   1.0000   1.0000   1.0000   1.0000   0.9999   0.9999
     0.9999   0.9998   0.9998   0.9998   0.9997   0.9996   0.9996   0.9994
     0.9989   0.9985   0.9983   0.9981   0.9980   0.9973   0.9963   0.9942
     0.9939   0.9922   0.9917   0.9902   0.9892   0.9890   0.9860   0.9831
     0.9818   0.9794   0.9768   0.9731   0.9586   0.9470   0.9394   0.9353
     0.9058   0.9008   0.8953   0.8929   0.8866   0.8846   0.8468   0.8395
     0.8282   0.8214   0.8165   0.7835   0.7335   0.7177   0.7116   0.7081
     0.6731   0.6711   0.6573   0.6533   0.6483   0.6404   0.6379   0.6300
     0.6273   0.6192   0.6148   0.6108   0.5999   0.5878   0.5844   0.5780
     0.5642   0.4949   0.4444   0.1219   0.0510   0.0164   0.0114   0.0053
     0.0002   0.0001   0.0000   0.0000   0.0000   0.0000   0.0000   0.0000
     0.0000   0.0000   0.0000   0.0000   0.0000   0.0000   0.0000   0.0000
     0.0000   0.0000   0.0000   0.0000   0.0000   0.0000   0.0000   0.0000
     0.0000   0.0000   0.0000

          k = 0.0000 0.2500 0.0000 ( 65257 PWs)   bands (ev):

   -92.6816 -92.6294 -92.5356 -92.4886 -92.4292 -92.3879 -92.3715 -92.2521
   -56.0351 -56.0163 -55.8930 -55.8824 -55.8762 -55.8692 -55.8343 -55.8049
   -55.7903 -55.7873 -55.7792 -55.7372 -55.7188 -55.6807 -55.6620 -55.6290
   -55.6245 -55.5768 -55.5757 -55.5733 -55.5648 -55.5271 -55.5016 -55.4188
   -31.2591 -31.2398 -31.0985 -31.0365 -31.0115 -30.9532 -30.8437 -30.7281
   -29.8286 -29.7856 -29.7608 -29.6521 -15.0258 -14.9931 -14.9131 -14.7783
   -14.6570 -14.4831 -14.3454 -14.1663 -14.1310 -14.1104 -14.0812 -14.0239
   -14.0175 -14.0034 -13.9843 -13.9407 -13.9230 -13.8294 -13.7910 -13.6289
   -13.6084 -13.5593 -13.5233 -13.4776 -13.4351 -13.3924 -13.3241 -13.2894
   -13.2201 -13.1398 -13.1279 -13.0903 -13.0737 -13.0233 -12.9701 -12.9462
   -12.9172 -12.8985 -12.8821 -12.8482 -12.8111 -12.7935 -12.7825 -12.7641
   -12.7245 -12.7005 -12.6624 -12.5511 -12.4721 -12.3851 -12.2294 -12.0719
   -12.0004 -11.8082 -11.7653 -11.7375 -11.7092 -11.6926 -11.6453 -11.6340
   -11.6114 -11.5773 -11.4752 -11.4225 -11.4119  -2.7872  -2.5659  -2.4281
    -2.2465  -2.2029  -2.0392  -1.8201  -1.7353  -1.7223  -1.6646  -1.5624
    -1.5462  -1.5111  -1.4856  -1.4416  -1.2441  -1.1162  -1.1054  -1.0393
    -1.0214  -1.0136  -0.9122  -0.8826  -0.8251  -0.7999  -0.7589  -0.6948
    -0.6683  -0.6364  -0.6048  -0.5877  -0.5554  -0.4817  -0.4300  -0.3606
    -0.2545  -0.2324  -0.1919  -0.0749  -0.0410   0.0300   0.0737   0.1449
     0.1747   0.2042   0.2413   0.5413   0.6257   0.6541   0.7502   0.7949
     0.8468   0.9323   0.9538   1.0479   1.0697   1.0954   1.2115   1.3037
     1.3258   1.3489   1.3706   1.3943   1.4542   1.4820   1.5078   1.5564
     1.5918   1.6220   1.7031   1.7354   1.7785   1.8287   1.8822   1.9251
     1.9527   1.9828   1.9954   2.1002   2.2094   2.2833   2.3087   2.3779
     2.4240   2.4625   2.4737   2.4900   2.5052   2.5441   2.5738   2.6743
     2.7013   2.7158   2.8845   2.9065   2.9386   2.9610   2.9777   2.9862
     2.9933   3.0025   3.0320   3.0357   3.0535   3.0574   3.0679   3.0853
     3.0973   3.1047   3.1273   3.1380   3.1433   3.1772   3.1936   3.2557
     3.6178   3.6641   3.9039   4.3256   4.4399   4.7247   5.0313   5.0931
     5.6570   5.8200   5.9278   5.9998   6.1016   6.1295   6.2015   6.6122
     6.8436   7.0887   7.1513   7.3458   7.4994   7.5103   7.5254   7.6613
     7.8340   7.9530   8.0344   8.1749   8.3225   8.3800   8.3947   8.4297
     8.5229   8.7801   8.9313

     occupation numbers 
     1.0000   1.0000   1.0000   1.0000   1.0000   1.0000   1.0000   1.0000
     1.0000   1.0000   1.0000   1.0000   1.0000   1.0000   1.0000   1.0000
     1.0000   1.0000   1.0000   1.0000   1.0000   1.0000   1.0000   1.0000
     1.0000   1.0000   1.0000   1.0000   1.0000   1.0000   1.0000   1.0000
     1.0000   1.0000   1.0000   1.0000   1.0000   1.0000   1.0000   1.0000
     1.0000   1.0000   1.0000   1.0000   1.0000   1.0000   1.0000   1.0000
     1.0000   1.0000   1.0000   1.0000   1.0000   1.0000   1.0000   1.0000
     1.0000   1.0000   1.0000   1.0000   1.0000   1.0000   1.0000   1.0000
     1.0000   1.0000   1.0000   1.0000   1.0000   1.0000   1.0000   1.0000
     1.0000   1.0000   1.0000   1.0000   1.0000   1.0000   1.0000   1.0000
     1.0000   1.0000   1.0000   1.0000   1.0000   1.0000   1.0000   1.0000
     1.0000   1.0000   1.0000   1.0000   1.0000   1.0000   1.0000   1.0000
     1.0000   1.0000   1.0000   1.0000   1.0000   1.0000   1.0000   1.0000
     1.0000   1.0000   1.0000   1.0000   1.0000   1.0000   1.0000   1.0000
     1.0000   1.0000   1.0000   1.0000   1.0000   1.0000   1.0000   1.0000
     1.0000   1.0000   1.0000   1.0000   1.0000   1.0000   1.0000   1.0000
     1.0000   1.0000   1.0000   1.0000   1.0000   1.0000   1.0000   1.0000
     1.0000   1.0000   1.0000   1.0000   1.0000   1.0000   1.0000   1.0000
     1.0000   1.0000   1.0000   1.0000   1.0000   1.0000   1.0000   1.0000
     1.0000   1.0000   1.0000   1.0000   1.0000   1.0000   0.9999   0.9999
     0.9999   0.9998   0.9998   0.9997   0.9996   0.9996   0.9992   0.9988
     0.9986   0.9985   0.9983   0.9981   0.9975   0.9972   0.9968   0.9961
     0.9954   0.9948   0.9926   0.9916   0.9900   0.9879   0.9851   0.9826
     0.9807   0.9785   0.9775   0.9678   0.9543   0.9427   0.9382   0.9247
     0.9145   0.9052   0.9024   0.8981   0.8940   0.8831   0.8742   0.8407
     0.8308   0.8253   0.7534   0.7430   0.7274   0.7162   0.7077   0.7034
     0.6997   0.6949   0.6795   0.6774   0.6680   0.6659   0.6602   0.6506
     0.6440   0.6399   0.6273   0.6213   0.6183   0.5989   0.5895   0.5533
     0.3432   0.3183   0.2037   0.0729   0.0521   0.0203   0.0062   0.0047
     0.0003   0.0001   0.0001   0.0000   0.0000   0.0000   0.0000   0.0000
     0.0000   0.0000   0.0000   0.0000   0.0000   0.0000   0.0000   0.0000
     0.0000   0.0000   0.0000   0.0000   0.0000   0.0000   0.0000   0.0000
     0.0000   0.0000   0.0000

          k = 0.0000-0.5000 0.0000 ( 65180 PWs)   bands (ev):

   -92.6816 -92.6294 -92.5356 -92.4886 -92.4292 -92.3879 -92.3715 -92.2521
   -56.0351 -56.0163 -55.8930 -55.8824 -55.8762 -55.8692 -55.8343 -55.8049
   -55.7903 -55.7873 -55.7792 -55.7372 -55.7188 -55.6807 -55.6620 -55.6290
   -55.6245 -55.5768 -55.5757 -55.5733 -55.5648 -55.5271 -55.5016 -55.4188
   -31.2589 -31.2397 -31.0987 -31.0361 -31.0117 -30.9536 -30.8434 -30.7284
   -29.8280 -29.7853 -29.7614 -29.6525 -14.9909 -14.9424 -14.8891 -14.7610
   -14.6769 -14.5392 -14.3868 -14.2627 -14.1385 -14.0653 -14.0239 -14.0186
   -13.9688 -13.9521 -13.9303 -13.9026 -13.8818 -13.8573 -13.8232 -13.7852
   -13.7447 -13.5646 -13.5061 -13.4839 -13.4373 -13.3943 -13.3395 -13.2866
   -13.2647 -13.2267 -13.1993 -13.0912 -13.0752 -13.0077 -12.9620 -12.9472
   -12.9294 -12.9102 -12.8633 -12.8081 -12.7886 -12.7652 -12.7102 -12.6868
   -12.6829 -12.6683 -12.6332 -12.4961 -12.4125 -12.3045 -12.2560 -12.1772
   -12.1310 -11.7622 -11.7599 -11.7324 -11.6951 -11.6607 -11.6496 -11.6071
   -11.6031 -11.5589 -11.4968 -11.4833 -11.4691  -2.5730  -2.5126  -2.3630
    -2.2908  -2.0096  -1.9255  -1.7986  -1.6612  -1.6237  -1.6047  -1.5247
    -1.4943  -1.4126  -1.3772  -1.3001  -1.2601  -1.2214  -1.1947  -1.1367
    -1.0998  -1.0540  -1.0281  -1.0161  -0.9835  -0.9491  -0.8394  -0.7946
    -0.7588  -0.7579  -0.6726  -0.6386  -0.6180  -0.5661  -0.4822  -0.4134
    -0.3274  -0.2997  -0.1984  -0.1480  -0.0099   0.0325   0.0520   0.1346
     0.2625   0.2857   0.4110   0.4802   0.4875   0.6141   0.6628   0.8290
     0.8921   1.0045   1.0337   1.0714   1.0756   1.1251   1.1330   1.1681
     1.1874   1.1957   1.3042   1.3659   1.3988   1.4258   1.6820   1.7136
     1.7430   1.8339   1.8638   1.8831   1.8995   1.9298   1.9408   1.9631
     1.9874   2.0221   2.0556   2.0880   2.0935   2.1207   2.1715   2.2563
     2.2823   2.4633   2.4859   2.5022   2.6229   2.6340   2.6732   2.6875
     2.6936   2.7020   2.7529   2.7642   2.8182   2.8402   2.9177   2.9312
     2.9978   3.0074   3.0287   3.0319   3.0498   3.0561   3.0618   3.0622
     3.0673   3.0793   3.0974   3.0985   3.1624   3.1680   3.1831   3.2376
     4.1559   4.1779   4.1936   4.2764   4.7761   4.9171   5.0432   5.1821
     5.4313   5.4824   5.5988   5.7462   6.0450   6.0683   6.2768   6.4895
     6.8676   6.9673   7.2296   7.3382   7.3815   7.4971   7.5919   7.7720
     7.9264   8.0216   8.2176   8.2546   8.3205   8.4139   8.5057   8.6826
     8.8062   8.8295   8.8509

     occupation numbers 
     1.0000   1.0000   1.0000   1.0000   1.0000   1.0000   1.0000   1.0000
     1.0000   1.0000   1.0000   1.0000   1.0000   1.0000   1.0000   1.0000
     1.0000   1.0000   1.0000   1.0000   1.0000   1.0000   1.0000   1.0000
     1.0000   1.0000   1.0000   1.0000   1.0000   1.0000   1.0000   1.0000
     1.0000   1.0000   1.0000   1.0000   1.0000   1.0000   1.0000   1.0000
     1.0000   1.0000   1.0000   1.0000   1.0000   1.0000   1.0000   1.0000
     1.0000   1.0000   1.0000   1.0000   1.0000   1.0000   1.0000   1.0000
     1.0000   1.0000   1.0000   1.0000   1.0000   1.0000   1.0000   1.0000
     1.0000   1.0000   1.0000   1.0000   1.0000   1.0000   1.0000   1.0000
     1.0000   1.0000   1.0000   1.0000   1.0000   1.0000   1.0000   1.0000
     1.0000   1.0000   1.0000   1.0000   1.0000   1.0000   1.0000   1.0000
     1.0000   1.0000   1.0000   1.0000   1.0000   1.0000   1.0000   1.0000
     1.0000   1.0000   1.0000   1.0000   1.0000   1.0000   1.0000   1.0000
     1.0000   1.0000   1.0000   1.0000   1.0000   1.0000   1.0000   1.0000
     1.0000   1.0000   1.0000   1.0000   1.0000   1.0000   1.0000   1.0000
     1.0000   1.0000   1.0000   1.0000   1.0000   1.0000   1.0000   1.0000
     1.0000   1.0000   1.0000   1.0000   1.0000   1.0000   1.0000   1.0000
     1.0000   1.0000   1.0000   1.0000   1.0000   1.0000   1.0000   1.0000
     1.0000   1.0000   1.0000   1.0000   1.0000   1.0000   1.0000   1.0000
     1.0000   1.0000   1.0000   1.0000   1.0000   1.0000   1.0000   0.9999
     0.9999   0.9997   0.9997   0.9996   0.9996   0.9995   0.9995   0.9994
     0.9993   0.9993   0.9988   0.9984   0.9981   0.9978   0.9933   0.9923
     0.9913   0.9876   0.9861   0.9851   0.9841   0.9823   0.9815   0.9800
     0.9782   0.9753   0.9723   0.9691   0.9685   0.9656   0.9594   0.9472
     0.9429   0.9050   0.8992   0.8949   0.8585   0.8548   0.8411   0.8359
     0.8336   0.8305   0.8107   0.8062   0.7834   0.7736   0.7376   0.7310
     0.6974   0.6924   0.6812   0.6795   0.6699   0.6665   0.6634   0.6632
     0.6605   0.6539   0.6440   0.6433   0.6074   0.6042   0.5955   0.5639
     0.1146   0.1083   0.1041   0.0835   0.0168   0.0098   0.0059   0.0032
     0.0010   0.0008   0.0004   0.0002   0.0000   0.0000   0.0000   0.0000
     0.0000   0.0000   0.0000   0.0000   0.0000   0.0000   0.0000   0.0000
     0.0000   0.0000   0.0000   0.0000   0.0000   0.0000   0.0000   0.0000
     0.0000   0.0000   0.0000

          k = 0.2500 0.2500 0.0000 ( 65198 PWs)   bands (ev):

   -92.6816 -92.6294 -92.5356 -92.4886 -92.4292 -92.3879 -92.3715 -92.2521
   -56.0351 -56.0163 -55.8930 -55.8824 -55.8762 -55.8692 -55.8343 -55.8048
   -55.7903 -55.7873 -55.7792 -55.7372 -55.7188 -55.6807 -55.6620 -55.6290
   -55.6245 -55.5768 -55.5757 -55.5733 -55.5648 -55.5271 -55.5016 -55.4188
   -31.2574 -31.2415 -31.0981 -31.0363 -31.0119 -30.9531 -30.8439 -30.7283
   -29.8276 -29.7866 -29.7604 -29.6526 -14.9972 -14.9582 -14.8851 -14.7680
   -14.6492 -14.5236 -14.4510 -14.2446 -14.0897 -14.0764 -14.0401 -14.0109
   -13.9889 -13.9623 -13.9340 -13.9258 -13.8963 -13.8206 -13.8043 -13.6446
   -13.6303 -13.6008 -13.5814 -13.5282 -13.4917 -13.4310 -13.4076 -13.2756
   -13.2230 -13.2082 -13.1235 -13.0832 -13.0323 -13.0006 -12.9887 -12.9602
   -12.9282 -12.9061 -12.8937 -12.8338 -12.7843 -12.7644 -12.7307 -12.7248
   -12.6955 -12.6771 -12.6622 -12.4957 -12.4336 -12.3682 -12.2585 -12.1022
   -12.0495 -11.7805 -11.7488 -11.7379 -11.7307 -11.6684 -11.6334 -11.6269
   -11.5915 -11.5835 -11.4918 -11.4507 -11.4334  -2.6490  -2.4402  -2.3220
    -2.2284  -2.1073  -2.0424  -1.8448  -1.7002  -1.6807  -1.6515  -1.5573
    -1.5213  -1.4286  -1.4013  -1.3511  -1.2206  -1.1719  -1.0997  -1.0545
    -1.0327  -1.0078  -0.9851  -0.9610  -0.9190  -0.9038  -0.8130  -0.7631
    -0.6981  -0.6481  -0.6187  -0.5686  -0.5546  -0.4919  -0.4429  -0.3837
    -0.3502  -0.2654  -0.2137  -0.1840  -0.1451  -0.0892  -0.0202   0.0204
     0.0526   0.1289   0.2034   0.4280   0.5748   0.6103   0.6691   0.7106
     0.8010   0.8609   0.8895   0.9219   1.1941   1.2596   1.3341   1.3578
     1.4078   1.4392   1.4735   1.5098   1.5283   1.5551   1.5983   1.6085
     1.6228   1.6701   1.7131   1.7475   1.7986   1.8426   1.8515   1.8886
     1.9259   1.9803   2.0098   2.1391   2.1933   2.2280   2.2547   2.3217
     2.3874   2.4148   2.4477   2.4687   2.4799   2.5019   2.5093   2.6204
     2.6415   2.7277   2.8956   2.9125   2.9185   2.9342   2.9487   2.9625
     2.9746   2.9819   2.9932   3.0063   3.0191   3.0374   3.0444   3.0556
     3.0777   3.0893   3.0977   3.1306   3.4305   3.5238   3.5657   3.6355
     3.6660   3.8829   3.9740   4.3280   4.5311   4.7355   5.0046   5.1795
     5.6633   5.7196   5.7850   5.8547   5.9133   6.0824   6.1732   6.2281
     6.9122   6.9470   7.0943   7.2398   7.5668   7.6224   7.7296   7.8377
     7.8878   8.0137   8.1642   8.2009   8.2891   8.3501   8.4630   8.5353
     8.6138   8.6516   8.8860

     occupation numbers 
     1.0000   1.0000   1.0000   1.0000   1.0000   1.0000   1.0000   1.0000
     1.0000   1.0000   1.0000   1.0000   1.0000   1.0000   1.0000   1.0000
     1.0000   1.0000   1.0000   1.0000   1.0000   1.0000   1.0000   1.0000
     1.0000   1.0000   1.0000   1.0000   1.0000   1.0000   1.0000   1.0000
     1.0000   1.0000   1.0000   1.0000   1.0000   1.0000   1.0000   1.0000
     1.0000   1.0000   1.0000   1.0000   1.0000   1.0000   1.0000   1.0000
     1.0000   1.0000   1.0000   1.0000   1.0000   1.0000   1.0000   1.0000
     1.0000   1.0000   1.0000   1.0000   1.0000   1.0000   1.0000   1.0000
     1.0000   1.0000   1.0000   1.0000   1.0000   1.0000   1.0000   1.0000
     1.0000   1.0000   1.0000   1.0000   1.0000   1.0000   1.0000   1.0000
     1.0000   1.0000   1.0000   1.0000   1.0000   1.0000   1.0000   1.0000
     1.0000   1.0000   1.0000   1.0000   1.0000   1.0000   1.0000   1.0000
     1.0000   1.0000   1.0000   1.0000   1.0000   1.0000   1.0000   1.0000
     1.0000   1.0000   1.0000   1.0000   1.0000   1.0000   1.0000   1.0000
     1.0000   1.0000   1.0000   1.0000   1.0000   1.0000   1.0000   1.0000
     1.0000   1.0000   1.0000   1.0000   1.0000   1.0000   1.0000   1.0000
     1.0000   1.0000   1.0000   1.0000   1.0000   1.0000   1.0000   1.0000
     1.0000   1.0000   1.0000   1.0000   1.0000   1.0000   1.0000   1.0000
     1.0000   1.0000   1.0000   1.0000   1.0000   1.0000   1.0000   1.0000
     1.0000   1.0000   1.0000   1.0000   1.0000   1.0000   1.0000   1.0000
     0.9999   0.9999   0.9999   0.9998   0.9993   0.9990   0.9986   0.9984
     0.9980   0.9977   0.9973   0.9968   0.9965   0.9961   0.9953   0.9951
     0.9947   0.9936   0.9923   0.9912   0.9892   0.9872   0.9868   0.9848
     0.9825   0.9787   0.9764   0.9634   0.9565   0.9515   0.9474   0.9358
     0.9227   0.9166   0.9089   0.9036   0.9008   0.8950   0.8929   0.8593
     0.8522   0.8207   0.7482   0.7401   0.7372   0.7295   0.7223   0.7154
     0.7093   0.7056   0.6998   0.6930   0.6863   0.6766   0.6728   0.6668
     0.6548   0.6484   0.6438   0.6254   0.4500   0.3959   0.3721   0.3336
     0.3173   0.2126   0.1755   0.0724   0.0392   0.0195   0.0069   0.0032
     0.0003   0.0002   0.0001   0.0001   0.0001   0.0000   0.0000   0.0000
     0.0000   0.0000   0.0000   0.0000   0.0000   0.0000   0.0000   0.0000
     0.0000   0.0000   0.0000   0.0000   0.0000   0.0000   0.0000   0.0000
     0.0000   0.0000   0.0000

          k = 0.2500-0.5000 0.0000 ( 65138 PWs)   bands (ev):

   -92.6816 -92.6294 -92.5356 -92.4886 -92.4292 -92.3879 -92.3715 -92.2521
   -56.0351 -56.0163 -55.8930 -55.8824 -55.8762 -55.8692 -55.8343 -55.8048
   -55.7903 -55.7873 -55.7792 -55.7372 -55.7188 -55.6807 -55.6620 -55.6290
   -55.6245 -55.5768 -55.5757 -55.5733 -55.5648 -55.5271 -55.5016 -55.4188
   -31.2573 -31.2414 -31.0983 -31.0360 -31.0120 -30.9535 -30.8436 -30.7286
   -29.8270 -29.7863 -29.7610 -29.6529 -14.9604 -14.9156 -14.8461 -14.7310
   -14.6997 -14.5797 -14.4895 -14.3600 -14.0540 -14.0005 -13.9747 -13.9531
   -13.9372 -13.9300 -13.9241 -13.8874 -13.8700 -13.8368 -13.8005 -13.7725
   -13.7375 -13.6472 -13.5986 -13.5448 -13.5191 -13.4543 -13.4420 -13.3292
   -13.2734 -13.1883 -13.1236 -13.1019 -13.0164 -12.9734 -12.9694 -12.9580
   -12.9273 -12.9150 -12.8927 -12.8133 -12.7834 -12.7671 -12.7296 -12.6998
   -12.6746 -12.6364 -12.6052 -12.5028 -12.3893 -12.3020 -12.2284 -12.1671
   -12.1358 -11.7561 -11.7441 -11.7331 -11.7059 -11.6745 -11.6460 -11.6047
   -11.5773 -11.5552 -11.5100 -11.4843 -11.4732  -2.4313  -2.3644  -2.2369
    -2.1596  -2.0300  -1.9452  -1.8230  -1.6725  -1.6187  -1.5968  -1.5334
    -1.5201  -1.4232  -1.3566  -1.2717  -1.2220  -1.2125  -1.1496  -1.1073
    -1.0732  -1.0333  -1.0201  -0.9874  -0.9529  -0.9128  -0.9010  -0.8559
    -0.8269  -0.7852  -0.7530  -0.6868  -0.5847  -0.5426  -0.4677  -0.4029
    -0.3537  -0.3111  -0.2897  -0.2388  -0.0773  -0.0664   0.0440   0.0770
     0.0922   0.1402   0.1631   0.2129   0.2303   0.2938   0.5642   0.6581
     0.7677   0.8480   1.0516   1.0809   1.1659   1.1916   1.3569   1.3913
     1.4332   1.4538   1.4706   1.4907   1.5537   1.6001   1.6354   1.7225
     1.8000   1.8439   1.8663   1.8782   1.9104   1.9244   1.9300   1.9754
     1.9884   2.0038   2.0556   2.0636   2.0805   2.1173   2.1720   2.2117
     2.2886   2.4299   2.4856   2.4901   2.5770   2.5986   2.6246   2.6397
     2.6623   2.6904   2.7112   2.7272   2.7497   2.8465   2.8948   2.9142
     2.9190   2.9317   2.9522   2.9664   2.9850   2.9927   3.0248   3.0372
     3.0511   3.0618   3.0717   3.0809   3.6091   3.6144   3.7618   3.8115
     4.1633   4.1999   4.2189   4.3343   4.7937   4.9398   5.0815   5.1536
     5.3238   5.4492   5.6223   5.6568   5.7865   5.8057   6.3755   6.4117
     6.5030   6.6282   7.2000   7.4072   7.5585   7.7204   7.7526   7.8319
     7.8973   8.0575   8.2362   8.4231   8.4794   8.5487   8.5707   8.5856
     8.6930   8.7315   8.7762

     occupation numbers 
     1.0000   1.0000   1.0000   1.0000   1.0000   1.0000   1.0000   1.0000
     1.0000   1.0000   1.0000   1.0000   1.0000   1.0000   1.0000   1.0000
     1.0000   1.0000   1.0000   1.0000   1.0000   1.0000   1.0000   1.0000
     1.0000   1.0000   1.0000   1.0000   1.0000   1.0000   1.0000   1.0000
     1.0000   1.0000   1.0000   1.0000   1.0000   1.0000   1.0000   1.0000
     1.0000   1.0000   1.0000   1.0000   1.0000   1.0000   1.0000   1.0000
     1.0000   1.0000   1.0000   1.0000   1.0000   1.0000   1.0000   1.0000
     1.0000   1.0000   1.0000   1.0000   1.0000   1.0000   1.0000   1.0000
     1.0000   1.0000   1.0000   1.0000   1.0000   1.0000   1.0000   1.0000
     1.0000   1.0000   1.0000   1.0000   1.0000   1.0000   1.0000   1.0000
     1.0000   1.0000   1.0000   1.0000   1.0000   1.0000   1.0000   1.0000
     1.0000   1.0000   1.0000   1.0000   1.0000   1.0000   1.0000   1.0000
     1.0000   1.0000   1.0000   1.0000   1.0000   1.0000   1.0000   1.0000
     1.0000   1.0000   1.0000   1.0000   1.0000   1.0000   1.0000   1.0000
     1.0000   1.0000   1.0000   1.0000   1.0000   1.0000   1.0000   1.0000
     1.0000   1.0000   1.0000   1.0000   1.0000   1.0000   1.0000   1.0000
     1.0000   1.0000   1.0000   1.0000   1.0000   1.0000   1.0000   1.0000
     1.0000   1.0000   1.0000   1.0000   1.0000   1.0000   1.0000   1.0000
     1.0000   1.0000   1.0000   1.0000   1.0000   1.0000   1.0000   1.0000
     1.0000   1.0000   1.0000   1.0000   1.0000   1.0000   1.0000   1.0000
     0.9999   0.9999   0.9997   0.9996   0.9994   0.9993   0.9984   0.9981
     0.9977   0.9975   0.9973   0.9971   0.9961   0.9952   0.9945   0.9920
     0.9891   0.9871   0.9860   0.9853   0.9835   0.9826   0.9822   0.9791
     0.9781   0.9769   0.9723   0.9715   0.9699   0.9660   0.9594   0.9539
     0.9418   0.9131   0.8993   0.8981   0.8732   0.8664   0.8579   0.8528
     0.8450   0.8348   0.8270   0.8209   0.8120   0.7708   0.7485   0.7393
     0.7369   0.7308   0.7206   0.7135   0.7040   0.7001   0.6833   0.6766
     0.6692   0.6634   0.6581   0.6530   0.3480   0.3451   0.2684   0.2447
     0.1124   0.1024   0.0974   0.0711   0.0158   0.0090   0.0050   0.0036
     0.0017   0.0009   0.0004   0.0003   0.0001   0.0001   0.0000   0.0000
     0.0000   0.0000   0.0000   0.0000   0.0000   0.0000   0.0000   0.0000
     0.0000   0.0000   0.0000   0.0000   0.0000   0.0000   0.0000   0.0000
     0.0000   0.0000   0.0000

          k =-0.5000-0.5000 0.0000 ( 65132 PWs)   bands (ev):

   -92.6816 -92.6294 -92.5356 -92.4886 -92.4292 -92.3879 -92.3715 -92.2521
   -56.0351 -56.0163 -55.8930 -55.8824 -55.8762 -55.8692 -55.8343 -55.8048
   -55.7903 -55.7873 -55.7792 -55.7372 -55.7188 -55.6807 -55.6620 -55.6290
   -55.6245 -55.5768 -55.5757 -55.5733 -55.5648 -55.5271 -55.5016 -55.4187
   -31.2551 -31.2436 -31.0979 -31.0358 -31.0124 -30.9533 -30.8438 -30.7287
   -29.8260 -29.7873 -29.7606 -29.6533 -14.9139 -14.8886 -14.7709 -14.7586
   -14.6626 -14.6270 -14.5928 -14.4596 -13.9648 -13.9541 -13.9298 -13.9187
   -13.9008 -13.8827 -13.8678 -13.8410 -13.8279 -13.8140 -13.8074 -13.7909
   -13.7140 -13.7077 -13.6754 -13.6433 -13.6358 -13.5404 -13.5132 -13.3720
   -13.3116 -13.1390 -13.0992 -13.0313 -13.0069 -12.9728 -12.9659 -12.9565
   -12.9456 -12.9366 -12.8906 -12.8013 -12.7810 -12.7713 -12.7499 -12.7150
   -12.6883 -12.5864 -12.5784 -12.5192 -12.3681 -12.2984 -12.1968 -12.1565
   -12.1456 -11.7525 -11.7403 -11.7224 -11.7057 -11.6707 -11.6531 -11.6182
   -11.5576 -11.5375 -11.5323 -11.4820 -11.4791  -2.2071  -2.1320  -2.1217
    -2.0469  -2.0104  -1.9324  -1.8647  -1.7385  -1.6229  -1.5931  -1.5532
    -1.4960  -1.4242  -1.4096  -1.3392  -1.2958  -1.1797  -1.1508  -1.1020
    -1.0732  -1.0307  -1.0085  -0.9631  -0.9442  -0.9322  -0.8765  -0.8337
    -0.8184  -0.7053  -0.6477  -0.6016  -0.5521  -0.5217  -0.5120  -0.4778
    -0.4344  -0.4005  -0.3891  -0.3025  -0.2387  -0.1911  -0.1669  -0.0925
    -0.0373  -0.0230   0.0344   0.0666   0.0740   0.1189   0.5365   0.5733
     0.6951   0.8003   1.0861   1.1002   1.1296   1.1691   1.4424   1.4629
     1.4698   1.5089   1.6354   1.7310   1.7577   1.7933   1.8123   1.8425
     1.8480   1.8775   1.8857   1.9006   1.9158   1.9679   1.9716   2.0010
     2.0147   2.0393   2.0492   2.0858   2.1121   2.1310   2.1599   2.1929
     2.2505   2.3223   2.4853   2.4882   2.5937   2.6202   2.6412   2.6568
     2.6747   2.6987   2.7016   2.7210   2.7323   2.7492   2.7696   2.7808
     2.8473   2.8495   2.8718   2.8859   2.8975   2.9175   2.9214   2.9316
     3.0339   3.0378   3.0688   3.0789   4.0463   4.0692   4.0819   4.0865
     4.3407   4.4180   4.4377   4.6785   4.8005   4.8834   5.0122   5.0963
     5.1233   5.2258   5.3179   5.4310   5.8684   5.8967   5.9743   6.0456
     6.6000   6.8124   6.9946   7.0471   7.8721   7.9206   7.9331   7.9539
     7.9950   8.0382   8.1087   8.2808   8.3986   8.6034   8.6339   8.6765
     8.6946   8.8166   8.8294

     occupation numbers 
     1.0000   1.0000   1.0000   1.0000   1.0000   1.0000   1.0000   1.0000
     1.0000   1.0000   1.0000   1.0000   1.0000   1.0000   1.0000   1.0000
     1.0000   1.0000   1.0000   1.0000   1.0000   1.0000   1.0000   1.0000
     1.0000   1.0000   1.0000   1.0000   1.0000   1.0000   1.0000   1.0000
     1.0000   1.0000   1.0000   1.0000   1.0000   1.0000   1.0000   1.0000
     1.0000   1.0000   1.0000   1.0000   1.0000   1.0000   1.0000   1.0000
     1.0000   1.0000   1.0000   1.0000   1.0000   1.0000   1.0000   1.0000
     1.0000   1.0000   1.0000   1.0000   1.0000   1.0000   1.0000   1.0000
     1.0000   1.0000   1.0000   1.0000   1.0000   1.0000   1.0000   1.0000
     1.0000   1.0000   1.0000   1.0000   1.0000   1.0000   1.0000   1.0000
     1.0000   1.0000   1.0000   1.0000   1.0000   1.0000   1.0000   1.0000
     1.0000   1.0000   1.0000   1.0000   1.0000   1.0000   1.0000   1.0000
     1.0000   1.0000   1.0000   1.0000   1.0000   1.0000   1.0000   1.0000
     1.0000   1.0000   1.0000   1.0000   1.0000   1.0000   1.0000   1.0000
     1.0000   1.0000   1.0000   1.0000   1.0000   1.0000   1.0000   1.0000
     1.0000   1.0000   1.0000   1.0000   1.0000   1.0000   1.0000   1.0000
     1.0000   1.0000   1.0000   1.0000   1.0000   1.0000   1.0000   1.0000
     1.0000   1.0000   1.0000   1.0000   1.0000   1.0000   1.0000   1.0000
     1.0000   1.0000   1.0000   1.0000   1.0000   1.0000   1.0000   1.0000
     1.0000   1.0000   1.0000   1.0000   1.0000   1.0000   1.0000   1.0000
     1.0000   0.9999   0.9996   0.9996   0.9995   0.9994   0.9976   0.9974
     0.9973   0.9968   0.9945   0.9918   0.9908   0.9894   0.9886   0.9872
     0.9869   0.9854   0.9849   0.9841   0.9831   0.9796   0.9794   0.9771
     0.9760   0.9738   0.9729   0.9693   0.9665   0.9644   0.9609   0.9566
     0.9481   0.9357   0.8994   0.8986   0.8680   0.8594   0.8523   0.8469
     0.8405   0.8318   0.8307   0.8233   0.8189   0.8122   0.8039   0.7993
     0.7705   0.7695   0.7593   0.7527   0.7472   0.7377   0.7358   0.7308
     0.6784   0.6763   0.6596   0.6541   0.1492   0.1414   0.1372   0.1358
     0.0698   0.0557   0.0525   0.0239   0.0154   0.0112   0.0067   0.0047
     0.0042   0.0026   0.0017   0.0010   0.0001   0.0001   0.0000   0.0000
     0.0000   0.0000   0.0000   0.0000   0.0000   0.0000   0.0000   0.0000
     0.0000   0.0000   0.0000   0.0000   0.0000   0.0000   0.0000   0.0000
     0.0000   0.0000   0.0000

          k = 0.2500 0.0000 0.0000 ( 65257 PWs)   bands (ev):

   -92.6816 -92.6294 -92.5356 -92.4886 -92.4292 -92.3879 -92.3715 -92.2521
   -56.0351 -56.0163 -55.8930 -55.8824 -55.8762 -55.8692 -55.8343 -55.8049
   -55.7903 -55.7873 -55.7792 -55.7372 -55.7188 -55.6807 -55.6620 -55.6290
   -55.6245 -55.5768 -55.5757 -55.5733 -55.5648 -55.5271 -55.5016 -55.4188
   -31.2576 -31.2416 -31.0979 -31.0367 -31.0118 -30.9528 -30.8441 -30.7280
   -29.8282 -29.7869 -29.7598 -29.6522 -15.0295 -14.9886 -14.9185 -14.7712
[...]
     0.3493   0.3244   0.2052   0.0781   0.0464   0.0218   0.0060   0.0049
     0.0003   0.0001   0.0001   0.0000   0.0000   0.0000   0.0000   0.0000
     0.0000   0.0000   0.0000   0.0000   0.0000   0.0000   0.0000   0.0000
     0.0000   0.0000   0.0000   0.0000   0.0000   0.0000   0.0000   0.0000
     0.0000   0.0000   0.0000

          k =-0.5000 0.0000 0.0000 ( 65180 PWs)   bands (ev):

   -92.6816 -92.6294 -92.5356 -92.4886 -92.4292 -92.3879 -92.3715 -92.2521
   -56.0351 -56.0163 -55.8930 -55.8824 -55.8762 -55.8692 -55.8343 -55.8048
   -55.7903 -55.7873 -55.7792 -55.7372 -55.7188 -55.6807 -55.6620 -55.6290
   -55.6245 -55.5768 -55.5757 -55.5733 -55.5648 -55.5271 -55.5016 -55.4188
   -31.2555 -31.2438 -31.0975 -31.0365 -31.0122 -30.9526 -30.8443 -30.7281
   -29.8272 -29.7879 -29.7594 -29.6526 -14.9961 -14.9444 -14.8824 -14.7733
   -14.6700 -14.5250 -14.3815 -14.2369 -14.1132 -14.1007 -14.0893 -14.0287
   -13.9735 -13.9409 -13.9299 -13.8911 -13.8850 -13.8670 -13.8188 -13.7976
   -13.6933 -13.5360 -13.5087 -13.4758 -13.4680 -13.4116 -13.3456 -13.2785
   -13.2493 -13.2258 -13.1945 -13.0358 -13.0284 -13.0214 -12.9985 -12.9895
   -12.9412 -12.9248 -12.9062 -12.8444 -12.8298 -12.7507 -12.6758 -12.6511
   -12.6383 -12.6216 -12.6122 -12.5223 -12.4418 -12.3085 -12.2911 -12.1624
   -12.1212 -11.7595 -11.7380 -11.7313 -11.7166 -11.6986 -11.6574 -11.5943
   -11.5768 -11.5439 -11.4994 -11.4900 -11.4745  -2.5626  -2.5240  -2.3604
    -2.3213  -2.0081  -1.9328  -1.7848  -1.6670  -1.6284  -1.5812  -1.5343
    -1.5093  -1.3864  -1.3423  -1.3262  -1.2441  -1.2087  -1.1927  -1.1623
    -1.1042  -1.0417  -1.0251  -1.0064  -0.9772  -0.8824  -0.8352  -0.7861
    -0.7540  -0.7325  -0.7016  -0.6546  -0.6290  -0.5917  -0.4937  -0.4149
    -0.3553  -0.2923  -0.1330  -0.0726  -0.0374  -0.0048   0.0524   0.0773
     0.2167   0.2494   0.3255   0.4588   0.5579   0.6053   0.7240   0.7599
     0.8834   0.9153   1.0217   1.0499   1.1046   1.1382   1.1755   1.1822
     1.2299   1.2519   1.3190   1.3686   1.4150   1.4248   1.7229   1.7380
     1.7447   1.7637   1.8728   1.8873   1.9008   1.9122   1.9433   1.9565
     1.9960   2.0203   2.0440   2.0967   2.1129   2.1634   2.1891   2.2426
     2.3486   2.4462   2.4853   2.5138   2.5225   2.5349   2.6294   2.6457
     2.6788   2.7449   2.7519   2.7585   2.7879   2.8570   2.9006   2.9480
     2.9735   3.0206   3.0235   3.0266   3.0364   3.0538   3.0636   3.0769
     3.0820   3.1020   3.1081   3.1282   3.1483   3.1530   3.2816   3.2904
     4.1253   4.1416   4.2019   4.3411   4.8094   4.8792   5.0637   5.0726
     5.4990   5.5278   5.6145   5.6704   6.0505   6.0535   6.3273   6.4232
     6.8119   7.0192   7.2826   7.3115   7.3496   7.4334   7.7364   7.7943
     7.9018   8.0164   8.1105   8.3101   8.3705   8.4332   8.5351   8.6434
     8.7788   8.8320   8.8954

     occupation numbers 
     1.0000   1.0000   1.0000   1.0000   1.0000   1.0000   1.0000   1.0000
     1.0000   1.0000   1.0000   1.0000   1.0000   1.0000   1.0000   1.0000
     1.0000   1.0000   1.0000   1.0000   1.0000   1.0000   1.0000   1.0000
     1.0000   1.0000   1.0000   1.0000   1.0000   1.0000   1.0000   1.0000
     1.0000   1.0000   1.0000   1.0000   1.0000   1.0000   1.0000   1.0000
     1.0000   1.0000   1.0000   1.0000   1.0000   1.0000   1.0000   1.0000
     1.0000   1.0000   1.0000   1.0000   1.0000   1.0000   1.0000   1.0000
     1.0000   1.0000   1.0000   1.0000   1.0000   1.0000   1.0000   1.0000
     1.0000   1.0000   1.0000   1.0000   1.0000   1.0000   1.0000   1.0000
     1.0000   1.0000   1.0000   1.0000   1.0000   1.0000   1.0000   1.0000
     1.0000   1.0000   1.0000   1.0000   1.0000   1.0000   1.0000   1.0000
     1.0000   1.0000   1.0000   1.0000   1.0000   1.0000   1.0000   1.0000
     1.0000   1.0000   1.0000   1.0000   1.0000   1.0000   1.0000   1.0000
     1.0000   1.0000   1.0000   1.0000   1.0000   1.0000   1.0000   1.0000
     1.0000   1.0000   1.0000   1.0000   1.0000   1.0000   1.0000   1.0000
     1.0000   1.0000   1.0000   1.0000   1.0000   1.0000   1.0000   1.0000
     1.0000   1.0000   1.0000   1.0000   1.0000   1.0000   1.0000   1.0000
     1.0000   1.0000   1.0000   1.0000   1.0000   1.0000   1.0000   1.0000
     1.0000   1.0000   1.0000   1.0000   1.0000   1.0000   1.0000   1.0000
     1.0000   1.0000   1.0000   1.0000   1.0000   1.0000   1.0000   0.9999
     0.9999   0.9998   0.9997   0.9997   0.9996   0.9995   0.9994   0.9993
     0.9992   0.9991   0.9987   0.9983   0.9979   0.9978   0.9920   0.9915
     0.9913   0.9906   0.9856   0.9848   0.9841   0.9834   0.9814   0.9805
     0.9775   0.9755   0.9734   0.9682   0.9664   0.9605   0.9571   0.9493
     0.9307   0.9092   0.8994   0.8917   0.8893   0.8858   0.8563   0.8508
     0.8391   0.8139   0.8111   0.8085   0.7963   0.7661   0.7458   0.7227
     0.7099   0.6855   0.6840   0.6823   0.6771   0.6678   0.6625   0.6552
     0.6524   0.6414   0.6380   0.6268   0.6154   0.6128   0.5380   0.5328
     0.1236   0.1187   0.1019   0.0697   0.0149   0.0114   0.0054   0.0052
     0.0007   0.0006   0.0004   0.0003   0.0000   0.0000   0.0000   0.0000
     0.0000   0.0000   0.0000   0.0000   0.0000   0.0000   0.0000   0.0000
     0.0000   0.0000   0.0000   0.0000   0.0000   0.0000   0.0000   0.0000
     0.0000   0.0000   0.0000

          k =-0.2500 0.2500 0.0000 ( 65198 PWs)   bands (ev):

   -92.6816 -92.6294 -92.5356 -92.4886 -92.4292 -92.3879 -92.3715 -92.2521
   -56.0351 -56.0163 -55.8930 -55.8824 -55.8762 -55.8692 -55.8343 -55.8048
   -55.7903 -55.7873 -55.7792 -55.7372 -55.7188 -55.6807 -55.6620 -55.6290
   -55.6245 -55.5768 -55.5757 -55.5733 -55.5648 -55.5271 -55.5016 -55.4188
   -31.2574 -31.2415 -31.0981 -31.0363 -31.0119 -30.9531 -30.8439 -30.7283
   -29.8276 -29.7866 -29.7604 -29.6526 -14.9985 -14.9571 -14.8837 -14.7663
   -14.6552 -14.5285 -14.4429 -14.2357 -14.0962 -14.0671 -14.0533 -14.0062
   -13.9820 -13.9626 -13.9464 -13.9310 -13.8977 -13.8160 -13.8049 -13.6536
   -13.6267 -13.5982 -13.5776 -13.5317 -13.4781 -13.4241 -13.4163 -13.2840
   -13.2201 -13.2026 -13.1277 -13.0849 -13.0214 -12.9950 -12.9818 -12.9677
   -12.9310 -12.9081 -12.8845 -12.8527 -12.7932 -12.7756 -12.7517 -12.7253
   -12.6785 -12.6688 -12.6523 -12.4749 -12.4234 -12.3886 -12.2642 -12.1057
   -12.0448 -11.7797 -11.7581 -11.7310 -11.7188 -11.6779 -11.6431 -11.6201
   -11.5986 -11.5761 -11.4916 -11.4463 -11.4365  -2.6474  -2.4392  -2.3178
    -2.2301  -2.1115  -2.0452  -1.8424  -1.6970  -1.6784  -1.6495  -1.5579
    -1.5201  -1.4285  -1.3946  -1.3686  -1.2264  -1.1699  -1.1020  -1.0738
    -1.0347  -1.0099  -0.9905  -0.9513  -0.9227  -0.8827  -0.8191  -0.7720
    -0.7091  -0.6398  -0.6146  -0.5633  -0.5346  -0.4891  -0.4324  -0.3875
    -0.3450  -0.2473  -0.2122  -0.2028  -0.1579  -0.0920  -0.0238   0.0244
     0.0573   0.1320   0.2034   0.4091   0.5790   0.6182   0.6571   0.7176
     0.7991   0.8663   0.8941   0.9206   1.2021   1.3104   1.3503   1.3824
     1.3896   1.4317   1.4479   1.4929   1.5228   1.5384   1.5635   1.6073
     1.6225   1.6686   1.6875   1.7320   1.8113   1.8328   1.8519   1.8959
     1.9209   1.9595   2.0191   2.1273   2.2219   2.2532   2.2998   2.3202
     2.3867   2.4273   2.4503   2.4712   2.4808   2.5043   2.5140   2.6204
     2.6399   2.7274   2.9019   2.9108   2.9239   2.9340   2.9447   2.9585
     2.9649   2.9835   2.9931   3.0064   3.0165   3.0286   3.0385   3.0471
     3.0793   3.0893   3.0972   3.1324   3.4239   3.5057   3.5683   3.6454
     3.6677   3.8687   3.9827   4.3274   4.5288   4.7364   5.0146   5.1795
     5.6647   5.7169   5.7876   5.8517   5.9142   6.0833   6.1834   6.2161
     6.9073   6.9596   7.0892   7.2359   7.5813   7.6291   7.6900   7.8467
     7.9130   7.9884   8.1610   8.2072   8.3119   8.3513   8.4658   8.5196
     8.5986   8.6734   8.8861

     occupation numbers 
     1.0000   1.0000   1.0000   1.0000   1.0000   1.0000   1.0000   1.0000
     1.0000   1.0000   1.0000   1.0000   1.0000   1.0000   1.0000   1.0000
     1.0000   1.0000   1.0000   1.0000   1.0000   1.0000   1.0000   1.0000
     1.0000   1.0000   1.0000   1.0000   1.0000   1.0000   1.0000   1.0000
     1.0000   1.0000   1.0000   1.0000   1.0000   1.0000   1.0000   1.0000
     1.0000   1.0000   1.0000   1.0000   1.0000   1.0000   1.0000   1.0000
     1.0000   1.0000   1.0000   1.0000   1.0000   1.0000   1.0000   1.0000
     1.0000   1.0000   1.0000   1.0000   1.0000   1.0000   1.0000   1.0000
     1.0000   1.0000   1.0000   1.0000   1.0000   1.0000   1.0000   1.0000
     1.0000   1.0000   1.0000   1.0000   1.0000   1.0000   1.0000   1.0000
     1.0000   1.0000   1.0000   1.0000   1.0000   1.0000   1.0000   1.0000
     1.0000   1.0000   1.0000   1.0000   1.0000   1.0000   1.0000   1.0000
     1.0000   1.0000   1.0000   1.0000   1.0000   1.0000   1.0000   1.0000
     1.0000   1.0000   1.0000   1.0000   1.0000   1.0000   1.0000   1.0000
     1.0000   1.0000   1.0000   1.0000   1.0000   1.0000   1.0000   1.0000
     1.0000   1.0000   1.0000   1.0000   1.0000   1.0000   1.0000   1.0000
     1.0000   1.0000   1.0000   1.0000   1.0000   1.0000   1.0000   1.0000
     1.0000   1.0000   1.0000   1.0000   1.0000   1.0000   1.0000   1.0000
     1.0000   1.0000   1.0000   1.0000   1.0000   1.0000   1.0000   1.0000
     1.0000   1.0000   1.0000   1.0000   1.0000   1.0000   1.0000   1.0000
     0.9999   0.9999   0.9999   0.9998   0.9993   0.9987   0.9985   0.9982
     0.9982   0.9978   0.9976   0.9970   0.9966   0.9964   0.9959   0.9951
     0.9948   0.9936   0.9931   0.9917   0.9887   0.9877   0.9867   0.9843
     0.9828   0.9802   0.9756   0.9648   0.9524   0.9477   0.9398   0.9361
     0.9228   0.9137   0.9082   0.9030   0.9005   0.8943   0.8916   0.8593
     0.8528   0.8208   0.7451   0.7409   0.7346   0.7296   0.7243   0.7175
     0.7142   0.7048   0.6999   0.6929   0.6876   0.6813   0.6760   0.6714
     0.6539   0.6484   0.6440   0.6244   0.4539   0.4062   0.3706   0.3283
     0.3164   0.2188   0.1722   0.0725   0.0395   0.0195   0.0066   0.0032
     0.0003   0.0002   0.0001   0.0001   0.0001   0.0000   0.0000   0.0000
     0.0000   0.0000   0.0000   0.0000   0.0000   0.0000   0.0000   0.0000
     0.0000   0.0000   0.0000   0.0000   0.0000   0.0000   0.0000   0.0000
     0.0000   0.0000   0.0000

          k =-0.5000 0.2500 0.0000 ( 65138 PWs)   bands (ev):

   -92.6816 -92.6294 -92.5356 -92.4886 -92.4292 -92.3879 -92.3715 -92.2521
   -56.0351 -56.0163 -55.8930 -55.8824 -55.8762 -55.8692 -55.8343 -55.8048
   -55.7903 -55.7873 -55.7792 -55.7372 -55.7188 -55.6807 -55.6620 -55.6290
   -55.6245 -55.5768 -55.5757 -55.5733 -55.5648 -55.5271 -55.5016 -55.4187
   -31.2553 -31.2437 -31.0977 -31.0362 -31.0123 -30.9530 -30.8440 -30.7284
   -29.8266 -29.7876 -29.7600 -29.6530 -14.9633 -14.9181 -14.8395 -14.7397
   -14.6986 -14.5719 -14.4848 -14.3541 -14.0466 -14.0159 -14.0043 -13.9602
   -13.9383 -13.9296 -13.9135 -13.8771 -13.8703 -13.8456 -13.8065 -13.7949
   -13.6856 -13.6187 -13.5697 -13.5666 -13.5527 -13.4641 -13.4499 -13.3216
   -13.2593 -13.1816 -13.1455 -13.0490 -13.0088 -12.9972 -12.9829 -12.9652
   -12.9341 -12.9208 -12.8932 -12.8644 -12.7877 -12.7634 -12.7085 -12.6822
   -12.6636 -12.6035 -12.5956 -12.5205 -12.4013 -12.3038 -12.2477 -12.1566
   -12.1307 -11.7523 -11.7396 -11.7254 -11.7135 -11.6922 -11.6621 -11.5813
   -11.5729 -11.5495 -11.5138 -11.4858 -11.4769  -2.4204  -2.3783  -2.2301
    -2.1879  -2.0273  -1.9512  -1.8090  -1.6731  -1.6167  -1.5889  -1.5506
    -1.5118  -1.4316  -1.3162  -1.2591  -1.2358  -1.2099  -1.1329  -1.1051
    -1.0670  -1.0496  -1.0298  -0.9883  -0.9593  -0.9203  -0.8849  -0.8563
    -0.7980  -0.7714  -0.7298  -0.6949  -0.5899  -0.5647  -0.4752  -0.4111
    -0.3815  -0.3249  -0.2375  -0.2080  -0.1047  -0.0724  -0.0068   0.0383
     0.0654   0.1382   0.1761   0.2254   0.2543   0.2900   0.6069   0.6535
     0.7409   0.8246   1.0326   1.0981   1.1665   1.1933   1.3715   1.4060
     1.4441   1.4565   1.4752   1.4923   1.5606   1.6050   1.6432   1.6749
     1.7887   1.8301   1.8641   1.8799   1.9133   1.9352   1.9526   1.9721
     1.9883   2.0104   2.0600   2.0715   2.1088   2.1317   2.1639   2.2225
     2.3394   2.4382   2.4645   2.4873   2.5055   2.5360   2.5727   2.6463
     2.6723   2.6801   2.7175   2.7489   2.7727   2.8572   2.8986   2.9109
     2.9166   2.9376   2.9604   2.9732   2.9872   2.9998   3.0213   3.0355
     3.0446   3.0527   3.0657   3.0784   3.6090   3.6410   3.7965   3.8146
     4.1247   4.1645   4.2151   4.4249   4.8041   4.8974   5.0663   5.0975
     5.4253   5.4507   5.6040   5.6383   5.7644   5.8119   6.4026   6.4291
     6.5046   6.5506   7.2868   7.3579   7.5675   7.7266   7.7525   7.8154
     7.9085   8.0425   8.2206   8.4456   8.5211   8.5314   8.5873   8.6136
     8.6627   8.6904   8.7705

     occupation numbers 
     1.0000   1.0000   1.0000   1.0000   1.0000   1.0000   1.0000   1.0000
     1.0000   1.0000   1.0000   1.0000   1.0000   1.0000   1.0000   1.0000
     1.0000   1.0000   1.0000   1.0000   1.0000   1.0000   1.0000   1.0000
     1.0000   1.0000   1.0000   1.0000   1.0000   1.0000   1.0000   1.0000
     1.0000   1.0000   1.0000   1.0000   1.0000   1.0000   1.0000   1.0000
     1.0000   1.0000   1.0000   1.0000   1.0000   1.0000   1.0000   1.0000
     1.0000   1.0000   1.0000   1.0000   1.0000   1.0000   1.0000   1.0000
     1.0000   1.0000   1.0000   1.0000   1.0000   1.0000   1.0000   1.0000
     1.0000   1.0000   1.0000   1.0000   1.0000   1.0000   1.0000   1.0000
     1.0000   1.0000   1.0000   1.0000   1.0000   1.0000   1.0000   1.0000
     1.0000   1.0000   1.0000   1.0000   1.0000   1.0000   1.0000   1.0000
     1.0000   1.0000   1.0000   1.0000   1.0000   1.0000   1.0000   1.0000
     1.0000   1.0000   1.0000   1.0000   1.0000   1.0000   1.0000   1.0000
     1.0000   1.0000   1.0000   1.0000   1.0000   1.0000   1.0000   1.0000
     1.0000   1.0000   1.0000   1.0000   1.0000   1.0000   1.0000   1.0000
     1.0000   1.0000   1.0000   1.0000   1.0000   1.0000   1.0000   1.0000
     1.0000   1.0000   1.0000   1.0000   1.0000   1.0000   1.0000   1.0000
     1.0000   1.0000   1.0000   1.0000   1.0000   1.0000   1.0000   1.0000
     1.0000   1.0000   1.0000   1.0000   1.0000   1.0000   1.0000   1.0000
     1.0000   1.0000   1.0000   1.0000   1.0000   1.0000   1.0000   1.0000
     0.9999   0.9999   0.9997   0.9996   0.9994   0.9993   0.9983   0.9980
     0.9976   0.9975   0.9973   0.9970   0.9960   0.9951   0.9943   0.9935
     0.9896   0.9878   0.9861   0.9853   0.9833   0.9819   0.9807   0.9793
     0.9781   0.9763   0.9719   0.9708   0.9669   0.9643   0.9604   0.9524
     0.9325   0.9112   0.9047   0.8988   0.8940   0.8854   0.8745   0.8506
     0.8414   0.8386   0.8246   0.8123   0.8026   0.7660   0.7467   0.7409
     0.7381   0.7278   0.7165   0.7100   0.7028   0.6964   0.6851   0.6776
     0.6727   0.6684   0.6614   0.6544   0.3480   0.3306   0.2517   0.2432
     0.1238   0.1121   0.0984   0.0546   0.0152   0.0106   0.0053   0.0046
     0.0010   0.0009   0.0004   0.0003   0.0002   0.0001   0.0000   0.0000
     0.0000   0.0000   0.0000   0.0000   0.0000   0.0000   0.0000   0.0000
     0.0000   0.0000   0.0000   0.0000   0.0000   0.0000   0.0000   0.0000
     0.0000   0.0000   0.0000

     the Fermi energy is     3.3459 ev

!    total energy              =   -4441.64837778 Ry
     estimated scf accuracy    <          6.6E-09 Ry
     smearing contrib. (-TS)   =      -1.15482078 Ry
     internal energy E=F+TS    =   -4440.49355700 Ry

     The total energy is F=E-TS. E is the sum of the following terms:
     one-electron contribution =  -20804.04556339 Ry
     hartree contribution      =   10534.26547253 Ry
     xc contribution           =    -694.17802385 Ry
     ewald contribution        =    6799.63643667 Ry
     one-center paw contrib.   =    -276.17187895 Ry
      -> PAW hartree energy AE =      25.17885825 Ry
      -> PAW hartree energy PS =     -25.06259622 Ry
      -> PAW xc energy AE      =     -16.51974382 Ry
      -> PAW xc energy PS      =       6.87932142 Ry
      -> total E_H with PAW    =   10534.38173456 Ry
      -> total E_XC with PAW   =    -703.81844624 Ry

     convergence has been achieved in  48 iterations

     Writing all to output data dir /bsuhome/zayahcortright/scratch/pwscf.save/
 
     init_run     :      7.71s CPU      9.30s WALL (       1 calls)
     electrons    :    772.02s CPU    853.10s WALL (       1 calls)

     Called by init_run:
     wfcinit      :      6.37s CPU      7.04s WALL (       1 calls)
     wfcinit:atom :      0.05s CPU      0.07s WALL (       5 calls)
     wfcinit:wfcr :      6.04s CPU      6.62s WALL (       5 calls)
     potinit      :      0.16s CPU      0.36s WALL (       1 calls)
     hinit0       :      0.31s CPU      0.76s WALL (       1 calls)

     Called by electrons:
     c_bands      :    622.57s CPU    634.02s WALL (      48 calls)
     sum_band     :    111.39s CPU    149.50s WALL (      48 calls)
     v_of_rho     :      5.31s CPU      5.69s WALL (      49 calls)
     v_h          :      0.46s CPU      0.47s WALL (      49 calls)
     v_xc         :      4.85s CPU      5.22s WALL (      49 calls)
     newd         :     18.02s CPU     48.82s WALL (      49 calls)
     PAW_pot      :      1.65s CPU      1.77s WALL (      49 calls)
     mix_rho      :     12.72s CPU     13.11s WALL (      48 calls)

     Called by c_bands:
     init_us_2    :      6.49s CPU      6.59s WALL (     485 calls)
     init_us_2:cp :      6.49s CPU      6.58s WALL (     485 calls)
     cegterg      :    590.43s CPU    601.51s WALL (     240 calls)

     Called by sum_band:
     sum_band:wei :      0.36s CPU      0.36s WALL (      48 calls)
     sum_band:loo :     89.98s CPU     90.65s WALL (      48 calls)
     sum_band:buf :      1.33s CPU      1.39s WALL (     240 calls)
     sum_band:ini :      2.82s CPU      2.83s WALL (     240 calls)
     sum_band:cal :     18.85s CPU     18.92s WALL (     240 calls)
     sum_band:bec :      0.57s CPU      0.59s WALL (     240 calls)
     addusdens    :     17.62s CPU     54.96s WALL (      48 calls)
                                        0.00s GPU  (      48 calls)
     addusd:skk   :      0.29s CPU      2.20s WALL (     192 calls)
                                        0.00s GPU  (     192 calls)

     Called by *egterg:
     cdiaghg      :     56.77s CPU     57.43s WALL (    1291 calls)
     cegterg:over :     44.35s CPU     44.51s WALL (    1051 calls)
     cegterg:upda :     48.52s CPU     49.35s WALL (    1051 calls)
     cegterg:last :     69.37s CPU     69.65s WALL (     436 calls)
     cdiaghg:chol :      3.14s CPU      3.58s WALL (    1291 calls)
     cdiaghg:inve :      3.30s CPU      3.32s WALL (    1291 calls)
     cdiaghg:para :      7.30s CPU      7.35s WALL (    2582 calls)
     h_psi        :    304.00s CPU    308.59s WALL (    1296 calls)
     s_psi        :     42.12s CPU     42.25s WALL (    1296 calls)
     g_psi        :      2.28s CPU      2.29s WALL (    1051 calls)

     Called by h_psi:
     h_psi:calbec :     45.19s CPU     45.43s WALL (    1296 calls)
     vloc_psi     :    211.90s CPU    213.94s WALL (    1296 calls)
     add_vuspsi   :     41.99s CPU     42.22s WALL (    1296 calls)

     General routines
     calbec       :     64.03s CPU     64.34s WALL (    1536 calls)
     fft          :      5.16s CPU      5.32s WALL (     635 calls)
     ffts         :      4.84s CPU      4.97s WALL (    5202 calls)
     fftw         :    174.45s CPU    175.89s WALL (  325154 calls)
     interpolate  :      0.41s CPU      0.50s WALL (      49 calls)
 
     Parallel routines

     PAW routines
     PAW_pot      :      1.65s CPU      1.77s WALL (      49 calls)
 
     PWSCF        :  13m 1.48s CPU  14m27.79s WALL

 
   This run was terminated on:  14:30:32  21Jun2024            

=------------------------------------------------------------------------------=
   JOB DONE.
=------------------------------------------------------------------------------=
