
     Program PWSCF v.7.2 starts on 21Jun2024 at 15:57: 8 

     This program is part of the open-source Quantum ESPRESSO suite
     for quantum simulation of materials; please cite
         "P. Giannozzi et al., J. Phys.:Condens. Matter 21 395502 (2009);
         "P. Giannozzi et al., J. Phys.:Condens. Matter 29 465901 (2017);
         "P. Giannozzi et al., J. Chem. Phys. 152 154105 (2020);
          URL http://www.quantum-espresso.org", 
     in publications or presentations arising from this work. More details at
     http://www.quantum-espresso.org/quote

     Parallel version (MPI & OpenMP), running on      48 processor cores
     Number of MPI processes:                48
     Threads/MPI process:                     1

     MPI processes distributed on     1 nodes
     33237 MiB available memory on the printing compute node when the environment starts
 
     Reading input from espresso.pwi
Warning: card &CELL ignored
Warning: card / ignored
Warning: card &FCP ignored
Warning: card / ignored
Warning: card &RISM ignored
Warning: card / ignored

     Current dimensions of program PWSCF are:
     Max number of different atomic species (ntypx) = 10
     Max number of k-points (npk) =  40000
     Max angular momentum in pseudopotentials (lmaxx) =  4
     file O.pbe-n-kjpaw_psl.0.1.UPF: wavefunction(s)  2P renormalized
     signal trapping enabled: kill the code with -SIGUSR1 to stop cleanly the simulation 
 
     K-points division:     npool     =       2
     R & G space division:  proc/nbgrp/npool/nimage =      24
     Subspace diagonalization in iterative solution of the eigenvalue problem:
     one sub-group per band group will be used
     scalapack distributed-memory algorithm (size of sub-group:  3*  3 procs)

 
     Parallelization info
     --------------------
     sticks:   dense  smooth     PW     G-vecs:    dense   smooth      PW
     Min         350     175     47                61430    21716    3036
     Max         351     177     48                61449    21727    3041
     Sum        8421    4205   1137              1474595   521381   72913
 
     Using Slab Decomposition
 


     bravais-lattice index     =            0
     lattice parameter (alat)  =      14.8599  a.u.
     unit-cell volume          =    8305.1283 (a.u.)^3
     number of atoms/cell      =           50
     number of atomic types    =            4
     number of electrons       =       431.00
     number of Kohn-Sham states=          259
     kinetic-energy cutoff     =      60.0000  Ry
     charge density cutoff     =     480.0000  Ry
     scf convergence threshold =      1.0E-08
     mixing beta               =       0.1500
     number of iterations used =            8  local-TF  mixing
     Exchange-correlation= PBE
                           (   1   4   3   4   0   0   0)

     celldm(1)=  14.859904  celldm(2)=   0.000000  celldm(3)=   0.000000
     celldm(4)=   0.000000  celldm(5)=   0.000000  celldm(6)=   0.000000

     crystal axes: (cart. coord. in units of alat)
               a(1) = (   1.000000   0.000000   0.000000 )  
               a(2) = (   0.000000   1.000000   0.000000 )  
               a(3) = (   0.000000   0.000000   2.531036 )  

     reciprocal axes: (cart. coord. in units 2 pi/alat)
               b(1) = (  1.000000  0.000000  0.000000 )  
               b(2) = (  0.000000  1.000000  0.000000 )  
               b(3) = (  0.000000  0.000000  0.395095 )  


     PseudoPot. # 1 for Sr read from file:
     /bsuhome/zayahcortright/q-e/pseudo/Sr_pbe_v1.uspp.F.UPF
     MD5 check sum: 6b418c05fbe9db5448babca5e47b7a5b
     Pseudo is Ultrasoft + core correction, Zval = 10.0
     Generated by new atomic code, or converted to UPF format
     Using radial grid of  883 points,  6 beta functions with: 
                l(1) =   0
                l(2) =   0
                l(3) =   1
                l(4) =   1
                l(5) =   2
                l(6) =   2
     Q(r) pseudized with  6 coefficients,  rinner =    1.400   1.400   1.400
                                                       1.400   1.400

     PseudoPot. # 2 for O  read from file:
     /bsuhome/zayahcortright/q-e/pseudo/O.pbe-n-kjpaw_psl.0.1.UPF
     MD5 check sum: 0234752ac141de4415c5fc33072bef88
     Pseudo is Projector augmented-wave + core cor, Zval =  6.0
     Generated using "atomic" code by A. Dal Corso  v.5.0.99 svn rev. 10869
     Shape of augmentation charge: BESSEL
     Using radial grid of 1095 points,  4 beta functions with: 
                l(1) =   0
                l(2) =   0
                l(3) =   1
                l(4) =   1
     Q(r) pseudized with 0 coefficients 


     PseudoPot. # 3 for Co read from file:
     /bsuhome/zayahcortright/q-e/pseudo/Co_pbe_v1.2.uspp.F.UPF
     MD5 check sum: 5f91765df6ddd3222702df6e7b74a16d
     Pseudo is Ultrasoft + core correction, Zval = 17.0
     Generated by new atomic code, or converted to UPF format
     Using radial grid of  863 points,  6 beta functions with: 
                l(1) =   0
                l(2) =   0
                l(3) =   1
                l(4) =   1
                l(5) =   2
                l(6) =   2
     Q(r) pseudized with  8 coefficients,  rinner =    1.200   1.200   1.200
                                                       1.200   1.200

     PseudoPot. # 4 for H  read from file:
     /bsuhome/zayahcortright/q-e/pseudo/H.pbe-rrkjus_psl.1.0.0.UPF
     MD5 check sum: f52b6d4d1c606e5624b1dc7b2218f220
     Pseudo is Ultrasoft, Zval =  1.0
     Generated using "atomic" code by A. Dal Corso  v.5.1
     Using radial grid of  929 points,  2 beta functions with: 
                l(1) =   0
                l(2) =   0
     Q(r) pseudized with 0 coefficients 


     atomic species   valence    mass     pseudopotential
        Sr            10.00    87.62000     Sr( 1.00)
        O              6.00    15.99900     O ( 1.00)
        Co            17.00    58.93319     Co( 1.00)
        H              1.00     1.00800     H ( 1.00)

     No symmetry found


                                    s                        frac. trans.

      isym =  1     identity                                     

 cryst.   s( 1) = (     1          0          0      )
                  (     0          1          0      )
                  (     0          0          1      )

 cart.    s( 1) = (  1.0000000  0.0000000  0.0000000 )
                  (  0.0000000  1.0000000  0.0000000 )
                  (  0.0000000  0.0000000  1.0000000 )


   Cartesian axes

     site n.     atom                  positions (alat units)
         1           Sr  tau(   1) = (   0.2508693   0.7491307   1.7574407  )
         2           O   tau(   2) = (   0.4985141   0.5014859   1.7715967  )
         3           Sr  tau(   3) = (   0.7482398   0.7454518   1.7648669  )
         4           Sr  tau(   4) = (   0.7441748   0.2558252   1.7667843  )
         5           Sr  tau(   5) = (   0.2508693   0.7491307   1.2696799  )
         6           Sr  tau(   6) = (   0.2508693   0.7491307   0.7632319  )
         7           Co  tau(   7) = (   0.4998914   0.5001086   1.0164559  )
         8           Co  tau(   8) = (   0.4936915   0.5063085   1.5135603  )
         9           O   tau(   9) = (   0.4988895   0.7610401   1.0164559  )
        10           O   tau(  10) = (   0.2389599   0.5011105   1.0164559  )
        11           O   tau(  11) = (   0.0070918   0.7374880   1.0164559  )
        12           O   tau(  12) = (   0.0088340   0.7405089   1.5135603  )
        13           O   tau(  13) = (   0.5066944   0.7415376   1.5135603  )
        14           O   tau(  14) = (   0.2584624   0.4933056   1.5135603  )
        15           O   tau(  15) = (   0.4985141   0.5014859   0.7773880  )
        16           O   tau(  16) = (   0.4985141   0.5014859   1.2555238  )
        17           Sr  tau(  17) = (   0.7482398   0.7454518   0.7706582  )
        18           Sr  tau(  18) = (   0.7482398   0.7454518   1.2622536  )
        19           Sr  tau(  19) = (   0.7441748   0.2558252   0.7725755  )
        20           Sr  tau(  20) = (   0.7441748   0.2558252   1.2603363  )
        21           O   tau(  21) = (   0.7322655   0.0078049   1.5135603  )
        22           O   tau(  22) = (   0.7558175   0.4996027   1.5135603  )
        23           O   tau(  23) = (   0.5003973   0.2441825   1.5135603  )
        24           O   tau(  24) = (   0.7527966   0.4978604   1.0164559  )
        25           O   tau(  25) = (   0.5021396   0.2472034   1.0164559  )
        26           O   tau(  26) = (   0.7517679   0.0000000   1.0164559  )
        27           O   tau(  27) = (   0.0114961   0.4948124   1.7455321  )
        28           O   tau(  28) = (   0.0048226   0.0077944   1.7715967  )
        29           Sr  tau(  29) = (   0.2545482   0.2517602   1.7648669  )
        30           O   tau(  30) = (   0.5048017   0.0015068   1.7786929  )
        31           Co  tau(  31) = (   0.0056869   0.5006215   1.0164559  )
        32           Co  tau(  32) = (   0.0065315   0.4997770   1.5135603  )
        33           Co  tau(  33) = (   0.0061999   0.0064171   1.0164559  )
        34           Co  tau(  34) = (   0.0000000   0.0126169   1.5135603  )
        35           O   tau(  35) = (   0.0114961   0.4948124   1.2815885  )
        36           O   tau(  36) = (   0.0114961   0.4948124   0.7513233  )
        37           O   tau(  37) = (   0.0051979   0.2673486   1.0164559  )
        38           O   tau(  38) = (   0.0130029   0.2478461   1.5135603  )
        39           O   tau(  39) = (   0.0048226   0.0077944   0.7773880  )
        40           O   tau(  40) = (   0.0048226   0.0077944   1.2555238  )
        41           Sr  tau(  41) = (   0.2545482   0.2517602   0.7706582  )
        42           Sr  tau(  42) = (   0.2545482   0.2517602   1.2622536  )
        43           Co  tau(  43) = (   0.4989925   0.0073160   1.5135603  )
        44           Co  tau(  44) = (   0.4998370   0.0064714   1.0164559  )
        45           O   tau(  45) = (   0.5048017   0.0015068   0.7844841  )
        46           O   tau(  46) = (   0.5048017   0.0015068   1.2484277  )
        47           O   tau(  47) = (   0.2621260   0.0059111   1.5135603  )
        48           O   tau(  48) = (   0.2591051   0.0041689   1.0164559  )
        49           O   tau(  49) = (   0.0000000   0.9951520   2.1602013  )
        50           H   tau(  50) = (   0.0000000   0.9951520   2.2847091  )

   Crystallographic axes

     site n.     atom                  positions (cryst. coord.)
         1           Sr  tau(   1) = (  0.2508693  0.7491307  0.6943562  )
         2           O   tau(   2) = (  0.4985141  0.5014859  0.6999492  )
         3           Sr  tau(   3) = (  0.7482398  0.7454518  0.6972903  )
         4           Sr  tau(   4) = (  0.7441748  0.2558252  0.6980478  )
         5           Sr  tau(   5) = (  0.2508693  0.7491307  0.5016443  )
         6           Sr  tau(   6) = (  0.2508693  0.7491307  0.3015492  )
         7           Co  tau(   7) = (  0.4998914  0.5001086  0.4015968  )
         8           Co  tau(   8) = (  0.4936915  0.5063085  0.5980003  )
         9           O   tau(   9) = (  0.4988895  0.7610401  0.4015968  )
        10           O   tau(  10) = (  0.2389599  0.5011105  0.4015968  )
        11           O   tau(  11) = (  0.0070918  0.7374880  0.4015968  )
        12           O   tau(  12) = (  0.0088340  0.7405089  0.5980003  )
        13           O   tau(  13) = (  0.5066944  0.7415376  0.5980003  )
        14           O   tau(  14) = (  0.2584624  0.4933056  0.5980003  )
        15           O   tau(  15) = (  0.4985141  0.5014859  0.3071422  )
        16           O   tau(  16) = (  0.4985141  0.5014859  0.4960513  )
        17           Sr  tau(  17) = (  0.7482398  0.7454518  0.3044833  )
        18           Sr  tau(  18) = (  0.7482398  0.7454518  0.4987103  )
        19           Sr  tau(  19) = (  0.7441748  0.2558252  0.3052408  )
        20           Sr  tau(  20) = (  0.7441748  0.2558252  0.4979527  )
        21           O   tau(  21) = (  0.7322655  0.0078049  0.5980003  )
        22           O   tau(  22) = (  0.7558175  0.4996027  0.5980003  )
        23           O   tau(  23) = (  0.5003973  0.2441825  0.5980003  )
        24           O   tau(  24) = (  0.7527966  0.4978604  0.4015968  )
        25           O   tau(  25) = (  0.5021396  0.2472034  0.4015968  )
        26           O   tau(  26) = (  0.7517679  0.0000000  0.4015968  )
        27           O   tau(  27) = (  0.0114961  0.4948124  0.6896512  )
        28           O   tau(  28) = (  0.0048226  0.0077944  0.6999492  )
        29           Sr  tau(  29) = (  0.2545482  0.2517602  0.6972903  )
        30           O   tau(  30) = (  0.5048017  0.0015068  0.7027529  )
        31           Co  tau(  31) = (  0.0056869  0.5006215  0.4015968  )
        32           Co  tau(  32) = (  0.0065315  0.4997770  0.5980003  )
        33           Co  tau(  33) = (  0.0061999  0.0064171  0.4015968  )
        34           Co  tau(  34) = (  0.0000000  0.0126169  0.5980003  )
        35           O   tau(  35) = (  0.0114961  0.4948124  0.5063494  )
        36           O   tau(  36) = (  0.0114961  0.4948124  0.2968442  )
        37           O   tau(  37) = (  0.0051979  0.2673486  0.4015968  )
        38           O   tau(  38) = (  0.0130029  0.2478461  0.5980003  )
        39           O   tau(  39) = (  0.0048226  0.0077944  0.3071422  )
        40           O   tau(  40) = (  0.0048226  0.0077944  0.4960513  )
        41           Sr  tau(  41) = (  0.2545482  0.2517602  0.3044833  )
        42           Sr  tau(  42) = (  0.2545482  0.2517602  0.4987103  )
        43           Co  tau(  43) = (  0.4989925  0.0073160  0.5980003  )
        44           Co  tau(  44) = (  0.4998370  0.0064714  0.4015968  )
        45           O   tau(  45) = (  0.5048017  0.0015068  0.3099459  )
        46           O   tau(  46) = (  0.5048017  0.0015068  0.4932477  )
        47           O   tau(  47) = (  0.2621260  0.0059111  0.5980003  )
        48           O   tau(  48) = (  0.2591051  0.0041689  0.4015968  )
        49           O   tau(  49) = (  0.0000000  0.9951520  0.8534850  )
        50           H   tau(  50) = (  0.0000000  0.9951520  0.9026774  )

     number of k points=    10  Gaussian smearing, width (Ry)=  0.0700
                       cart. coord. in units 2pi/alat
        k(    1) = (   0.0000000   0.0000000   0.0000000), wk =   0.1250000
        k(    2) = (   0.0000000   0.2500000   0.0000000), wk =   0.2500000
        k(    3) = (   0.0000000  -0.5000000   0.0000000), wk =   0.1250000
        k(    4) = (   0.2500000   0.2500000   0.0000000), wk =   0.2500000
        k(    5) = (   0.2500000  -0.5000000   0.0000000), wk =   0.2500000
        k(    6) = (  -0.5000000  -0.5000000   0.0000000), wk =   0.1250000
        k(    7) = (   0.2500000   0.0000000   0.0000000), wk =   0.2500000
        k(    8) = (  -0.5000000   0.0000000   0.0000000), wk =   0.1250000
        k(    9) = (  -0.2500000   0.2500000   0.0000000), wk =   0.2500000
        k(   10) = (  -0.5000000   0.2500000   0.0000000), wk =   0.2500000

                       cryst. coord.
        k(    1) = (   0.0000000   0.0000000   0.0000000), wk =   0.1250000
        k(    2) = (   0.0000000   0.2500000   0.0000000), wk =   0.2500000
        k(    3) = (   0.0000000  -0.5000000   0.0000000), wk =   0.1250000
        k(    4) = (   0.2500000   0.2500000   0.0000000), wk =   0.2500000
        k(    5) = (   0.2500000  -0.5000000   0.0000000), wk =   0.2500000
        k(    6) = (  -0.5000000  -0.5000000   0.0000000), wk =   0.1250000
        k(    7) = (   0.2500000   0.0000000   0.0000000), wk =   0.2500000
        k(    8) = (  -0.5000000   0.0000000   0.0000000), wk =   0.1250000
        k(    9) = (  -0.2500000   0.2500000   0.0000000), wk =   0.2500000
        k(   10) = (  -0.5000000   0.2500000   0.0000000), wk =   0.2500000

     Dense  grid:  1474595 G-vectors     FFT dimensions: ( 108, 108, 270)

     Smooth grid:   521381 G-vectors     FFT dimensions: (  75,  75, 192)

     Dynamical RAM for                 wfc:      10.73 MB

     Dynamical RAM for     wfc (w. buffer):      64.38 MB

     Dynamical RAM for           str. fact:       3.75 MB

     Dynamical RAM for           local pot:       0.00 MB

     Dynamical RAM for          nlocal pot:      24.61 MB

     Dynamical RAM for                qrad:       7.03 MB

     Dynamical RAM for          rho,v,vnew:       6.02 MB

     Dynamical RAM for               rhoin:       2.01 MB

     Dynamical RAM for            rho*nmix:      15.00 MB

     Dynamical RAM for           G-vectors:       3.68 MB

     Dynamical RAM for          h,s,v(r/c):       1.35 MB

     Dynamical RAM for          <psi|beta>:       2.35 MB

     Dynamical RAM for                 psi:      21.46 MB

     Dynamical RAM for                hpsi:      21.46 MB

     Dynamical RAM for                spsi:      21.46 MB

     Dynamical RAM for      wfcinit/wfcrot:      34.49 MB

     Dynamical RAM for           addusdens:     101.26 MB

     Estimated static dynamical RAM per process >     121.50 MB

     Estimated max dynamical RAM per process >     237.76 MB

     Estimated total dynamical RAM >      10.79 GB

     Check: negative core charge=   -0.000004

     Initial potential from superposition of free atoms

     starting charge     422.5961, renormalised to     431.0000

     negative rho (up, down):  7.820E-01 0.000E+00
     Starting wfcs are  377 randomized atomic wfcs
     Checking if some PAW data can be deallocated... 
       PAW data deallocated on   19 nodes for type:  2

     total cpu time spent up to now is       10.3 secs

     Self-consistent Calculation

     iteration #  1     ecut=    60.00 Ry     beta= 0.15
     Davidson diagonalization with overlap

---- Real-time Memory Report at c_bands before calling an iterative solver
             0 MiB given to the printing process from OS
             0 MiB allocation reported by mallinfo(arena+hblkhd)
         24000 MiB available memory on the node where the printing process lives
------------------
     ethr =  1.00E-02,  avg # of iterations =  2.0

     negative rho (up, down):  7.715E-01 0.000E+00

     total cpu time spent up to now is       27.5 secs

     total energy              =   -4446.61032969 Ry
     estimated scf accuracy    <      44.93862040 Ry

     iteration #  2     ecut=    60.00 Ry     beta= 0.15
     Davidson diagonalization with overlap

---- Real-time Memory Report at c_bands before calling an iterative solver
             0 MiB given to the printing process from OS
             0 MiB allocation reported by mallinfo(arena+hblkhd)
         24251 MiB available memory on the node where the printing process lives
------------------
     ethr =  1.00E-02,  avg # of iterations =  1.0

     negative rho (up, down):  7.578E-01 0.000E+00

     total cpu time spent up to now is       42.7 secs

     total energy              =   -4443.19623798 Ry
     estimated scf accuracy    <      29.53806247 Ry

     iteration #  3     ecut=    60.00 Ry     beta= 0.15
     Davidson diagonalization with overlap

---- Real-time Memory Report at c_bands before calling an iterative solver
             0 MiB given to the printing process from OS
             0 MiB allocation reported by mallinfo(arena+hblkhd)
         23423 MiB available memory on the node where the printing process lives
------------------
     ethr =  6.85E-03,  avg # of iterations =  1.0

     negative rho (up, down):  7.552E-01 0.000E+00

     total cpu time spent up to now is       58.3 secs

     total energy              =   -4444.25781870 Ry
     estimated scf accuracy    <      29.73688577 Ry

     iteration #  4     ecut=    60.00 Ry     beta= 0.15
     Davidson diagonalization with overlap

---- Real-time Memory Report at c_bands before calling an iterative solver
             0 MiB given to the printing process from OS
             0 MiB allocation reported by mallinfo(arena+hblkhd)
         23392 MiB available memory on the node where the printing process lives
------------------
     ethr =  6.85E-03,  avg # of iterations =  1.0

     negative rho (up, down):  7.489E-01 0.000E+00

     total cpu time spent up to now is       73.0 secs

     total energy              =   -4443.03059439 Ry
     estimated scf accuracy    <      21.36429052 Ry

     iteration #  5     ecut=    60.00 Ry     beta= 0.15
     Davidson diagonalization with overlap

---- Real-time Memory Report at c_bands before calling an iterative solver
             0 MiB given to the printing process from OS
             0 MiB allocation reported by mallinfo(arena+hblkhd)
         23371 MiB available memory on the node where the printing process lives
------------------
     ethr =  4.96E-03,  avg # of iterations =  1.0

     negative rho (up, down):  7.412E-01 0.000E+00

     total cpu time spent up to now is       87.7 secs

     total energy              =   -4442.65361576 Ry
     estimated scf accuracy    <       9.64801289 Ry

     iteration #  6     ecut=    60.00 Ry     beta= 0.15
     Davidson diagonalization with overlap

---- Real-time Memory Report at c_bands before calling an iterative solver
             0 MiB given to the printing process from OS
             0 MiB allocation reported by mallinfo(arena+hblkhd)
         23358 MiB available memory on the node where the printing process lives
------------------
     ethr =  2.24E-03,  avg # of iterations =  1.1

     negative rho (up, down):  7.431E-01 0.000E+00

     total cpu time spent up to now is      102.6 secs

     total energy              =   -4442.79475353 Ry
     estimated scf accuracy    <       4.84742595 Ry

     iteration #  7     ecut=    60.00 Ry     beta= 0.15
     Davidson diagonalization with overlap

---- Real-time Memory Report at c_bands before calling an iterative solver
             0 MiB given to the printing process from OS
             0 MiB allocation reported by mallinfo(arena+hblkhd)
         23348 MiB available memory on the node where the printing process lives
------------------
     ethr =  1.12E-03,  avg # of iterations =  1.7

     negative rho (up, down):  7.664E-01 0.000E+00

     total cpu time spent up to now is      117.8 secs

     total energy              =   -4441.66918482 Ry
     estimated scf accuracy    <       3.91093256 Ry

     iteration #  8     ecut=    60.00 Ry     beta= 0.15
     Davidson diagonalization with overlap

---- Real-time Memory Report at c_bands before calling an iterative solver
             0 MiB given to the printing process from OS
             0 MiB allocation reported by mallinfo(arena+hblkhd)
         23319 MiB available memory on the node where the printing process lives
------------------
     ethr =  9.07E-04,  avg # of iterations =  4.2

     negative rho (up, down):  7.726E-01 0.000E+00

     total cpu time spent up to now is      137.2 secs

     total energy              =   -4441.63811334 Ry
     estimated scf accuracy    <      13.74355778 Ry

     iteration #  9     ecut=    60.00 Ry     beta= 0.15
     Davidson diagonalization with overlap

---- Real-time Memory Report at c_bands before calling an iterative solver
             0 MiB given to the printing process from OS
             0 MiB allocation reported by mallinfo(arena+hblkhd)
         23160 MiB available memory on the node where the printing process lives
------------------
     ethr =  9.07E-04,  avg # of iterations = 10.0

     negative rho (up, down):  7.707E-01 0.000E+00

     total cpu time spent up to now is      159.8 secs

     total energy              =   -4441.78865278 Ry
     estimated scf accuracy    <       2.23826394 Ry

     iteration # 10     ecut=    60.00 Ry     beta= 0.15
     Davidson diagonalization with overlap

---- Real-time Memory Report at c_bands before calling an iterative solver
             0 MiB given to the printing process from OS
             0 MiB allocation reported by mallinfo(arena+hblkhd)
         22844 MiB available memory on the node where the printing process lives
------------------
     ethr =  5.19E-04,  avg # of iterations =  1.8

     negative rho (up, down):  7.777E-01 0.000E+00

     total cpu time spent up to now is      176.8 secs

     total energy              =   -4441.91889079 Ry
     estimated scf accuracy    <       1.03759750 Ry

     iteration # 11     ecut=    60.00 Ry     beta= 0.15
     Davidson diagonalization with overlap

---- Real-time Memory Report at c_bands before calling an iterative solver
             0 MiB given to the printing process from OS
             0 MiB allocation reported by mallinfo(arena+hblkhd)
         22836 MiB available memory on the node where the printing process lives
------------------
     ethr =  2.41E-04,  avg # of iterations =  2.4

     negative rho (up, down):  8.148E-01 0.000E+00

     total cpu time spent up to now is      194.0 secs

     total energy              =   -4441.71272154 Ry
     estimated scf accuracy    <       1.14051105 Ry

     iteration # 12     ecut=    60.00 Ry     beta= 0.15
     Davidson diagonalization with overlap

---- Real-time Memory Report at c_bands before calling an iterative solver
             0 MiB given to the printing process from OS
             0 MiB allocation reported by mallinfo(arena+hblkhd)
         22837 MiB available memory on the node where the printing process lives
------------------
     ethr =  2.41E-04,  avg # of iterations =  9.7

     negative rho (up, down):  8.173E-01 0.000E+00

     total cpu time spent up to now is      215.1 secs

     total energy              =   -4441.82790923 Ry
     estimated scf accuracy    <       1.03345547 Ry

     iteration # 13     ecut=    60.00 Ry     beta= 0.15
     Davidson diagonalization with overlap

---- Real-time Memory Report at c_bands before calling an iterative solver
             0 MiB given to the printing process from OS
             0 MiB allocation reported by mallinfo(arena+hblkhd)
         22750 MiB available memory on the node where the printing process lives
------------------
     ethr =  2.40E-04,  avg # of iterations =  1.3

     negative rho (up, down):  8.171E-01 0.000E+00

     total cpu time spent up to now is      230.9 secs

     total energy              =   -4441.78514154 Ry
     estimated scf accuracy    <       0.61975879 Ry

     iteration # 14     ecut=    60.00 Ry     beta= 0.15
     Davidson diagonalization with overlap

---- Real-time Memory Report at c_bands before calling an iterative solver
             0 MiB given to the printing process from OS
             0 MiB allocation reported by mallinfo(arena+hblkhd)
         22807 MiB available memory on the node where the printing process lives
------------------
     ethr =  1.44E-04,  avg # of iterations =  3.8

     negative rho (up, down):  8.258E-01 0.000E+00

     total cpu time spent up to now is      248.8 secs

     total energy              =   -4441.71413552 Ry
     estimated scf accuracy    <       0.34849993 Ry

     iteration # 15     ecut=    60.00 Ry     beta= 0.15
     Davidson diagonalization with overlap

---- Real-time Memory Report at c_bands before calling an iterative solver
             0 MiB given to the printing process from OS
             0 MiB allocation reported by mallinfo(arena+hblkhd)
         22796 MiB available memory on the node where the printing process lives
------------------
     ethr =  8.09E-05,  avg # of iterations = 12.0

     negative rho (up, down):  8.331E-01 0.000E+00

     total cpu time spent up to now is      271.4 secs

     total energy              =   -4441.71700826 Ry
     estimated scf accuracy    <       0.31624785 Ry

     iteration # 16     ecut=    60.00 Ry     beta= 0.15
     Davidson diagonalization with overlap

---- Real-time Memory Report at c_bands before calling an iterative solver
             0 MiB given to the printing process from OS
             0 MiB allocation reported by mallinfo(arena+hblkhd)
         22799 MiB available memory on the node where the printing process lives
------------------
     ethr =  7.34E-05,  avg # of iterations =  2.4

     negative rho (up, down):  8.313E-01 0.000E+00

     total cpu time spent up to now is      288.8 secs

     total energy              =   -4441.70784158 Ry
     estimated scf accuracy    <       0.26895618 Ry

     iteration # 17     ecut=    60.00 Ry     beta= 0.15
     Davidson diagonalization with overlap

---- Real-time Memory Report at c_bands before calling an iterative solver
             0 MiB given to the printing process from OS
             0 MiB allocation reported by mallinfo(arena+hblkhd)
         22773 MiB available memory on the node where the printing process lives
------------------
     ethr =  6.24E-05,  avg # of iterations =  1.2

     negative rho (up, down):  8.154E-01 0.000E+00

     total cpu time spent up to now is      304.5 secs

     total energy              =   -4441.68440745 Ry
     estimated scf accuracy    <       0.19909583 Ry

     iteration # 18     ecut=    60.00 Ry     beta= 0.15
     Davidson diagonalization with overlap

---- Real-time Memory Report at c_bands before calling an iterative solver
             0 MiB given to the printing process from OS
             0 MiB allocation reported by mallinfo(arena+hblkhd)
         22779 MiB available memory on the node where the printing process lives
------------------
     ethr =  4.62E-05,  avg # of iterations =  6.2

     negative rho (up, down):  8.134E-01 0.000E+00

     total cpu time spent up to now is      324.3 secs

     total energy              =   -4441.67370968 Ry
     estimated scf accuracy    <       0.13765036 Ry

     iteration # 19     ecut=    60.00 Ry     beta= 0.15
     Davidson diagonalization with overlap

---- Real-time Memory Report at c_bands before calling an iterative solver
             0 MiB given to the printing process from OS
             0 MiB allocation reported by mallinfo(arena+hblkhd)
         22779 MiB available memory on the node where the printing process lives
------------------
     ethr =  3.19E-05,  avg # of iterations =  7.9

     negative rho (up, down):  8.047E-01 0.000E+00

     total cpu time spent up to now is      345.2 secs

     total energy              =   -4441.65843471 Ry
     estimated scf accuracy    <       0.10121289 Ry

     iteration # 20     ecut=    60.00 Ry     beta= 0.15
     Davidson diagonalization with overlap

---- Real-time Memory Report at c_bands before calling an iterative solver
             0 MiB given to the printing process from OS
             0 MiB allocation reported by mallinfo(arena+hblkhd)
         22749 MiB available memory on the node where the printing process lives
------------------
     ethr =  2.35E-05,  avg # of iterations =  8.6

     negative rho (up, down):  8.276E-01 0.000E+00

     total cpu time spent up to now is      366.7 secs

     total energy              =   -4441.64963806 Ry
     estimated scf accuracy    <       0.05456259 Ry

     iteration # 21     ecut=    60.00 Ry     beta= 0.15
     Davidson diagonalization with overlap

---- Real-time Memory Report at c_bands before calling an iterative solver
             0 MiB given to the printing process from OS
             0 MiB allocation reported by mallinfo(arena+hblkhd)
         22742 MiB available memory on the node where the printing process lives
------------------
     ethr =  1.27E-05,  avg # of iterations = 10.9

     negative rho (up, down):  8.202E-01 0.000E+00

     total cpu time spent up to now is      391.1 secs

     total energy              =   -4441.65318697 Ry
     estimated scf accuracy    <       0.02023260 Ry

     iteration # 22     ecut=    60.00 Ry     beta= 0.15
     Davidson diagonalization with overlap

---- Real-time Memory Report at c_bands before calling an iterative solver
             0 MiB given to the printing process from OS
             0 MiB allocation reported by mallinfo(arena+hblkhd)
         22569 MiB available memory on the node where the printing process lives
------------------
     ethr =  4.69E-06,  avg # of iterations =  1.6

     negative rho (up, down):  7.959E-01 0.000E+00

     total cpu time spent up to now is      407.6 secs

     total energy              =   -4441.64972797 Ry
     estimated scf accuracy    <       0.01757562 Ry

     iteration # 23     ecut=    60.00 Ry     beta= 0.15
     Davidson diagonalization with overlap

---- Real-time Memory Report at c_bands before calling an iterative solver
             0 MiB given to the printing process from OS
             0 MiB allocation reported by mallinfo(arena+hblkhd)
         22585 MiB available memory on the node where the printing process lives
------------------
     ethr =  4.08E-06,  avg # of iterations =  7.2

     negative rho (up, down):  7.914E-01 0.000E+00

     total cpu time spent up to now is      427.8 secs

     total energy              =   -4441.64870637 Ry
     estimated scf accuracy    <       0.01053959 Ry

     iteration # 24     ecut=    60.00 Ry     beta= 0.15
     Davidson diagonalization with overlap

---- Real-time Memory Report at c_bands before calling an iterative solver
             0 MiB given to the printing process from OS
             0 MiB allocation reported by mallinfo(arena+hblkhd)
         22559 MiB available memory on the node where the printing process lives
------------------
     ethr =  2.45E-06,  avg # of iterations =  9.8

     negative rho (up, down):  7.979E-01 0.000E+00

     total cpu time spent up to now is      450.0 secs

     total energy              =   -4441.64824737 Ry
     estimated scf accuracy    <       0.00470971 Ry

     iteration # 25     ecut=    60.00 Ry     beta= 0.15
     Davidson diagonalization with overlap

---- Real-time Memory Report at c_bands before calling an iterative solver
             0 MiB given to the printing process from OS
             0 MiB allocation reported by mallinfo(arena+hblkhd)
         22557 MiB available memory on the node where the printing process lives
------------------
     ethr =  1.09E-06,  avg # of iterations =  9.1

     negative rho (up, down):  8.011E-01 0.000E+00

     total cpu time spent up to now is      472.1 secs

     total energy              =   -4441.64854685 Ry
     estimated scf accuracy    <       0.00217663 Ry

     iteration # 26     ecut=    60.00 Ry     beta= 0.15
     Davidson diagonalization with overlap

---- Real-time Memory Report at c_bands before calling an iterative solver
             0 MiB given to the printing process from OS
             0 MiB allocation reported by mallinfo(arena+hblkhd)
         22542 MiB available memory on the node where the printing process lives
------------------
     ethr =  5.05E-07,  avg # of iterations =  4.1

     negative rho (up, down):  8.000E-01 0.000E+00

     total cpu time spent up to now is      490.4 secs

     total energy              =   -4441.64849517 Ry
     estimated scf accuracy    <       0.00132443 Ry

     iteration # 27     ecut=    60.00 Ry     beta= 0.15
     Davidson diagonalization with overlap

---- Real-time Memory Report at c_bands before calling an iterative solver
             0 MiB given to the printing process from OS
             0 MiB allocation reported by mallinfo(arena+hblkhd)
         22587 MiB available memory on the node where the printing process lives
------------------
     ethr =  3.07E-07,  avg # of iterations = 10.2

     negative rho (up, down):  7.990E-01 0.000E+00

     total cpu time spent up to now is      512.5 secs

     total energy              =   -4441.64849758 Ry
     estimated scf accuracy    <       0.00050642 Ry

     iteration # 28     ecut=    60.00 Ry     beta= 0.15
     Davidson diagonalization with overlap

---- Real-time Memory Report at c_bands before calling an iterative solver
             0 MiB given to the printing process from OS
             0 MiB allocation reported by mallinfo(arena+hblkhd)
         22570 MiB available memory on the node where the printing process lives
------------------
     ethr =  1.17E-07,  avg # of iterations =  2.2

     negative rho (up, down):  7.954E-01 0.000E+00

     total cpu time spent up to now is      530.0 secs

     total energy              =   -4441.64840559 Ry
     estimated scf accuracy    <       0.00025940 Ry

     iteration # 29     ecut=    60.00 Ry     beta= 0.15
     Davidson diagonalization with overlap

---- Real-time Memory Report at c_bands before calling an iterative solver
             0 MiB given to the printing process from OS
             0 MiB allocation reported by mallinfo(arena+hblkhd)
         22607 MiB available memory on the node where the printing process lives
------------------
     c_bands:  1 eigenvalues not converged
     ethr =  6.02E-08,  avg # of iterations =  9.0

     negative rho (up, down):  7.948E-01 0.000E+00

     total cpu time spent up to now is      553.1 secs

     total energy              =   -4441.64841913 Ry
     estimated scf accuracy    <       0.00009936 Ry

     iteration # 30     ecut=    60.00 Ry     beta= 0.15
     Davidson diagonalization with overlap

---- Real-time Memory Report at c_bands before calling an iterative solver
             0 MiB given to the printing process from OS
             0 MiB allocation reported by mallinfo(arena+hblkhd)
         22630 MiB available memory on the node where the printing process lives
------------------
     ethr =  2.31E-08,  avg # of iterations =  2.2

     negative rho (up, down):  7.936E-01 0.000E+00

     total cpu time spent up to now is      570.7 secs

     total energy              =   -4441.64841381 Ry
     estimated scf accuracy    <       0.00005749 Ry

     iteration # 31     ecut=    60.00 Ry     beta= 0.15
     Davidson diagonalization with overlap

---- Real-time Memory Report at c_bands before calling an iterative solver
             0 MiB given to the printing process from OS
             0 MiB allocation reported by mallinfo(arena+hblkhd)
         22615 MiB available memory on the node where the printing process lives
------------------
     ethr =  1.33E-08,  avg # of iterations =  2.1

     negative rho (up, down):  7.935E-01 0.000E+00

     total cpu time spent up to now is      588.1 secs

     total energy              =   -4441.64841235 Ry
     estimated scf accuracy    <       0.00003360 Ry

     iteration # 32     ecut=    60.00 Ry     beta= 0.15
     Davidson diagonalization with overlap

---- Real-time Memory Report at c_bands before calling an iterative solver
             0 MiB given to the printing process from OS
             0 MiB allocation reported by mallinfo(arena+hblkhd)
         22624 MiB available memory on the node where the printing process lives
------------------
     ethr =  7.80E-09,  avg # of iterations =  2.1

     negative rho (up, down):  7.926E-01 0.000E+00

     total cpu time spent up to now is      606.1 secs

     total energy              =   -4441.64841364 Ry
     estimated scf accuracy    <       0.00001282 Ry

     iteration # 33     ecut=    60.00 Ry     beta= 0.15
     Davidson diagonalization with overlap

---- Real-time Memory Report at c_bands before calling an iterative solver
             0 MiB given to the printing process from OS
             0 MiB allocation reported by mallinfo(arena+hblkhd)
         22628 MiB available memory on the node where the printing process lives
------------------
     ethr =  2.97E-09,  avg # of iterations =  3.1

     negative rho (up, down):  7.926E-01 0.000E+00

     total cpu time spent up to now is      624.4 secs

     total energy              =   -4441.64841480 Ry
     estimated scf accuracy    <       0.00000351 Ry

     iteration # 34     ecut=    60.00 Ry     beta= 0.15
     Davidson diagonalization with overlap

---- Real-time Memory Report at c_bands before calling an iterative solver
             0 MiB given to the printing process from OS
             0 MiB allocation reported by mallinfo(arena+hblkhd)
         22633 MiB available memory on the node where the printing process lives
------------------
     ethr =  8.15E-10,  avg # of iterations =  2.1

     negative rho (up, down):  7.925E-01 0.000E+00

     total cpu time spent up to now is      642.0 secs

     total energy              =   -4441.64841532 Ry
     estimated scf accuracy    <       0.00000254 Ry

     iteration # 35     ecut=    60.00 Ry     beta= 0.15
     Davidson diagonalization with overlap

---- Real-time Memory Report at c_bands before calling an iterative solver
             0 MiB given to the printing process from OS
             0 MiB allocation reported by mallinfo(arena+hblkhd)
         22640 MiB available memory on the node where the printing process lives
------------------
     ethr =  5.90E-10,  avg # of iterations =  2.2

     negative rho (up, down):  7.924E-01 0.000E+00

     total cpu time spent up to now is      659.6 secs

     total energy              =   -4441.64841588 Ry
     estimated scf accuracy    <       0.00000161 Ry

     iteration # 36     ecut=    60.00 Ry     beta= 0.15
     Davidson diagonalization with overlap

---- Real-time Memory Report at c_bands before calling an iterative solver
             0 MiB given to the printing process from OS
             0 MiB allocation reported by mallinfo(arena+hblkhd)
         22643 MiB available memory on the node where the printing process lives
------------------
     ethr =  3.73E-10,  avg # of iterations =  2.7

     negative rho (up, down):  7.924E-01 0.000E+00

     total cpu time spent up to now is      677.4 secs

     total energy              =   -4441.64841627 Ry
     estimated scf accuracy    <       0.00000090 Ry

     iteration # 37     ecut=    60.00 Ry     beta= 0.15
     Davidson diagonalization with overlap

---- Real-time Memory Report at c_bands before calling an iterative solver
             0 MiB given to the printing process from OS
             0 MiB allocation reported by mallinfo(arena+hblkhd)
         22646 MiB available memory on the node where the printing process lives
------------------
     ethr =  2.08E-10,  avg # of iterations =  3.4

     negative rho (up, down):  7.924E-01 0.000E+00

     total cpu time spent up to now is      695.7 secs

     total energy              =   -4441.64841640 Ry
     estimated scf accuracy    <       0.00000048 Ry

     iteration # 38     ecut=    60.00 Ry     beta= 0.15
     Davidson diagonalization with overlap

---- Real-time Memory Report at c_bands before calling an iterative solver
             0 MiB given to the printing process from OS
             0 MiB allocation reported by mallinfo(arena+hblkhd)
         22635 MiB available memory on the node where the printing process lives
------------------
     ethr =  1.11E-10,  avg # of iterations =  2.2

     negative rho (up, down):  7.924E-01 0.000E+00

     total cpu time spent up to now is      713.3 secs

     total energy              =   -4441.64841642 Ry
     estimated scf accuracy    <       0.00000037 Ry

     iteration # 39     ecut=    60.00 Ry     beta= 0.15
     Davidson diagonalization with overlap

---- Real-time Memory Report at c_bands before calling an iterative solver
             0 MiB given to the printing process from OS
             0 MiB allocation reported by mallinfo(arena+hblkhd)
         22648 MiB available memory on the node where the printing process lives
------------------
     ethr =  8.64E-11,  avg # of iterations =  1.8

     negative rho (up, down):  7.925E-01 0.000E+00

     total cpu time spent up to now is      730.3 secs

     total energy              =   -4441.64841647 Ry
     estimated scf accuracy    <       0.00000033 Ry

     iteration # 40     ecut=    60.00 Ry     beta= 0.15
     Davidson diagonalization with overlap

---- Real-time Memory Report at c_bands before calling an iterative solver
             0 MiB given to the printing process from OS
             0 MiB allocation reported by mallinfo(arena+hblkhd)
         22649 MiB available memory on the node where the printing process lives
------------------
     ethr =  7.69E-11,  avg # of iterations =  2.2

     negative rho (up, down):  7.925E-01 0.000E+00

     total cpu time spent up to now is      747.8 secs

     total energy              =   -4441.64841665 Ry
     estimated scf accuracy    <       0.00000022 Ry

     iteration # 41     ecut=    60.00 Ry     beta= 0.15
     Davidson diagonalization with overlap

---- Real-time Memory Report at c_bands before calling an iterative solver
             0 MiB given to the printing process from OS
             0 MiB allocation reported by mallinfo(arena+hblkhd)
         22645 MiB available memory on the node where the printing process lives
------------------
     ethr =  5.20E-11,  avg # of iterations =  3.8

     negative rho (up, down):  7.925E-01 0.000E+00

     total cpu time spent up to now is      766.2 secs

     total energy              =   -4441.64841672 Ry
     estimated scf accuracy    <       0.00000009 Ry

     iteration # 42     ecut=    60.00 Ry     beta= 0.15
     Davidson diagonalization with overlap

---- Real-time Memory Report at c_bands before calling an iterative solver
             0 MiB given to the printing process from OS
             0 MiB allocation reported by mallinfo(arena+hblkhd)
         22646 MiB available memory on the node where the printing process lives
------------------
     ethr =  2.14E-11,  avg # of iterations =  2.8

     negative rho (up, down):  7.925E-01 0.000E+00

     total cpu time spent up to now is      784.1 secs

     total energy              =   -4441.64841674 Ry
     estimated scf accuracy    <       0.00000005 Ry

     iteration # 43     ecut=    60.00 Ry     beta= 0.15
     Davidson diagonalization with overlap

---- Real-time Memory Report at c_bands before calling an iterative solver
             0 MiB given to the printing process from OS
             0 MiB allocation reported by mallinfo(arena+hblkhd)
         22642 MiB available memory on the node where the printing process lives
------------------
     ethr =  1.25E-11,  avg # of iterations =  2.5

     negative rho (up, down):  7.925E-01 0.000E+00

     total cpu time spent up to now is      801.6 secs

     total energy              =   -4441.64841675 Ry
     estimated scf accuracy    <       0.00000004 Ry

     iteration # 44     ecut=    60.00 Ry     beta= 0.15
     Davidson diagonalization with overlap

---- Real-time Memory Report at c_bands before calling an iterative solver
             0 MiB given to the printing process from OS
             0 MiB allocation reported by mallinfo(arena+hblkhd)
         22644 MiB available memory on the node where the printing process lives
------------------
     ethr =  9.64E-12,  avg # of iterations =  3.6

     negative rho (up, down):  7.925E-01 0.000E+00

     total cpu time spent up to now is      819.9 secs

     total energy              =   -4441.64841675 Ry
     estimated scf accuracy    <       0.00000002 Ry

     iteration # 45     ecut=    60.00 Ry     beta= 0.15
     Davidson diagonalization with overlap

---- Real-time Memory Report at c_bands before calling an iterative solver
             0 MiB given to the printing process from OS
             0 MiB allocation reported by mallinfo(arena+hblkhd)
         22637 MiB available memory on the node where the printing process lives
------------------
     ethr =  5.30E-12,  avg # of iterations =  2.6

     negative rho (up, down):  7.925E-01 0.000E+00

     total cpu time spent up to now is      837.4 secs

     total energy              =   -4441.64841675 Ry
     estimated scf accuracy    <       0.00000001 Ry

     iteration # 46     ecut=    60.00 Ry     beta= 0.15
     Davidson diagonalization with overlap

---- Real-time Memory Report at c_bands before calling an iterative solver
             0 MiB given to the printing process from OS
             0 MiB allocation reported by mallinfo(arena+hblkhd)
         22637 MiB available memory on the node where the printing process lives
------------------
     ethr =  3.25E-12,  avg # of iterations =  2.5

     negative rho (up, down):  7.925E-01 0.000E+00

     total cpu time spent up to now is      854.7 secs

     End of self-consistent calculation

          k = 0.0000 0.0000 0.0000 ( 65197 PWs)   bands (ev):

   -92.6816 -92.6294 -92.5355 -92.4885 -92.4292 -92.3878 -92.3714 -92.2520
   -56.0350 -56.0162 -55.8929 -55.8823 -55.8761 -55.8691 -55.8342 -55.8048
   -55.7902 -55.7872 -55.7791 -55.7371 -55.7187 -55.6806 -55.6619 -55.6289
   -55.6244 -55.5767 -55.5755 -55.5732 -55.5647 -55.5271 -55.5015 -55.4187
   -31.2592 -31.2398 -31.0982 -31.0338 -31.0113 -30.9554 -30.8413 -30.7304
   -29.8294 -29.7861 -29.7603 -29.6519 -15.0623 -15.0192 -14.9381 -14.8075
   -14.6162 -14.4925 -14.2002 -14.1794 -14.1512 -14.1047 -14.0600 -14.0507
   -14.0387 -14.0215 -14.0003 -13.9625 -13.9278 -13.9104 -13.7601 -13.5831
   -13.5480 -13.5180 -13.4863 -13.4699 -13.4155 -13.3824 -13.3038 -13.2319
   -13.1118 -13.0914 -13.0812 -13.0562 -13.0425 -13.0376 -12.9842 -12.9801
   -12.9483 -12.9356 -12.9042 -12.8852 -12.8684 -12.8411 -12.8310 -12.7685
   -12.7575 -12.7393 -12.6707 -12.6368 -12.6225 -12.3236 -12.1781 -12.0156
   -11.9335 -11.8429 -11.7687 -11.7575 -11.7349 -11.7173 -11.6535 -11.6363
   -11.6016 -11.5725 -11.4610 -11.3810 -11.3773  -2.9224  -2.6902  -2.4603
    -2.3141  -2.2507  -2.1086  -1.8017  -1.7875  -1.7675  -1.6836  -1.6641
    -1.5958  -1.5796  -1.5389  -1.4926  -1.3128  -1.0889  -1.0594  -1.0325
    -0.9118  -0.8974  -0.8514  -0.8329  -0.7877  -0.7710  -0.7144  -0.6882
    -0.6167  -0.6026  -0.5279  -0.3970  -0.3835  -0.3545  -0.2736  -0.2573
    -0.2444  -0.1768  -0.1091  -0.0711  -0.0099   0.0134   0.0861   0.1708
     0.2002   0.2258   0.2646   0.4906   0.5050   0.6810   0.7428   0.8076
     0.8793   0.9521   0.9677   0.9814   1.0409   1.0681   1.1030   1.1607
     1.2926   1.3502   1.3746   1.3959   1.4040   1.4690   1.5405   1.6444
     1.6597   1.7191   1.7325   1.7750   1.7987   1.8036   1.8665   1.9159
     1.9370   1.9710   2.0052   2.0476   2.1777   2.2574   2.3023   2.3248
     2.4603   2.4799   2.5006   2.5094   2.5322   2.5389   2.6572   2.6778
     2.7081   2.7259   2.7384   2.8180   2.9262   2.9580   2.9703   2.9770
     3.0441   3.0478   3.0731   3.0805   3.0897   3.1039   3.1083   3.1225
     3.1274   3.1417   3.1494   3.1565   3.1756   3.1966   3.2024   3.2135
     3.2371   3.3547   3.4403   4.1308   4.4469   4.7841   4.8785   5.0671
     5.7510   5.9511   6.0019   6.0406   6.3332   6.3806   6.4953   6.5048
     6.7462   7.0207   7.1114   7.3340   7.4570   7.5586   7.6581   7.6808
     7.6960   7.8533   7.9292   8.1196   8.1278   8.1942   8.4144   8.4916
     8.6769   8.7775   8.8890

     occupation numbers 
     1.0000   1.0000   1.0000   1.0000   1.0000   1.0000   1.0000   1.0000
     1.0000   1.0000   1.0000   1.0000   1.0000   1.0000   1.0000   1.0000
     1.0000   1.0000   1.0000   1.0000   1.0000   1.0000   1.0000   1.0000
     1.0000   1.0000   1.0000   1.0000   1.0000   1.0000   1.0000   1.0000
     1.0000   1.0000   1.0000   1.0000   1.0000   1.0000   1.0000   1.0000
     1.0000   1.0000   1.0000   1.0000   1.0000   1.0000   1.0000   1.0000
     1.0000   1.0000   1.0000   1.0000   1.0000   1.0000   1.0000   1.0000
     1.0000   1.0000   1.0000   1.0000   1.0000   1.0000   1.0000   1.0000
     1.0000   1.0000   1.0000   1.0000   1.0000   1.0000   1.0000   1.0000
     1.0000   1.0000   1.0000   1.0000   1.0000   1.0000   1.0000   1.0000
     1.0000   1.0000   1.0000   1.0000   1.0000   1.0000   1.0000   1.0000
     1.0000   1.0000   1.0000   1.0000   1.0000   1.0000   1.0000   1.0000
     1.0000   1.0000   1.0000   1.0000   1.0000   1.0000   1.0000   1.0000
     1.0000   1.0000   1.0000   1.0000   1.0000   1.0000   1.0000   1.0000
     1.0000   1.0000   1.0000   1.0000   1.0000   1.0000   1.0000   1.0000
     1.0000   1.0000   1.0000   1.0000   1.0000   1.0000   1.0000   1.0000
     1.0000   1.0000   1.0000   1.0000   1.0000   1.0000   1.0000   1.0000
     1.0000   1.0000   1.0000   1.0000   1.0000   1.0000   1.0000   1.0000
     1.0000   1.0000   1.0000   1.0000   1.0000   1.0000   1.0000   1.0000
     1.0000   1.0000   1.0000   1.0000   1.0000   1.0000   0.9999   0.9999
     0.9999   0.9998   0.9998   0.9998   0.9997   0.9996   0.9996   0.9994
     0.9989   0.9985   0.9983   0.9981   0.9980   0.9973   0.9963   0.9942
     0.9939   0.9921   0.9917   0.9902   0.9892   0.9890   0.9860   0.9831
     0.9818   0.9794   0.9768   0.9731   0.9586   0.9470   0.9394   0.9353
     0.9058   0.9008   0.8953   0.8929   0.8866   0.8846   0.8468   0.8395
     0.8282   0.8214   0.8165   0.7835   0.7335   0.7177   0.7116   0.7081
     0.6731   0.6711   0.6573   0.6533   0.6483   0.6404   0.6379   0.6300
     0.6273   0.6192   0.6148   0.6108   0.5999   0.5878   0.5844   0.5780
     0.5642   0.4949   0.4443   0.1219   0.0510   0.0164   0.0114   0.0053
     0.0002   0.0001   0.0000   0.0000   0.0000   0.0000   0.0000   0.0000
     0.0000   0.0000   0.0000   0.0000   0.0000   0.0000   0.0000   0.0000
     0.0000   0.0000   0.0000   0.0000   0.0000   0.0000   0.0000   0.0000
     0.0000   0.0000   0.0000

          k = 0.0000 0.2500 0.0000 ( 65257 PWs)   bands (ev):

   -92.6816 -92.6294 -92.5355 -92.4885 -92.4292 -92.3878 -92.3714 -92.2520
   -56.0350 -56.0162 -55.8929 -55.8823 -55.8761 -55.8691 -55.8342 -55.8048
   -55.7902 -55.7872 -55.7791 -55.7371 -55.7187 -55.6806 -55.6619 -55.6289
   -55.6244 -55.5767 -55.5755 -55.5732 -55.5647 -55.5271 -55.5015 -55.4187
   -31.2590 -31.2396 -31.0984 -31.0334 -31.0114 -30.9558 -30.8410 -30.7307
   -29.8288 -29.7858 -29.7610 -29.6523 -15.0257 -14.9930 -14.9130 -14.7782
   -14.6569 -14.4830 -14.3453 -14.1662 -14.1308 -14.1102 -14.0811 -14.0238
   -14.0174 -14.0034 -13.9840 -13.9406 -13.9231 -13.8293 -13.7909 -13.6288
   -13.6083 -13.5592 -13.5233 -13.4775 -13.4350 -13.3924 -13.3240 -13.2892
   -13.2199 -13.1395 -13.1277 -13.0901 -13.0734 -13.0219 -12.9701 -12.9462
   -12.9172 -12.8987 -12.8820 -12.8480 -12.8089 -12.7925 -12.7821 -12.7625
   -12.7257 -12.7024 -12.6640 -12.5511 -12.4718 -12.3850 -12.2293 -12.0721
   -12.0007 -11.8084 -11.7655 -11.7376 -11.7093 -11.6928 -11.6454 -11.6341
   -11.6115 -11.5774 -11.4753 -11.4226 -11.4120  -2.7871  -2.5659  -2.4280
    -2.2464  -2.2028  -2.0391  -1.8200  -1.7352  -1.7222  -1.6646  -1.5623
    -1.5461  -1.5110  -1.4855  -1.4415  -1.2440  -1.1161  -1.1053  -1.0396
    -1.0212  -1.0134  -0.9121  -0.8825  -0.8250  -0.7998  -0.7589  -0.6947
    -0.6681  -0.6363  -0.6047  -0.5876  -0.5553  -0.4816  -0.4300  -0.3605
    -0.2545  -0.2323  -0.1918  -0.0749  -0.0409   0.0302   0.0738   0.1450
     0.1747   0.2041   0.2413   0.5414   0.6258   0.6542   0.7503   0.7950
     0.8465   0.9324   0.9538   1.0480   1.0699   1.0955   1.2116   1.3038
     1.3259   1.3490   1.3706   1.3944   1.4543   1.4821   1.5079   1.5565
     1.5919   1.6221   1.7032   1.7355   1.7786   1.8288   1.8823   1.9252
     1.9528   1.9829   1.9955   2.1006   2.2095   2.2834   2.3088   2.3780
     2.4240   2.4626   2.4738   2.4900   2.5051   2.5442   2.5739   2.6743
     2.7014   2.7159   2.8845   2.9065   2.9387   2.9610   2.9778   2.9863
     2.9934   3.0026   3.0321   3.0358   3.0536   3.0574   3.0679   3.0854
     3.0974   3.1048   3.1274   3.1381   3.1433   3.1773   3.1937   3.2558
     3.6179   3.6642   3.9040   4.3257   4.4400   4.7248   5.0314   5.0931
     5.6571   5.8201   5.9281   5.9999   6.1017   6.1297   6.2015   6.6122
     6.8446   7.0889   7.1517   7.3459   7.4996   7.5104   7.5257   7.6614
     7.8342   7.9550   8.0355   8.1751   8.3220   8.3803   8.3949   8.4298
     8.5217   8.7803   8.9314

     occupation numbers 
     1.0000   1.0000   1.0000   1.0000   1.0000   1.0000   1.0000   1.0000
     1.0000   1.0000   1.0000   1.0000   1.0000   1.0000   1.0000   1.0000
     1.0000   1.0000   1.0000   1.0000   1.0000   1.0000   1.0000   1.0000
     1.0000   1.0000   1.0000   1.0000   1.0000   1.0000   1.0000   1.0000
     1.0000   1.0000   1.0000   1.0000   1.0000   1.0000   1.0000   1.0000
     1.0000   1.0000   1.0000   1.0000   1.0000   1.0000   1.0000   1.0000
     1.0000   1.0000   1.0000   1.0000   1.0000   1.0000   1.0000   1.0000
     1.0000   1.0000   1.0000   1.0000   1.0000   1.0000   1.0000   1.0000
     1.0000   1.0000   1.0000   1.0000   1.0000   1.0000   1.0000   1.0000
     1.0000   1.0000   1.0000   1.0000   1.0000   1.0000   1.0000   1.0000
     1.0000   1.0000   1.0000   1.0000   1.0000   1.0000   1.0000   1.0000
     1.0000   1.0000   1.0000   1.0000   1.0000   1.0000   1.0000   1.0000
     1.0000   1.0000   1.0000   1.0000   1.0000   1.0000   1.0000   1.0000
     1.0000   1.0000   1.0000   1.0000   1.0000   1.0000   1.0000   1.0000
     1.0000   1.0000   1.0000   1.0000   1.0000   1.0000   1.0000   1.0000
     1.0000   1.0000   1.0000   1.0000   1.0000   1.0000   1.0000   1.0000
     1.0000   1.0000   1.0000   1.0000   1.0000   1.0000   1.0000   1.0000
     1.0000   1.0000   1.0000   1.0000   1.0000   1.0000   1.0000   1.0000
     1.0000   1.0000   1.0000   1.0000   1.0000   1.0000   1.0000   1.0000
     1.0000   1.0000   1.0000   1.0000   1.0000   1.0000   0.9999   0.9999
     0.9999   0.9998   0.9998   0.9997   0.9996   0.9996   0.9992   0.9988
     0.9986   0.9985   0.9983   0.9981   0.9975   0.9972   0.9968   0.9961
     0.9954   0.9948   0.9926   0.9916   0.9900   0.9879   0.9851   0.9826
     0.9807   0.9785   0.9775   0.9678   0.9542   0.9427   0.9382   0.9247
     0.9145   0.9052   0.9024   0.8981   0.8941   0.8831   0.8742   0.8407
     0.8308   0.8253   0.7534   0.7430   0.7274   0.7162   0.7077   0.7034
     0.6997   0.6949   0.6795   0.6774   0.6680   0.6659   0.6602   0.6506
     0.6440   0.6399   0.6273   0.6213   0.6183   0.5989   0.5895   0.5533
     0.3432   0.3183   0.2037   0.0729   0.0521   0.0203   0.0062   0.0047
     0.0003   0.0001   0.0001   0.0000   0.0000   0.0000   0.0000   0.0000
     0.0000   0.0000   0.0000   0.0000   0.0000   0.0000   0.0000   0.0000
     0.0000   0.0000   0.0000   0.0000   0.0000   0.0000   0.0000   0.0000
     0.0000   0.0000   0.0000

          k = 0.0000-0.5000 0.0000 ( 65180 PWs)   bands (ev):

   -92.6816 -92.6294 -92.5355 -92.4885 -92.4292 -92.3878 -92.3714 -92.2520
   -56.0350 -56.0162 -55.8929 -55.8823 -55.8761 -55.8691 -55.8342 -55.8048
   -55.7902 -55.7872 -55.7791 -55.7371 -55.7187 -55.6806 -55.6619 -55.6289
   -55.6244 -55.5767 -55.5755 -55.5732 -55.5647 -55.5271 -55.5015 -55.4187
   -31.2588 -31.2395 -31.0986 -31.0330 -31.0116 -30.9562 -30.8407 -30.7310
   -29.8282 -29.7854 -29.7616 -29.6526 -14.9908 -14.9424 -14.8891 -14.7608
   -14.6769 -14.5390 -14.3869 -14.2624 -14.1384 -14.0652 -14.0237 -14.0185
   -13.9687 -13.9520 -13.9303 -13.9026 -13.8817 -13.8573 -13.8230 -13.7847
   -13.7448 -13.5645 -13.5060 -13.4838 -13.4372 -13.3943 -13.3394 -13.2865
   -13.2646 -13.2263 -13.1992 -13.0910 -13.0748 -13.0055 -12.9628 -12.9473
   -12.9295 -12.9101 -12.8632 -12.8060 -12.7875 -12.7636 -12.7120 -12.6867
   -12.6841 -12.6703 -12.6331 -12.4960 -12.4119 -12.3044 -12.2547 -12.1779
   -12.1320 -11.7624 -11.7600 -11.7326 -11.6952 -11.6609 -11.6497 -11.6072
   -11.6032 -11.5590 -11.4969 -11.4834 -11.4692  -2.5730  -2.5125  -2.3629
    -2.2907  -2.0095  -1.9254  -1.7986  -1.6612  -1.6236  -1.6046  -1.5246
    -1.4942  -1.4125  -1.3771  -1.3001  -1.2600  -1.2213  -1.1946  -1.1367
    -1.0997  -1.0539  -1.0282  -1.0160  -0.9834  -0.9490  -0.8393  -0.7946
    -0.7587  -0.7578  -0.6725  -0.6386  -0.6179  -0.5660  -0.4821  -0.4133
    -0.3273  -0.2996  -0.1983  -0.1479  -0.0098   0.0327   0.0521   0.1346
     0.2627   0.2856   0.4111   0.4803   0.4876   0.6142   0.6630   0.8289
     0.8922   1.0046   1.0338   1.0715   1.0756   1.1252   1.1330   1.1682
     1.1875   1.1957   1.3043   1.3659   1.3989   1.4259   1.6821   1.7136
     1.7431   1.8340   1.8639   1.8832   1.8996   1.9299   1.9409   1.9634
     1.9875   2.0222   2.0555   2.0881   2.0940   2.1210   2.1716   2.2563
     2.2824   2.4634   2.4857   2.5022   2.6230   2.6342   2.6732   2.6875
     2.6936   2.7020   2.7529   2.7642   2.8182   2.8403   2.9178   2.9313
     2.9979   3.0075   3.0288   3.0320   3.0499   3.0562   3.0619   3.0623
     3.0674   3.0794   3.0974   3.0986   3.1625   3.1681   3.1832   3.2376
     4.1559   4.1779   4.1937   4.2766   4.7762   4.9172   5.0433   5.1822
     5.4314   5.4825   5.5989   5.7463   6.0451   6.0684   6.2774   6.4897
     6.8677   6.9673   7.2296   7.3394   7.3820   7.4979   7.5925   7.7721
     7.9265   8.0224   8.2240   8.2538   8.3153   8.4136   8.5061   8.6824
     8.8050   8.8301   8.8506

     occupation numbers 
     1.0000   1.0000   1.0000   1.0000   1.0000   1.0000   1.0000   1.0000
     1.0000   1.0000   1.0000   1.0000   1.0000   1.0000   1.0000   1.0000
     1.0000   1.0000   1.0000   1.0000   1.0000   1.0000   1.0000   1.0000
     1.0000   1.0000   1.0000   1.0000   1.0000   1.0000   1.0000   1.0000
     1.0000   1.0000   1.0000   1.0000   1.0000   1.0000   1.0000   1.0000
     1.0000   1.0000   1.0000   1.0000   1.0000   1.0000   1.0000   1.0000
     1.0000   1.0000   1.0000   1.0000   1.0000   1.0000   1.0000   1.0000
     1.0000   1.0000   1.0000   1.0000   1.0000   1.0000   1.0000   1.0000
     1.0000   1.0000   1.0000   1.0000   1.0000   1.0000   1.0000   1.0000
     1.0000   1.0000   1.0000   1.0000   1.0000   1.0000   1.0000   1.0000
     1.0000   1.0000   1.0000   1.0000   1.0000   1.0000   1.0000   1.0000
     1.0000   1.0000   1.0000   1.0000   1.0000   1.0000   1.0000   1.0000
     1.0000   1.0000   1.0000   1.0000   1.0000   1.0000   1.0000   1.0000
     1.0000   1.0000   1.0000   1.0000   1.0000   1.0000   1.0000   1.0000
     1.0000   1.0000   1.0000   1.0000   1.0000   1.0000   1.0000   1.0000
     1.0000   1.0000   1.0000   1.0000   1.0000   1.0000   1.0000   1.0000
     1.0000   1.0000   1.0000   1.0000   1.0000   1.0000   1.0000   1.0000
     1.0000   1.0000   1.0000   1.0000   1.0000   1.0000   1.0000   1.0000
     1.0000   1.0000   1.0000   1.0000   1.0000   1.0000   1.0000   1.0000
     1.0000   1.0000   1.0000   1.0000   1.0000   1.0000   1.0000   0.9999
     0.9999   0.9997   0.9997   0.9996   0.9996   0.9995   0.9995   0.9994
     0.9993   0.9993   0.9988   0.9984   0.9981   0.9978   0.9933   0.9923
     0.9913   0.9876   0.9861   0.9851   0.9841   0.9823   0.9815   0.9800
     0.9782   0.9753   0.9723   0.9691   0.9685   0.9655   0.9594   0.9472
     0.9429   0.9050   0.8993   0.8949   0.8585   0.8547   0.8411   0.8359
     0.8336   0.8305   0.8107   0.8062   0.7834   0.7737   0.7375   0.7310
     0.6974   0.6924   0.6812   0.6795   0.6699   0.6665   0.6634   0.6632
     0.6605   0.6539   0.6440   0.6433   0.6074   0.6042   0.5955   0.5639
     0.1146   0.1084   0.1040   0.0835   0.0168   0.0098   0.0059   0.0032
     0.0010   0.0008   0.0004   0.0002   0.0000   0.0000   0.0000   0.0000
     0.0000   0.0000   0.0000   0.0000   0.0000   0.0000   0.0000   0.0000
     0.0000   0.0000   0.0000   0.0000   0.0000   0.0000   0.0000   0.0000
     0.0000   0.0000   0.0000

          k = 0.2500 0.2500 0.0000 ( 65198 PWs)   bands (ev):

   -92.6816 -92.6294 -92.5355 -92.4885 -92.4292 -92.3878 -92.3714 -92.2520
   -56.0350 -56.0162 -55.8929 -55.8823 -55.8761 -55.8691 -55.8342 -55.8048
   -55.7902 -55.7872 -55.7791 -55.7371 -55.7187 -55.6806 -55.6619 -55.6289
   -55.6244 -55.5767 -55.5755 -55.5732 -55.5647 -55.5271 -55.5015 -55.4187
   -31.2573 -31.2413 -31.0980 -31.0332 -31.0118 -30.9557 -30.8411 -30.7308
   -29.8279 -29.7867 -29.7606 -29.6527 -14.9971 -14.9581 -14.8850 -14.7679
   -14.6491 -14.5235 -14.4509 -14.2445 -14.0896 -14.0763 -14.0400 -14.0108
   -13.9888 -13.9623 -13.9339 -13.9256 -13.8963 -13.8205 -13.8042 -13.6445
   -13.6302 -13.6008 -13.5813 -13.5280 -13.4916 -13.4309 -13.4075 -13.2754
   -13.2227 -13.2080 -13.1233 -13.0830 -13.0320 -13.0004 -12.9871 -12.9604
   -12.9281 -12.9063 -12.8937 -12.8333 -12.7841 -12.7635 -12.7301 -12.7246
   -12.6954 -12.6777 -12.6637 -12.4955 -12.4335 -12.3686 -12.2584 -12.1024
   -12.0497 -11.7806 -11.7490 -11.7381 -11.7309 -11.6685 -11.6336 -11.6271
   -11.5916 -11.5836 -11.4919 -11.4508 -11.4335  -2.6489  -2.4401  -2.3219
    -2.2284  -2.1072  -2.0423  -1.8447  -1.7001  -1.6806  -1.6514  -1.5572
    -1.5212  -1.4285  -1.4012  -1.3510  -1.2205  -1.1718  -1.0997  -1.0544
    -1.0328  -1.0078  -0.9851  -0.9609  -0.9189  -0.9037  -0.8129  -0.7630
    -0.6980  -0.6480  -0.6186  -0.5686  -0.5545  -0.4919  -0.4428  -0.3836
    -0.3501  -0.2653  -0.2136  -0.1839  -0.1451  -0.0891  -0.0201   0.0205
     0.0527   0.1290   0.2033   0.4281   0.5749   0.6104   0.6693   0.7107
     0.8011   0.8609   0.8893   0.9220   1.1942   1.2597   1.3342   1.3579
     1.4080   1.4393   1.4736   1.5099   1.5284   1.5552   1.5983   1.6086
     1.6229   1.6702   1.7132   1.7476   1.7988   1.8427   1.8516   1.8887
     1.9261   1.9804   2.0098   2.1394   2.1934   2.2281   2.2548   2.3217
     2.3875   2.4149   2.4478   2.4687   2.4800   2.5019   2.5091   2.6204
     2.6416   2.7278   2.8957   2.9125   2.9186   2.9343   2.9488   2.9626
     2.9747   2.9820   2.9933   3.0064   3.0192   3.0375   3.0445   3.0557
     3.0778   3.0894   3.0978   3.1306   3.4306   3.5238   3.5658   3.6356
     3.6660   3.8830   3.9740   4.3281   4.5312   4.7356   5.0046   5.1795
     5.6634   5.7197   5.7851   5.8548   5.9133   6.0828   6.1732   6.2283
     6.9122   6.9476   7.0958   7.2396   7.5669   7.6225   7.7298   7.8385
     7.8880   8.0137   8.1648   8.2028   8.2903   8.3503   8.4631   8.5346
     8.6156   8.6499   8.8866

     occupation numbers 
     1.0000   1.0000   1.0000   1.0000   1.0000   1.0000   1.0000   1.0000
     1.0000   1.0000   1.0000   1.0000   1.0000   1.0000   1.0000   1.0000
     1.0000   1.0000   1.0000   1.0000   1.0000   1.0000   1.0000   1.0000
     1.0000   1.0000   1.0000   1.0000   1.0000   1.0000   1.0000   1.0000
     1.0000   1.0000   1.0000   1.0000   1.0000   1.0000   1.0000   1.0000
     1.0000   1.0000   1.0000   1.0000   1.0000   1.0000   1.0000   1.0000
     1.0000   1.0000   1.0000   1.0000   1.0000   1.0000   1.0000   1.0000
     1.0000   1.0000   1.0000   1.0000   1.0000   1.0000   1.0000   1.0000
     1.0000   1.0000   1.0000   1.0000   1.0000   1.0000   1.0000   1.0000
     1.0000   1.0000   1.0000   1.0000   1.0000   1.0000   1.0000   1.0000
     1.0000   1.0000   1.0000   1.0000   1.0000   1.0000   1.0000   1.0000
     1.0000   1.0000   1.0000   1.0000   1.0000   1.0000   1.0000   1.0000
     1.0000   1.0000   1.0000   1.0000   1.0000   1.0000   1.0000   1.0000
     1.0000   1.0000   1.0000   1.0000   1.0000   1.0000   1.0000   1.0000
     1.0000   1.0000   1.0000   1.0000   1.0000   1.0000   1.0000   1.0000
     1.0000   1.0000   1.0000   1.0000   1.0000   1.0000   1.0000   1.0000
     1.0000   1.0000   1.0000   1.0000   1.0000   1.0000   1.0000   1.0000
     1.0000   1.0000   1.0000   1.0000   1.0000   1.0000   1.0000   1.0000
     1.0000   1.0000   1.0000   1.0000   1.0000   1.0000   1.0000   1.0000
     1.0000   1.0000   1.0000   1.0000   1.0000   1.0000   1.0000   1.0000
     0.9999   0.9999   0.9999   0.9998   0.9993   0.9990   0.9986   0.9984
     0.9980   0.9977   0.9973   0.9968   0.9965   0.9961   0.9953   0.9951
     0.9947   0.9936   0.9923   0.9912   0.9892   0.9872   0.9868   0.9848
     0.9825   0.9787   0.9764   0.9634   0.9565   0.9515   0.9474   0.9359
     0.9227   0.9166   0.9088   0.9037   0.9008   0.8950   0.8930   0.8593
     0.8522   0.8207   0.7482   0.7401   0.7372   0.7295   0.7223   0.7154
     0.7093   0.7056   0.6998   0.6929   0.6863   0.6766   0.6728   0.6668
     0.6548   0.6484   0.6438   0.6254   0.4500   0.3959   0.3721   0.3336
     0.3173   0.2126   0.1755   0.0724   0.0392   0.0195   0.0069   0.0032
     0.0003   0.0002   0.0001   0.0001   0.0001   0.0000   0.0000   0.0000
     0.0000   0.0000   0.0000   0.0000   0.0000   0.0000   0.0000   0.0000
     0.0000   0.0000   0.0000   0.0000   0.0000   0.0000   0.0000   0.0000
     0.0000   0.0000   0.0000

          k = 0.2500-0.5000 0.0000 ( 65138 PWs)   bands (ev):

   -92.6816 -92.6294 -92.5355 -92.4885 -92.4292 -92.3878 -92.3714 -92.2520
   -56.0350 -56.0162 -55.8929 -55.8823 -55.8761 -55.8691 -55.8342 -55.8048
   -55.7902 -55.7872 -55.7791 -55.7371 -55.7187 -55.6806 -55.6619 -55.6289
   -55.6244 -55.5767 -55.5755 -55.5732 -55.5647 -55.5271 -55.5015 -55.4187
   -31.2571 -31.2412 -31.0982 -31.0329 -31.0120 -30.9561 -30.8409 -30.7311
   -29.8272 -29.7864 -29.7612 -29.6530 -14.9603 -14.9155 -14.8461 -14.7308
   -14.6997 -14.5796 -14.4895 -14.3597 -14.0539 -14.0004 -13.9746 -13.9531
   -13.9371 -13.9300 -13.9240 -13.8874 -13.8699 -13.8366 -13.8003 -13.7722
   -13.7376 -13.6471 -13.5985 -13.5447 -13.5190 -13.4542 -13.4419 -13.3289
   -13.2732 -13.1881 -13.1235 -13.1017 -13.0161 -12.9733 -12.9673 -12.9579
   -12.9276 -12.9161 -12.8926 -12.8113 -12.7828 -12.7657 -12.7305 -12.7000
   -12.6768 -12.6363 -12.6051 -12.5027 -12.3892 -12.3019 -12.2275 -12.1678
   -12.1364 -11.7562 -11.7442 -11.7333 -11.7061 -11.6746 -11.6462 -11.6049
   -11.5774 -11.5553 -11.5101 -11.4844 -11.4733  -2.4312  -2.3643  -2.2368
    -2.1595  -2.0300  -1.9451  -1.8230  -1.6724  -1.6187  -1.5967  -1.5332
    -1.5200  -1.4232  -1.3565  -1.2716  -1.2219  -1.2124  -1.1495  -1.1073
    -1.0731  -1.0335  -1.0200  -0.9873  -0.9528  -0.9127  -0.9009  -0.8558
    -0.8268  -0.7851  -0.7529  -0.6867  -0.5846  -0.5425  -0.4676  -0.4028
    -0.3537  -0.3110  -0.2896  -0.2388  -0.0772  -0.0663   0.0442   0.0771
     0.0923   0.1403   0.1632   0.2130   0.2303   0.2939   0.5643   0.6583
     0.7677   0.8478   1.0517   1.0810   1.1660   1.1916   1.3569   1.3914
     1.4332   1.4539   1.4707   1.4908   1.5538   1.6002   1.6355   1.7226
     1.8002   1.8439   1.8665   1.8783   1.9105   1.9245   1.9302   1.9755
     1.9886   2.0039   2.0558   2.0639   2.0806   2.1174   2.1721   2.2118
     2.2886   2.4300   2.4854   2.4899   2.5771   2.5987   2.6246   2.6398
     2.6624   2.6904   2.7112   2.7273   2.7497   2.8466   2.8949   2.9143
     2.9191   2.9318   2.9523   2.9665   2.9851   2.9928   3.0249   3.0373
     3.0512   3.0619   3.0718   3.0810   3.6092   3.6145   3.7619   3.8116
     4.1634   4.2000   4.2189   4.3344   4.7938   4.9398   5.0816   5.1537
     5.3239   5.4493   5.6224   5.6569   5.7866   5.8057   6.3759   6.4117
     6.5032   6.6284   7.2007   7.4078   7.5601   7.7205   7.7527   7.8320
     7.8975   8.0576   8.2365   8.4251   8.4816   8.5490   8.5715   8.5848
     8.6912   8.7317   8.7768

     occupation numbers 
     1.0000   1.0000   1.0000   1.0000   1.0000   1.0000   1.0000   1.0000
     1.0000   1.0000   1.0000   1.0000   1.0000   1.0000   1.0000   1.0000
     1.0000   1.0000   1.0000   1.0000   1.0000   1.0000   1.0000   1.0000
     1.0000   1.0000   1.0000   1.0000   1.0000   1.0000   1.0000   1.0000
     1.0000   1.0000   1.0000   1.0000   1.0000   1.0000   1.0000   1.0000
     1.0000   1.0000   1.0000   1.0000   1.0000   1.0000   1.0000   1.0000
     1.0000   1.0000   1.0000   1.0000   1.0000   1.0000   1.0000   1.0000
     1.0000   1.0000   1.0000   1.0000   1.0000   1.0000   1.0000   1.0000
     1.0000   1.0000   1.0000   1.0000   1.0000   1.0000   1.0000   1.0000
     1.0000   1.0000   1.0000   1.0000   1.0000   1.0000   1.0000   1.0000
     1.0000   1.0000   1.0000   1.0000   1.0000   1.0000   1.0000   1.0000
     1.0000   1.0000   1.0000   1.0000   1.0000   1.0000   1.0000   1.0000
     1.0000   1.0000   1.0000   1.0000   1.0000   1.0000   1.0000   1.0000
     1.0000   1.0000   1.0000   1.0000   1.0000   1.0000   1.0000   1.0000
     1.0000   1.0000   1.0000   1.0000   1.0000   1.0000   1.0000   1.0000
     1.0000   1.0000   1.0000   1.0000   1.0000   1.0000   1.0000   1.0000
     1.0000   1.0000   1.0000   1.0000   1.0000   1.0000   1.0000   1.0000
     1.0000   1.0000   1.0000   1.0000   1.0000   1.0000   1.0000   1.0000
     1.0000   1.0000   1.0000   1.0000   1.0000   1.0000   1.0000   1.0000
     1.0000   1.0000   1.0000   1.0000   1.0000   1.0000   1.0000   1.0000
     0.9999   0.9999   0.9997   0.9996   0.9994   0.9993   0.9984   0.9981
     0.9977   0.9975   0.9973   0.9971   0.9961   0.9952   0.9945   0.9920
     0.9891   0.9871   0.9860   0.9854   0.9835   0.9826   0.9822   0.9791
     0.9781   0.9769   0.9723   0.9715   0.9699   0.9660   0.9593   0.9539
     0.9418   0.9131   0.8994   0.8982   0.8732   0.8664   0.8580   0.8528
     0.8450   0.8348   0.8271   0.8209   0.8120   0.7708   0.7485   0.7393
     0.7369   0.7308   0.7206   0.7135   0.7040   0.7000   0.6833   0.6766
     0.6692   0.6634   0.6581   0.6530   0.3480   0.3451   0.2684   0.2447
     0.1124   0.1024   0.0975   0.0711   0.0158   0.0090   0.0050   0.0036
     0.0017   0.0009   0.0004   0.0003   0.0001   0.0001   0.0000   0.0000
     0.0000   0.0000   0.0000   0.0000   0.0000   0.0000   0.0000   0.0000
     0.0000   0.0000   0.0000   0.0000   0.0000   0.0000   0.0000   0.0000
     0.0000   0.0000   0.0000

          k =-0.5000-0.5000 0.0000 ( 65132 PWs)   bands (ev):

   -92.6816 -92.6294 -92.5355 -92.4885 -92.4292 -92.3878 -92.3714 -92.2520
   -56.0350 -56.0162 -55.8929 -55.8823 -55.8761 -55.8691 -55.8342 -55.8048
   -55.7902 -55.7872 -55.7791 -55.7371 -55.7187 -55.6806 -55.6619 -55.6289
   -55.6244 -55.5767 -55.5755 -55.5732 -55.5647 -55.5271 -55.5015 -55.4187
   -31.2549 -31.2434 -31.0978 -31.0327 -31.0123 -30.9560 -30.8410 -30.7313
   -29.8262 -29.7875 -29.7608 -29.6534 -14.9138 -14.8885 -14.7708 -14.7585
   -14.6626 -14.6269 -14.5927 -14.4594 -13.9647 -13.9540 -13.9298 -13.9185
   -13.9007 -13.8826 -13.8678 -13.8409 -13.8278 -13.8141 -13.8072 -13.7907
   -13.7139 -13.7076 -13.6753 -13.6431 -13.6357 -13.5403 -13.5129 -13.3718
   -13.3114 -13.1388 -13.0990 -13.0312 -13.0068 -12.9728 -12.9657 -12.9564
   -12.9435 -12.9361 -12.8926 -12.8005 -12.7789 -12.7707 -12.7495 -12.7148
   -12.6909 -12.5863 -12.5783 -12.5191 -12.3683 -12.2983 -12.1965 -12.1571
   -12.1458 -11.7527 -11.7404 -11.7225 -11.7058 -11.6708 -11.6532 -11.6184
   -11.5577 -11.5376 -11.5324 -11.4822 -11.4792  -2.2070  -2.1319  -2.1216
    -2.0469  -2.0103  -1.9323  -1.8646  -1.7384  -1.6228  -1.5930  -1.5531
    -1.4959  -1.4241  -1.4096  -1.3391  -1.2957  -1.1796  -1.1507  -1.1019
    -1.0731  -1.0309  -1.0084  -0.9630  -0.9441  -0.9321  -0.8764  -0.8336
    -0.8183  -0.7052  -0.6476  -0.6016  -0.5520  -0.5216  -0.5119  -0.4777
    -0.4343  -0.4005  -0.3890  -0.3024  -0.2386  -0.1910  -0.1668  -0.0924
    -0.0372  -0.0229   0.0345   0.0668   0.0741   0.1189   0.5366   0.5735
     0.6952   0.8001   1.0862   1.1002   1.1297   1.1692   1.4425   1.4629
     1.4698   1.5090   1.6355   1.7311   1.7578   1.7934   1.8125   1.8426
     1.8481   1.8776   1.8858   1.9007   1.9159   1.9679   1.9717   2.0011
     2.0148   2.0396   2.0493   2.0859   2.1121   2.1312   2.1599   2.1930
     2.2506   2.3225   2.4852   2.4879   2.5939   2.6203   2.6413   2.6569
     2.6747   2.6988   2.7017   2.7211   2.7324   2.7493   2.7697   2.7809
     2.8474   2.8496   2.8718   2.8860   2.8976   2.9176   2.9214   2.9317
     3.0340   3.0379   3.0689   3.0790   4.0464   4.0692   4.0820   4.0866
     4.3407   4.4181   4.4378   4.6786   4.8006   4.8835   5.0123   5.0964
     5.1234   5.2259   5.3180   5.4311   5.8686   5.8967   5.9743   6.0458
     6.6001   6.8136   6.9949   7.0470   7.8726   7.9215   7.9347   7.9549
     7.9952   8.0386   8.1090   8.2810   8.3989   8.6035   8.6342   8.6772
     8.6990   8.8156   8.8271

     occupation numbers 
     1.0000   1.0000   1.0000   1.0000   1.0000   1.0000   1.0000   1.0000
     1.0000   1.0000   1.0000   1.0000   1.0000   1.0000   1.0000   1.0000
     1.0000   1.0000   1.0000   1.0000   1.0000   1.0000   1.0000   1.0000
     1.0000   1.0000   1.0000   1.0000   1.0000   1.0000   1.0000   1.0000
     1.0000   1.0000   1.0000   1.0000   1.0000   1.0000   1.0000   1.0000
     1.0000   1.0000   1.0000   1.0000   1.0000   1.0000   1.0000   1.0000
     1.0000   1.0000   1.0000   1.0000   1.0000   1.0000   1.0000   1.0000
     1.0000   1.0000   1.0000   1.0000   1.0000   1.0000   1.0000   1.0000
     1.0000   1.0000   1.0000   1.0000   1.0000   1.0000   1.0000   1.0000
     1.0000   1.0000   1.0000   1.0000   1.0000   1.0000   1.0000   1.0000
     1.0000   1.0000   1.0000   1.0000   1.0000   1.0000   1.0000   1.0000
     1.0000   1.0000   1.0000   1.0000   1.0000   1.0000   1.0000   1.0000
     1.0000   1.0000   1.0000   1.0000   1.0000   1.0000   1.0000   1.0000
     1.0000   1.0000   1.0000   1.0000   1.0000   1.0000   1.0000   1.0000
     1.0000   1.0000   1.0000   1.0000   1.0000   1.0000   1.0000   1.0000
     1.0000   1.0000   1.0000   1.0000   1.0000   1.0000   1.0000   1.0000
     1.0000   1.0000   1.0000   1.0000   1.0000   1.0000   1.0000   1.0000
     1.0000   1.0000   1.0000   1.0000   1.0000   1.0000   1.0000   1.0000
     1.0000   1.0000   1.0000   1.0000   1.0000   1.0000   1.0000   1.0000
     1.0000   1.0000   1.0000   1.0000   1.0000   1.0000   1.0000   1.0000
     1.0000   0.9999   0.9996   0.9996   0.9995   0.9994   0.9976   0.9974
     0.9973   0.9968   0.9945   0.9918   0.9908   0.9894   0.9886   0.9872
     0.9869   0.9854   0.9849   0.9841   0.9831   0.9796   0.9794   0.9771
     0.9760   0.9738   0.9729   0.9693   0.9665   0.9644   0.9609   0.9566
     0.9481   0.9357   0.8994   0.8987   0.8680   0.8594   0.8523   0.8469
     0.8406   0.8317   0.8307   0.8233   0.8189   0.8122   0.8039   0.7993
     0.7705   0.7695   0.7593   0.7527   0.7472   0.7376   0.7358   0.7308
     0.6784   0.6763   0.6596   0.6541   0.1492   0.1414   0.1372   0.1357
     0.0698   0.0557   0.0525   0.0239   0.0154   0.0112   0.0067   0.0047
     0.0042   0.0026   0.0017   0.0010   0.0001   0.0001   0.0000   0.0000
     0.0000   0.0000   0.0000   0.0000   0.0000   0.0000   0.0000   0.0000
     0.0000   0.0000   0.0000   0.0000   0.0000   0.0000   0.0000   0.0000
     0.0000   0.0000   0.0000

          k = 0.2500 0.0000 0.0000 ( 65257 PWs)   bands (ev):

   -92.6816 -92.6294 -92.5355 -92.4885 -92.4292 -92.3878 -92.3714 -92.2520
   -56.0350 -56.0162 -55.8929 -55.8823 -55.8761 -55.8691 -55.8342 -55.8048
   -55.7902 -55.7872 -55.7791 -55.7371 -55.7187 -55.6806 -55.6619 -55.6289
   -55.6244 -55.5767 -55.5755 -55.5732 -55.5647 -55.5271 -55.5015 -55.4187
   -31.2575 -31.2415 -31.0978 -31.0336 -31.0117 -30.9553 -30.8414 -30.7305
   -29.8285 -29.7871 -29.7600 -29.6523 -15.0294 -14.9885 -14.9184 -14.7711
   -14.6656 -14.4711 -14.3364 -14.1563 -14.1401 -14.1097 -14.0793 -14.0535
   -14.0216 -14.0051 -13.9838 -13.9440 -13.9242 -13.8204 -13.7903 -13.6405
   -13.5721 -13.5624 -13.5000 -13.4732 -13.4616 -13.4057 -13.3268 -13.2942
   -13.2035 -13.1405 -13.1222 -13.0436 -13.0381 -13.0241 -13.0071 -12.9911
   -12.9544 -12.9177 -12.8938 -12.8436 -12.8292 -12.8010 -12.7622 -12.7511
   -12.6783 -12.6595 -12.6406 -12.5827 -12.4980 -12.3871 -12.2303 -12.0700
   -11.9998 -11.8077 -11.7556 -11.7385 -11.7252 -11.6984 -11.6478 -11.6247
   -11.6166 -11.5658 -11.4768 -11.4209 -11.4150  -2.7867  -2.5650  -2.4348
    -2.2626  -2.1987  -2.0289  -1.8212  -1.7445  -1.6999  -1.6654  -1.5648
    -1.5505  -1.5145  -1.4954  -1.4274  -1.2469  -1.1380  -1.0995  -1.0333
    -1.0009  -0.9898  -0.9101  -0.8833  -0.8330  -0.7920  -0.7392  -0.7114
    -0.6617  -0.6354  -0.6173  -0.5610  -0.5449  -0.4560  -0.4465  -0.3827
    -0.2831  -0.2330  -0.1150  -0.0978  -0.0338   0.0053   0.0653   0.0896
     0.1255   0.2112   0.2571   0.5155   0.6474   0.6917   0.7683   0.7958
     0.8393   0.8736   0.9271   1.0438   1.0858   1.1115   1.1485   1.3007
     1.3307   1.3640   1.3707   1.4097   1.4569   1.4992   1.5340   1.5851
     1.6363   1.6517   1.7090   1.7451   1.7909   1.8114   1.8977   1.9069
     1.9314   1.9799   2.0022   2.1178   2.1805   2.2405   2.3220   2.3316
     2.4131   2.4619   2.4832   2.4966   2.5213   2.5582   2.5679   2.6065
[...]
     0.3493   0.3244   0.2052   0.0781   0.0464   0.0218   0.0060   0.0049
     0.0003   0.0001   0.0001   0.0000   0.0000   0.0000   0.0000   0.0000
     0.0000   0.0000   0.0000   0.0000   0.0000   0.0000   0.0000   0.0000
     0.0000   0.0000   0.0000   0.0000   0.0000   0.0000   0.0000   0.0000
     0.0000   0.0000   0.0000

          k =-0.5000 0.0000 0.0000 ( 65180 PWs)   bands (ev):

   -92.6816 -92.6294 -92.5355 -92.4885 -92.4292 -92.3878 -92.3714 -92.2520
   -56.0350 -56.0162 -55.8929 -55.8823 -55.8761 -55.8691 -55.8342 -55.8048
   -55.7902 -55.7872 -55.7791 -55.7371 -55.7187 -55.6806 -55.6619 -55.6289
   -55.6244 -55.5767 -55.5755 -55.5732 -55.5647 -55.5271 -55.5015 -55.4187
   -31.2553 -31.2436 -31.0974 -31.0335 -31.0121 -30.9552 -30.8416 -30.7307
   -29.8274 -29.7881 -29.7596 -29.6528 -14.9960 -14.9443 -14.8823 -14.7732
   -14.6700 -14.5249 -14.3814 -14.2368 -14.1131 -14.1005 -14.0892 -14.0284
   -13.9734 -13.9408 -13.9299 -13.8910 -13.8849 -13.8670 -13.8187 -13.7974
   -13.6932 -13.5359 -13.5085 -13.4757 -13.4679 -13.4114 -13.3455 -13.2783
   -13.2492 -13.2257 -13.1944 -13.0357 -13.0272 -13.0212 -12.9984 -12.9895
   -12.9404 -12.9247 -12.9061 -12.8449 -12.8293 -12.7487 -12.6780 -12.6504
   -12.6380 -12.6215 -12.6121 -12.5222 -12.4423 -12.3084 -12.2913 -12.1626
   -12.1215 -11.7597 -11.7381 -11.7314 -11.7168 -11.6987 -11.6575 -11.5945
   -11.5770 -11.5440 -11.4995 -11.4901 -11.4746  -2.5625  -2.5239  -2.3603
    -2.3212  -2.0081  -1.9328  -1.7848  -1.6669  -1.6283  -1.5811  -1.5342
    -1.5093  -1.3864  -1.3422  -1.3261  -1.2440  -1.2086  -1.1926  -1.1622
    -1.1041  -1.0417  -1.0252  -1.0062  -0.9771  -0.8823  -0.8351  -0.7860
    -0.7539  -0.7324  -0.7015  -0.6545  -0.6289  -0.5916  -0.4936  -0.4148
    -0.3552  -0.2922  -0.1329  -0.0725  -0.0373  -0.0048   0.0525   0.0774
     0.2168   0.2496   0.3253   0.4589   0.5580   0.6054   0.7241   0.7600
     0.8835   0.9149   1.0217   1.0500   1.1047   1.1381   1.1757   1.1824
     1.2301   1.2520   1.3191   1.3686   1.4151   1.4249   1.7230   1.7383
     1.7448   1.7638   1.8729   1.8874   1.9009   1.9123   1.9434   1.9566
     1.9961   2.0204   2.0441   2.0968   2.1130   2.1635   2.1892   2.2427
     2.3486   2.4463   2.4853   2.5137   2.5226   2.5350   2.6295   2.6458
     2.6789   2.7451   2.7520   2.7586   2.7880   2.8571   2.9007   2.9481
     2.9736   3.0207   3.0235   3.0267   3.0365   3.0539   3.0637   3.0770
     3.0821   3.1020   3.1081   3.1283   3.1484   3.1531   3.2817   3.2905
     4.1253   4.1417   4.2020   4.3412   4.8095   4.8793   5.0638   5.0727
     5.4991   5.5279   5.6146   5.6705   6.0506   6.0536   6.3276   6.4237
     6.8119   7.0193   7.2833   7.3121   7.3498   7.4346   7.7366   7.7944
     7.9019   8.0178   8.1107   8.3105   8.3701   8.4332   8.5353   8.6435
     8.7789   8.8322   8.8962

     occupation numbers 
     1.0000   1.0000   1.0000   1.0000   1.0000   1.0000   1.0000   1.0000
     1.0000   1.0000   1.0000   1.0000   1.0000   1.0000   1.0000   1.0000
     1.0000   1.0000   1.0000   1.0000   1.0000   1.0000   1.0000   1.0000
     1.0000   1.0000   1.0000   1.0000   1.0000   1.0000   1.0000   1.0000
     1.0000   1.0000   1.0000   1.0000   1.0000   1.0000   1.0000   1.0000
     1.0000   1.0000   1.0000   1.0000   1.0000   1.0000   1.0000   1.0000
     1.0000   1.0000   1.0000   1.0000   1.0000   1.0000   1.0000   1.0000
     1.0000   1.0000   1.0000   1.0000   1.0000   1.0000   1.0000   1.0000
     1.0000   1.0000   1.0000   1.0000   1.0000   1.0000   1.0000   1.0000
     1.0000   1.0000   1.0000   1.0000   1.0000   1.0000   1.0000   1.0000
     1.0000   1.0000   1.0000   1.0000   1.0000   1.0000   1.0000   1.0000
     1.0000   1.0000   1.0000   1.0000   1.0000   1.0000   1.0000   1.0000
     1.0000   1.0000   1.0000   1.0000   1.0000   1.0000   1.0000   1.0000
     1.0000   1.0000   1.0000   1.0000   1.0000   1.0000   1.0000   1.0000
     1.0000   1.0000   1.0000   1.0000   1.0000   1.0000   1.0000   1.0000
     1.0000   1.0000   1.0000   1.0000   1.0000   1.0000   1.0000   1.0000
     1.0000   1.0000   1.0000   1.0000   1.0000   1.0000   1.0000   1.0000
     1.0000   1.0000   1.0000   1.0000   1.0000   1.0000   1.0000   1.0000
     1.0000   1.0000   1.0000   1.0000   1.0000   1.0000   1.0000   1.0000
     1.0000   1.0000   1.0000   1.0000   1.0000   1.0000   1.0000   0.9999
     0.9999   0.9998   0.9997   0.9997   0.9996   0.9995   0.9994   0.9993
     0.9992   0.9991   0.9987   0.9983   0.9979   0.9978   0.9920   0.9915
     0.9913   0.9906   0.9856   0.9848   0.9841   0.9834   0.9814   0.9805
     0.9775   0.9755   0.9734   0.9682   0.9664   0.9605   0.9571   0.9493
     0.9307   0.9092   0.8994   0.8917   0.8893   0.8858   0.8563   0.8508
     0.8391   0.8139   0.8111   0.8085   0.7963   0.7661   0.7458   0.7227
     0.7099   0.6855   0.6840   0.6823   0.6771   0.6678   0.6625   0.6552
     0.6524   0.6414   0.6380   0.6268   0.6154   0.6128   0.5380   0.5328
     0.1236   0.1187   0.1019   0.0697   0.0149   0.0114   0.0054   0.0052
     0.0007   0.0006   0.0004   0.0003   0.0000   0.0000   0.0000   0.0000
     0.0000   0.0000   0.0000   0.0000   0.0000   0.0000   0.0000   0.0000
     0.0000   0.0000   0.0000   0.0000   0.0000   0.0000   0.0000   0.0000
     0.0000   0.0000   0.0000

          k =-0.2500 0.2500 0.0000 ( 65198 PWs)   bands (ev):

   -92.6816 -92.6294 -92.5355 -92.4885 -92.4292 -92.3878 -92.3714 -92.2520
   -56.0350 -56.0162 -55.8929 -55.8823 -55.8761 -55.8691 -55.8342 -55.8048
   -55.7902 -55.7872 -55.7791 -55.7371 -55.7187 -55.6806 -55.6619 -55.6289
   -55.6244 -55.5767 -55.5755 -55.5732 -55.5647 -55.5271 -55.5015 -55.4187
   -31.2573 -31.2413 -31.0980 -31.0332 -31.0118 -30.9557 -30.8411 -30.7308
   -29.8279 -29.7867 -29.7606 -29.6527 -14.9984 -14.9570 -14.8836 -14.7662
   -14.6551 -14.5284 -14.4429 -14.2356 -14.0961 -14.0669 -14.0532 -14.0061
   -13.9819 -13.9626 -13.9462 -13.9310 -13.8975 -13.8159 -13.8048 -13.6535
   -13.6266 -13.5981 -13.5775 -13.5316 -13.4780 -13.4240 -13.4161 -13.2837
   -13.2200 -13.2024 -13.1275 -13.0847 -13.0212 -12.9941 -12.9811 -12.9677
   -12.9311 -12.9080 -12.8852 -12.8513 -12.7928 -12.7742 -12.7516 -12.7241
   -12.6794 -12.6695 -12.6534 -12.4754 -12.4232 -12.3884 -12.2641 -12.1058
   -12.0451 -11.7798 -11.7582 -11.7312 -11.7190 -11.6780 -11.6432 -11.6203
   -11.5987 -11.5762 -11.4917 -11.4464 -11.4367  -2.6473  -2.4391  -2.3177
    -2.2300  -2.1114  -2.0451  -1.8424  -1.6969  -1.6783  -1.6494  -1.5579
    -1.5200  -1.4284  -1.3945  -1.3685  -1.2263  -1.1698  -1.1019  -1.0737
    -1.0350  -1.0098  -0.9904  -0.9513  -0.9226  -0.8826  -0.8190  -0.7719
    -0.7090  -0.6397  -0.6145  -0.5632  -0.5345  -0.4890  -0.4323  -0.3875
    -0.3450  -0.2472  -0.2121  -0.2027  -0.1578  -0.0919  -0.0237   0.0244
     0.0575   0.1321   0.2033   0.4092   0.5792   0.6183   0.6572   0.7177
     0.7991   0.8662   0.8941   0.9206   1.2021   1.3106   1.3504   1.3825
     1.3898   1.4318   1.4480   1.4930   1.5229   1.5385   1.5636   1.6074
     1.6226   1.6687   1.6876   1.7321   1.8114   1.8329   1.8520   1.8959
     1.9211   1.9596   2.0193   2.1276   2.2219   2.2533   2.3000   2.3202
     2.3867   2.4274   2.4504   2.4712   2.4808   2.5043   2.5141   2.6205
     2.6400   2.7275   2.9020   2.9109   2.9240   2.9341   2.9448   2.9586
     2.9650   2.9835   2.9931   3.0065   3.0166   3.0287   3.0385   3.0472
     3.0794   3.0894   3.0973   3.1324   3.4240   3.5058   3.5684   3.6455
     3.6678   3.8688   3.9828   4.3274   4.5289   4.7364   5.0147   5.1796
     5.6647   5.7170   5.7877   5.8518   5.9143   6.0837   6.1835   6.2161
     6.9077   6.9601   7.0898   7.2368   7.5814   7.6293   7.6901   7.8472
     7.9129   7.9895   8.1615   8.2083   8.3118   8.3516   8.4660   8.5208
     8.6004   8.6703   8.8862

     occupation numbers 
     1.0000   1.0000   1.0000   1.0000   1.0000   1.0000   1.0000   1.0000
     1.0000   1.0000   1.0000   1.0000   1.0000   1.0000   1.0000   1.0000
     1.0000   1.0000   1.0000   1.0000   1.0000   1.0000   1.0000   1.0000
     1.0000   1.0000   1.0000   1.0000   1.0000   1.0000   1.0000   1.0000
     1.0000   1.0000   1.0000   1.0000   1.0000   1.0000   1.0000   1.0000
     1.0000   1.0000   1.0000   1.0000   1.0000   1.0000   1.0000   1.0000
     1.0000   1.0000   1.0000   1.0000   1.0000   1.0000   1.0000   1.0000
     1.0000   1.0000   1.0000   1.0000   1.0000   1.0000   1.0000   1.0000
     1.0000   1.0000   1.0000   1.0000   1.0000   1.0000   1.0000   1.0000
     1.0000   1.0000   1.0000   1.0000   1.0000   1.0000   1.0000   1.0000
     1.0000   1.0000   1.0000   1.0000   1.0000   1.0000   1.0000   1.0000
     1.0000   1.0000   1.0000   1.0000   1.0000   1.0000   1.0000   1.0000
     1.0000   1.0000   1.0000   1.0000   1.0000   1.0000   1.0000   1.0000
     1.0000   1.0000   1.0000   1.0000   1.0000   1.0000   1.0000   1.0000
     1.0000   1.0000   1.0000   1.0000   1.0000   1.0000   1.0000   1.0000
     1.0000   1.0000   1.0000   1.0000   1.0000   1.0000   1.0000   1.0000
     1.0000   1.0000   1.0000   1.0000   1.0000   1.0000   1.0000   1.0000
     1.0000   1.0000   1.0000   1.0000   1.0000   1.0000   1.0000   1.0000
     1.0000   1.0000   1.0000   1.0000   1.0000   1.0000   1.0000   1.0000
     1.0000   1.0000   1.0000   1.0000   1.0000   1.0000   1.0000   1.0000
     0.9999   0.9999   0.9999   0.9998   0.9993   0.9987   0.9985   0.9982
     0.9982   0.9978   0.9976   0.9970   0.9966   0.9964   0.9959   0.9951
     0.9948   0.9936   0.9931   0.9917   0.9887   0.9877   0.9867   0.9843
     0.9828   0.9802   0.9756   0.9648   0.9525   0.9477   0.9398   0.9362
     0.9228   0.9137   0.9082   0.9030   0.9006   0.8943   0.8916   0.8593
     0.8528   0.8208   0.7451   0.7409   0.7346   0.7296   0.7243   0.7175
     0.7142   0.7048   0.6998   0.6929   0.6876   0.6813   0.6760   0.6714
     0.6539   0.6484   0.6441   0.6244   0.4539   0.4062   0.3706   0.3283
     0.3164   0.2188   0.1722   0.0725   0.0395   0.0195   0.0066   0.0032
     0.0003   0.0002   0.0001   0.0001   0.0001   0.0000   0.0000   0.0000
     0.0000   0.0000   0.0000   0.0000   0.0000   0.0000   0.0000   0.0000
     0.0000   0.0000   0.0000   0.0000   0.0000   0.0000   0.0000   0.0000
     0.0000   0.0000   0.0000

          k =-0.5000 0.2500 0.0000 ( 65138 PWs)   bands (ev):

   -92.6816 -92.6294 -92.5355 -92.4885 -92.4292 -92.3878 -92.3714 -92.2520
   -56.0350 -56.0162 -55.8929 -55.8823 -55.8761 -55.8691 -55.8342 -55.8048
   -55.7902 -55.7872 -55.7791 -55.7371 -55.7187 -55.6806 -55.6619 -55.6289
   -55.6244 -55.5767 -55.5755 -55.5732 -55.5647 -55.5271 -55.5015 -55.4187
   -31.2551 -31.2435 -31.0976 -31.0331 -31.0122 -30.9556 -30.8413 -30.7310
   -29.8268 -29.7878 -29.7602 -29.6531 -14.9632 -14.9181 -14.8394 -14.7396
   -14.6986 -14.5718 -14.4847 -14.3539 -14.0465 -14.0157 -14.0042 -13.9601
   -13.9382 -13.9296 -13.9134 -13.8770 -13.8701 -13.8456 -13.8064 -13.7948
   -13.6855 -13.6186 -13.5696 -13.5665 -13.5525 -13.4639 -13.4498 -13.3214
   -13.2592 -13.1815 -13.1454 -13.0488 -13.0086 -12.9971 -12.9816 -12.9653
   -12.9341 -12.9207 -12.8929 -12.8645 -12.7874 -12.7613 -12.7092 -12.6820
   -12.6646 -12.6034 -12.5955 -12.5204 -12.4017 -12.3036 -12.2478 -12.1569
   -12.1309 -11.7525 -11.7398 -11.7256 -11.7137 -11.6924 -11.6622 -11.5815
   -11.5730 -11.5496 -11.5139 -11.4859 -11.4770  -2.4203  -2.3782  -2.2300
    -2.1878  -2.0273  -1.9512  -1.8089  -1.6730  -1.6166  -1.5889  -1.5505
    -1.5117  -1.4315  -1.3162  -1.2590  -1.2357  -1.2098  -1.1328  -1.1050
    -1.0669  -1.0495  -1.0299  -0.9882  -0.9592  -0.9202  -0.8848  -0.8562
    -0.7979  -0.7713  -0.7297  -0.6948  -0.5898  -0.5646  -0.4752  -0.4111
    -0.3814  -0.3249  -0.2374  -0.2079  -0.1046  -0.0723  -0.0067   0.0384
     0.0655   0.1383   0.1762   0.2254   0.2544   0.2901   0.6072   0.6537
     0.7409   0.8243   1.0327   1.0981   1.1666   1.1934   1.3716   1.4061
     1.4442   1.4567   1.4754   1.4924   1.5607   1.6051   1.6433   1.6750
     1.7889   1.8303   1.8642   1.8799   1.9134   1.9353   1.9527   1.9723
     1.9884   2.0105   2.0602   2.0717   2.1090   2.1318   2.1640   2.2226
     2.3395   2.4383   2.4646   2.4873   2.5053   2.5361   2.5728   2.6464
     2.6724   2.6802   2.7176   2.7490   2.7728   2.8573   2.8987   2.9109
     2.9167   2.9377   2.9605   2.9732   2.9873   2.9999   3.0214   3.0356
     3.0447   3.0528   3.0657   3.0784   3.6091   3.6411   3.7966   3.8147
     4.1248   4.1646   4.2152   4.4250   4.8042   4.8975   5.0664   5.0976
     5.4254   5.4507   5.6040   5.6383   5.7645   5.8120   6.4026   6.4294
     6.5048   6.5511   7.2877   7.3586   7.5686   7.7267   7.7528   7.8154
     7.9086   8.0426   8.2211   8.4480   8.5216   8.5325   8.5876   8.6130
     8.6632   8.6899   8.7708

     occupation numbers 
     1.0000   1.0000   1.0000   1.0000   1.0000   1.0000   1.0000   1.0000
     1.0000   1.0000   1.0000   1.0000   1.0000   1.0000   1.0000   1.0000
     1.0000   1.0000   1.0000   1.0000   1.0000   1.0000   1.0000   1.0000
     1.0000   1.0000   1.0000   1.0000   1.0000   1.0000   1.0000   1.0000
     1.0000   1.0000   1.0000   1.0000   1.0000   1.0000   1.0000   1.0000
     1.0000   1.0000   1.0000   1.0000   1.0000   1.0000   1.0000   1.0000
     1.0000   1.0000   1.0000   1.0000   1.0000   1.0000   1.0000   1.0000
     1.0000   1.0000   1.0000   1.0000   1.0000   1.0000   1.0000   1.0000
     1.0000   1.0000   1.0000   1.0000   1.0000   1.0000   1.0000   1.0000
     1.0000   1.0000   1.0000   1.0000   1.0000   1.0000   1.0000   1.0000
     1.0000   1.0000   1.0000   1.0000   1.0000   1.0000   1.0000   1.0000
     1.0000   1.0000   1.0000   1.0000   1.0000   1.0000   1.0000   1.0000
     1.0000   1.0000   1.0000   1.0000   1.0000   1.0000   1.0000   1.0000
     1.0000   1.0000   1.0000   1.0000   1.0000   1.0000   1.0000   1.0000
     1.0000   1.0000   1.0000   1.0000   1.0000   1.0000   1.0000   1.0000
     1.0000   1.0000   1.0000   1.0000   1.0000   1.0000   1.0000   1.0000
     1.0000   1.0000   1.0000   1.0000   1.0000   1.0000   1.0000   1.0000
     1.0000   1.0000   1.0000   1.0000   1.0000   1.0000   1.0000   1.0000
     1.0000   1.0000   1.0000   1.0000   1.0000   1.0000   1.0000   1.0000
     1.0000   1.0000   1.0000   1.0000   1.0000   1.0000   1.0000   1.0000
     0.9999   0.9999   0.9997   0.9996   0.9994   0.9993   0.9983   0.9980
     0.9976   0.9975   0.9973   0.9970   0.9960   0.9951   0.9943   0.9935
     0.9896   0.9878   0.9861   0.9853   0.9833   0.9819   0.9807   0.9793
     0.9781   0.9763   0.9719   0.9708   0.9669   0.9643   0.9604   0.9524
     0.9325   0.9112   0.9047   0.8989   0.8940   0.8854   0.8745   0.8506
     0.8414   0.8386   0.8246   0.8123   0.8026   0.7660   0.7467   0.7409
     0.7381   0.7278   0.7165   0.7100   0.7028   0.6964   0.6851   0.6776
     0.6727   0.6683   0.6614   0.6544   0.3480   0.3306   0.2517   0.2432
     0.1238   0.1121   0.0984   0.0546   0.0152   0.0106   0.0053   0.0046
     0.0010   0.0009   0.0004   0.0003   0.0002   0.0001   0.0000   0.0000
     0.0000   0.0000   0.0000   0.0000   0.0000   0.0000   0.0000   0.0000
     0.0000   0.0000   0.0000   0.0000   0.0000   0.0000   0.0000   0.0000
     0.0000   0.0000   0.0000

     the Fermi energy is     3.3460 ev

!    total energy              =   -4441.64841676 Ry
     estimated scf accuracy    <          7.4E-09 Ry
     smearing contrib. (-TS)   =      -1.15482030 Ry
     internal energy E=F+TS    =   -4440.49359646 Ry

     The total energy is F=E-TS. E is the sum of the following terms:
     one-electron contribution =  -20804.02553358 Ry
     hartree contribution      =   10534.25279574 Ry
     xc contribution           =    -694.17801707 Ry
     ewald contribution        =    6799.62902826 Ry
     one-center paw contrib.   =    -276.17186982 Ry
      -> PAW hartree energy AE =      25.17887344 Ry
      -> PAW hartree energy PS =     -25.06261164 Ry
      -> PAW xc energy AE      =     -16.51974748 Ry
      -> PAW xc energy PS      =       6.87932456 Ry
      -> total E_H with PAW    =   10534.36905754 Ry
      -> total E_XC with PAW   =    -703.81843998 Ry

     convergence has been achieved in  46 iterations

     Writing all to output data dir /bsuhome/zayahcortright/scratch/pwscf.save/
 
     init_run     :      9.12s CPU      9.72s WALL (       1 calls)
     electrons    :    765.46s CPU    844.67s WALL (       1 calls)

     Called by init_run:
     wfcinit      :      7.42s CPU      7.61s WALL (       1 calls)
     wfcinit:atom :      0.04s CPU      0.06s WALL (       5 calls)
     wfcinit:wfcr :      7.12s CPU      7.22s WALL (       5 calls)
     potinit      :      0.16s CPU      0.19s WALL (       1 calls)
     hinit0       :      0.65s CPU      0.80s WALL (       1 calls)

     Called by electrons:
     c_bands      :    616.36s CPU    627.92s WALL (      46 calls)
     sum_band     :    111.97s CPU    149.65s WALL (      46 calls)
     v_of_rho     :      5.06s CPU      5.45s WALL (      47 calls)
     v_h          :      0.42s CPU      0.43s WALL (      47 calls)
     v_xc         :      4.63s CPU      5.02s WALL (      47 calls)
     newd         :     18.19s CPU     47.27s WALL (      47 calls)
     PAW_pot      :      1.53s CPU      1.55s WALL (      47 calls)
     mix_rho      :     12.07s CPU     12.51s WALL (      46 calls)

     Called by c_bands:
     init_us_2    :      5.55s CPU      5.63s WALL (     465 calls)
     init_us_2:cp :      5.55s CPU      5.63s WALL (     465 calls)
     cegterg      :    588.59s CPU    599.85s WALL (     230 calls)

     Called by sum_band:
     sum_band:wei :      0.36s CPU      0.37s WALL (      46 calls)
     sum_band:loo :     92.29s CPU     92.99s WALL (      46 calls)
     sum_band:buf :      1.23s CPU      1.31s WALL (     230 calls)
     sum_band:ini :      2.42s CPU      2.43s WALL (     230 calls)
     sum_band:cal :     18.89s CPU     18.95s WALL (     230 calls)
     sum_band:bec :      0.54s CPU      0.57s WALL (     230 calls)
     addusdens    :     17.15s CPU     54.07s WALL (      46 calls)
                                        0.00s GPU  (      46 calls)
     addusd:skk   :      0.29s CPU      1.99s WALL (     184 calls)
                                        0.00s GPU  (     184 calls)

     Called by *egterg:
     cdiaghg      :     56.08s CPU     56.35s WALL (    1202 calls)
     cegterg:over :     49.26s CPU     49.46s WALL (     972 calls)
     cegterg:upda :     49.76s CPU     50.86s WALL (     972 calls)
     cegterg:last :     69.64s CPU     69.92s WALL (     418 calls)
     cdiaghg:chol :      3.12s CPU      3.14s WALL (    1202 calls)
     cdiaghg:inve :      3.13s CPU      3.15s WALL (    1202 calls)
     cdiaghg:para :      6.96s CPU      7.01s WALL (    2404 calls)
     h_psi        :    302.34s CPU    306.44s WALL (    1207 calls)
     s_psi        :     37.17s CPU     37.29s WALL (    1207 calls)
     g_psi        :      2.38s CPU      2.39s WALL (     972 calls)

     Called by h_psi:
     h_psi:calbec :     45.05s CPU     45.27s WALL (    1207 calls)
     vloc_psi     :    214.50s CPU    216.25s WALL (    1207 calls)
     add_vuspsi   :     37.24s CPU     37.44s WALL (    1207 calls)

     General routines
     calbec       :     63.94s CPU     64.22s WALL (    1437 calls)
     fft          :      4.27s CPU      4.33s WALL (     609 calls)
     ffts         :      4.34s CPU      4.38s WALL (    4908 calls)
     fftw         :    210.78s CPU    212.30s WALL (  313110 calls)
     interpolate  :      0.40s CPU      0.40s WALL (      47 calls)
 
     Parallel routines

     PAW routines
     PAW_pot      :      1.53s CPU      1.55s WALL (      47 calls)
 
     PWSCF        :  12m56.28s CPU  14m19.13s WALL

 
   This run was terminated on:  16:11:27  21Jun2024            

=------------------------------------------------------------------------------=
   JOB DONE.
=------------------------------------------------------------------------------=
