
     Program PWSCF v.7.2 starts on 22Jun2024 at  2:34:39 

     This program is part of the open-source Quantum ESPRESSO suite
     for quantum simulation of materials; please cite
         "P. Giannozzi et al., J. Phys.:Condens. Matter 21 395502 (2009);
         "P. Giannozzi et al., J. Phys.:Condens. Matter 29 465901 (2017);
         "P. Giannozzi et al., J. Chem. Phys. 152 154105 (2020);
          URL http://www.quantum-espresso.org", 
     in publications or presentations arising from this work. More details at
     http://www.quantum-espresso.org/quote

     Parallel version (MPI & OpenMP), running on      48 processor cores
     Number of MPI processes:                48
     Threads/MPI process:                     1

     MPI processes distributed on     1 nodes
     33221 MiB available memory on the printing compute node when the environment starts
 
     Reading input from espresso.pwi
Warning: card &CELL ignored
Warning: card / ignored
Warning: card &FCP ignored
Warning: card / ignored
Warning: card &RISM ignored
Warning: card / ignored

     Current dimensions of program PWSCF are:
     Max number of different atomic species (ntypx) = 10
     Max number of k-points (npk) =  40000
     Max angular momentum in pseudopotentials (lmaxx) =  4
     file O.pbe-n-kjpaw_psl.0.1.UPF: wavefunction(s)  2P renormalized
     signal trapping enabled: kill the code with -SIGUSR1 to stop cleanly the simulation 
 
     K-points division:     npool     =       2
     R & G space division:  proc/nbgrp/npool/nimage =      24
     Subspace diagonalization in iterative solution of the eigenvalue problem:
     one sub-group per band group will be used
     scalapack distributed-memory algorithm (size of sub-group:  3*  3 procs)

 
     Parallelization info
     --------------------
     sticks:   dense  smooth     PW     G-vecs:    dense   smooth      PW
     Min         350     175     47                61430    21716    3036
     Max         351     177     48                61449    21727    3041
     Sum        8421    4205   1137              1474595   521381   72913
 
     Using Slab Decomposition
 


     bravais-lattice index     =            0
     lattice parameter (alat)  =      14.8599  a.u.
     unit-cell volume          =    8305.1283 (a.u.)^3
     number of atoms/cell      =           50
     number of atomic types    =            4
     number of electrons       =       431.00
     number of Kohn-Sham states=          259
     kinetic-energy cutoff     =      60.0000  Ry
     charge density cutoff     =     480.0000  Ry
     scf convergence threshold =      1.0E-08
     mixing beta               =       0.1500
     number of iterations used =            8  local-TF  mixing
     Exchange-correlation= PBE
                           (   1   4   3   4   0   0   0)

     celldm(1)=  14.859904  celldm(2)=   0.000000  celldm(3)=   0.000000
     celldm(4)=   0.000000  celldm(5)=   0.000000  celldm(6)=   0.000000

     crystal axes: (cart. coord. in units of alat)
               a(1) = (   1.000000   0.000000   0.000000 )  
               a(2) = (   0.000000   1.000000   0.000000 )  
               a(3) = (   0.000000   0.000000   2.531036 )  

     reciprocal axes: (cart. coord. in units 2 pi/alat)
               b(1) = (  1.000000  0.000000  0.000000 )  
               b(2) = (  0.000000  1.000000  0.000000 )  
               b(3) = (  0.000000  0.000000  0.395095 )  


     PseudoPot. # 1 for Sr read from file:
     /bsuhome/zayahcortright/q-e/pseudo/Sr_pbe_v1.uspp.F.UPF
     MD5 check sum: 6b418c05fbe9db5448babca5e47b7a5b
     Pseudo is Ultrasoft + core correction, Zval = 10.0
     Generated by new atomic code, or converted to UPF format
     Using radial grid of  883 points,  6 beta functions with: 
                l(1) =   0
                l(2) =   0
                l(3) =   1
                l(4) =   1
                l(5) =   2
                l(6) =   2
     Q(r) pseudized with  6 coefficients,  rinner =    1.400   1.400   1.400
                                                       1.400   1.400

     PseudoPot. # 2 for O  read from file:
     /bsuhome/zayahcortright/q-e/pseudo/O.pbe-n-kjpaw_psl.0.1.UPF
     MD5 check sum: 0234752ac141de4415c5fc33072bef88
     Pseudo is Projector augmented-wave + core cor, Zval =  6.0
     Generated using "atomic" code by A. Dal Corso  v.5.0.99 svn rev. 10869
     Shape of augmentation charge: BESSEL
     Using radial grid of 1095 points,  4 beta functions with: 
                l(1) =   0
                l(2) =   0
                l(3) =   1
                l(4) =   1
     Q(r) pseudized with 0 coefficients 


     PseudoPot. # 3 for Co read from file:
     /bsuhome/zayahcortright/q-e/pseudo/Co_pbe_v1.2.uspp.F.UPF
     MD5 check sum: 5f91765df6ddd3222702df6e7b74a16d
     Pseudo is Ultrasoft + core correction, Zval = 17.0
     Generated by new atomic code, or converted to UPF format
     Using radial grid of  863 points,  6 beta functions with: 
                l(1) =   0
                l(2) =   0
                l(3) =   1
                l(4) =   1
                l(5) =   2
                l(6) =   2
     Q(r) pseudized with  8 coefficients,  rinner =    1.200   1.200   1.200
                                                       1.200   1.200

     PseudoPot. # 4 for H  read from file:
     /bsuhome/zayahcortright/q-e/pseudo/H.pbe-rrkjus_psl.1.0.0.UPF
     MD5 check sum: f52b6d4d1c606e5624b1dc7b2218f220
     Pseudo is Ultrasoft, Zval =  1.0
     Generated using "atomic" code by A. Dal Corso  v.5.1
     Using radial grid of  929 points,  2 beta functions with: 
                l(1) =   0
                l(2) =   0
     Q(r) pseudized with 0 coefficients 


     atomic species   valence    mass     pseudopotential
        Sr            10.00    87.62000     Sr( 1.00)
        O              6.00    15.99900     O ( 1.00)
        Co            17.00    58.93319     Co( 1.00)
        H              1.00     1.00800     H ( 1.00)

     No symmetry found


                                    s                        frac. trans.

      isym =  1     identity                                     

 cryst.   s( 1) = (     1          0          0      )
                  (     0          1          0      )
                  (     0          0          1      )

 cart.    s( 1) = (  1.0000000  0.0000000  0.0000000 )
                  (  0.0000000  1.0000000  0.0000000 )
                  (  0.0000000  0.0000000  1.0000000 )


   Cartesian axes

     site n.     atom                  positions (alat units)
         1           Sr  tau(   1) = (   0.2508693   0.7491307   1.7574407  )
         2           O   tau(   2) = (   0.4985141   0.5014859   1.7715967  )
         3           Sr  tau(   3) = (   0.7482398   0.7454518   1.7648669  )
         4           Sr  tau(   4) = (   0.7441748   0.2558252   1.7667843  )
         5           Sr  tau(   5) = (   0.2508693   0.7491307   1.2696799  )
         6           Sr  tau(   6) = (   0.2508693   0.7491307   0.7632319  )
         7           Co  tau(   7) = (   0.4998914   0.5001086   1.0164559  )
         8           Co  tau(   8) = (   0.4936915   0.5063085   1.5135603  )
         9           O   tau(   9) = (   0.4988895   0.7610401   1.0164559  )
        10           O   tau(  10) = (   0.2389599   0.5011105   1.0164559  )
        11           O   tau(  11) = (   0.0070918   0.7374880   1.0164559  )
        12           O   tau(  12) = (   0.0088340   0.7405089   1.5135603  )
        13           O   tau(  13) = (   0.5066944   0.7415376   1.5135603  )
        14           O   tau(  14) = (   0.2584624   0.4933056   1.5135603  )
        15           O   tau(  15) = (   0.4985141   0.5014859   0.7773880  )
        16           O   tau(  16) = (   0.4985141   0.5014859   1.2555238  )
        17           Sr  tau(  17) = (   0.7482398   0.7454518   0.7706582  )
        18           Sr  tau(  18) = (   0.7482398   0.7454518   1.2622536  )
        19           Sr  tau(  19) = (   0.7441748   0.2558252   0.7725755  )
        20           Sr  tau(  20) = (   0.7441748   0.2558252   1.2603363  )
        21           O   tau(  21) = (   0.7322655   0.0078049   1.5135603  )
        22           O   tau(  22) = (   0.7558175   0.4996027   1.5135603  )
        23           O   tau(  23) = (   0.5003973   0.2441825   1.5135603  )
        24           O   tau(  24) = (   0.7527966   0.4978604   1.0164559  )
        25           O   tau(  25) = (   0.5021396   0.2472034   1.0164559  )
        26           O   tau(  26) = (   0.7517679   0.0000000   1.0164559  )
        27           O   tau(  27) = (   0.0114961   0.4948124   1.7455321  )
        28           O   tau(  28) = (   0.0048226   0.0077944   1.7715967  )
        29           Sr  tau(  29) = (   0.2545482   0.2517602   1.7648669  )
        30           O   tau(  30) = (   0.5048017   0.0015068   1.7786929  )
        31           Co  tau(  31) = (   0.0056869   0.5006215   1.0164559  )
        32           Co  tau(  32) = (   0.0065315   0.4997770   1.5135603  )
        33           Co  tau(  33) = (   0.0061999   0.0064171   1.0164559  )
        34           Co  tau(  34) = (   0.0000000   0.0126169   1.5135603  )
        35           O   tau(  35) = (   0.0114961   0.4948124   1.2815885  )
        36           O   tau(  36) = (   0.0114961   0.4948124   0.7513233  )
        37           O   tau(  37) = (   0.0051979   0.2673486   1.0164559  )
        38           O   tau(  38) = (   0.0130029   0.2478461   1.5135603  )
        39           O   tau(  39) = (   0.0048226   0.0077944   0.7773880  )
        40           O   tau(  40) = (   0.0048226   0.0077944   1.2555238  )
        41           Sr  tau(  41) = (   0.2545482   0.2517602   0.7706582  )
        42           Sr  tau(  42) = (   0.2545482   0.2517602   1.2622536  )
        43           Co  tau(  43) = (   0.4989925   0.0073160   1.5135603  )
        44           Co  tau(  44) = (   0.4998370   0.0064714   1.0164559  )
        45           O   tau(  45) = (   0.5048017   0.0015068   0.7844841  )
        46           O   tau(  46) = (   0.5048017   0.0015068   1.2484277  )
        47           O   tau(  47) = (   0.2621260   0.0059111   1.5135603  )
        48           O   tau(  48) = (   0.2591051   0.0041689   1.0164559  )
        49           O   tau(  49) = (   0.8529874   0.4264937   2.1602013  )
        50           H   tau(  50) = (   0.8529874   0.4264937   2.2847091  )

   Crystallographic axes

     site n.     atom                  positions (cryst. coord.)
         1           Sr  tau(   1) = (  0.2508693  0.7491307  0.6943562  )
         2           O   tau(   2) = (  0.4985141  0.5014859  0.6999492  )
         3           Sr  tau(   3) = (  0.7482398  0.7454518  0.6972903  )
         4           Sr  tau(   4) = (  0.7441748  0.2558252  0.6980478  )
         5           Sr  tau(   5) = (  0.2508693  0.7491307  0.5016443  )
         6           Sr  tau(   6) = (  0.2508693  0.7491307  0.3015492  )
         7           Co  tau(   7) = (  0.4998914  0.5001086  0.4015968  )
         8           Co  tau(   8) = (  0.4936915  0.5063085  0.5980003  )
         9           O   tau(   9) = (  0.4988895  0.7610401  0.4015968  )
        10           O   tau(  10) = (  0.2389599  0.5011105  0.4015968  )
        11           O   tau(  11) = (  0.0070918  0.7374880  0.4015968  )
        12           O   tau(  12) = (  0.0088340  0.7405089  0.5980003  )
        13           O   tau(  13) = (  0.5066944  0.7415376  0.5980003  )
        14           O   tau(  14) = (  0.2584624  0.4933056  0.5980003  )
        15           O   tau(  15) = (  0.4985141  0.5014859  0.3071422  )
        16           O   tau(  16) = (  0.4985141  0.5014859  0.4960513  )
        17           Sr  tau(  17) = (  0.7482398  0.7454518  0.3044833  )
        18           Sr  tau(  18) = (  0.7482398  0.7454518  0.4987103  )
        19           Sr  tau(  19) = (  0.7441748  0.2558252  0.3052408  )
        20           Sr  tau(  20) = (  0.7441748  0.2558252  0.4979527  )
        21           O   tau(  21) = (  0.7322655  0.0078049  0.5980003  )
        22           O   tau(  22) = (  0.7558175  0.4996027  0.5980003  )
        23           O   tau(  23) = (  0.5003973  0.2441825  0.5980003  )
        24           O   tau(  24) = (  0.7527966  0.4978604  0.4015968  )
        25           O   tau(  25) = (  0.5021396  0.2472034  0.4015968  )
        26           O   tau(  26) = (  0.7517679  0.0000000  0.4015968  )
        27           O   tau(  27) = (  0.0114961  0.4948124  0.6896512  )
        28           O   tau(  28) = (  0.0048226  0.0077944  0.6999492  )
        29           Sr  tau(  29) = (  0.2545482  0.2517602  0.6972903  )
        30           O   tau(  30) = (  0.5048017  0.0015068  0.7027529  )
        31           Co  tau(  31) = (  0.0056869  0.5006215  0.4015968  )
        32           Co  tau(  32) = (  0.0065315  0.4997770  0.5980003  )
        33           Co  tau(  33) = (  0.0061999  0.0064171  0.4015968  )
        34           Co  tau(  34) = (  0.0000000  0.0126169  0.5980003  )
        35           O   tau(  35) = (  0.0114961  0.4948124  0.5063494  )
        36           O   tau(  36) = (  0.0114961  0.4948124  0.2968442  )
        37           O   tau(  37) = (  0.0051979  0.2673486  0.4015968  )
        38           O   tau(  38) = (  0.0130029  0.2478461  0.5980003  )
        39           O   tau(  39) = (  0.0048226  0.0077944  0.3071422  )
        40           O   tau(  40) = (  0.0048226  0.0077944  0.4960513  )
        41           Sr  tau(  41) = (  0.2545482  0.2517602  0.3044833  )
        42           Sr  tau(  42) = (  0.2545482  0.2517602  0.4987103  )
        43           Co  tau(  43) = (  0.4989925  0.0073160  0.5980003  )
        44           Co  tau(  44) = (  0.4998370  0.0064714  0.4015968  )
        45           O   tau(  45) = (  0.5048017  0.0015068  0.3099459  )
        46           O   tau(  46) = (  0.5048017  0.0015068  0.4932477  )
        47           O   tau(  47) = (  0.2621260  0.0059111  0.5980003  )
        48           O   tau(  48) = (  0.2591051  0.0041689  0.4015968  )
        49           O   tau(  49) = (  0.8529874  0.4264937  0.8534850  )
        50           H   tau(  50) = (  0.8529874  0.4264937  0.9026774  )

     number of k points=    10  Gaussian smearing, width (Ry)=  0.0700
                       cart. coord. in units 2pi/alat
        k(    1) = (   0.0000000   0.0000000   0.0000000), wk =   0.1250000
        k(    2) = (   0.0000000   0.2500000   0.0000000), wk =   0.2500000
        k(    3) = (   0.0000000  -0.5000000   0.0000000), wk =   0.1250000
        k(    4) = (   0.2500000   0.2500000   0.0000000), wk =   0.2500000
        k(    5) = (   0.2500000  -0.5000000   0.0000000), wk =   0.2500000
        k(    6) = (  -0.5000000  -0.5000000   0.0000000), wk =   0.1250000
        k(    7) = (   0.2500000   0.0000000   0.0000000), wk =   0.2500000
        k(    8) = (  -0.5000000   0.0000000   0.0000000), wk =   0.1250000
        k(    9) = (  -0.2500000   0.2500000   0.0000000), wk =   0.2500000
        k(   10) = (  -0.5000000   0.2500000   0.0000000), wk =   0.2500000

                       cryst. coord.
        k(    1) = (   0.0000000   0.0000000   0.0000000), wk =   0.1250000
        k(    2) = (   0.0000000   0.2500000   0.0000000), wk =   0.2500000
        k(    3) = (   0.0000000  -0.5000000   0.0000000), wk =   0.1250000
        k(    4) = (   0.2500000   0.2500000   0.0000000), wk =   0.2500000
        k(    5) = (   0.2500000  -0.5000000   0.0000000), wk =   0.2500000
        k(    6) = (  -0.5000000  -0.5000000   0.0000000), wk =   0.1250000
        k(    7) = (   0.2500000   0.0000000   0.0000000), wk =   0.2500000
        k(    8) = (  -0.5000000   0.0000000   0.0000000), wk =   0.1250000
        k(    9) = (  -0.2500000   0.2500000   0.0000000), wk =   0.2500000
        k(   10) = (  -0.5000000   0.2500000   0.0000000), wk =   0.2500000

     Dense  grid:  1474595 G-vectors     FFT dimensions: ( 108, 108, 270)

     Smooth grid:   521381 G-vectors     FFT dimensions: (  75,  75, 192)

     Dynamical RAM for                 wfc:      10.73 MB

     Dynamical RAM for     wfc (w. buffer):      64.38 MB

     Dynamical RAM for           str. fact:       3.75 MB

     Dynamical RAM for           local pot:       0.00 MB

     Dynamical RAM for          nlocal pot:      24.61 MB

     Dynamical RAM for                qrad:       7.03 MB

     Dynamical RAM for          rho,v,vnew:       6.02 MB

     Dynamical RAM for               rhoin:       2.01 MB

     Dynamical RAM for            rho*nmix:      15.00 MB

     Dynamical RAM for           G-vectors:       3.68 MB

     Dynamical RAM for          h,s,v(r/c):       1.35 MB

     Dynamical RAM for          <psi|beta>:       2.35 MB

     Dynamical RAM for                 psi:      21.46 MB

     Dynamical RAM for                hpsi:      21.46 MB

     Dynamical RAM for                spsi:      21.46 MB

     Dynamical RAM for      wfcinit/wfcrot:      34.49 MB

     Dynamical RAM for           addusdens:     101.26 MB

     Estimated static dynamical RAM per process >     121.50 MB

     Estimated max dynamical RAM per process >     237.76 MB

     Estimated total dynamical RAM >      10.79 GB

     Check: negative core charge=   -0.000004

     Initial potential from superposition of free atoms

     starting charge     422.5961, renormalised to     431.0000

     negative rho (up, down):  7.820E-01 0.000E+00
     Starting wfcs are  377 randomized atomic wfcs
     Checking if some PAW data can be deallocated... 
       PAW data deallocated on   19 nodes for type:  2

     total cpu time spent up to now is        9.2 secs

     Self-consistent Calculation

     iteration #  1     ecut=    60.00 Ry     beta= 0.15
     Davidson diagonalization with overlap

---- Real-time Memory Report at c_bands before calling an iterative solver
             0 MiB given to the printing process from OS
             0 MiB allocation reported by mallinfo(arena+hblkhd)
         23980 MiB available memory on the node where the printing process lives
------------------
     ethr =  1.00E-02,  avg # of iterations =  2.0

     negative rho (up, down):  7.715E-01 0.000E+00

     total cpu time spent up to now is       27.0 secs

     total energy              =   -4446.59786621 Ry
     estimated scf accuracy    <      44.72984640 Ry

     iteration #  2     ecut=    60.00 Ry     beta= 0.15
     Davidson diagonalization with overlap

---- Real-time Memory Report at c_bands before calling an iterative solver
             0 MiB given to the printing process from OS
             0 MiB allocation reported by mallinfo(arena+hblkhd)
         24260 MiB available memory on the node where the printing process lives
------------------
     ethr =  1.00E-02,  avg # of iterations =  1.0

     negative rho (up, down):  7.583E-01 0.000E+00

     total cpu time spent up to now is       42.2 secs

     total energy              =   -4443.33544994 Ry
     estimated scf accuracy    <      29.61038498 Ry

     iteration #  3     ecut=    60.00 Ry     beta= 0.15
     Davidson diagonalization with overlap

---- Real-time Memory Report at c_bands before calling an iterative solver
             0 MiB given to the printing process from OS
             0 MiB allocation reported by mallinfo(arena+hblkhd)
         23418 MiB available memory on the node where the printing process lives
------------------
     ethr =  6.87E-03,  avg # of iterations =  1.0

     negative rho (up, down):  7.554E-01 0.000E+00

     total cpu time spent up to now is       57.6 secs

     total energy              =   -4444.26089791 Ry
     estimated scf accuracy    <      27.93267507 Ry

     iteration #  4     ecut=    60.00 Ry     beta= 0.15
     Davidson diagonalization with overlap

---- Real-time Memory Report at c_bands before calling an iterative solver
             0 MiB given to the printing process from OS
             0 MiB allocation reported by mallinfo(arena+hblkhd)
         23392 MiB available memory on the node where the printing process lives
------------------
     ethr =  6.48E-03,  avg # of iterations =  1.0

     negative rho (up, down):  7.501E-01 0.000E+00

     total cpu time spent up to now is       72.8 secs

     total energy              =   -4443.05420287 Ry
     estimated scf accuracy    <      20.56610535 Ry

     iteration #  5     ecut=    60.00 Ry     beta= 0.15
     Davidson diagonalization with overlap

---- Real-time Memory Report at c_bands before calling an iterative solver
             0 MiB given to the printing process from OS
             0 MiB allocation reported by mallinfo(arena+hblkhd)
         23374 MiB available memory on the node where the printing process lives
------------------
     ethr =  4.77E-03,  avg # of iterations =  1.0

     negative rho (up, down):  7.399E-01 0.000E+00

     total cpu time spent up to now is       88.2 secs

     total energy              =   -4442.50497714 Ry
     estimated scf accuracy    <      11.97729761 Ry

     iteration #  6     ecut=    60.00 Ry     beta= 0.15
     Davidson diagonalization with overlap

---- Real-time Memory Report at c_bands before calling an iterative solver
             0 MiB given to the printing process from OS
             0 MiB allocation reported by mallinfo(arena+hblkhd)
         23353 MiB available memory on the node where the printing process lives
------------------
     ethr =  2.78E-03,  avg # of iterations =  1.0

     negative rho (up, down):  7.426E-01 0.000E+00

     total cpu time spent up to now is      103.2 secs

     total energy              =   -4442.82508403 Ry
     estimated scf accuracy    <       5.04952062 Ry

     iteration #  7     ecut=    60.00 Ry     beta= 0.15
     Davidson diagonalization with overlap

---- Real-time Memory Report at c_bands before calling an iterative solver
             0 MiB given to the printing process from OS
             0 MiB allocation reported by mallinfo(arena+hblkhd)
         23342 MiB available memory on the node where the printing process lives
------------------
     ethr =  1.17E-03,  avg # of iterations =  1.7

     negative rho (up, down):  7.647E-01 0.000E+00

     total cpu time spent up to now is      118.9 secs

     total energy              =   -4441.68837565 Ry
     estimated scf accuracy    <       3.97353576 Ry

     iteration #  8     ecut=    60.00 Ry     beta= 0.15
     Davidson diagonalization with overlap

---- Real-time Memory Report at c_bands before calling an iterative solver
             0 MiB given to the printing process from OS
             0 MiB allocation reported by mallinfo(arena+hblkhd)
         23316 MiB available memory on the node where the printing process lives
------------------
     ethr =  9.22E-04,  avg # of iterations =  3.7

     negative rho (up, down):  7.738E-01 0.000E+00

     total cpu time spent up to now is      138.2 secs

     total energy              =   -4441.31723088 Ry
     estimated scf accuracy    <      22.01633299 Ry

     iteration #  9     ecut=    60.00 Ry     beta= 0.15
     Davidson diagonalization with overlap

---- Real-time Memory Report at c_bands before calling an iterative solver
             0 MiB given to the printing process from OS
             0 MiB allocation reported by mallinfo(arena+hblkhd)
         23182 MiB available memory on the node where the printing process lives
------------------
     ethr =  9.22E-04,  avg # of iterations = 10.2

     negative rho (up, down):  7.706E-01 0.000E+00

     total cpu time spent up to now is      161.3 secs

     total energy              =   -4441.71113621 Ry
     estimated scf accuracy    <       3.96342516 Ry

     iteration # 10     ecut=    60.00 Ry     beta= 0.15
     Davidson diagonalization with overlap

---- Real-time Memory Report at c_bands before calling an iterative solver
             0 MiB given to the printing process from OS
             0 MiB allocation reported by mallinfo(arena+hblkhd)
         22816 MiB available memory on the node where the printing process lives
------------------
     ethr =  9.20E-04,  avg # of iterations =  1.0

     negative rho (up, down):  7.743E-01 0.000E+00

     total cpu time spent up to now is      176.6 secs

     total energy              =   -4441.88917626 Ry
     estimated scf accuracy    <       1.63115087 Ry

     iteration # 11     ecut=    60.00 Ry     beta= 0.15
     Davidson diagonalization with overlap

---- Real-time Memory Report at c_bands before calling an iterative solver
             0 MiB given to the printing process from OS
             0 MiB allocation reported by mallinfo(arena+hblkhd)
         22790 MiB available memory on the node where the printing process lives
------------------
     ethr =  3.78E-04,  avg # of iterations =  2.1

     negative rho (up, down):  8.001E-01 0.000E+00

     total cpu time spent up to now is      193.0 secs

     total energy              =   -4441.78116318 Ry
     estimated scf accuracy    <       0.94985373 Ry

     iteration # 12     ecut=    60.00 Ry     beta= 0.15
     Davidson diagonalization with overlap

---- Real-time Memory Report at c_bands before calling an iterative solver
             0 MiB given to the printing process from OS
             0 MiB allocation reported by mallinfo(arena+hblkhd)
         22798 MiB available memory on the node where the printing process lives
------------------
     ethr =  2.20E-04,  avg # of iterations =  5.3

     negative rho (up, down):  8.172E-01 0.000E+00

     total cpu time spent up to now is      212.3 secs

     total energy              =   -4441.88076562 Ry
     estimated scf accuracy    <       1.46244701 Ry

     iteration # 13     ecut=    60.00 Ry     beta= 0.15
     Davidson diagonalization with overlap

---- Real-time Memory Report at c_bands before calling an iterative solver
             0 MiB given to the printing process from OS
             0 MiB allocation reported by mallinfo(arena+hblkhd)
         22795 MiB available memory on the node where the printing process lives
------------------
     ethr =  2.20E-04,  avg # of iterations =  8.5

     negative rho (up, down):  8.183E-01 0.000E+00

     total cpu time spent up to now is      233.4 secs

     total energy              =   -4441.80716334 Ry
     estimated scf accuracy    <       1.13387983 Ry

     iteration # 14     ecut=    60.00 Ry     beta= 0.15
     Davidson diagonalization with overlap

---- Real-time Memory Report at c_bands before calling an iterative solver
             0 MiB given to the printing process from OS
             0 MiB allocation reported by mallinfo(arena+hblkhd)
         22754 MiB available memory on the node where the printing process lives
------------------
     ethr =  2.20E-04,  avg # of iterations =  2.3

     negative rho (up, down):  8.154E-01 0.000E+00

     total cpu time spent up to now is      250.4 secs

     total energy              =   -4441.74968523 Ry
     estimated scf accuracy    <       0.44473634 Ry

     iteration # 15     ecut=    60.00 Ry     beta= 0.15
     Davidson diagonalization with overlap

---- Real-time Memory Report at c_bands before calling an iterative solver
             0 MiB given to the printing process from OS
             0 MiB allocation reported by mallinfo(arena+hblkhd)
         22762 MiB available memory on the node where the printing process lives
------------------
     ethr =  1.03E-04,  avg # of iterations =  6.0

     negative rho (up, down):  8.257E-01 0.000E+00

     total cpu time spent up to now is      270.2 secs

     total energy              =   -4441.73930454 Ry
     estimated scf accuracy    <       0.32679350 Ry

     iteration # 16     ecut=    60.00 Ry     beta= 0.15
     Davidson diagonalization with overlap

---- Real-time Memory Report at c_bands before calling an iterative solver
             0 MiB given to the printing process from OS
             0 MiB allocation reported by mallinfo(arena+hblkhd)
         22739 MiB available memory on the node where the printing process lives
------------------
     ethr =  7.58E-05,  avg # of iterations =  8.8

     negative rho (up, down):  8.298E-01 0.000E+00

     total cpu time spent up to now is      292.0 secs

     total energy              =   -4441.73294183 Ry
     estimated scf accuracy    <       0.30257592 Ry

     iteration # 17     ecut=    60.00 Ry     beta= 0.15
     Davidson diagonalization with overlap

---- Real-time Memory Report at c_bands before calling an iterative solver
             0 MiB given to the printing process from OS
             0 MiB allocation reported by mallinfo(arena+hblkhd)
         22722 MiB available memory on the node where the printing process lives
------------------
     ethr =  7.02E-05,  avg # of iterations =  4.4

     negative rho (up, down):  8.275E-01 0.000E+00

     total cpu time spent up to now is      310.2 secs

     total energy              =   -4441.71958483 Ry
     estimated scf accuracy    <       0.23597621 Ry

     iteration # 18     ecut=    60.00 Ry     beta= 0.15
     Davidson diagonalization with overlap

---- Real-time Memory Report at c_bands before calling an iterative solver
             0 MiB given to the printing process from OS
             0 MiB allocation reported by mallinfo(arena+hblkhd)
         22743 MiB available memory on the node where the printing process lives
------------------
     ethr =  5.48E-05,  avg # of iterations =  7.9

     negative rho (up, down):  8.133E-01 0.000E+00

     total cpu time spent up to now is      330.7 secs

     total energy              =   -4441.69375644 Ry
     estimated scf accuracy    <       0.15505067 Ry

     iteration # 19     ecut=    60.00 Ry     beta= 0.15
     Davidson diagonalization with overlap

---- Real-time Memory Report at c_bands before calling an iterative solver
             0 MiB given to the printing process from OS
             0 MiB allocation reported by mallinfo(arena+hblkhd)
         22767 MiB available memory on the node where the printing process lives
------------------
     ethr =  3.60E-05,  avg # of iterations =  8.8

     negative rho (up, down):  8.217E-01 0.000E+00

     total cpu time spent up to now is      352.8 secs

     total energy              =   -4441.68094381 Ry
     estimated scf accuracy    <       0.10813051 Ry

     iteration # 20     ecut=    60.00 Ry     beta= 0.15
     Davidson diagonalization with overlap

---- Real-time Memory Report at c_bands before calling an iterative solver
             0 MiB given to the printing process from OS
             0 MiB allocation reported by mallinfo(arena+hblkhd)
         22734 MiB available memory on the node where the printing process lives
------------------
     ethr =  2.51E-05,  avg # of iterations =  7.6

     negative rho (up, down):  8.178E-01 0.000E+00

     total cpu time spent up to now is      373.9 secs

     total energy              =   -4441.67530362 Ry
     estimated scf accuracy    <       0.06201536 Ry

     iteration # 21     ecut=    60.00 Ry     beta= 0.15
     Davidson diagonalization with overlap

---- Real-time Memory Report at c_bands before calling an iterative solver
             0 MiB given to the printing process from OS
             0 MiB allocation reported by mallinfo(arena+hblkhd)
         22760 MiB available memory on the node where the printing process lives
------------------
     ethr =  1.44E-05,  avg # of iterations =  8.9

     negative rho (up, down):  8.182E-01 0.000E+00

     total cpu time spent up to now is      396.1 secs

     total energy              =   -4441.67411860 Ry
     estimated scf accuracy    <       0.03413951 Ry

     iteration # 22     ecut=    60.00 Ry     beta= 0.15
     Davidson diagonalization with overlap

---- Real-time Memory Report at c_bands before calling an iterative solver
             0 MiB given to the printing process from OS
             0 MiB allocation reported by mallinfo(arena+hblkhd)
         22721 MiB available memory on the node where the printing process lives
------------------
     ethr =  7.92E-06,  avg # of iterations =  8.8

     negative rho (up, down):  8.116E-01 0.000E+00

     total cpu time spent up to now is      418.2 secs

     total energy              =   -4441.67413407 Ry
     estimated scf accuracy    <       0.02227541 Ry

     iteration # 23     ecut=    60.00 Ry     beta= 0.15
     Davidson diagonalization with overlap

---- Real-time Memory Report at c_bands before calling an iterative solver
             0 MiB given to the printing process from OS
             0 MiB allocation reported by mallinfo(arena+hblkhd)
         22697 MiB available memory on the node where the printing process lives
------------------
     ethr =  5.17E-06,  avg # of iterations =  1.5

     negative rho (up, down):  7.886E-01 0.000E+00

     total cpu time spent up to now is      435.1 secs

     total energy              =   -4441.67034443 Ry
     estimated scf accuracy    <       0.01831960 Ry

     iteration # 24     ecut=    60.00 Ry     beta= 0.15
     Davidson diagonalization with overlap

---- Real-time Memory Report at c_bands before calling an iterative solver
             0 MiB given to the printing process from OS
             0 MiB allocation reported by mallinfo(arena+hblkhd)
         22713 MiB available memory on the node where the printing process lives
------------------
     ethr =  4.25E-06,  avg # of iterations =  6.9

     negative rho (up, down):  7.902E-01 0.000E+00

     total cpu time spent up to now is      455.8 secs

     total energy              =   -4441.66963914 Ry
     estimated scf accuracy    <       0.01223812 Ry

     iteration # 25     ecut=    60.00 Ry     beta= 0.15
     Davidson diagonalization with overlap

---- Real-time Memory Report at c_bands before calling an iterative solver
             0 MiB given to the printing process from OS
             0 MiB allocation reported by mallinfo(arena+hblkhd)
         22697 MiB available memory on the node where the printing process lives
------------------
     ethr =  2.84E-06,  avg # of iterations =  8.4

     negative rho (up, down):  7.926E-01 0.000E+00

     total cpu time spent up to now is      477.8 secs

     total energy              =   -4441.66926525 Ry
     estimated scf accuracy    <       0.00640901 Ry

     iteration # 26     ecut=    60.00 Ry     beta= 0.15
     Davidson diagonalization with overlap

---- Real-time Memory Report at c_bands before calling an iterative solver
             0 MiB given to the printing process from OS
             0 MiB allocation reported by mallinfo(arena+hblkhd)
         22677 MiB available memory on the node where the printing process lives
------------------
     ethr =  1.49E-06,  avg # of iterations =  9.2

     negative rho (up, down):  7.936E-01 0.000E+00

     total cpu time spent up to now is      499.9 secs

     total energy              =   -4441.66901835 Ry
     estimated scf accuracy    <       0.00442604 Ry

     iteration # 27     ecut=    60.00 Ry     beta= 0.15
     Davidson diagonalization with overlap

---- Real-time Memory Report at c_bands before calling an iterative solver
             0 MiB given to the printing process from OS
             0 MiB allocation reported by mallinfo(arena+hblkhd)
         22677 MiB available memory on the node where the printing process lives
------------------
     ethr =  1.03E-06,  avg # of iterations =  5.6

     negative rho (up, down):  7.925E-01 0.000E+00

     total cpu time spent up to now is      519.9 secs

     total energy              =   -4441.66898358 Ry
     estimated scf accuracy    <       0.00250845 Ry

     iteration # 28     ecut=    60.00 Ry     beta= 0.15
     Davidson diagonalization with overlap

---- Real-time Memory Report at c_bands before calling an iterative solver
             0 MiB given to the printing process from OS
             0 MiB allocation reported by mallinfo(arena+hblkhd)
         22619 MiB available memory on the node where the printing process lives
------------------
     c_bands:  1 eigenvalues not converged
     ethr =  5.82E-07,  avg # of iterations = 10.8

     negative rho (up, down):  7.925E-01 0.000E+00

     total cpu time spent up to now is      542.5 secs

     total energy              =   -4441.66907374 Ry
     estimated scf accuracy    <       0.00103055 Ry

     iteration # 29     ecut=    60.00 Ry     beta= 0.15
     Davidson diagonalization with overlap

---- Real-time Memory Report at c_bands before calling an iterative solver
             0 MiB given to the printing process from OS
             0 MiB allocation reported by mallinfo(arena+hblkhd)
         22594 MiB available memory on the node where the printing process lives
------------------
     ethr =  2.39E-07,  avg # of iterations =  8.2

     negative rho (up, down):  7.927E-01 0.000E+00

     total cpu time spent up to now is      563.4 secs

     total energy              =   -4441.66908074 Ry
     estimated scf accuracy    <       0.00045336 Ry

     iteration # 30     ecut=    60.00 Ry     beta= 0.15
     Davidson diagonalization with overlap

---- Real-time Memory Report at c_bands before calling an iterative solver
             0 MiB given to the printing process from OS
             0 MiB allocation reported by mallinfo(arena+hblkhd)
         22618 MiB available memory on the node where the printing process lives
------------------
     ethr =  1.05E-07,  avg # of iterations =  2.5

     negative rho (up, down):  7.930E-01 0.000E+00

     total cpu time spent up to now is      581.2 secs

     total energy              =   -4441.66905827 Ry
     estimated scf accuracy    <       0.00024132 Ry

     iteration # 31     ecut=    60.00 Ry     beta= 0.15
     Davidson diagonalization with overlap

---- Real-time Memory Report at c_bands before calling an iterative solver
             0 MiB given to the printing process from OS
             0 MiB allocation reported by mallinfo(arena+hblkhd)
         22635 MiB available memory on the node where the printing process lives
------------------
     ethr =  5.60E-08,  avg # of iterations =  7.5

     negative rho (up, down):  7.928E-01 0.000E+00

     total cpu time spent up to now is      601.0 secs

     total energy              =   -4441.66906584 Ry
     estimated scf accuracy    <       0.00013244 Ry

     iteration # 32     ecut=    60.00 Ry     beta= 0.15
     Davidson diagonalization with overlap

---- Real-time Memory Report at c_bands before calling an iterative solver
             0 MiB given to the printing process from OS
             0 MiB allocation reported by mallinfo(arena+hblkhd)
         22677 MiB available memory on the node where the printing process lives
------------------
     ethr =  3.07E-08,  avg # of iterations =  1.8

     negative rho (up, down):  7.924E-01 0.000E+00

     total cpu time spent up to now is      618.0 secs

     total energy              =   -4441.66906489 Ry
     estimated scf accuracy    <       0.00008215 Ry

     iteration # 33     ecut=    60.00 Ry     beta= 0.15
     Davidson diagonalization with overlap

---- Real-time Memory Report at c_bands before calling an iterative solver
             0 MiB given to the printing process from OS
             0 MiB allocation reported by mallinfo(arena+hblkhd)
         22697 MiB available memory on the node where the printing process lives
------------------
     ethr =  1.91E-08,  avg # of iterations =  2.1

     negative rho (up, down):  7.922E-01 0.000E+00

     total cpu time spent up to now is      635.5 secs

     total energy              =   -4441.66907251 Ry
     estimated scf accuracy    <       0.00004594 Ry

     iteration # 34     ecut=    60.00 Ry     beta= 0.15
     Davidson diagonalization with overlap

---- Real-time Memory Report at c_bands before calling an iterative solver
             0 MiB given to the printing process from OS
             0 MiB allocation reported by mallinfo(arena+hblkhd)
         22689 MiB available memory on the node where the printing process lives
------------------
     ethr =  1.07E-08,  avg # of iterations =  2.1

     negative rho (up, down):  7.921E-01 0.000E+00

     total cpu time spent up to now is      653.2 secs

     total energy              =   -4441.66907657 Ry
     estimated scf accuracy    <       0.00002235 Ry

     iteration # 35     ecut=    60.00 Ry     beta= 0.15
     Davidson diagonalization with overlap

---- Real-time Memory Report at c_bands before calling an iterative solver
             0 MiB given to the printing process from OS
             0 MiB allocation reported by mallinfo(arena+hblkhd)
         22705 MiB available memory on the node where the printing process lives
------------------
     ethr =  5.18E-09,  avg # of iterations =  2.0

     negative rho (up, down):  7.922E-01 0.000E+00

     total cpu time spent up to now is      670.3 secs

     total energy              =   -4441.66908518 Ry
     estimated scf accuracy    <       0.00001551 Ry

     iteration # 36     ecut=    60.00 Ry     beta= 0.15
     Davidson diagonalization with overlap

---- Real-time Memory Report at c_bands before calling an iterative solver
             0 MiB given to the printing process from OS
             0 MiB allocation reported by mallinfo(arena+hblkhd)
         22714 MiB available memory on the node where the printing process lives
------------------
     ethr =  3.60E-09,  avg # of iterations =  2.1

     negative rho (up, down):  7.924E-01 0.000E+00

     total cpu time spent up to now is      687.8 secs

     total energy              =   -4441.66909892 Ry
     estimated scf accuracy    <       0.00001141 Ry

     iteration # 37     ecut=    60.00 Ry     beta= 0.15
     Davidson diagonalization with overlap

---- Real-time Memory Report at c_bands before calling an iterative solver
             0 MiB given to the printing process from OS
             0 MiB allocation reported by mallinfo(arena+hblkhd)
         22725 MiB available memory on the node where the printing process lives
------------------
     ethr =  2.65E-09,  avg # of iterations =  3.6

     negative rho (up, down):  7.924E-01 0.000E+00

     total cpu time spent up to now is      706.2 secs

     total energy              =   -4441.66910477 Ry
     estimated scf accuracy    <       0.00000591 Ry

     iteration # 38     ecut=    60.00 Ry     beta= 0.15
     Davidson diagonalization with overlap

---- Real-time Memory Report at c_bands before calling an iterative solver
             0 MiB given to the printing process from OS
             0 MiB allocation reported by mallinfo(arena+hblkhd)
         22718 MiB available memory on the node where the printing process lives
------------------
     ethr =  1.37E-09,  avg # of iterations =  4.2

     negative rho (up, down):  7.925E-01 0.000E+00

     total cpu time spent up to now is      725.0 secs

     total energy              =   -4441.66910720 Ry
     estimated scf accuracy    <       0.00000362 Ry

     iteration # 39     ecut=    60.00 Ry     beta= 0.15
     Davidson diagonalization with overlap

---- Real-time Memory Report at c_bands before calling an iterative solver
             0 MiB given to the printing process from OS
             0 MiB allocation reported by mallinfo(arena+hblkhd)
         22720 MiB available memory on the node where the printing process lives
------------------
     c_bands:  1 eigenvalues not converged
     ethr =  8.40E-10,  avg # of iterations =  5.3

     negative rho (up, down):  7.926E-01 0.000E+00

     total cpu time spent up to now is      744.7 secs

     total energy              =   -4441.66910752 Ry
     estimated scf accuracy    <       0.00000122 Ry

     iteration # 40     ecut=    60.00 Ry     beta= 0.15
     Davidson diagonalization with overlap

---- Real-time Memory Report at c_bands before calling an iterative solver
             0 MiB given to the printing process from OS
             0 MiB allocation reported by mallinfo(arena+hblkhd)
         22714 MiB available memory on the node where the printing process lives
------------------
     ethr =  2.82E-10,  avg # of iterations =  3.1

     negative rho (up, down):  7.926E-01 0.000E+00

     total cpu time spent up to now is      762.9 secs

     total energy              =   -4441.66910746 Ry
     estimated scf accuracy    <       0.00000057 Ry

     iteration # 41     ecut=    60.00 Ry     beta= 0.15
     Davidson diagonalization with overlap

---- Real-time Memory Report at c_bands before calling an iterative solver
             0 MiB given to the printing process from OS
             0 MiB allocation reported by mallinfo(arena+hblkhd)
         22712 MiB available memory on the node where the printing process lives
------------------
     ethr =  1.31E-10,  avg # of iterations =  2.8

     negative rho (up, down):  7.926E-01 0.000E+00

     total cpu time spent up to now is      780.9 secs

     total energy              =   -4441.66910746 Ry
     estimated scf accuracy    <       0.00000026 Ry

     iteration # 42     ecut=    60.00 Ry     beta= 0.15
     Davidson diagonalization with overlap

---- Real-time Memory Report at c_bands before calling an iterative solver
             0 MiB given to the printing process from OS
             0 MiB allocation reported by mallinfo(arena+hblkhd)
         22714 MiB available memory on the node where the printing process lives
------------------
     ethr =  6.02E-11,  avg # of iterations =  2.1

     negative rho (up, down):  7.926E-01 0.000E+00

     total cpu time spent up to now is      798.4 secs

     total energy              =   -4441.66910745 Ry
     estimated scf accuracy    <       0.00000014 Ry

     iteration # 43     ecut=    60.00 Ry     beta= 0.15
     Davidson diagonalization with overlap

---- Real-time Memory Report at c_bands before calling an iterative solver
             0 MiB given to the printing process from OS
             0 MiB allocation reported by mallinfo(arena+hblkhd)
         22713 MiB available memory on the node where the printing process lives
------------------
     ethr =  3.14E-11,  avg # of iterations =  2.2

     negative rho (up, down):  7.925E-01 0.000E+00

     total cpu time spent up to now is      816.1 secs

     total energy              =   -4441.66910747 Ry
     estimated scf accuracy    <       0.00000006 Ry

     iteration # 44     ecut=    60.00 Ry     beta= 0.15
     Davidson diagonalization with overlap

---- Real-time Memory Report at c_bands before calling an iterative solver
             0 MiB given to the printing process from OS
             0 MiB allocation reported by mallinfo(arena+hblkhd)
         22716 MiB available memory on the node where the printing process lives
------------------
     ethr =  1.41E-11,  avg # of iterations =  2.1

     negative rho (up, down):  7.925E-01 0.000E+00

     total cpu time spent up to now is      833.3 secs

     total energy              =   -4441.66910750 Ry
     estimated scf accuracy    <       0.00000003 Ry

     iteration # 45     ecut=    60.00 Ry     beta= 0.15
     Davidson diagonalization with overlap

---- Real-time Memory Report at c_bands before calling an iterative solver
             0 MiB given to the printing process from OS
             0 MiB allocation reported by mallinfo(arena+hblkhd)
         22716 MiB available memory on the node where the printing process lives
------------------
     ethr =  7.95E-12,  avg # of iterations =  2.7

     negative rho (up, down):  7.925E-01 0.000E+00

     total cpu time spent up to now is      850.6 secs

     total energy              =   -4441.66910753 Ry
     estimated scf accuracy    <       0.00000002 Ry

     iteration # 46     ecut=    60.00 Ry     beta= 0.15
     Davidson diagonalization with overlap

---- Real-time Memory Report at c_bands before calling an iterative solver
             0 MiB given to the printing process from OS
             0 MiB allocation reported by mallinfo(arena+hblkhd)
         22717 MiB available memory on the node where the printing process lives
------------------
     ethr =  4.74E-12,  avg # of iterations =  3.0

     negative rho (up, down):  7.925E-01 0.000E+00

     total cpu time spent up to now is      868.2 secs

     total energy              =   -4441.66910755 Ry
     estimated scf accuracy    <       0.00000001 Ry

     iteration # 47     ecut=    60.00 Ry     beta= 0.15
     Davidson diagonalization with overlap

---- Real-time Memory Report at c_bands before calling an iterative solver
             0 MiB given to the printing process from OS
             0 MiB allocation reported by mallinfo(arena+hblkhd)
         22717 MiB available memory on the node where the printing process lives
------------------
     ethr =  3.06E-12,  avg # of iterations =  3.5

     negative rho (up, down):  7.925E-01 0.000E+00

     total cpu time spent up to now is      885.8 secs

     End of self-consistent calculation

          k = 0.0000 0.0000 0.0000 ( 65197 PWs)   bands (ev):

   -92.7121 -92.6646 -92.5669 -92.5198 -92.4628 -92.4189 -92.4011 -92.2808
   -56.0655 -56.0514 -55.9238 -55.9128 -55.9072 -55.8996 -55.8665 -55.8358
   -55.8197 -55.8185 -55.8154 -55.7693 -55.7507 -55.7134 -55.6937 -55.6631
   -55.6551 -55.6074 -55.6069 -55.6040 -55.5956 -55.5558 -55.5315 -55.4461
   -31.2889 -31.2696 -31.1276 -31.0410 -31.0183 -30.9274 -30.7820 -30.7619
   -29.8582 -29.8159 -29.7891 -29.6811 -15.0922 -15.0450 -14.9654 -14.8369
   -14.6364 -14.5193 -14.2283 -14.2071 -14.1801 -14.1317 -14.0859 -14.0695
   -14.0648 -14.0430 -14.0275 -13.9811 -13.9716 -13.9408 -13.7864 -13.6000
   -13.5746 -13.5445 -13.5053 -13.4899 -13.4389 -13.4039 -13.3334 -13.2608
   -13.1245 -13.1173 -13.1097 -13.0857 -13.0672 -13.0225 -13.0119 -13.0000
   -12.9890 -12.9618 -12.9337 -12.9111 -12.8431 -12.8333 -12.8181 -12.7526
   -12.7388 -12.7315 -12.6541 -12.6390 -12.6182 -12.3535 -12.2074 -12.0188
   -11.9449 -11.8717 -11.7978 -11.7865 -11.7640 -11.7464 -11.6827 -11.6652
   -11.6309 -11.6010 -11.4897 -11.4101 -11.4067  -2.9513  -2.7199  -2.4904
    -2.3415  -2.2804  -2.1387  -1.8304  -1.8156  -1.7973  -1.7091  -1.6924
    -1.6243  -1.6079  -1.5671  -1.5237  -1.3419  -1.1892  -1.1146  -1.0799
    -0.9417  -0.9266  -0.8793  -0.8576  -0.8107  -0.7977  -0.7448  -0.7165
    -0.6411  -0.6316  -0.5573  -0.4252  -0.4133  -0.3818  -0.3019  -0.2793
    -0.2271  -0.2002  -0.1371  -0.0861  -0.0356  -0.0148   0.0563   0.1206
     0.1702   0.1940   0.2039   0.4642   0.4818   0.6573   0.7160   0.7809
     0.8298   0.9182   0.9281   0.9462   1.0146   1.0413   1.0753   1.1321
     1.2633   1.3211   1.3432   1.3697   1.3831   1.4424   1.5102   1.6240
     1.6445   1.6970   1.7050   1.7498   1.7705   1.7811   1.8349   1.9002
     1.9083   1.9410   1.9683   2.0182   2.1496   2.2368   2.2772   2.2941
     2.4189   2.4422   2.4485   2.4664   2.5014   2.5055   2.6156   2.6489
     2.6760   2.6954   2.7137   2.7950   2.8975   2.9338   2.9413   2.9466
     3.0143   3.0204   3.0426   3.0500   3.0591   3.0709   3.0795   3.0935
     3.1000   3.1102   3.1181   3.1254   3.1459   3.1674   3.1721   3.1846
     3.2072   3.3246   3.4071   4.0955   4.4194   4.7603   4.8606   5.0340
     5.8369   5.9450   5.9803   5.9985   6.3034   6.3500   6.4739   6.4849
     6.7652   7.0009   7.0979   7.3091   7.5448   7.6473   7.6591   7.6871
     7.7124   7.9394   8.0044   8.0461   8.1049   8.1816   8.4078   8.4844
     8.7115   8.8196   8.8829

     occupation numbers 
     1.0000   1.0000   1.0000   1.0000   1.0000   1.0000   1.0000   1.0000
     1.0000   1.0000   1.0000   1.0000   1.0000   1.0000   1.0000   1.0000
     1.0000   1.0000   1.0000   1.0000   1.0000   1.0000   1.0000   1.0000
     1.0000   1.0000   1.0000   1.0000   1.0000   1.0000   1.0000   1.0000
     1.0000   1.0000   1.0000   1.0000   1.0000   1.0000   1.0000   1.0000
     1.0000   1.0000   1.0000   1.0000   1.0000   1.0000   1.0000   1.0000
     1.0000   1.0000   1.0000   1.0000   1.0000   1.0000   1.0000   1.0000
     1.0000   1.0000   1.0000   1.0000   1.0000   1.0000   1.0000   1.0000
     1.0000   1.0000   1.0000   1.0000   1.0000   1.0000   1.0000   1.0000
     1.0000   1.0000   1.0000   1.0000   1.0000   1.0000   1.0000   1.0000
     1.0000   1.0000   1.0000   1.0000   1.0000   1.0000   1.0000   1.0000
     1.0000   1.0000   1.0000   1.0000   1.0000   1.0000   1.0000   1.0000
     1.0000   1.0000   1.0000   1.0000   1.0000   1.0000   1.0000   1.0000
     1.0000   1.0000   1.0000   1.0000   1.0000   1.0000   1.0000   1.0000
     1.0000   1.0000   1.0000   1.0000   1.0000   1.0000   1.0000   1.0000
     1.0000   1.0000   1.0000   1.0000   1.0000   1.0000   1.0000   1.0000
     1.0000   1.0000   1.0000   1.0000   1.0000   1.0000   1.0000   1.0000
     1.0000   1.0000   1.0000   1.0000   1.0000   1.0000   1.0000   1.0000
     1.0000   1.0000   1.0000   1.0000   1.0000   1.0000   1.0000   1.0000
     1.0000   1.0000   1.0000   1.0000   1.0000   1.0000   0.9999   0.9999
     0.9999   0.9998   0.9998   0.9998   0.9997   0.9996   0.9996   0.9994
     0.9988   0.9985   0.9983   0.9981   0.9979   0.9973   0.9963   0.9940
     0.9935   0.9919   0.9916   0.9900   0.9891   0.9886   0.9860   0.9822
     0.9817   0.9794   0.9773   0.9730   0.9583   0.9454   0.9384   0.9353
     0.9085   0.9027   0.9010   0.8963   0.8866   0.8855   0.8507   0.8389
     0.8289   0.8214   0.8142   0.7802   0.7326   0.7146   0.7108   0.7081
     0.6727   0.6694   0.6574   0.6533   0.6483   0.6418   0.6370   0.6292
     0.6255   0.6198   0.6153   0.6111   0.5994   0.5871   0.5843   0.5771
     0.5639   0.4946   0.4459   0.1234   0.0506   0.0160   0.0109   0.0054
     0.0001   0.0000   0.0000   0.0000   0.0000   0.0000   0.0000   0.0000
     0.0000   0.0000   0.0000   0.0000   0.0000   0.0000   0.0000   0.0000
     0.0000   0.0000   0.0000   0.0000   0.0000   0.0000   0.0000   0.0000
     0.0000   0.0000   0.0000

          k = 0.0000 0.2500 0.0000 ( 65257 PWs)   bands (ev):

   -92.7121 -92.6646 -92.5669 -92.5198 -92.4628 -92.4189 -92.4011 -92.2808
   -56.0655 -56.0514 -55.9238 -55.9128 -55.9072 -55.8996 -55.8665 -55.8358
   -55.8197 -55.8185 -55.8154 -55.7693 -55.7507 -55.7134 -55.6937 -55.6631
   -55.6551 -55.6074 -55.6069 -55.6040 -55.5956 -55.5558 -55.5315 -55.4461
   -31.2887 -31.2695 -31.1278 -31.0411 -31.0182 -30.9272 -30.7822 -30.7620
   -29.8575 -29.8156 -29.7897 -29.6815 -15.0558 -15.0186 -14.9406 -14.8071
   -14.6806 -14.5066 -14.3742 -14.1949 -14.1566 -14.1385 -14.1066 -14.0516
   -14.0407 -14.0276 -14.0066 -13.9798 -13.9425 -13.8592 -13.8178 -13.6580
   -13.6230 -13.5873 -13.5494 -13.4875 -13.4609 -13.4012 -13.3531 -13.3184
   -13.2312 -13.1676 -13.1577 -13.1197 -13.1017 -13.0121 -12.9913 -12.9707
   -12.9447 -12.9128 -12.8787 -12.8618 -12.8393 -12.8169 -12.8068 -12.7286
   -12.6739 -12.6410 -12.6234 -12.5899 -12.5086 -12.4148 -12.2586 -12.0752
   -12.0102 -11.8372 -11.7947 -11.7662 -11.7384 -11.7220 -11.6745 -11.6631
   -11.6403 -11.6065 -11.5039 -11.4517 -11.4413  -2.8158  -2.5956  -2.4575
    -2.2751  -2.2317  -2.0688  -1.8470  -1.7650  -1.7519  -1.6894  -1.5907
    -1.5750  -1.5419  -1.5139  -1.4700  -1.2738  -1.1913  -1.1390  -1.1283
    -1.0542  -1.0447  -0.9412  -0.9120  -0.8503  -0.8238  -0.7872  -0.7227
    -0.6957  -0.6621  -0.6322  -0.6155  -0.5827  -0.5102  -0.4590  -0.3793
    -0.2769  -0.2458  -0.1986  -0.0981  -0.0563   0.0041   0.0535   0.1075
     0.1214   0.1504   0.2089   0.5137   0.6005   0.6386   0.7187   0.7654
     0.7873   0.8996   0.9182   1.0181   1.0412   1.0677   1.1812   1.2790
     1.2982   1.3256   1.3444   1.3650   1.4253   1.4538   1.4823   1.5276
     1.5640   1.5997   1.6884   1.7237   1.7488   1.8047   1.8571   1.8996
     1.9240   1.9471   1.9628   2.0694   2.1893   2.2599   2.2791   2.3497
     2.3944   2.4157   2.4364   2.4428   2.4630   2.5084   2.5440   2.6295
     2.6778   2.6926   2.8552   2.8759   2.9102   2.9346   2.9485   2.9577
     2.9634   2.9719   3.0025   3.0043   3.0221   3.0305   3.0368   3.0578
     3.0675   3.0764   3.0969   3.1074   3.1131   3.1487   3.1651   3.2240
     3.5940   3.6282   3.8699   4.2865   4.4130   4.7071   5.0142   5.0558
     5.6375   5.8184   5.9679   6.0060   6.0770   6.0987   6.1738   6.5915
     6.8914   7.0996   7.1416   7.3221   7.4775   7.4920   7.6373   7.7242
     7.8735   7.9781   8.0527   8.1900   8.3283   8.3788   8.4004   8.4674
     8.5276   8.8236   8.9422

     occupation numbers 
     1.0000   1.0000   1.0000   1.0000   1.0000   1.0000   1.0000   1.0000
     1.0000   1.0000   1.0000   1.0000   1.0000   1.0000   1.0000   1.0000
     1.0000   1.0000   1.0000   1.0000   1.0000   1.0000   1.0000   1.0000
     1.0000   1.0000   1.0000   1.0000   1.0000   1.0000   1.0000   1.0000
     1.0000   1.0000   1.0000   1.0000   1.0000   1.0000   1.0000   1.0000
     1.0000   1.0000   1.0000   1.0000   1.0000   1.0000   1.0000   1.0000
     1.0000   1.0000   1.0000   1.0000   1.0000   1.0000   1.0000   1.0000
     1.0000   1.0000   1.0000   1.0000   1.0000   1.0000   1.0000   1.0000
     1.0000   1.0000   1.0000   1.0000   1.0000   1.0000   1.0000   1.0000
     1.0000   1.0000   1.0000   1.0000   1.0000   1.0000   1.0000   1.0000
     1.0000   1.0000   1.0000   1.0000   1.0000   1.0000   1.0000   1.0000
     1.0000   1.0000   1.0000   1.0000   1.0000   1.0000   1.0000   1.0000
     1.0000   1.0000   1.0000   1.0000   1.0000   1.0000   1.0000   1.0000
     1.0000   1.0000   1.0000   1.0000   1.0000   1.0000   1.0000   1.0000
     1.0000   1.0000   1.0000   1.0000   1.0000   1.0000   1.0000   1.0000
     1.0000   1.0000   1.0000   1.0000   1.0000   1.0000   1.0000   1.0000
     1.0000   1.0000   1.0000   1.0000   1.0000   1.0000   1.0000   1.0000
     1.0000   1.0000   1.0000   1.0000   1.0000   1.0000   1.0000   1.0000
     1.0000   1.0000   1.0000   1.0000   1.0000   1.0000   1.0000   1.0000
     1.0000   1.0000   1.0000   1.0000   1.0000   1.0000   0.9999   0.9999
     0.9999   0.9998   0.9998   0.9997   0.9996   0.9996   0.9992   0.9988
     0.9986   0.9984   0.9983   0.9981   0.9975   0.9971   0.9968   0.9960
     0.9953   0.9946   0.9922   0.9910   0.9900   0.9876   0.9848   0.9822
     0.9806   0.9789   0.9777   0.9679   0.9528   0.9415   0.9381   0.9242
     0.9143   0.9092   0.9041   0.9025   0.8972   0.8846   0.8740   0.8458
     0.8282   0.8225   0.7529   0.7430   0.7264   0.7142   0.7071   0.7024
     0.6995   0.6951   0.6790   0.6780   0.6685   0.6639   0.6605   0.6490
     0.6437   0.6387   0.6273   0.6214   0.6182   0.5978   0.5884   0.5541
     0.3396   0.3212   0.2052   0.0747   0.0516   0.0194   0.0058   0.0049
     0.0003   0.0001   0.0000   0.0000   0.0000   0.0000   0.0000   0.0000
     0.0000   0.0000   0.0000   0.0000   0.0000   0.0000   0.0000   0.0000
     0.0000   0.0000   0.0000   0.0000   0.0000   0.0000   0.0000   0.0000
     0.0000   0.0000   0.0000

          k = 0.0000-0.5000 0.0000 ( 65180 PWs)   bands (ev):

   -92.7121 -92.6646 -92.5669 -92.5198 -92.4628 -92.4189 -92.4011 -92.2808
   -56.0655 -56.0514 -55.9238 -55.9128 -55.9072 -55.8996 -55.8665 -55.8358
   -55.8197 -55.8185 -55.8154 -55.7693 -55.7507 -55.7134 -55.6937 -55.6631
   -55.6551 -55.6074 -55.6069 -55.6040 -55.5956 -55.5558 -55.5315 -55.4461
   -31.2885 -31.2693 -31.1280 -31.0412 -31.0180 -30.9270 -30.7824 -30.7621
   -29.8569 -29.8152 -29.7904 -29.6818 -15.0189 -14.9711 -14.9157 -14.7870
   -14.7033 -14.5691 -14.4059 -14.2917 -14.1683 -14.0865 -14.0510 -14.0415
   -13.9951 -13.9830 -13.9792 -13.9286 -13.9000 -13.8852 -13.8516 -13.7995
   -13.7575 -13.5940 -13.5347 -13.4878 -13.4675 -13.3811 -13.3689 -13.3097
   -13.2942 -13.2669 -13.2288 -13.1206 -13.1027 -12.9999 -12.9795 -12.9670
   -12.9398 -12.8985 -12.8921 -12.8421 -12.8117 -12.7195 -12.7159 -12.6683
   -12.6613 -12.6407 -12.6237 -12.5257 -12.4403 -12.3336 -12.3023 -12.1756
   -12.1268 -11.7916 -11.7887 -11.7611 -11.7242 -11.6896 -11.6784 -11.6366
   -11.6326 -11.5885 -11.5253 -11.5123 -11.4984  -2.6004  -2.5428  -2.3924
    -2.3208  -2.0358  -1.9552  -1.8266  -1.6914  -1.6469  -1.6334  -1.5560
    -1.5239  -1.4410  -1.4063  -1.3265  -1.2902  -1.2516  -1.2245  -1.1933
    -1.1614  -1.1223  -1.0773  -1.0433  -1.0099  -0.9789  -0.8676  -0.8244
    -0.7868  -0.7799  -0.6959  -0.6684  -0.6459  -0.5981  -0.5074  -0.4389
    -0.3454  -0.2945  -0.2126  -0.1843  -0.0406   0.0230   0.0347   0.0765
     0.1981   0.2674   0.3809   0.4524   0.4647   0.5864   0.6544   0.7365
     0.8670   0.9702   1.0042   1.0459   1.0592   1.0892   1.1052   1.1400
     1.1565   1.1759   1.2780   1.3386   1.3743   1.4008   1.6790   1.6957
     1.7136   1.8025   1.8242   1.8635   1.8794   1.9022   1.9263   1.9303
     1.9512   1.9970   2.0231   2.0553   2.0586   2.0886   2.1413   2.2362
     2.2681   2.4126   2.4306   2.4565   2.5930   2.6056   2.6204   2.6612
     2.6709   2.6757   2.7241   2.7342   2.7886   2.8091   2.8874   2.9066
     2.9730   2.9763   3.0025   3.0053   3.0192   3.0225   3.0274   3.0343
     3.0363   3.0493   3.0668   3.0690   3.1342   3.1373   3.1545   3.2095
     4.1156   4.1287   4.1821   4.2561   4.7262   4.8976   5.0160   5.1728
     5.4067   5.4550   5.5771   5.7338   6.0281   6.0361   6.3806   6.5243
     6.8452   6.9470   7.2139   7.3048   7.4170   7.4758   7.7424   7.8762
     7.9005   8.0591   8.2211   8.2962   8.3262   8.4771   8.4821   8.6629
     8.8026   8.8570   8.8649

     occupation numbers 
     1.0000   1.0000   1.0000   1.0000   1.0000   1.0000   1.0000   1.0000
     1.0000   1.0000   1.0000   1.0000   1.0000   1.0000   1.0000   1.0000
     1.0000   1.0000   1.0000   1.0000   1.0000   1.0000   1.0000   1.0000
     1.0000   1.0000   1.0000   1.0000   1.0000   1.0000   1.0000   1.0000
     1.0000   1.0000   1.0000   1.0000   1.0000   1.0000   1.0000   1.0000
     1.0000   1.0000   1.0000   1.0000   1.0000   1.0000   1.0000   1.0000
     1.0000   1.0000   1.0000   1.0000   1.0000   1.0000   1.0000   1.0000
     1.0000   1.0000   1.0000   1.0000   1.0000   1.0000   1.0000   1.0000
     1.0000   1.0000   1.0000   1.0000   1.0000   1.0000   1.0000   1.0000
     1.0000   1.0000   1.0000   1.0000   1.0000   1.0000   1.0000   1.0000
     1.0000   1.0000   1.0000   1.0000   1.0000   1.0000   1.0000   1.0000
     1.0000   1.0000   1.0000   1.0000   1.0000   1.0000   1.0000   1.0000
     1.0000   1.0000   1.0000   1.0000   1.0000   1.0000   1.0000   1.0000
     1.0000   1.0000   1.0000   1.0000   1.0000   1.0000   1.0000   1.0000
     1.0000   1.0000   1.0000   1.0000   1.0000   1.0000   1.0000   1.0000
     1.0000   1.0000   1.0000   1.0000   1.0000   1.0000   1.0000   1.0000
     1.0000   1.0000   1.0000   1.0000   1.0000   1.0000   1.0000   1.0000
     1.0000   1.0000   1.0000   1.0000   1.0000   1.0000   1.0000   1.0000
     1.0000   1.0000   1.0000   1.0000   1.0000   1.0000   1.0000   1.0000
     1.0000   1.0000   1.0000   1.0000   1.0000   1.0000   1.0000   0.9999
     0.9999   0.9998   0.9997   0.9996   0.9996   0.9995   0.9995   0.9994
     0.9993   0.9993   0.9988   0.9983   0.9980   0.9978   0.9925   0.9919
     0.9913   0.9877   0.9866   0.9845   0.9835   0.9821   0.9804   0.9802
     0.9786   0.9749   0.9725   0.9693   0.9690   0.9658   0.9594   0.9455
     0.9401   0.9100   0.9056   0.8990   0.8584   0.8541   0.8490   0.8344
     0.8308   0.8290   0.8101   0.8060   0.7830   0.7740   0.7375   0.7282
     0.6945   0.6927   0.6790   0.6775   0.6700   0.6682   0.6656   0.6619
     0.6608   0.6537   0.6441   0.6428   0.6061   0.6043   0.5945   0.5625
     0.1174   0.1136   0.0991   0.0813   0.0181   0.0094   0.0058   0.0029
     0.0010   0.0007   0.0004   0.0002   0.0000   0.0000   0.0000   0.0000
     0.0000   0.0000   0.0000   0.0000   0.0000   0.0000   0.0000   0.0000
     0.0000   0.0000   0.0000   0.0000   0.0000   0.0000   0.0000   0.0000
     0.0000   0.0000   0.0000

          k = 0.2500 0.2500 0.0000 ( 65198 PWs)   bands (ev):

   -92.7121 -92.6646 -92.5669 -92.5198 -92.4628 -92.4189 -92.4011 -92.2808
   -56.0655 -56.0514 -55.9238 -55.9128 -55.9072 -55.8996 -55.8665 -55.8358
   -55.8197 -55.8185 -55.8154 -55.7693 -55.7507 -55.7134 -55.6937 -55.6631
   -55.6551 -55.6074 -55.6069 -55.6040 -55.5956 -55.5558 -55.5315 -55.4461
   -31.2870 -31.2712 -31.1275 -31.0415 -31.0178 -30.9275 -30.7805 -30.7637
   -29.8565 -29.8166 -29.7893 -29.6819 -15.0268 -14.9844 -14.9124 -14.7967
   -14.6721 -14.5492 -14.4795 -14.2686 -14.1180 -14.1050 -14.0665 -14.0390
   -14.0141 -13.9880 -13.9802 -13.9492 -13.9051 -13.8481 -13.8307 -13.6727
   -13.6572 -13.6256 -13.6096 -13.5310 -13.5183 -13.4375 -13.4225 -13.2936
   -13.2601 -13.2367 -13.1530 -13.1123 -13.0602 -13.0292 -12.9890 -12.9650
   -12.9553 -12.9262 -12.8687 -12.8264 -12.7887 -12.7558 -12.7387 -12.7247
   -12.6976 -12.6834 -12.6438 -12.4773 -12.4633 -12.3933 -12.2877 -12.1127
   -12.0552 -11.8095 -11.7783 -11.7669 -11.7595 -11.6978 -11.6624 -11.6563
   -11.6207 -11.6121 -11.5208 -11.4801 -11.4626  -2.6774  -2.4698  -2.3516
    -2.2556  -2.1366  -2.0723  -1.8715  -1.7294  -1.7108  -1.6772  -1.5851
    -1.5523  -1.4574  -1.4298  -1.3797  -1.2496  -1.2030  -1.1854  -1.1235
    -1.0812  -1.0348  -1.0136  -0.9903  -0.9465  -0.9325  -0.8410  -0.7912
    -0.7196  -0.6747  -0.6455  -0.5974  -0.5831  -0.5193  -0.4688  -0.4020
    -0.3771  -0.2829  -0.2379  -0.2045  -0.1700  -0.1154  -0.0345  -0.0031
     0.0309   0.0980   0.1309   0.4031   0.5564   0.5853   0.6479   0.6870
     0.7452   0.7889   0.8619   0.8976   1.1696   1.2322   1.3055   1.3300
     1.3848   1.4093   1.4469   1.4848   1.5004   1.5282   1.5756   1.5835
     1.6011   1.6461   1.6805   1.7212   1.7823   1.8185   1.8322   1.8621
     1.8949   1.9521   1.9741   2.1062   2.1696   2.2046   2.2243   2.2942
     2.3558   2.3854   2.4124   2.4268   2.4461   2.4551   2.4648   2.5724
     2.6159   2.7055   2.8660   2.8841   2.8886   2.9052   2.9210   2.9345
     2.9459   2.9517   2.9644   2.9771   2.9922   3.0072   3.0140   3.0258
     3.0504   3.0594   3.0687   3.0998   3.4001   3.4924   3.5409   3.6093
     3.6223   3.8520   3.9429   4.2968   4.4991   4.7120   4.9732   5.1620
     5.6404   5.6971   5.7835   5.8281   5.8868   6.1475   6.1567   6.2075
     6.8891   7.0012   7.1848   7.3021   7.5443   7.5985   7.7044   7.8605
     7.9000   8.0532   8.2013   8.2395   8.3373   8.4086   8.4371   8.5177
     8.5853   8.6732   8.9090

     occupation numbers 
     1.0000   1.0000   1.0000   1.0000   1.0000   1.0000   1.0000   1.0000
     1.0000   1.0000   1.0000   1.0000   1.0000   1.0000   1.0000   1.0000
     1.0000   1.0000   1.0000   1.0000   1.0000   1.0000   1.0000   1.0000
     1.0000   1.0000   1.0000   1.0000   1.0000   1.0000   1.0000   1.0000
     1.0000   1.0000   1.0000   1.0000   1.0000   1.0000   1.0000   1.0000
     1.0000   1.0000   1.0000   1.0000   1.0000   1.0000   1.0000   1.0000
     1.0000   1.0000   1.0000   1.0000   1.0000   1.0000   1.0000   1.0000
     1.0000   1.0000   1.0000   1.0000   1.0000   1.0000   1.0000   1.0000
     1.0000   1.0000   1.0000   1.0000   1.0000   1.0000   1.0000   1.0000
     1.0000   1.0000   1.0000   1.0000   1.0000   1.0000   1.0000   1.0000
     1.0000   1.0000   1.0000   1.0000   1.0000   1.0000   1.0000   1.0000
     1.0000   1.0000   1.0000   1.0000   1.0000   1.0000   1.0000   1.0000
     1.0000   1.0000   1.0000   1.0000   1.0000   1.0000   1.0000   1.0000
     1.0000   1.0000   1.0000   1.0000   1.0000   1.0000   1.0000   1.0000
     1.0000   1.0000   1.0000   1.0000   1.0000   1.0000   1.0000   1.0000
     1.0000   1.0000   1.0000   1.0000   1.0000   1.0000   1.0000   1.0000
     1.0000   1.0000   1.0000   1.0000   1.0000   1.0000   1.0000   1.0000
     1.0000   1.0000   1.0000   1.0000   1.0000   1.0000   1.0000   1.0000
     1.0000   1.0000   1.0000   1.0000   1.0000   1.0000   1.0000   1.0000
     1.0000   1.0000   1.0000   1.0000   1.0000   1.0000   1.0000   1.0000
     0.9999   0.9999   0.9999   0.9998   0.9993   0.9990   0.9986   0.9984
     0.9979   0.9977   0.9972   0.9967   0.9965   0.9960   0.9951   0.9949
     0.9945   0.9934   0.9924   0.9910   0.9886   0.9869   0.9862   0.9845
     0.9826   0.9785   0.9768   0.9637   0.9556   0.9505   0.9474   0.9353
     0.9229   0.9164   0.9101   0.9065   0.9016   0.8993   0.8967   0.8651
     0.8506   0.8175   0.7478   0.7391   0.7369   0.7288   0.7210   0.7142
     0.7084   0.7055   0.6989   0.6923   0.6844   0.6765   0.6728   0.6665
     0.6531   0.6481   0.6430   0.6257   0.4500   0.3964   0.3689   0.3314
     0.3243   0.2128   0.1758   0.0725   0.0394   0.0191   0.0069   0.0031
     0.0003   0.0002   0.0001   0.0001   0.0001   0.0000   0.0000   0.0000
     0.0000   0.0000   0.0000   0.0000   0.0000   0.0000   0.0000   0.0000
     0.0000   0.0000   0.0000   0.0000   0.0000   0.0000   0.0000   0.0000
     0.0000   0.0000   0.0000

          k = 0.2500-0.5000 0.0000 ( 65138 PWs)   bands (ev):

   -92.7121 -92.6646 -92.5669 -92.5198 -92.4628 -92.4189 -92.4011 -92.2808
   -56.0655 -56.0514 -55.9238 -55.9128 -55.9072 -55.8996 -55.8665 -55.8358
   -55.8197 -55.8185 -55.8154 -55.7693 -55.7507 -55.7134 -55.6937 -55.6631
   -55.6551 -55.6074 -55.6069 -55.6040 -55.5956 -55.5558 -55.5315 -55.4461
   -31.2868 -31.2710 -31.1277 -31.0416 -31.0177 -30.9273 -30.7807 -30.7638
   -29.8559 -29.8163 -29.7900 -29.6822 -14.9883 -14.9443 -14.8731 -14.7586
   -14.7247 -14.6096 -14.5099 -14.3870 -14.0827 -14.0255 -14.0027 -13.9837
   -13.9758 -13.9629 -13.9526 -13.9119 -13.8886 -13.8634 -13.8300 -13.7965
   -13.7432 -13.6758 -13.6281 -13.5505 -13.5432 -13.4790 -13.4275 -13.3477
   -13.3170 -13.2180 -13.1531 -13.1308 -13.0449 -13.0007 -12.9839 -12.9576
   -12.9543 -12.9226 -12.8647 -12.8493 -12.7911 -12.7307 -12.6935 -12.6737
   -12.6663 -12.6513 -12.6327 -12.5323 -12.3992 -12.3311 -12.2597 -12.1682
   -12.1362 -11.7852 -11.7731 -11.7622 -11.7347 -11.7037 -11.6747 -11.6341
   -11.6068 -11.5847 -11.5387 -11.5133 -11.5026  -2.4579  -2.3946  -2.2662
    -2.1895  -2.0563  -1.9749  -1.8510  -1.7020  -1.6445  -1.6244  -1.5635
    -1.5504  -1.4515  -1.3856  -1.3016  -1.2504  -1.2426  -1.1854  -1.1772
    -1.1338  -1.1015  -1.0521  -1.0148  -0.9801  -0.9421  -0.9260  -0.8847
    -0.8554  -0.8087  -0.7814  -0.7141  -0.6073  -0.5746  -0.4932  -0.4264
    -0.3705  -0.3330  -0.3180  -0.2490  -0.1029  -0.0909   0.0330   0.0438
     0.0546   0.0980   0.1376   0.1687   0.2029   0.2664   0.5643   0.6478
     0.7035   0.7560   1.0388   1.0488   1.1404   1.1684   1.3303   1.3683
     1.4043   1.4305   1.4406   1.4634   1.5287   1.5815   1.6144   1.6836
     1.7897   1.8188   1.8388   1.8479   1.8862   1.8989   1.9078   1.9507
     1.9618   1.9808   2.0145   2.0272   2.0515   2.0839   2.1418   2.1888
     2.2693   2.3927   2.4180   2.4516   2.5451   2.5622   2.5800   2.6159
     2.6342   2.6622   2.6820   2.6967   2.7200   2.8149   2.8669   2.8850
     2.8937   2.9022   2.9224   2.9361   2.9554   2.9629   3.0044   3.0114
     3.0233   3.0297   3.0397   3.0495   3.5656   3.5917   3.7316   3.7864
     4.1176   4.1757   4.1881   4.3111   4.7460   4.9188   5.0517   5.1377
     5.2945   5.4269   5.6006   5.6521   5.7607   5.7861   6.3902   6.4737
     6.4981   6.6547   7.3407   7.4137   7.5735   7.6955   7.7883   7.8531
     7.8971   8.0330   8.3971   8.4307   8.4879   8.5305   8.5483   8.5617
     8.7075   8.7596   8.7700

     occupation numbers 
     1.0000   1.0000   1.0000   1.0000   1.0000   1.0000   1.0000   1.0000
     1.0000   1.0000   1.0000   1.0000   1.0000   1.0000   1.0000   1.0000
     1.0000   1.0000   1.0000   1.0000   1.0000   1.0000   1.0000   1.0000
     1.0000   1.0000   1.0000   1.0000   1.0000   1.0000   1.0000   1.0000
     1.0000   1.0000   1.0000   1.0000   1.0000   1.0000   1.0000   1.0000
     1.0000   1.0000   1.0000   1.0000   1.0000   1.0000   1.0000   1.0000
     1.0000   1.0000   1.0000   1.0000   1.0000   1.0000   1.0000   1.0000
     1.0000   1.0000   1.0000   1.0000   1.0000   1.0000   1.0000   1.0000
     1.0000   1.0000   1.0000   1.0000   1.0000   1.0000   1.0000   1.0000
     1.0000   1.0000   1.0000   1.0000   1.0000   1.0000   1.0000   1.0000
     1.0000   1.0000   1.0000   1.0000   1.0000   1.0000   1.0000   1.0000
     1.0000   1.0000   1.0000   1.0000   1.0000   1.0000   1.0000   1.0000
     1.0000   1.0000   1.0000   1.0000   1.0000   1.0000   1.0000   1.0000
     1.0000   1.0000   1.0000   1.0000   1.0000   1.0000   1.0000   1.0000
     1.0000   1.0000   1.0000   1.0000   1.0000   1.0000   1.0000   1.0000
     1.0000   1.0000   1.0000   1.0000   1.0000   1.0000   1.0000   1.0000
     1.0000   1.0000   1.0000   1.0000   1.0000   1.0000   1.0000   1.0000
     1.0000   1.0000   1.0000   1.0000   1.0000   1.0000   1.0000   1.0000
     1.0000   1.0000   1.0000   1.0000   1.0000   1.0000   1.0000   1.0000
     1.0000   1.0000   1.0000   1.0000   1.0000   1.0000   1.0000   1.0000
     0.9999   0.9999   0.9996   0.9996   0.9994   0.9993   0.9984   0.9981
     0.9977   0.9974   0.9973   0.9970   0.9960   0.9950   0.9942   0.9923
     0.9883   0.9869   0.9858   0.9853   0.9831   0.9823   0.9817   0.9787
     0.9778   0.9763   0.9733   0.9721   0.9697   0.9663   0.9593   0.9528
     0.9399   0.9147   0.9087   0.9002   0.8737   0.8683   0.8626   0.8506
     0.8441   0.8340   0.8266   0.8209   0.8117   0.7714   0.7474   0.7387
     0.7345   0.7303   0.7203   0.7134   0.7036   0.6997   0.6780   0.6742
     0.6679   0.6644   0.6589   0.6536   0.3552   0.3409   0.2683   0.2422
     0.1168   0.1008   0.0975   0.0697   0.0168   0.0086   0.0050   0.0034
     0.0016   0.0009   0.0003   0.0003   0.0001   0.0001   0.0000   0.0000
     0.0000   0.0000   0.0000   0.0000   0.0000   0.0000   0.0000   0.0000
     0.0000   0.0000   0.0000   0.0000   0.0000   0.0000   0.0000   0.0000
     0.0000   0.0000   0.0000

          k =-0.5000-0.5000 0.0000 ( 65132 PWs)   bands (ev):

   -92.7121 -92.6646 -92.5669 -92.5198 -92.4628 -92.4189 -92.4011 -92.2808
   -56.0655 -56.0514 -55.9238 -55.9128 -55.9072 -55.8996 -55.8665 -55.8358
   -55.8197 -55.8185 -55.8154 -55.7693 -55.7507 -55.7134 -55.6937 -55.6631
   -55.6551 -55.6074 -55.6069 -55.6040 -55.5956 -55.5558 -55.5315 -55.4461
   -31.2846 -31.2733 -31.1273 -31.0420 -31.0174 -30.9277 -30.7786 -30.7660
   -29.8549 -29.8173 -29.7896 -29.6826 -14.9417 -14.9171 -14.8004 -14.7859
   -14.6851 -14.6580 -14.6143 -14.4849 -13.9933 -13.9831 -13.9799 -13.9484
   -13.9278 -13.9113 -13.8849 -13.8706 -13.8585 -13.8363 -13.8338 -13.8142
   -13.7415 -13.7372 -13.6900 -13.6715 -13.6318 -13.5674 -13.4865 -13.3844
   -13.3587 -13.1692 -13.1274 -13.0599 -13.0361 -12.9998 -12.9952 -12.9854
   -12.9666 -12.9187 -12.8682 -12.7913 -12.7871 -12.7439 -12.7372 -12.7001
   -12.6699 -12.6153 -12.6083 -12.5485 -12.3659 -12.3274 -12.2125 -12.1650
   -12.1503 -11.7820 -11.7692 -11.7513 -11.7346 -11.6995 -11.6829 -11.6465
   -11.5871 -11.5667 -11.5614 -11.5111 -11.5083  -2.2316  -2.1589  -2.1512
    -2.0783  -2.0397  -1.9613  -1.8932  -1.7663  -1.6521  -1.6227  -1.5795
    -1.5260  -1.4535  -1.4378  -1.3690  -1.3259  -1.2092  -1.1891  -1.1729
    -1.1266  -1.1031  -1.0384  -0.9907  -0.9729  -0.9604  -0.9036  -0.8635
    -0.8416  -0.7316  -0.6772  -0.6306  -0.5809  -0.5508  -0.5311  -0.5011
    -0.4635  -0.4206  -0.4143  -0.3305  -0.2619  -0.2209  -0.1905  -0.1206
    -0.0547  -0.0517   0.0107   0.0421   0.0498   0.0750   0.5411   0.5727
     0.6529   0.6651   1.0613   1.0753   1.1142   1.1475   1.4167   1.4346
     1.4427   1.4862   1.6094   1.7012   1.7300   1.7665   1.7995   1.8108
     1.8205   1.8512   1.8671   1.8864   1.8882   1.9381   1.9421   1.9705
     1.9870   2.0054   2.0206   2.0591   2.0839   2.0985   2.1287   2.1632
     2.2240   2.2912   2.4128   2.4476   2.5588   2.5896   2.6115   2.6271
     2.6403   2.6693   2.6745   2.6918   2.7024   2.7181   2.7396   2.7510
     2.8166   2.8200   2.8423   2.8544   2.8719   2.8917   2.8933   2.9021
     3.0096   3.0160   3.0344   3.0477   3.9951   4.0370   4.0415   4.0841
     4.3081   4.3819   4.4074   4.6475   4.7704   4.8527   4.9825   5.0749
     5.0835   5.1982   5.2886   5.4502   5.8507   5.8820   5.9515   6.0236
     6.7232   6.9178   6.9724   7.1483   7.9196   7.9250   7.9599   7.9794
     7.9995   8.0326   8.0829   8.2638   8.5789   8.6108   8.6259   8.6379
     8.6633   8.7017   8.7339

     occupation numbers 
     1.0000   1.0000   1.0000   1.0000   1.0000   1.0000   1.0000   1.0000
     1.0000   1.0000   1.0000   1.0000   1.0000   1.0000   1.0000   1.0000
     1.0000   1.0000   1.0000   1.0000   1.0000   1.0000   1.0000   1.0000
     1.0000   1.0000   1.0000   1.0000   1.0000   1.0000   1.0000   1.0000
     1.0000   1.0000   1.0000   1.0000   1.0000   1.0000   1.0000   1.0000
     1.0000   1.0000   1.0000   1.0000   1.0000   1.0000   1.0000   1.0000
     1.0000   1.0000   1.0000   1.0000   1.0000   1.0000   1.0000   1.0000
     1.0000   1.0000   1.0000   1.0000   1.0000   1.0000   1.0000   1.0000
     1.0000   1.0000   1.0000   1.0000   1.0000   1.0000   1.0000   1.0000
     1.0000   1.0000   1.0000   1.0000   1.0000   1.0000   1.0000   1.0000
     1.0000   1.0000   1.0000   1.0000   1.0000   1.0000   1.0000   1.0000
     1.0000   1.0000   1.0000   1.0000   1.0000   1.0000   1.0000   1.0000
     1.0000   1.0000   1.0000   1.0000   1.0000   1.0000   1.0000   1.0000
     1.0000   1.0000   1.0000   1.0000   1.0000   1.0000   1.0000   1.0000
     1.0000   1.0000   1.0000   1.0000   1.0000   1.0000   1.0000   1.0000
     1.0000   1.0000   1.0000   1.0000   1.0000   1.0000   1.0000   1.0000
     1.0000   1.0000   1.0000   1.0000   1.0000   1.0000   1.0000   1.0000
     1.0000   1.0000   1.0000   1.0000   1.0000   1.0000   1.0000   1.0000
     1.0000   1.0000   1.0000   1.0000   1.0000   1.0000   1.0000   1.0000
     1.0000   1.0000   1.0000   1.0000   1.0000   1.0000   1.0000   1.0000
     1.0000   1.0000   0.9996   0.9996   0.9995   0.9994   0.9976   0.9974
     0.9973   0.9967   0.9944   0.9917   0.9907   0.9893   0.9878   0.9873
     0.9868   0.9852   0.9843   0.9831   0.9830   0.9796   0.9793   0.9771
     0.9757   0.9741   0.9728   0.9690   0.9663   0.9646   0.9610   0.9565
     0.9475   0.9359   0.9099   0.9013   0.8694   0.8595   0.8521   0.8467
     0.8420   0.8314   0.8294   0.8228   0.8187   0.8125   0.8038   0.7991
     0.7706   0.7691   0.7589   0.7532   0.7450   0.7355   0.7347   0.7304
     0.6752   0.6718   0.6618   0.6546   0.1564   0.1420   0.1405   0.1269
     0.0703   0.0567   0.0525   0.0240   0.0154   0.0112   0.0067   0.0045
     0.0043   0.0026   0.0017   0.0008   0.0001   0.0001   0.0000   0.0000
     0.0000   0.0000   0.0000   0.0000   0.0000   0.0000   0.0000   0.0000
     0.0000   0.0000   0.0000   0.0000   0.0000   0.0000   0.0000   0.0000
     0.0000   0.0000   0.0000

          k = 0.2500 0.0000 0.0000 ( 65257 PWs)   bands (ev):

   -92.7121 -92.6646 -92.5669 -92.5198 -92.4628 -92.4189 -92.4011 -92.2808
   -56.0655 -56.0514 -55.9238 -55.9128 -55.9072 -55.8996 -55.8665 -55.8358
   -55.8197 -55.8185 -55.8154 -55.7693 -55.7507 -55.7134 -55.6937 -55.6631
   -55.6551 -55.6074 -55.6069 -55.6040 -55.5956 -55.5558 -55.5315 -55.4461
   -31.2872 -31.2713 -31.1273 -31.0413 -31.0179 -30.9277 -30.7803 -30.7636
   -29.8571 -29.8169 -29.7887 -29.6816 -15.0595 -15.0145 -14.9458 -14.8004
   -14.6872 -14.4988 -14.3632 -14.1834 -14.1679 -14.1367 -14.1041 -14.0806
   -14.0471 -14.0287 -14.0052 -13.9792 -13.9514 -13.8480 -13.8148 -13.6700
   -13.5956 -13.5832 -13.5126 -13.5002 -13.4865 -13.4133 -13.3552 -13.3237
   -13.2227 -13.1702 -13.1570 -13.0716 -13.0550 -13.0372 -13.0217 -13.0054
   -12.9784 -12.9436 -12.8759 -12.8309 -12.7986 -12.7821 -12.7715 -12.7265
   -12.7247 -12.7150 -12.6465 -12.5475 -12.4755 -12.4170 -12.2596 -12.0762
   -12.0138 -11.8366 -11.7843 -11.7675 -11.7546 -11.7277 -11.6769 -11.6538
   -11.6454 -11.5941 -11.5058 -11.4502 -11.4442  -2.8154  -2.5947  -2.4643
    -2.2911  -2.2273  -2.0589  -1.8478  -1.7741  -1.7304  -1.6913  -1.5931
[...]
     0.3548   0.3252   0.2035   0.0785   0.0461   0.0216   0.0058   0.0048
     0.0003   0.0001   0.0000   0.0000   0.0000   0.0000   0.0000   0.0000
     0.0000   0.0000   0.0000   0.0000   0.0000   0.0000   0.0000   0.0000
     0.0000   0.0000   0.0000   0.0000   0.0000   0.0000   0.0000   0.0000
     0.0000   0.0000   0.0000

          k =-0.5000 0.0000 0.0000 ( 65180 PWs)   bands (ev):

   -92.7121 -92.6646 -92.5669 -92.5198 -92.4628 -92.4189 -92.4011 -92.2808
   -56.0655 -56.0514 -55.9238 -55.9128 -55.9072 -55.8996 -55.8665 -55.8358
   -55.8197 -55.8185 -55.8154 -55.7693 -55.7507 -55.7134 -55.6937 -55.6631
   -55.6551 -55.6074 -55.6069 -55.6040 -55.5956 -55.5558 -55.5315 -55.4461
   -31.2850 -31.2735 -31.1269 -31.0417 -31.0176 -30.9281 -30.7781 -30.7657
   -29.8561 -29.8180 -29.7883 -29.6820 -15.0254 -14.9718 -14.9111 -14.7940
   -14.6994 -14.5536 -14.4112 -14.2510 -14.1431 -14.1238 -14.1190 -14.0555
   -14.0025 -13.9822 -13.9698 -13.9183 -13.8989 -13.8887 -13.8450 -13.8078
   -13.7147 -13.5661 -13.5187 -13.5035 -13.4939 -13.4034 -13.3750 -13.3157
   -13.2787 -13.2553 -13.2261 -13.0653 -13.0527 -13.0269 -13.0198 -12.9759
   -12.9591 -12.9400 -12.9270 -12.7890 -12.7603 -12.7239 -12.7155 -12.7062
   -12.6513 -12.6471 -12.6417 -12.5519 -12.3988 -12.3375 -12.2544 -12.1868
   -12.1546 -11.7884 -11.7670 -11.7601 -11.7466 -11.7282 -11.6869 -11.6235
   -11.6051 -11.5718 -11.5288 -11.5198 -11.5038  -2.5911  -2.5529  -2.3901
    -2.3505  -2.0358  -1.9589  -1.8151  -1.6960  -1.6562  -1.6095  -1.5638
    -1.5393  -1.4152  -1.3716  -1.3546  -1.2734  -1.2378  -1.2214  -1.1981
    -1.1802  -1.1298  -1.0635  -1.0366  -0.9973  -0.9076  -0.8642  -0.8143
    -0.7821  -0.7617  -0.7269  -0.6815  -0.6571  -0.6176  -0.5093  -0.4495
    -0.3710  -0.3103  -0.1533  -0.1168  -0.0669  -0.0045   0.0373   0.0504
     0.1916   0.2205   0.2608   0.4296   0.5297   0.5797   0.6750   0.7314
     0.8518   0.8647   0.9958   1.0226   1.0772   1.1127   1.1425   1.1539
     1.2052   1.2231   1.2929   1.3408   1.3853   1.4054   1.6941   1.7113
     1.7280   1.7523   1.8511   1.8625   1.8789   1.8862   1.9177   1.9283
     1.9648   1.9871   2.0121   2.0669   2.0830   2.1376   2.1574   2.2133
     2.3207   2.4198   2.4227   2.4523   2.4932   2.5082   2.5915   2.6154
     2.6494   2.7151   2.7230   2.7314   2.7626   2.8258   2.8712   2.9281
     2.9445   2.9897   2.9952   2.9981   3.0065   3.0232   3.0343   3.0466
     3.0527   3.0727   3.0761   3.0992   3.1183   3.1233   3.2522   3.2584
     4.0544   4.1245   4.1890   4.3070   4.7810   4.8578   5.0352   5.0565
     5.4783   5.5035   5.5999   5.6457   6.0239   6.0451   6.3716   6.5303
     6.7910   6.9976   7.2738   7.3043   7.3958   7.4657   7.7668   7.7977
     7.8783   8.1109   8.2186   8.2573   8.3909   8.4514   8.5181   8.6186
     8.7537   8.8110   8.9059

     occupation numbers 
     1.0000   1.0000   1.0000   1.0000   1.0000   1.0000   1.0000   1.0000
     1.0000   1.0000   1.0000   1.0000   1.0000   1.0000   1.0000   1.0000
     1.0000   1.0000   1.0000   1.0000   1.0000   1.0000   1.0000   1.0000
     1.0000   1.0000   1.0000   1.0000   1.0000   1.0000   1.0000   1.0000
     1.0000   1.0000   1.0000   1.0000   1.0000   1.0000   1.0000   1.0000
     1.0000   1.0000   1.0000   1.0000   1.0000   1.0000   1.0000   1.0000
     1.0000   1.0000   1.0000   1.0000   1.0000   1.0000   1.0000   1.0000
     1.0000   1.0000   1.0000   1.0000   1.0000   1.0000   1.0000   1.0000
     1.0000   1.0000   1.0000   1.0000   1.0000   1.0000   1.0000   1.0000
     1.0000   1.0000   1.0000   1.0000   1.0000   1.0000   1.0000   1.0000
     1.0000   1.0000   1.0000   1.0000   1.0000   1.0000   1.0000   1.0000
     1.0000   1.0000   1.0000   1.0000   1.0000   1.0000   1.0000   1.0000
     1.0000   1.0000   1.0000   1.0000   1.0000   1.0000   1.0000   1.0000
     1.0000   1.0000   1.0000   1.0000   1.0000   1.0000   1.0000   1.0000
     1.0000   1.0000   1.0000   1.0000   1.0000   1.0000   1.0000   1.0000
     1.0000   1.0000   1.0000   1.0000   1.0000   1.0000   1.0000   1.0000
     1.0000   1.0000   1.0000   1.0000   1.0000   1.0000   1.0000   1.0000
     1.0000   1.0000   1.0000   1.0000   1.0000   1.0000   1.0000   1.0000
     1.0000   1.0000   1.0000   1.0000   1.0000   1.0000   1.0000   1.0000
     1.0000   1.0000   1.0000   1.0000   1.0000   1.0000   1.0000   0.9999
     0.9999   0.9999   0.9997   0.9997   0.9996   0.9995   0.9994   0.9993
     0.9991   0.9991   0.9987   0.9983   0.9979   0.9977   0.9920   0.9914
     0.9908   0.9899   0.9852   0.9845   0.9835   0.9831   0.9810   0.9803
     0.9776   0.9757   0.9735   0.9681   0.9664   0.9599   0.9573   0.9492
     0.9302   0.9082   0.9075   0.9000   0.8890   0.8847   0.8588   0.8507
     0.8387   0.8137   0.8105   0.8071   0.7942   0.7664   0.7453   0.7175
     0.7091   0.6857   0.6828   0.6813   0.6768   0.6679   0.6619   0.6551
     0.6519   0.6408   0.6389   0.6260   0.6152   0.6123   0.5374   0.5338
     0.1363   0.1148   0.0973   0.0705   0.0148   0.0110   0.0053   0.0049
     0.0007   0.0006   0.0003   0.0003   0.0000   0.0000   0.0000   0.0000
     0.0000   0.0000   0.0000   0.0000   0.0000   0.0000   0.0000   0.0000
     0.0000   0.0000   0.0000   0.0000   0.0000   0.0000   0.0000   0.0000
     0.0000   0.0000   0.0000

          k =-0.2500 0.2500 0.0000 ( 65198 PWs)   bands (ev):

   -92.7121 -92.6646 -92.5669 -92.5198 -92.4628 -92.4189 -92.4011 -92.2808
   -56.0655 -56.0514 -55.9238 -55.9128 -55.9072 -55.8996 -55.8665 -55.8358
   -55.8197 -55.8185 -55.8154 -55.7693 -55.7507 -55.7134 -55.6937 -55.6631
   -55.6551 -55.6074 -55.6069 -55.6040 -55.5956 -55.5558 -55.5315 -55.4461
   -31.2870 -31.2712 -31.1275 -31.0415 -31.0178 -30.9275 -30.7805 -30.7637
   -29.8565 -29.8166 -29.7893 -29.6819 -15.0281 -14.9832 -14.9111 -14.7953
   -14.6775 -14.5548 -14.4711 -14.2592 -14.1242 -14.0966 -14.0802 -14.0339
   -14.0093 -13.9887 -13.9796 -13.9592 -13.9137 -13.8431 -13.8309 -13.6826
   -13.6536 -13.6217 -13.6044 -13.5322 -13.5071 -13.4461 -13.4198 -13.2987
   -13.2526 -13.2312 -13.1574 -13.1137 -13.0509 -13.0189 -12.9959 -12.9658
   -12.9534 -12.9366 -12.8747 -12.8250 -12.7904 -12.7821 -12.7338 -12.7053
   -12.7016 -12.6871 -12.6392 -12.4885 -12.4530 -12.3797 -12.2934 -12.1062
   -12.0632 -11.8086 -11.7872 -11.7603 -11.7478 -11.7072 -11.6723 -11.6496
   -11.6272 -11.6050 -11.5205 -11.4755 -11.4659  -2.6757  -2.4687  -2.3476
    -2.2571  -2.1409  -2.0750  -1.8691  -1.7264  -1.7083  -1.6754  -1.5858
    -1.5511  -1.4574  -1.4229  -1.3970  -1.2552  -1.2034  -1.1809  -1.1281
    -1.1011  -1.0380  -1.0201  -0.9797  -0.9512  -0.9109  -0.8475  -0.7987
    -0.7299  -0.6665  -0.6421  -0.5925  -0.5638  -0.5172  -0.4580  -0.4035
    -0.3733  -0.2655  -0.2403  -0.2210  -0.1785  -0.1184  -0.0389  -0.0047
     0.0411   0.1031   0.1291   0.3825   0.5598   0.5927   0.6373   0.6943
     0.7429   0.7955   0.8649   0.8971   1.1772   1.2825   1.3236   1.3566
     1.3653   1.4037   1.4197   1.4658   1.4978   1.5096   1.5354   1.5847
     1.6005   1.6388   1.6632   1.7070   1.7975   1.8073   1.8326   1.8617
     1.8940   1.9366   1.9797   2.0945   2.2015   2.2257   2.2727   2.2916
     2.3546   2.3965   2.4163   2.4248   2.4488   2.4573   2.4715   2.5720
     2.6150   2.7048   2.8737   2.8809   2.8953   2.9041   2.9157   2.9292
     2.9377   2.9554   2.9645   2.9772   2.9880   2.9987   3.0081   3.0168
     3.0510   3.0606   3.0680   3.1017   3.3934   3.4745   3.5432   3.6099
     3.6347   3.8367   3.9515   4.2961   4.4965   4.7133   4.9827   5.1620
     5.6414   5.6954   5.7880   5.8235   5.8874   6.1527   6.1634   6.1946
     6.8874   7.0117   7.1528   7.3295   7.5584   7.6052   7.6650   7.8691
     7.9201   8.0413   8.2054   8.2738   8.3322   8.3765   8.4392   8.5000
     8.5660   8.7119   8.9192

     occupation numbers 
     1.0000   1.0000   1.0000   1.0000   1.0000   1.0000   1.0000   1.0000
     1.0000   1.0000   1.0000   1.0000   1.0000   1.0000   1.0000   1.0000
     1.0000   1.0000   1.0000   1.0000   1.0000   1.0000   1.0000   1.0000
     1.0000   1.0000   1.0000   1.0000   1.0000   1.0000   1.0000   1.0000
     1.0000   1.0000   1.0000   1.0000   1.0000   1.0000   1.0000   1.0000
     1.0000   1.0000   1.0000   1.0000   1.0000   1.0000   1.0000   1.0000
     1.0000   1.0000   1.0000   1.0000   1.0000   1.0000   1.0000   1.0000
     1.0000   1.0000   1.0000   1.0000   1.0000   1.0000   1.0000   1.0000
     1.0000   1.0000   1.0000   1.0000   1.0000   1.0000   1.0000   1.0000
     1.0000   1.0000   1.0000   1.0000   1.0000   1.0000   1.0000   1.0000
     1.0000   1.0000   1.0000   1.0000   1.0000   1.0000   1.0000   1.0000
     1.0000   1.0000   1.0000   1.0000   1.0000   1.0000   1.0000   1.0000
     1.0000   1.0000   1.0000   1.0000   1.0000   1.0000   1.0000   1.0000
     1.0000   1.0000   1.0000   1.0000   1.0000   1.0000   1.0000   1.0000
     1.0000   1.0000   1.0000   1.0000   1.0000   1.0000   1.0000   1.0000
     1.0000   1.0000   1.0000   1.0000   1.0000   1.0000   1.0000   1.0000
     1.0000   1.0000   1.0000   1.0000   1.0000   1.0000   1.0000   1.0000
     1.0000   1.0000   1.0000   1.0000   1.0000   1.0000   1.0000   1.0000
     1.0000   1.0000   1.0000   1.0000   1.0000   1.0000   1.0000   1.0000
     1.0000   1.0000   1.0000   1.0000   1.0000   1.0000   1.0000   1.0000
     0.9999   0.9999   0.9999   0.9998   0.9993   0.9987   0.9985   0.9982
     0.9981   0.9977   0.9976   0.9970   0.9965   0.9963   0.9959   0.9949
     0.9946   0.9936   0.9929   0.9915   0.9879   0.9874   0.9862   0.9846
     0.9826   0.9797   0.9763   0.9651   0.9510   0.9472   0.9392   0.9358
     0.9232   0.9138   0.9091   0.9070   0.9010   0.8987   0.8949   0.8652
     0.8509   0.8178   0.7441   0.7407   0.7337   0.7294   0.7236   0.7169
     0.7126   0.7036   0.6989   0.6923   0.6866   0.6810   0.6760   0.6713
     0.6528   0.6475   0.6434   0.6246   0.4539   0.4067   0.3677   0.3310
     0.3178   0.2195   0.1725   0.0727   0.0397   0.0190   0.0067   0.0031
     0.0003   0.0002   0.0001   0.0001   0.0001   0.0000   0.0000   0.0000
     0.0000   0.0000   0.0000   0.0000   0.0000   0.0000   0.0000   0.0000
     0.0000   0.0000   0.0000   0.0000   0.0000   0.0000   0.0000   0.0000
     0.0000   0.0000   0.0000

          k =-0.5000 0.2500 0.0000 ( 65138 PWs)   bands (ev):

   -92.7121 -92.6646 -92.5669 -92.5198 -92.4628 -92.4189 -92.4011 -92.2808
   -56.0655 -56.0514 -55.9238 -55.9128 -55.9072 -55.8996 -55.8665 -55.8358
   -55.8197 -55.8185 -55.8154 -55.7693 -55.7507 -55.7134 -55.6937 -55.6631
   -55.6551 -55.6074 -55.6069 -55.6040 -55.5956 -55.5558 -55.5315 -55.4461
   -31.2848 -31.2734 -31.1271 -31.0419 -31.0175 -30.9279 -30.7784 -30.7659
   -29.8555 -29.8176 -29.7889 -29.6823 -14.9924 -14.9455 -14.8683 -14.7635
   -14.7240 -14.6014 -14.5131 -14.3740 -14.0748 -14.0443 -14.0323 -13.9896
   -13.9823 -13.9632 -13.9412 -13.9046 -13.8823 -13.8692 -13.8322 -13.8094
   -13.7079 -13.6480 -13.5986 -13.5909 -13.5583 -13.4797 -13.4461 -13.3495
   -13.2938 -13.2115 -13.1748 -13.0774 -13.0380 -13.0267 -12.9972 -12.9638
   -12.9500 -12.9333 -12.9044 -12.7981 -12.7721 -12.7371 -12.7169 -12.7105
   -12.6532 -12.6317 -12.6255 -12.5500 -12.3819 -12.3328 -12.2340 -12.1759
   -12.1522 -11.7812 -11.7688 -11.7547 -11.7423 -11.7217 -11.6916 -11.6098
   -11.6021 -11.5781 -11.5431 -11.5154 -11.5061  -2.4482  -2.4069  -2.2597
    -2.2171  -2.0554  -1.9777  -1.8392  -1.7016  -1.6442  -1.6175  -1.5797
    -1.5420  -1.4606  -1.3450  -1.2880  -1.2647  -1.2377  -1.1890  -1.1594
    -1.1330  -1.0934  -1.0776  -1.0172  -0.9817  -0.9481  -0.9143  -0.8852
    -0.8262  -0.7981  -0.7563  -0.7204  -0.6161  -0.5915  -0.4908  -0.4413
    -0.4068  -0.3422  -0.2696  -0.2341  -0.1318  -0.0931  -0.0331   0.0167
     0.0613   0.1136   0.1397   0.1722   0.2213   0.2623   0.5933   0.6491
     0.7013   0.7137   1.0091   1.0730   1.1450   1.1727   1.3450   1.3780
     1.4169   1.4266   1.4447   1.4627   1.5317   1.5814   1.6200   1.6548
     1.7724   1.8151   1.8380   1.8483   1.8840   1.9133   1.9312   1.9414
     1.9580   1.9837   2.0251   2.0420   2.0771   2.1043   2.1357   2.1896
     2.3122   2.4070   2.4171   2.4386   2.4569   2.5069   2.5430   2.6066
     2.6444   2.6505   2.6906   2.7202   2.7447   2.8254   2.8697   2.8831
     2.8891   2.9109   2.9303   2.9426   2.9579   2.9723   2.9954   3.0080
     3.0165   3.0249   3.0331   3.0458   3.5758   3.6160   3.7647   3.7843
     4.0632   4.1415   4.1957   4.3928   4.7753   4.8755   5.0364   5.0740
     5.4040   5.4233   5.5849   5.6271   5.7368   5.8006   6.3873   6.4726
     6.4956   6.6665   7.3379   7.4115   7.5830   7.7081   7.7870   7.8612
     7.8824   8.0185   8.3727   8.4392   8.4890   8.5345   8.5629   8.5868
     8.6659   8.7338   8.7568

     occupation numbers 
     1.0000   1.0000   1.0000   1.0000   1.0000   1.0000   1.0000   1.0000
     1.0000   1.0000   1.0000   1.0000   1.0000   1.0000   1.0000   1.0000
     1.0000   1.0000   1.0000   1.0000   1.0000   1.0000   1.0000   1.0000
     1.0000   1.0000   1.0000   1.0000   1.0000   1.0000   1.0000   1.0000
     1.0000   1.0000   1.0000   1.0000   1.0000   1.0000   1.0000   1.0000
     1.0000   1.0000   1.0000   1.0000   1.0000   1.0000   1.0000   1.0000
     1.0000   1.0000   1.0000   1.0000   1.0000   1.0000   1.0000   1.0000
     1.0000   1.0000   1.0000   1.0000   1.0000   1.0000   1.0000   1.0000
     1.0000   1.0000   1.0000   1.0000   1.0000   1.0000   1.0000   1.0000
     1.0000   1.0000   1.0000   1.0000   1.0000   1.0000   1.0000   1.0000
     1.0000   1.0000   1.0000   1.0000   1.0000   1.0000   1.0000   1.0000
     1.0000   1.0000   1.0000   1.0000   1.0000   1.0000   1.0000   1.0000
     1.0000   1.0000   1.0000   1.0000   1.0000   1.0000   1.0000   1.0000
     1.0000   1.0000   1.0000   1.0000   1.0000   1.0000   1.0000   1.0000
     1.0000   1.0000   1.0000   1.0000   1.0000   1.0000   1.0000   1.0000
     1.0000   1.0000   1.0000   1.0000   1.0000   1.0000   1.0000   1.0000
     1.0000   1.0000   1.0000   1.0000   1.0000   1.0000   1.0000   1.0000
     1.0000   1.0000   1.0000   1.0000   1.0000   1.0000   1.0000   1.0000
     1.0000   1.0000   1.0000   1.0000   1.0000   1.0000   1.0000   1.0000
     1.0000   1.0000   1.0000   1.0000   1.0000   1.0000   1.0000   1.0000
     0.9999   0.9999   0.9997   0.9996   0.9994   0.9993   0.9983   0.9980
     0.9976   0.9975   0.9973   0.9970   0.9960   0.9950   0.9941   0.9932
     0.9890   0.9871   0.9859   0.9853   0.9832   0.9813   0.9801   0.9793
     0.9781   0.9760   0.9723   0.9707   0.9670   0.9640   0.9601   0.9527
     0.9319   0.9113   0.9089   0.9036   0.8988   0.8851   0.8743   0.8537
     0.8405   0.8383   0.8233   0.8116   0.8017   0.7666   0.7460   0.7396
     0.7367   0.7260   0.7164   0.7101   0.7023   0.6948   0.6828   0.6760
     0.6715   0.6670   0.6625   0.6556   0.3495   0.3277   0.2524   0.2432
     0.1335   0.1100   0.0956   0.0548   0.0151   0.0103   0.0053   0.0045
     0.0010   0.0009   0.0004   0.0003   0.0002   0.0001   0.0000   0.0000
     0.0000   0.0000   0.0000   0.0000   0.0000   0.0000   0.0000   0.0000
     0.0000   0.0000   0.0000   0.0000   0.0000   0.0000   0.0000   0.0000
     0.0000   0.0000   0.0000

     the Fermi energy is     3.3155 ev

!    total energy              =   -4441.66910755 Ry
     estimated scf accuracy    <          8.5E-09 Ry
     smearing contrib. (-TS)   =      -1.15467668 Ry
     internal energy E=F+TS    =   -4440.51443087 Ry

     The total energy is F=E-TS. E is the sum of the following terms:
     one-electron contribution =  -20803.32415378 Ry
     hartree contribution      =   10533.48806202 Ry
     xc contribution           =    -694.18563394 Ry
     ewald contribution        =    6799.67610634 Ry
     one-center paw contrib.   =    -276.16881151 Ry
      -> PAW hartree energy AE =      25.14356805 Ry
      -> PAW hartree energy PS =     -25.02766038 Ry
      -> PAW xc energy AE      =     -16.51476906 Ry
      -> PAW xc energy PS      =       6.87409222 Ry
      -> total E_H with PAW    =   10533.60396970 Ry
      -> total E_XC with PAW   =    -703.82631078 Ry

     convergence has been achieved in  47 iterations

     Writing all to output data dir /bsuhome/zayahcortright/scratch/pwscf.save/
 
     init_run     :      8.09s CPU      8.88s WALL (       1 calls)
     electrons    :    796.11s CPU    876.79s WALL (       1 calls)

     Called by init_run:
     wfcinit      :      6.32s CPU      6.64s WALL (       1 calls)
     wfcinit:atom :      0.04s CPU      0.06s WALL (       5 calls)
     wfcinit:wfcr :      6.02s CPU      6.21s WALL (       5 calls)
     potinit      :      0.16s CPU      0.18s WALL (       1 calls)
     hinit0       :      0.59s CPU      0.79s WALL (       1 calls)

     Called by electrons:
     c_bands      :    640.74s CPU    652.67s WALL (      47 calls)
     sum_band     :    118.02s CPU    155.35s WALL (      47 calls)
     v_of_rho     :      5.20s CPU      5.59s WALL (      48 calls)
     v_h          :      0.46s CPU      0.46s WALL (      48 calls)
     v_xc         :      4.74s CPU      5.12s WALL (      48 calls)
     newd         :     17.71s CPU     48.31s WALL (      48 calls)
     PAW_pot      :      1.61s CPU      1.64s WALL (      48 calls)
     mix_rho      :     12.47s CPU     12.86s WALL (      47 calls)

     Called by c_bands:
     init_us_2    :      6.90s CPU      7.05s WALL (     475 calls)
     init_us_2:cp :      6.90s CPU      7.04s WALL (     475 calls)
     cegterg      :    608.76s CPU    620.29s WALL (     235 calls)

     Called by sum_band:
     sum_band:wei :      0.35s CPU      0.35s WALL (      47 calls)
     sum_band:loo :     95.48s CPU     96.21s WALL (      47 calls)
     sum_band:buf :      1.34s CPU      1.44s WALL (     235 calls)
     sum_band:ini :      3.11s CPU      3.12s WALL (     235 calls)
     sum_band:cal :     18.88s CPU     18.95s WALL (     235 calls)
     sum_band:bec :      0.56s CPU      0.58s WALL (     235 calls)
     addusdens    :     19.21s CPU     55.70s WALL (      47 calls)
                                        0.00s GPU  (      47 calls)
     addusd:skk   :      0.31s CPU      2.29s WALL (     188 calls)
                                        0.00s GPU  (     188 calls)

     Called by *egterg:
     cdiaghg      :     58.69s CPU     58.97s WALL (    1334 calls)
     cegterg:over :     46.31s CPU     46.51s WALL (    1099 calls)
     cegterg:upda :     47.67s CPU     48.56s WALL (    1099 calls)
     cegterg:last :     68.38s CPU     68.69s WALL (     430 calls)
     cdiaghg:chol :      3.36s CPU      3.39s WALL (    1334 calls)
     cdiaghg:inve :      3.72s CPU      3.74s WALL (    1334 calls)
     cdiaghg:para :      7.53s CPU      7.58s WALL (    2668 calls)
     h_psi        :    318.62s CPU    323.52s WALL (    1339 calls)
     s_psi        :     42.52s CPU     42.64s WALL (    1339 calls)
     g_psi        :      2.23s CPU      2.24s WALL (    1099 calls)

     Called by h_psi:
     h_psi:calbec :     45.02s CPU     45.26s WALL (    1339 calls)
     vloc_psi     :    226.33s CPU    228.53s WALL (    1339 calls)
     add_vuspsi   :     42.27s CPU     42.56s WALL (    1339 calls)

     General routines
     calbec       :     63.88s CPU     64.20s WALL (    1574 calls)
     fft          :      4.19s CPU      4.25s WALL (     622 calls)
     ffts         :      4.65s CPU      4.69s WALL (    5087 calls)
     fftw         :    174.95s CPU    176.33s WALL (  318189 calls)
     interpolate  :      0.39s CPU      0.40s WALL (      48 calls)
 
     Parallel routines

     PAW routines
     PAW_pot      :      1.61s CPU      1.64s WALL (      48 calls)
 
     PWSCF        :  13m25.76s CPU  14m50.15s WALL

 
   This run was terminated on:   2:49:29  22Jun2024            

=------------------------------------------------------------------------------=
   JOB DONE.
=------------------------------------------------------------------------------=
