
     Program PWSCF v.7.2 starts on 21Jun2024 at 21:15:48 

     This program is part of the open-source Quantum ESPRESSO suite
     for quantum simulation of materials; please cite
         "P. Giannozzi et al., J. Phys.:Condens. Matter 21 395502 (2009);
         "P. Giannozzi et al., J. Phys.:Condens. Matter 29 465901 (2017);
         "P. Giannozzi et al., J. Chem. Phys. 152 154105 (2020);
          URL http://www.quantum-espresso.org", 
     in publications or presentations arising from this work. More details at
     http://www.quantum-espresso.org/quote

     Parallel version (MPI & OpenMP), running on      48 processor cores
     Number of MPI processes:                48
     Threads/MPI process:                     1

     MPI processes distributed on     1 nodes
     33233 MiB available memory on the printing compute node when the environment starts
 
     Reading input from espresso.pwi
Warning: card &CELL ignored
Warning: card / ignored
Warning: card &FCP ignored
Warning: card / ignored
Warning: card &RISM ignored
Warning: card / ignored

     Current dimensions of program PWSCF are:
     Max number of different atomic species (ntypx) = 10
     Max number of k-points (npk) =  40000
     Max angular momentum in pseudopotentials (lmaxx) =  4
     file O.pbe-n-kjpaw_psl.0.1.UPF: wavefunction(s)  2P renormalized
     signal trapping enabled: kill the code with -SIGUSR1 to stop cleanly the simulation 
 
     K-points division:     npool     =       2
     R & G space division:  proc/nbgrp/npool/nimage =      24
     Subspace diagonalization in iterative solution of the eigenvalue problem:
     one sub-group per band group will be used
     scalapack distributed-memory algorithm (size of sub-group:  3*  3 procs)

 
     Parallelization info
     --------------------
     sticks:   dense  smooth     PW     G-vecs:    dense   smooth      PW
     Min         350     175     47                61430    21716    3036
     Max         351     177     48                61449    21727    3041
     Sum        8421    4205   1137              1474595   521381   72913
 
     Using Slab Decomposition
 


     bravais-lattice index     =            0
     lattice parameter (alat)  =      14.8599  a.u.
     unit-cell volume          =    8305.1283 (a.u.)^3
     number of atoms/cell      =           50
     number of atomic types    =            4
     number of electrons       =       431.00
     number of Kohn-Sham states=          259
     kinetic-energy cutoff     =      60.0000  Ry
     charge density cutoff     =     480.0000  Ry
     scf convergence threshold =      1.0E-08
     mixing beta               =       0.1500
     number of iterations used =            8  local-TF  mixing
     Exchange-correlation= PBE
                           (   1   4   3   4   0   0   0)

     celldm(1)=  14.859904  celldm(2)=   0.000000  celldm(3)=   0.000000
     celldm(4)=   0.000000  celldm(5)=   0.000000  celldm(6)=   0.000000

     crystal axes: (cart. coord. in units of alat)
               a(1) = (   1.000000   0.000000   0.000000 )  
               a(2) = (   0.000000   1.000000   0.000000 )  
               a(3) = (   0.000000   0.000000   2.531036 )  

     reciprocal axes: (cart. coord. in units 2 pi/alat)
               b(1) = (  1.000000  0.000000  0.000000 )  
               b(2) = (  0.000000  1.000000  0.000000 )  
               b(3) = (  0.000000  0.000000  0.395095 )  


     PseudoPot. # 1 for Sr read from file:
     /bsuhome/zayahcortright/q-e/pseudo/Sr_pbe_v1.uspp.F.UPF
     MD5 check sum: 6b418c05fbe9db5448babca5e47b7a5b
     Pseudo is Ultrasoft + core correction, Zval = 10.0
     Generated by new atomic code, or converted to UPF format
     Using radial grid of  883 points,  6 beta functions with: 
                l(1) =   0
                l(2) =   0
                l(3) =   1
                l(4) =   1
                l(5) =   2
                l(6) =   2
     Q(r) pseudized with  6 coefficients,  rinner =    1.400   1.400   1.400
                                                       1.400   1.400

     PseudoPot. # 2 for O  read from file:
     /bsuhome/zayahcortright/q-e/pseudo/O.pbe-n-kjpaw_psl.0.1.UPF
     MD5 check sum: 0234752ac141de4415c5fc33072bef88
     Pseudo is Projector augmented-wave + core cor, Zval =  6.0
     Generated using "atomic" code by A. Dal Corso  v.5.0.99 svn rev. 10869
     Shape of augmentation charge: BESSEL
     Using radial grid of 1095 points,  4 beta functions with: 
                l(1) =   0
                l(2) =   0
                l(3) =   1
                l(4) =   1
     Q(r) pseudized with 0 coefficients 


     PseudoPot. # 3 for Co read from file:
     /bsuhome/zayahcortright/q-e/pseudo/Co_pbe_v1.2.uspp.F.UPF
     MD5 check sum: 5f91765df6ddd3222702df6e7b74a16d
     Pseudo is Ultrasoft + core correction, Zval = 17.0
     Generated by new atomic code, or converted to UPF format
     Using radial grid of  863 points,  6 beta functions with: 
                l(1) =   0
                l(2) =   0
                l(3) =   1
                l(4) =   1
                l(5) =   2
                l(6) =   2
     Q(r) pseudized with  8 coefficients,  rinner =    1.200   1.200   1.200
                                                       1.200   1.200

     PseudoPot. # 4 for H  read from file:
     /bsuhome/zayahcortright/q-e/pseudo/H.pbe-rrkjus_psl.1.0.0.UPF
     MD5 check sum: f52b6d4d1c606e5624b1dc7b2218f220
     Pseudo is Ultrasoft, Zval =  1.0
     Generated using "atomic" code by A. Dal Corso  v.5.1
     Using radial grid of  929 points,  2 beta functions with: 
                l(1) =   0
                l(2) =   0
     Q(r) pseudized with 0 coefficients 


     atomic species   valence    mass     pseudopotential
        Sr            10.00    87.62000     Sr( 1.00)
        O              6.00    15.99900     O ( 1.00)
        Co            17.00    58.93319     Co( 1.00)
        H              1.00     1.00800     H ( 1.00)

     No symmetry found


                                    s                        frac. trans.

      isym =  1     identity                                     

 cryst.   s( 1) = (     1          0          0      )
                  (     0          1          0      )
                  (     0          0          1      )

 cart.    s( 1) = (  1.0000000  0.0000000  0.0000000 )
                  (  0.0000000  1.0000000  0.0000000 )
                  (  0.0000000  0.0000000  1.0000000 )


   Cartesian axes

     site n.     atom                  positions (alat units)
         1           Sr  tau(   1) = (   0.2508693   0.7491307   1.7574407  )
         2           O   tau(   2) = (   0.4985141   0.5014859   1.7715967  )
         3           Sr  tau(   3) = (   0.7482398   0.7454518   1.7648669  )
         4           Sr  tau(   4) = (   0.7441748   0.2558252   1.7667843  )
         5           Sr  tau(   5) = (   0.2508693   0.7491307   1.2696799  )
         6           Sr  tau(   6) = (   0.2508693   0.7491307   0.7632319  )
         7           Co  tau(   7) = (   0.4998914   0.5001086   1.0164559  )
         8           Co  tau(   8) = (   0.4936915   0.5063085   1.5135603  )
         9           O   tau(   9) = (   0.4988895   0.7610401   1.0164559  )
        10           O   tau(  10) = (   0.2389599   0.5011105   1.0164559  )
        11           O   tau(  11) = (   0.0070918   0.7374880   1.0164559  )
        12           O   tau(  12) = (   0.0088340   0.7405089   1.5135603  )
        13           O   tau(  13) = (   0.5066944   0.7415376   1.5135603  )
        14           O   tau(  14) = (   0.2584624   0.4933056   1.5135603  )
        15           O   tau(  15) = (   0.4985141   0.5014859   0.7773880  )
        16           O   tau(  16) = (   0.4985141   0.5014859   1.2555238  )
        17           Sr  tau(  17) = (   0.7482398   0.7454518   0.7706582  )
        18           Sr  tau(  18) = (   0.7482398   0.7454518   1.2622536  )
        19           Sr  tau(  19) = (   0.7441748   0.2558252   0.7725755  )
        20           Sr  tau(  20) = (   0.7441748   0.2558252   1.2603363  )
        21           O   tau(  21) = (   0.7322655   0.0078049   1.5135603  )
        22           O   tau(  22) = (   0.7558175   0.4996027   1.5135603  )
        23           O   tau(  23) = (   0.5003973   0.2441825   1.5135603  )
        24           O   tau(  24) = (   0.7527966   0.4978604   1.0164559  )
        25           O   tau(  25) = (   0.5021396   0.2472034   1.0164559  )
        26           O   tau(  26) = (   0.7517679   0.0000000   1.0164559  )
        27           O   tau(  27) = (   0.0114961   0.4948124   1.7455321  )
        28           O   tau(  28) = (   0.0048226   0.0077944   1.7715967  )
        29           Sr  tau(  29) = (   0.2545482   0.2517602   1.7648669  )
        30           O   tau(  30) = (   0.5048017   0.0015068   1.7786929  )
        31           Co  tau(  31) = (   0.0056869   0.5006215   1.0164559  )
        32           Co  tau(  32) = (   0.0065315   0.4997770   1.5135603  )
        33           Co  tau(  33) = (   0.0061999   0.0064171   1.0164559  )
        34           Co  tau(  34) = (   0.0000000   0.0126169   1.5135603  )
        35           O   tau(  35) = (   0.0114961   0.4948124   1.2815885  )
        36           O   tau(  36) = (   0.0114961   0.4948124   0.7513233  )
        37           O   tau(  37) = (   0.0051979   0.2673486   1.0164559  )
        38           O   tau(  38) = (   0.0130029   0.2478461   1.5135603  )
        39           O   tau(  39) = (   0.0048226   0.0077944   0.7773880  )
        40           O   tau(  40) = (   0.0048226   0.0077944   1.2555238  )
        41           Sr  tau(  41) = (   0.2545482   0.2517602   0.7706582  )
        42           Sr  tau(  42) = (   0.2545482   0.2517602   1.2622536  )
        43           Co  tau(  43) = (   0.4989925   0.0073160   1.5135603  )
        44           Co  tau(  44) = (   0.4998370   0.0064714   1.0164559  )
        45           O   tau(  45) = (   0.5048017   0.0015068   0.7844841  )
        46           O   tau(  46) = (   0.5048017   0.0015068   1.2484277  )
        47           O   tau(  47) = (   0.2621260   0.0059111   1.5135603  )
        48           O   tau(  48) = (   0.2591051   0.0041689   1.0164559  )
        49           O   tau(  49) = (   0.4264937   0.7108228   2.1602013  )
        50           H   tau(  50) = (   0.4264937   0.7108228   2.2847091  )

   Crystallographic axes

     site n.     atom                  positions (cryst. coord.)
         1           Sr  tau(   1) = (  0.2508693  0.7491307  0.6943562  )
         2           O   tau(   2) = (  0.4985141  0.5014859  0.6999492  )
         3           Sr  tau(   3) = (  0.7482398  0.7454518  0.6972903  )
         4           Sr  tau(   4) = (  0.7441748  0.2558252  0.6980478  )
         5           Sr  tau(   5) = (  0.2508693  0.7491307  0.5016443  )
         6           Sr  tau(   6) = (  0.2508693  0.7491307  0.3015492  )
         7           Co  tau(   7) = (  0.4998914  0.5001086  0.4015968  )
         8           Co  tau(   8) = (  0.4936915  0.5063085  0.5980003  )
         9           O   tau(   9) = (  0.4988895  0.7610401  0.4015968  )
        10           O   tau(  10) = (  0.2389599  0.5011105  0.4015968  )
        11           O   tau(  11) = (  0.0070918  0.7374880  0.4015968  )
        12           O   tau(  12) = (  0.0088340  0.7405089  0.5980003  )
        13           O   tau(  13) = (  0.5066944  0.7415376  0.5980003  )
        14           O   tau(  14) = (  0.2584624  0.4933056  0.5980003  )
        15           O   tau(  15) = (  0.4985141  0.5014859  0.3071422  )
        16           O   tau(  16) = (  0.4985141  0.5014859  0.4960513  )
        17           Sr  tau(  17) = (  0.7482398  0.7454518  0.3044833  )
        18           Sr  tau(  18) = (  0.7482398  0.7454518  0.4987103  )
        19           Sr  tau(  19) = (  0.7441748  0.2558252  0.3052408  )
        20           Sr  tau(  20) = (  0.7441748  0.2558252  0.4979527  )
        21           O   tau(  21) = (  0.7322655  0.0078049  0.5980003  )
        22           O   tau(  22) = (  0.7558175  0.4996027  0.5980003  )
        23           O   tau(  23) = (  0.5003973  0.2441825  0.5980003  )
        24           O   tau(  24) = (  0.7527966  0.4978604  0.4015968  )
        25           O   tau(  25) = (  0.5021396  0.2472034  0.4015968  )
        26           O   tau(  26) = (  0.7517679  0.0000000  0.4015968  )
        27           O   tau(  27) = (  0.0114961  0.4948124  0.6896512  )
        28           O   tau(  28) = (  0.0048226  0.0077944  0.6999492  )
        29           Sr  tau(  29) = (  0.2545482  0.2517602  0.6972903  )
        30           O   tau(  30) = (  0.5048017  0.0015068  0.7027529  )
        31           Co  tau(  31) = (  0.0056869  0.5006215  0.4015968  )
        32           Co  tau(  32) = (  0.0065315  0.4997770  0.5980003  )
        33           Co  tau(  33) = (  0.0061999  0.0064171  0.4015968  )
        34           Co  tau(  34) = (  0.0000000  0.0126169  0.5980003  )
        35           O   tau(  35) = (  0.0114961  0.4948124  0.5063494  )
        36           O   tau(  36) = (  0.0114961  0.4948124  0.2968442  )
        37           O   tau(  37) = (  0.0051979  0.2673486  0.4015968  )
        38           O   tau(  38) = (  0.0130029  0.2478461  0.5980003  )
        39           O   tau(  39) = (  0.0048226  0.0077944  0.3071422  )
        40           O   tau(  40) = (  0.0048226  0.0077944  0.4960513  )
        41           Sr  tau(  41) = (  0.2545482  0.2517602  0.3044833  )
        42           Sr  tau(  42) = (  0.2545482  0.2517602  0.4987103  )
        43           Co  tau(  43) = (  0.4989925  0.0073160  0.5980003  )
        44           Co  tau(  44) = (  0.4998370  0.0064714  0.4015968  )
        45           O   tau(  45) = (  0.5048017  0.0015068  0.3099459  )
        46           O   tau(  46) = (  0.5048017  0.0015068  0.4932477  )
        47           O   tau(  47) = (  0.2621260  0.0059111  0.5980003  )
        48           O   tau(  48) = (  0.2591051  0.0041689  0.4015968  )
        49           O   tau(  49) = (  0.4264937  0.7108228  0.8534850  )
        50           H   tau(  50) = (  0.4264937  0.7108228  0.9026774  )

     number of k points=    10  Gaussian smearing, width (Ry)=  0.0700
                       cart. coord. in units 2pi/alat
        k(    1) = (   0.0000000   0.0000000   0.0000000), wk =   0.1250000
        k(    2) = (   0.0000000   0.2500000   0.0000000), wk =   0.2500000
        k(    3) = (   0.0000000  -0.5000000   0.0000000), wk =   0.1250000
        k(    4) = (   0.2500000   0.2500000   0.0000000), wk =   0.2500000
        k(    5) = (   0.2500000  -0.5000000   0.0000000), wk =   0.2500000
        k(    6) = (  -0.5000000  -0.5000000   0.0000000), wk =   0.1250000
        k(    7) = (   0.2500000   0.0000000   0.0000000), wk =   0.2500000
        k(    8) = (  -0.5000000   0.0000000   0.0000000), wk =   0.1250000
        k(    9) = (  -0.2500000   0.2500000   0.0000000), wk =   0.2500000
        k(   10) = (  -0.5000000   0.2500000   0.0000000), wk =   0.2500000

                       cryst. coord.
        k(    1) = (   0.0000000   0.0000000   0.0000000), wk =   0.1250000
        k(    2) = (   0.0000000   0.2500000   0.0000000), wk =   0.2500000
        k(    3) = (   0.0000000  -0.5000000   0.0000000), wk =   0.1250000
        k(    4) = (   0.2500000   0.2500000   0.0000000), wk =   0.2500000
        k(    5) = (   0.2500000  -0.5000000   0.0000000), wk =   0.2500000
        k(    6) = (  -0.5000000  -0.5000000   0.0000000), wk =   0.1250000
        k(    7) = (   0.2500000   0.0000000   0.0000000), wk =   0.2500000
        k(    8) = (  -0.5000000   0.0000000   0.0000000), wk =   0.1250000
        k(    9) = (  -0.2500000   0.2500000   0.0000000), wk =   0.2500000
        k(   10) = (  -0.5000000   0.2500000   0.0000000), wk =   0.2500000

     Dense  grid:  1474595 G-vectors     FFT dimensions: ( 108, 108, 270)

     Smooth grid:   521381 G-vectors     FFT dimensions: (  75,  75, 192)

     Dynamical RAM for                 wfc:      10.73 MB

     Dynamical RAM for     wfc (w. buffer):      64.38 MB

     Dynamical RAM for           str. fact:       3.75 MB

     Dynamical RAM for           local pot:       0.00 MB

     Dynamical RAM for          nlocal pot:      24.61 MB

     Dynamical RAM for                qrad:       7.03 MB

     Dynamical RAM for          rho,v,vnew:       6.02 MB

     Dynamical RAM for               rhoin:       2.01 MB

     Dynamical RAM for            rho*nmix:      15.00 MB

     Dynamical RAM for           G-vectors:       3.68 MB

     Dynamical RAM for          h,s,v(r/c):       1.35 MB

     Dynamical RAM for          <psi|beta>:       2.35 MB

     Dynamical RAM for                 psi:      21.46 MB

     Dynamical RAM for                hpsi:      21.46 MB

     Dynamical RAM for                spsi:      21.46 MB

     Dynamical RAM for      wfcinit/wfcrot:      34.49 MB

     Dynamical RAM for           addusdens:     101.26 MB

     Estimated static dynamical RAM per process >     121.50 MB

     Estimated max dynamical RAM per process >     237.76 MB

     Estimated total dynamical RAM >      10.79 GB

     Check: negative core charge=   -0.000004

     Initial potential from superposition of free atoms

     starting charge     422.5961, renormalised to     431.0000

     negative rho (up, down):  7.820E-01 0.000E+00
     Starting wfcs are  377 randomized atomic wfcs
     Checking if some PAW data can be deallocated... 
       PAW data deallocated on   19 nodes for type:  2

     total cpu time spent up to now is        9.5 secs

     Self-consistent Calculation

     iteration #  1     ecut=    60.00 Ry     beta= 0.15
     Davidson diagonalization with overlap

---- Real-time Memory Report at c_bands before calling an iterative solver
             0 MiB given to the printing process from OS
             0 MiB allocation reported by mallinfo(arena+hblkhd)
         23987 MiB available memory on the node where the printing process lives
------------------
     ethr =  1.00E-02,  avg # of iterations =  2.0

     negative rho (up, down):  7.717E-01 0.000E+00

     total cpu time spent up to now is       27.4 secs

     total energy              =   -4446.66039358 Ry
     estimated scf accuracy    <      44.74179643 Ry

     iteration #  2     ecut=    60.00 Ry     beta= 0.15
     Davidson diagonalization with overlap

---- Real-time Memory Report at c_bands before calling an iterative solver
             0 MiB given to the printing process from OS
             0 MiB allocation reported by mallinfo(arena+hblkhd)
         24260 MiB available memory on the node where the printing process lives
------------------
     ethr =  1.00E-02,  avg # of iterations =  1.0

     negative rho (up, down):  7.583E-01 0.000E+00

     total cpu time spent up to now is       42.8 secs

     total energy              =   -4443.30191175 Ry
     estimated scf accuracy    <      29.83666551 Ry

     iteration #  3     ecut=    60.00 Ry     beta= 0.15
     Davidson diagonalization with overlap

---- Real-time Memory Report at c_bands before calling an iterative solver
             0 MiB given to the printing process from OS
             0 MiB allocation reported by mallinfo(arena+hblkhd)
         23426 MiB available memory on the node where the printing process lives
------------------
     ethr =  6.92E-03,  avg # of iterations =  1.0

     negative rho (up, down):  7.554E-01 0.000E+00

     total cpu time spent up to now is       58.5 secs

     total energy              =   -4444.26665412 Ry
     estimated scf accuracy    <      28.40804189 Ry

     iteration #  4     ecut=    60.00 Ry     beta= 0.15
     Davidson diagonalization with overlap

---- Real-time Memory Report at c_bands before calling an iterative solver
             0 MiB given to the printing process from OS
             0 MiB allocation reported by mallinfo(arena+hblkhd)
         23400 MiB available memory on the node where the printing process lives
------------------
     ethr =  6.59E-03,  avg # of iterations =  1.0

     negative rho (up, down):  7.500E-01 0.000E+00

     total cpu time spent up to now is       74.0 secs

     total energy              =   -4443.08069808 Ry
     estimated scf accuracy    <      20.71228257 Ry

     iteration #  5     ecut=    60.00 Ry     beta= 0.15
     Davidson diagonalization with overlap

---- Real-time Memory Report at c_bands before calling an iterative solver
             0 MiB given to the printing process from OS
             0 MiB allocation reported by mallinfo(arena+hblkhd)
         23380 MiB available memory on the node where the printing process lives
------------------
     ethr =  4.81E-03,  avg # of iterations =  1.0

     negative rho (up, down):  7.399E-01 0.000E+00

     total cpu time spent up to now is       89.6 secs

     total energy              =   -4442.49751980 Ry
     estimated scf accuracy    <      11.31285641 Ry

     iteration #  6     ecut=    60.00 Ry     beta= 0.15
     Davidson diagonalization with overlap

---- Real-time Memory Report at c_bands before calling an iterative solver
             0 MiB given to the printing process from OS
             0 MiB allocation reported by mallinfo(arena+hblkhd)
         23360 MiB available memory on the node where the printing process lives
------------------
     ethr =  2.62E-03,  avg # of iterations =  1.1

     negative rho (up, down):  7.427E-01 0.000E+00

     total cpu time spent up to now is      105.7 secs

     total energy              =   -4442.81956657 Ry
     estimated scf accuracy    <       5.02957803 Ry

     iteration #  7     ecut=    60.00 Ry     beta= 0.15
     Davidson diagonalization with overlap

---- Real-time Memory Report at c_bands before calling an iterative solver
             0 MiB given to the printing process from OS
             0 MiB allocation reported by mallinfo(arena+hblkhd)
         23348 MiB available memory on the node where the printing process lives
------------------
     ethr =  1.17E-03,  avg # of iterations =  1.7

     negative rho (up, down):  7.635E-01 0.000E+00

     total cpu time spent up to now is      121.8 secs

     total energy              =   -4441.67072928 Ry
     estimated scf accuracy    <       3.98361972 Ry

     iteration #  8     ecut=    60.00 Ry     beta= 0.15
     Davidson diagonalization with overlap

---- Real-time Memory Report at c_bands before calling an iterative solver
             0 MiB given to the printing process from OS
             0 MiB allocation reported by mallinfo(arena+hblkhd)
         23326 MiB available memory on the node where the printing process lives
------------------
     ethr =  9.24E-04,  avg # of iterations =  4.5

     negative rho (up, down):  7.725E-01 0.000E+00

     total cpu time spent up to now is      142.5 secs

     total energy              =   -4441.35474703 Ry
     estimated scf accuracy    <      18.32988359 Ry

     iteration #  9     ecut=    60.00 Ry     beta= 0.15
     Davidson diagonalization with overlap

---- Real-time Memory Report at c_bands before calling an iterative solver
             0 MiB given to the printing process from OS
             0 MiB allocation reported by mallinfo(arena+hblkhd)
         23203 MiB available memory on the node where the printing process lives
------------------
     ethr =  9.24E-04,  avg # of iterations =  9.9

     negative rho (up, down):  7.701E-01 0.000E+00

     total cpu time spent up to now is      166.0 secs

     total energy              =   -4441.74922118 Ry
     estimated scf accuracy    <       3.04695442 Ry

     iteration # 10     ecut=    60.00 Ry     beta= 0.15
     Davidson diagonalization with overlap

---- Real-time Memory Report at c_bands before calling an iterative solver
             0 MiB given to the printing process from OS
             0 MiB allocation reported by mallinfo(arena+hblkhd)
         22854 MiB available memory on the node where the printing process lives
------------------
     ethr =  7.07E-04,  avg # of iterations =  1.3

     negative rho (up, down):  7.767E-01 0.000E+00

     total cpu time spent up to now is      182.7 secs

     total energy              =   -4441.90144369 Ry
     estimated scf accuracy    <       1.38031531 Ry

     iteration # 11     ecut=    60.00 Ry     beta= 0.15
     Davidson diagonalization with overlap

---- Real-time Memory Report at c_bands before calling an iterative solver
             0 MiB given to the printing process from OS
             0 MiB allocation reported by mallinfo(arena+hblkhd)
         22831 MiB available memory on the node where the printing process lives
------------------
     ethr =  3.20E-04,  avg # of iterations =  3.6

     negative rho (up, down):  8.055E-01 0.000E+00

     total cpu time spent up to now is      201.2 secs

     total energy              =   -4441.72739609 Ry
     estimated scf accuracy    <       1.35343298 Ry

     iteration # 12     ecut=    60.00 Ry     beta= 0.15
     Davidson diagonalization with overlap

---- Real-time Memory Report at c_bands before calling an iterative solver
             0 MiB given to the printing process from OS
             0 MiB allocation reported by mallinfo(arena+hblkhd)
         22802 MiB available memory on the node where the printing process lives
------------------
     ethr =  3.14E-04,  avg # of iterations =  6.0

     negative rho (up, down):  8.140E-01 0.000E+00

     total cpu time spent up to now is      222.2 secs

     total energy              =   -4441.85946190 Ry
     estimated scf accuracy    <       1.19085897 Ry

     iteration # 13     ecut=    60.00 Ry     beta= 0.15
     Davidson diagonalization with overlap

---- Real-time Memory Report at c_bands before calling an iterative solver
             0 MiB given to the printing process from OS
             0 MiB allocation reported by mallinfo(arena+hblkhd)
         22794 MiB available memory on the node where the printing process lives
------------------
     ethr =  2.76E-04,  avg # of iterations =  4.6

     negative rho (up, down):  8.187E-01 0.000E+00

     total cpu time spent up to now is      241.6 secs

     total energy              =   -4441.79607370 Ry
     estimated scf accuracy    <       0.78406319 Ry

     iteration # 14     ecut=    60.00 Ry     beta= 0.15
     Davidson diagonalization with overlap

---- Real-time Memory Report at c_bands before calling an iterative solver
             0 MiB given to the printing process from OS
             0 MiB allocation reported by mallinfo(arena+hblkhd)
         22717 MiB available memory on the node where the printing process lives
------------------
     ethr =  1.82E-04,  avg # of iterations =  8.7

     negative rho (up, down):  8.234E-01 0.000E+00

     total cpu time spent up to now is      263.3 secs

     total energy              =   -4441.74098126 Ry
     estimated scf accuracy    <       0.36817272 Ry

     iteration # 15     ecut=    60.00 Ry     beta= 0.15
     Davidson diagonalization with overlap

---- Real-time Memory Report at c_bands before calling an iterative solver
             0 MiB given to the printing process from OS
             0 MiB allocation reported by mallinfo(arena+hblkhd)
         22699 MiB available memory on the node where the printing process lives
------------------
     ethr =  8.54E-05,  avg # of iterations = 12.0

     negative rho (up, down):  8.308E-01 0.000E+00

     total cpu time spent up to now is      287.9 secs

     total energy              =   -4441.72767069 Ry
     estimated scf accuracy    <       0.32510343 Ry

     iteration # 16     ecut=    60.00 Ry     beta= 0.15
     Davidson diagonalization with overlap

---- Real-time Memory Report at c_bands before calling an iterative solver
             0 MiB given to the printing process from OS
             0 MiB allocation reported by mallinfo(arena+hblkhd)
         22704 MiB available memory on the node where the printing process lives
------------------
     ethr =  7.54E-05,  avg # of iterations =  4.3

     negative rho (up, down):  8.306E-01 0.000E+00

     total cpu time spent up to now is      307.6 secs

     total energy              =   -4441.71860627 Ry
     estimated scf accuracy    <       0.29636618 Ry

     iteration # 17     ecut=    60.00 Ry     beta= 0.15
     Davidson diagonalization with overlap

---- Real-time Memory Report at c_bands before calling an iterative solver
             0 MiB given to the printing process from OS
             0 MiB allocation reported by mallinfo(arena+hblkhd)
         22703 MiB available memory on the node where the printing process lives
------------------
     ethr =  6.88E-05,  avg # of iterations =  1.3

     negative rho (up, down):  8.160E-01 0.000E+00

     total cpu time spent up to now is      324.4 secs

     total energy              =   -4441.69792554 Ry
     estimated scf accuracy    <       0.19364514 Ry

     iteration # 18     ecut=    60.00 Ry     beta= 0.15
     Davidson diagonalization with overlap

---- Real-time Memory Report at c_bands before calling an iterative solver
             0 MiB given to the printing process from OS
             0 MiB allocation reported by mallinfo(arena+hblkhd)
         22710 MiB available memory on the node where the printing process lives
------------------
     ethr =  4.49E-05,  avg # of iterations =  7.7

     negative rho (up, down):  8.111E-01 0.000E+00

     total cpu time spent up to now is      346.9 secs

     total energy              =   -4441.67382786 Ry
     estimated scf accuracy    <       0.14865915 Ry

     iteration # 19     ecut=    60.00 Ry     beta= 0.15
     Davidson diagonalization with overlap

---- Real-time Memory Report at c_bands before calling an iterative solver
             0 MiB given to the printing process from OS
             0 MiB allocation reported by mallinfo(arena+hblkhd)
         22675 MiB available memory on the node where the printing process lives
------------------
     ethr =  3.45E-05,  avg # of iterations =  8.1

     negative rho (up, down):  8.218E-01 0.000E+00

     total cpu time spent up to now is      369.5 secs

     total energy              =   -4441.66582530 Ry
     estimated scf accuracy    <       0.08225138 Ry

     iteration # 20     ecut=    60.00 Ry     beta= 0.15
     Davidson diagonalization with overlap

---- Real-time Memory Report at c_bands before calling an iterative solver
             0 MiB given to the printing process from OS
             0 MiB allocation reported by mallinfo(arena+hblkhd)
         22659 MiB available memory on the node where the printing process lives
------------------
     ethr =  1.91E-05,  avg # of iterations = 11.3

     negative rho (up, down):  8.276E-01 0.000E+00

     total cpu time spent up to now is      394.6 secs

     total energy              =   -4441.66772428 Ry
     estimated scf accuracy    <       0.03312158 Ry

     iteration # 21     ecut=    60.00 Ry     beta= 0.15
     Davidson diagonalization with overlap

---- Real-time Memory Report at c_bands before calling an iterative solver
             0 MiB given to the printing process from OS
             0 MiB allocation reported by mallinfo(arena+hblkhd)
         22623 MiB available memory on the node where the printing process lives
------------------
     ethr =  7.68E-06,  avg # of iterations =  9.3

     negative rho (up, down):  8.230E-01 0.000E+00

     total cpu time spent up to now is      416.5 secs

     total energy              =   -4441.66670609 Ry
     estimated scf accuracy    <       0.02668163 Ry

     iteration # 22     ecut=    60.00 Ry     beta= 0.15
     Davidson diagonalization with overlap

---- Real-time Memory Report at c_bands before calling an iterative solver
             0 MiB given to the printing process from OS
             0 MiB allocation reported by mallinfo(arena+hblkhd)
         22613 MiB available memory on the node where the printing process lives
------------------
     ethr =  6.19E-06,  avg # of iterations =  1.8

     negative rho (up, down):  7.976E-01 0.000E+00

     total cpu time spent up to now is      434.2 secs

     total energy              =   -4441.66158232 Ry
     estimated scf accuracy    <       0.02187092 Ry

     iteration # 23     ecut=    60.00 Ry     beta= 0.15
     Davidson diagonalization with overlap

---- Real-time Memory Report at c_bands before calling an iterative solver
             0 MiB given to the printing process from OS
             0 MiB allocation reported by mallinfo(arena+hblkhd)
         22619 MiB available memory on the node where the printing process lives
------------------
     ethr =  5.07E-06,  avg # of iterations =  8.1

     negative rho (up, down):  7.994E-01 0.000E+00

     total cpu time spent up to now is      456.1 secs

     total energy              =   -4441.66151222 Ry
     estimated scf accuracy    <       0.01219385 Ry

     iteration # 24     ecut=    60.00 Ry     beta= 0.15
     Davidson diagonalization with overlap

---- Real-time Memory Report at c_bands before calling an iterative solver
             0 MiB given to the printing process from OS
             0 MiB allocation reported by mallinfo(arena+hblkhd)
         22616 MiB available memory on the node where the printing process lives
------------------
     c_bands:  1 eigenvalues not converged
     ethr =  2.83E-06,  avg # of iterations = 13.3

     negative rho (up, down):  7.960E-01 0.000E+00

     total cpu time spent up to now is      481.2 secs

     total energy              =   -4441.66104571 Ry
     estimated scf accuracy    <       0.00800645 Ry

     iteration # 25     ecut=    60.00 Ry     beta= 0.15
     Davidson diagonalization with overlap

---- Real-time Memory Report at c_bands before calling an iterative solver
             0 MiB given to the printing process from OS
             0 MiB allocation reported by mallinfo(arena+hblkhd)
         22632 MiB available memory on the node where the printing process lives
------------------
     c_bands:  1 eigenvalues not converged
     ethr =  1.86E-06,  avg # of iterations =  3.8

     negative rho (up, down):  7.944E-01 0.000E+00

     total cpu time spent up to now is      500.4 secs

     total energy              =   -4441.65967061 Ry
     estimated scf accuracy    <       0.00545983 Ry

     iteration # 26     ecut=    60.00 Ry     beta= 0.15
     Davidson diagonalization with overlap

---- Real-time Memory Report at c_bands before calling an iterative solver
             0 MiB given to the printing process from OS
             0 MiB allocation reported by mallinfo(arena+hblkhd)
         22533 MiB available memory on the node where the printing process lives
------------------
     ethr =  1.27E-06,  avg # of iterations = 12.2

     negative rho (up, down):  7.981E-01 0.000E+00

     total cpu time spent up to now is      526.0 secs

     total energy              =   -4441.66002268 Ry
     estimated scf accuracy    <       0.00172541 Ry

     iteration # 27     ecut=    60.00 Ry     beta= 0.15
     Davidson diagonalization with overlap

---- Real-time Memory Report at c_bands before calling an iterative solver
             0 MiB given to the printing process from OS
             0 MiB allocation reported by mallinfo(arena+hblkhd)
         22518 MiB available memory on the node where the printing process lives
------------------
     c_bands:  1 eigenvalues not converged
     c_bands:  1 eigenvalues not converged
     ethr =  4.00E-07,  avg # of iterations = 11.9

     negative rho (up, down):  7.978E-01 0.000E+00

     total cpu time spent up to now is      551.0 secs

     total energy              =   -4441.66011754 Ry
     estimated scf accuracy    <       0.00071018 Ry

     iteration # 28     ecut=    60.00 Ry     beta= 0.15
     Davidson diagonalization with overlap

---- Real-time Memory Report at c_bands before calling an iterative solver
             0 MiB given to the printing process from OS
             0 MiB allocation reported by mallinfo(arena+hblkhd)
         22512 MiB available memory on the node where the printing process lives
------------------
     c_bands:  1 eigenvalues not converged
     ethr =  1.65E-07,  avg # of iterations =  3.8

     negative rho (up, down):  7.957E-01 0.000E+00

     total cpu time spent up to now is      570.3 secs

     total energy              =   -4441.66009171 Ry
     estimated scf accuracy    <       0.00036734 Ry

     iteration # 29     ecut=    60.00 Ry     beta= 0.15
     Davidson diagonalization with overlap

---- Real-time Memory Report at c_bands before calling an iterative solver
             0 MiB given to the printing process from OS
             0 MiB allocation reported by mallinfo(arena+hblkhd)
         22512 MiB available memory on the node where the printing process lives
------------------
     c_bands:  1 eigenvalues not converged
     c_bands:  1 eigenvalues not converged
     ethr =  8.52E-08,  avg # of iterations =  7.6

     negative rho (up, down):  7.943E-01 0.000E+00

     total cpu time spent up to now is      591.3 secs

     total energy              =   -4441.66009335 Ry
     estimated scf accuracy    <       0.00014119 Ry

     iteration # 30     ecut=    60.00 Ry     beta= 0.15
     Davidson diagonalization with overlap

---- Real-time Memory Report at c_bands before calling an iterative solver
             0 MiB given to the printing process from OS
             0 MiB allocation reported by mallinfo(arena+hblkhd)
         22603 MiB available memory on the node where the printing process lives
------------------
     ethr =  3.28E-08,  avg # of iterations =  2.5

     negative rho (up, down):  7.933E-01 0.000E+00

     total cpu time spent up to now is      610.0 secs

     total energy              =   -4441.66010064 Ry
     estimated scf accuracy    <       0.00007144 Ry

     iteration # 31     ecut=    60.00 Ry     beta= 0.15
     Davidson diagonalization with overlap

---- Real-time Memory Report at c_bands before calling an iterative solver
             0 MiB given to the printing process from OS
             0 MiB allocation reported by mallinfo(arena+hblkhd)
         22635 MiB available memory on the node where the printing process lives
------------------
     ethr =  1.66E-08,  avg # of iterations =  3.3

     negative rho (up, down):  7.927E-01 0.000E+00

     total cpu time spent up to now is      629.1 secs

     total energy              =   -4441.66010691 Ry
     estimated scf accuracy    <       0.00003487 Ry

     iteration # 32     ecut=    60.00 Ry     beta= 0.15
     Davidson diagonalization with overlap

---- Real-time Memory Report at c_bands before calling an iterative solver
             0 MiB given to the printing process from OS
             0 MiB allocation reported by mallinfo(arena+hblkhd)
         22627 MiB available memory on the node where the printing process lives
------------------
     ethr =  8.09E-09,  avg # of iterations =  2.1

     negative rho (up, down):  7.927E-01 0.000E+00

     total cpu time spent up to now is      647.3 secs

     total energy              =   -4441.66010681 Ry
     estimated scf accuracy    <       0.00001843 Ry

     iteration # 33     ecut=    60.00 Ry     beta= 0.15
     Davidson diagonalization with overlap

---- Real-time Memory Report at c_bands before calling an iterative solver
             0 MiB given to the printing process from OS
             0 MiB allocation reported by mallinfo(arena+hblkhd)
         22632 MiB available memory on the node where the printing process lives
------------------
     ethr =  4.28E-09,  avg # of iterations =  2.1

     negative rho (up, down):  7.929E-01 0.000E+00

     total cpu time spent up to now is      665.0 secs

     total energy              =   -4441.66010560 Ry
     estimated scf accuracy    <       0.00001162 Ry

     iteration # 34     ecut=    60.00 Ry     beta= 0.15
     Davidson diagonalization with overlap

---- Real-time Memory Report at c_bands before calling an iterative solver
             0 MiB given to the printing process from OS
             0 MiB allocation reported by mallinfo(arena+hblkhd)
         22637 MiB available memory on the node where the printing process lives
------------------
     ethr =  2.70E-09,  avg # of iterations =  2.0

     negative rho (up, down):  7.929E-01 0.000E+00

     total cpu time spent up to now is      682.8 secs

     total energy              =   -4441.66010476 Ry
     estimated scf accuracy    <       0.00000955 Ry

     iteration # 35     ecut=    60.00 Ry     beta= 0.15
     Davidson diagonalization with overlap

---- Real-time Memory Report at c_bands before calling an iterative solver
             0 MiB given to the printing process from OS
             0 MiB allocation reported by mallinfo(arena+hblkhd)
         22641 MiB available memory on the node where the printing process lives
------------------
     ethr =  2.22E-09,  avg # of iterations =  1.8

     negative rho (up, down):  7.929E-01 0.000E+00

     total cpu time spent up to now is      700.1 secs

     total energy              =   -4441.66010491 Ry
     estimated scf accuracy    <       0.00000612 Ry

     iteration # 36     ecut=    60.00 Ry     beta= 0.15
     Davidson diagonalization with overlap

---- Real-time Memory Report at c_bands before calling an iterative solver
             0 MiB given to the printing process from OS
             0 MiB allocation reported by mallinfo(arena+hblkhd)
         22639 MiB available memory on the node where the printing process lives
------------------
     ethr =  1.42E-09,  avg # of iterations =  1.9

     negative rho (up, down):  7.928E-01 0.000E+00

     total cpu time spent up to now is      717.7 secs

     total energy              =   -4441.66010531 Ry
     estimated scf accuracy    <       0.00000504 Ry

     iteration # 37     ecut=    60.00 Ry     beta= 0.15
     Davidson diagonalization with overlap

---- Real-time Memory Report at c_bands before calling an iterative solver
             0 MiB given to the printing process from OS
             0 MiB allocation reported by mallinfo(arena+hblkhd)
         22645 MiB available memory on the node where the printing process lives
------------------
     ethr =  1.17E-09,  avg # of iterations =  2.1

     negative rho (up, down):  7.925E-01 0.000E+00

     total cpu time spent up to now is      735.7 secs

     total energy              =   -4441.66010695 Ry
     estimated scf accuracy    <       0.00000361 Ry

     iteration # 38     ecut=    60.00 Ry     beta= 0.15
     Davidson diagonalization with overlap

---- Real-time Memory Report at c_bands before calling an iterative solver
             0 MiB given to the printing process from OS
             0 MiB allocation reported by mallinfo(arena+hblkhd)
         22645 MiB available memory on the node where the printing process lives
------------------
     ethr =  8.38E-10,  avg # of iterations =  3.9

     negative rho (up, down):  7.925E-01 0.000E+00

     total cpu time spent up to now is      754.8 secs

     total energy              =   -4441.66010709 Ry
     estimated scf accuracy    <       0.00000091 Ry

     iteration # 39     ecut=    60.00 Ry     beta= 0.15
     Davidson diagonalization with overlap

---- Real-time Memory Report at c_bands before calling an iterative solver
             0 MiB given to the printing process from OS
             0 MiB allocation reported by mallinfo(arena+hblkhd)
         22626 MiB available memory on the node where the printing process lives
------------------
     ethr =  2.10E-10,  avg # of iterations =  2.4

     negative rho (up, down):  7.925E-01 0.000E+00

     total cpu time spent up to now is      773.2 secs

     total energy              =   -4441.66010683 Ry
     estimated scf accuracy    <       0.00000060 Ry

     iteration # 40     ecut=    60.00 Ry     beta= 0.15
     Davidson diagonalization with overlap

---- Real-time Memory Report at c_bands before calling an iterative solver
             0 MiB given to the printing process from OS
             0 MiB allocation reported by mallinfo(arena+hblkhd)
         22631 MiB available memory on the node where the printing process lives
------------------
     ethr =  1.40E-10,  avg # of iterations =  3.1

     negative rho (up, down):  7.925E-01 0.000E+00

     total cpu time spent up to now is      791.8 secs

     total energy              =   -4441.66010711 Ry
     estimated scf accuracy    <       0.00000026 Ry

     iteration # 41     ecut=    60.00 Ry     beta= 0.15
     Davidson diagonalization with overlap

---- Real-time Memory Report at c_bands before calling an iterative solver
             0 MiB given to the printing process from OS
             0 MiB allocation reported by mallinfo(arena+hblkhd)
         22636 MiB available memory on the node where the printing process lives
------------------
     ethr =  6.01E-11,  avg # of iterations =  2.5

     negative rho (up, down):  7.925E-01 0.000E+00

     total cpu time spent up to now is      810.1 secs

     total energy              =   -4441.66010743 Ry
     estimated scf accuracy    <       0.00000018 Ry

     iteration # 42     ecut=    60.00 Ry     beta= 0.15
     Davidson diagonalization with overlap

---- Real-time Memory Report at c_bands before calling an iterative solver
             0 MiB given to the printing process from OS
             0 MiB allocation reported by mallinfo(arena+hblkhd)
         22631 MiB available memory on the node where the printing process lives
------------------
     ethr =  4.29E-11,  avg # of iterations =  3.8

     negative rho (up, down):  7.925E-01 0.000E+00

     total cpu time spent up to now is      829.1 secs

     total energy              =   -4441.66010751 Ry
     estimated scf accuracy    <       0.00000011 Ry

     iteration # 43     ecut=    60.00 Ry     beta= 0.15
     Davidson diagonalization with overlap

---- Real-time Memory Report at c_bands before calling an iterative solver
             0 MiB given to the printing process from OS
             0 MiB allocation reported by mallinfo(arena+hblkhd)
         22629 MiB available memory on the node where the printing process lives
------------------
     ethr =  2.62E-11,  avg # of iterations =  4.1

     negative rho (up, down):  7.925E-01 0.000E+00

     total cpu time spent up to now is      848.1 secs

     total energy              =   -4441.66010749 Ry
     estimated scf accuracy    <       0.00000006 Ry

     iteration # 44     ecut=    60.00 Ry     beta= 0.15
     Davidson diagonalization with overlap

---- Real-time Memory Report at c_bands before calling an iterative solver
             0 MiB given to the printing process from OS
             0 MiB allocation reported by mallinfo(arena+hblkhd)
         22620 MiB available memory on the node where the printing process lives
------------------
     ethr =  1.33E-11,  avg # of iterations =  4.1

     negative rho (up, down):  7.925E-01 0.000E+00

     total cpu time spent up to now is      867.9 secs

     total energy              =   -4441.66010749 Ry
     estimated scf accuracy    <       0.00000003 Ry

     iteration # 45     ecut=    60.00 Ry     beta= 0.15
     Davidson diagonalization with overlap

---- Real-time Memory Report at c_bands before calling an iterative solver
             0 MiB given to the printing process from OS
             0 MiB allocation reported by mallinfo(arena+hblkhd)
         22631 MiB available memory on the node where the printing process lives
------------------
     ethr =  6.44E-12,  avg # of iterations =  2.2

     negative rho (up, down):  7.925E-01 0.000E+00

     total cpu time spent up to now is      885.9 secs

     total energy              =   -4441.66010751 Ry
     estimated scf accuracy    <       0.00000002 Ry

     iteration # 46     ecut=    60.00 Ry     beta= 0.15
     Davidson diagonalization with overlap

---- Real-time Memory Report at c_bands before calling an iterative solver
             0 MiB given to the printing process from OS
             0 MiB allocation reported by mallinfo(arena+hblkhd)
         22640 MiB available memory on the node where the printing process lives
------------------
     ethr =  4.55E-12,  avg # of iterations =  2.2

     negative rho (up, down):  7.925E-01 0.000E+00

     total cpu time spent up to now is      903.8 secs

     End of self-consistent calculation

          k = 0.0000 0.0000 0.0000 ( 65197 PWs)   bands (ev):

   -92.6896 -92.6374 -92.5432 -92.4971 -92.4412 -92.3963 -92.3783 -92.2561
   -56.0431 -56.0241 -55.9006 -55.8902 -55.8831 -55.8770 -55.8412 -55.8125
   -55.7967 -55.7959 -55.7883 -55.7475 -55.7284 -55.6921 -55.6696 -55.6408
   -55.6327 -55.5840 -55.5824 -55.5814 -55.5729 -55.5309 -55.5087 -55.4226
   -31.2669 -31.2474 -31.1062 -31.0333 -31.0192 -31.0020 -30.7800 -30.6579
   -29.8359 -29.7924 -29.7683 -29.6590 -15.0697 -15.0233 -14.9447 -14.8146
   -14.6209 -14.4959 -14.2064 -14.1863 -14.1561 -14.1117 -14.0669 -14.0580
   -14.0434 -14.0250 -13.9953 -13.9714 -13.9552 -13.9166 -13.7661 -13.5897
   -13.5529 -13.5242 -13.4936 -13.4761 -13.4191 -13.3841 -13.3115 -13.2395
   -13.1089 -13.0978 -13.0875 -13.0634 -13.0475 -13.0444 -12.9930 -12.9895
   -12.9690 -12.9449 -12.9118 -12.8905 -12.8775 -12.8553 -12.8484 -12.7585
   -12.7415 -12.7271 -12.6114 -12.5709 -12.5296 -12.3315 -12.1859 -11.9951
   -11.9207 -11.8493 -11.7750 -11.7646 -11.7413 -11.7240 -11.6602 -11.6434
   -11.6077 -11.5794 -11.4679 -11.3880 -11.3843  -2.9294  -2.6974  -2.4677
    -2.3208  -2.2577  -2.1160  -1.8086  -1.7945  -1.7752  -1.6910  -1.6707
    -1.6030  -1.5863  -1.5447  -1.5027  -1.3197  -1.1512  -1.0933  -1.0648
    -0.9192  -0.9047  -0.8564  -0.8399  -0.7937  -0.7753  -0.7218  -0.6953
    -0.6178  -0.6093  -0.5349  -0.4022  -0.3901  -0.3615  -0.2798  -0.2581
    -0.2536  -0.1905  -0.1152  -0.0494  -0.0188   0.0152   0.0885   0.1413
     0.1940   0.2118   0.2312   0.4860   0.5019   0.6741   0.7388   0.8108
     0.8573   0.9376   0.9525   0.9643   1.0370   1.0623   1.0974   1.1548
     1.2856   1.3476   1.3657   1.3840   1.4006   1.4649   1.5333   1.6443
     1.6528   1.7277   1.7324   1.7759   1.7881   1.8004   1.8592   1.9168
     1.9362   1.9695   2.0047   2.0421   2.1718   2.2642   2.3009   2.3113
     2.4375   2.4635   2.4855   2.5177   2.5246   2.5389   2.6334   2.6699
     2.6953   2.7140   2.7287   2.8114   2.9190   2.9511   2.9633   2.9694
     3.0370   3.0415   3.0649   3.0726   3.0814   3.0948   3.1009   3.1150
     3.1207   3.1323   3.1409   3.1501   3.1689   3.1897   3.1946   3.2071
     3.2372   3.3482   3.4225   4.1187   4.4491   4.7799   4.8718   5.0614
     5.7596   5.9540   5.9969   6.0148   6.3256   6.3726   6.4866   6.4973
     6.7326   7.0113   7.1007   7.3273   7.4353   7.5970   7.6694   7.6744
     7.7242   7.8782   7.9537   8.0176   8.1198   8.1724   8.4541   8.4590
     8.7314   8.8618   8.8830

     occupation numbers 
     1.0000   1.0000   1.0000   1.0000   1.0000   1.0000   1.0000   1.0000
     1.0000   1.0000   1.0000   1.0000   1.0000   1.0000   1.0000   1.0000
     1.0000   1.0000   1.0000   1.0000   1.0000   1.0000   1.0000   1.0000
     1.0000   1.0000   1.0000   1.0000   1.0000   1.0000   1.0000   1.0000
     1.0000   1.0000   1.0000   1.0000   1.0000   1.0000   1.0000   1.0000
     1.0000   1.0000   1.0000   1.0000   1.0000   1.0000   1.0000   1.0000
     1.0000   1.0000   1.0000   1.0000   1.0000   1.0000   1.0000   1.0000
     1.0000   1.0000   1.0000   1.0000   1.0000   1.0000   1.0000   1.0000
     1.0000   1.0000   1.0000   1.0000   1.0000   1.0000   1.0000   1.0000
     1.0000   1.0000   1.0000   1.0000   1.0000   1.0000   1.0000   1.0000
     1.0000   1.0000   1.0000   1.0000   1.0000   1.0000   1.0000   1.0000
     1.0000   1.0000   1.0000   1.0000   1.0000   1.0000   1.0000   1.0000
     1.0000   1.0000   1.0000   1.0000   1.0000   1.0000   1.0000   1.0000
     1.0000   1.0000   1.0000   1.0000   1.0000   1.0000   1.0000   1.0000
     1.0000   1.0000   1.0000   1.0000   1.0000   1.0000   1.0000   1.0000
     1.0000   1.0000   1.0000   1.0000   1.0000   1.0000   1.0000   1.0000
     1.0000   1.0000   1.0000   1.0000   1.0000   1.0000   1.0000   1.0000
     1.0000   1.0000   1.0000   1.0000   1.0000   1.0000   1.0000   1.0000
     1.0000   1.0000   1.0000   1.0000   1.0000   1.0000   1.0000   1.0000
     1.0000   1.0000   1.0000   1.0000   1.0000   1.0000   0.9999   0.9999
     0.9999   0.9998   0.9998   0.9998   0.9997   0.9996   0.9996   0.9994
     0.9988   0.9984   0.9983   0.9981   0.9980   0.9973   0.9963   0.9941
     0.9938   0.9916   0.9914   0.9898   0.9893   0.9888   0.9860   0.9826
     0.9813   0.9789   0.9762   0.9729   0.9584   0.9446   0.9383   0.9364
     0.9095   0.9030   0.8973   0.8885   0.8865   0.8824   0.8524   0.8395
     0.8301   0.8230   0.8173   0.7830   0.7332   0.7173   0.7111   0.7080
     0.6727   0.6703   0.6576   0.6534   0.6486   0.6412   0.6378   0.6298
     0.6267   0.6201   0.6153   0.6100   0.5993   0.5873   0.5845   0.5772
     0.5596   0.4941   0.4502   0.1233   0.0495   0.0161   0.0114   0.0053
     0.0002   0.0001   0.0000   0.0000   0.0000   0.0000   0.0000   0.0000
     0.0000   0.0000   0.0000   0.0000   0.0000   0.0000   0.0000   0.0000
     0.0000   0.0000   0.0000   0.0000   0.0000   0.0000   0.0000   0.0000
     0.0000   0.0000   0.0000

          k = 0.0000 0.2500 0.0000 ( 65257 PWs)   bands (ev):

   -92.6896 -92.6374 -92.5432 -92.4971 -92.4412 -92.3963 -92.3783 -92.2561
   -56.0431 -56.0241 -55.9006 -55.8902 -55.8831 -55.8770 -55.8412 -55.8125
   -55.7967 -55.7959 -55.7883 -55.7475 -55.7284 -55.6921 -55.6696 -55.6408
   -55.6327 -55.5840 -55.5824 -55.5814 -55.5729 -55.5309 -55.5087 -55.4226
   -31.2667 -31.2473 -31.1064 -31.0323 -31.0193 -31.0030 -30.7797 -30.6582
   -29.8353 -29.7920 -29.7690 -29.6593 -15.0332 -14.9974 -14.9195 -14.7851
   -14.6608 -14.4870 -14.3525 -14.1733 -14.1355 -14.1162 -14.0885 -14.0284
   -14.0222 -14.0088 -13.9854 -13.9625 -13.9326 -13.8361 -13.7951 -13.6365
   -13.6109 -13.5647 -13.5308 -13.4853 -13.4394 -13.3877 -13.3310 -13.2967
   -13.2185 -13.1546 -13.1364 -13.0976 -13.0790 -13.0301 -12.9785 -12.9551
   -12.9263 -12.9096 -12.8887 -12.8554 -12.7992 -12.7879 -12.7827 -12.7556
   -12.7193 -12.7042 -12.5831 -12.4828 -12.4310 -12.3928 -12.2371 -12.0516
   -11.9884 -11.8148 -11.7718 -11.7442 -11.7165 -11.6999 -11.6519 -11.6409
   -11.6184 -11.5830 -11.4824 -11.4297 -11.4190  -2.7941  -2.5731  -2.4351
    -2.2533  -2.2097  -2.0463  -1.8270  -1.7425  -1.7295  -1.6722  -1.5683
    -1.5526  -1.5206  -1.4924  -1.4489  -1.2513  -1.1505  -1.1209  -1.1079
    -1.0342  -1.0226  -0.9188  -0.8899  -0.8321  -0.8062  -0.7663  -0.7022
    -0.6740  -0.6429  -0.6082  -0.5929  -0.5589  -0.4867  -0.4366  -0.3723
    -0.2553  -0.2392  -0.1956  -0.0731  -0.0225   0.0221   0.0727   0.1259
     0.1464   0.1742   0.2397   0.5353   0.6202   0.6590   0.7461   0.7870
     0.8122   0.9221   0.9402   1.0393   1.0660   1.0894   1.2022   1.2979
     1.3219   1.3455   1.3607   1.3870   1.4480   1.4745   1.5036   1.5500
     1.5866   1.6178   1.7077   1.7370   1.7782   1.8220   1.8839   1.9353
     1.9538   1.9725   1.9927   2.0894   2.2143   2.2830   2.2976   2.3722
     2.4188   2.4375   2.4695   2.4781   2.5124   2.5296   2.5663   2.6497
     2.6886   2.7056   2.8770   2.8991   2.9330   2.9543   2.9701   2.9785
     2.9868   2.9950   3.0246   3.0267   3.0450   3.0491   3.0592   3.0782
     3.0902   3.0974   3.1190   3.1309   3.1354   3.1707   3.1876   3.2476
     3.6263   3.6479   3.8899   4.3097   4.4444   4.7249   5.0254   5.0801
     5.6557   5.8052   5.9248   5.9998   6.0948   6.1159   6.1951   6.6036
     6.8404   7.0625   7.1131   7.3382   7.4953   7.5073   7.6415   7.6519
     7.8706   7.9231   8.0101   8.1851   8.2328   8.3765   8.4145   8.4772
     8.6136   8.8422   8.9460

     occupation numbers 
     1.0000   1.0000   1.0000   1.0000   1.0000   1.0000   1.0000   1.0000
     1.0000   1.0000   1.0000   1.0000   1.0000   1.0000   1.0000   1.0000
     1.0000   1.0000   1.0000   1.0000   1.0000   1.0000   1.0000   1.0000
     1.0000   1.0000   1.0000   1.0000   1.0000   1.0000   1.0000   1.0000
     1.0000   1.0000   1.0000   1.0000   1.0000   1.0000   1.0000   1.0000
     1.0000   1.0000   1.0000   1.0000   1.0000   1.0000   1.0000   1.0000
     1.0000   1.0000   1.0000   1.0000   1.0000   1.0000   1.0000   1.0000
     1.0000   1.0000   1.0000   1.0000   1.0000   1.0000   1.0000   1.0000
     1.0000   1.0000   1.0000   1.0000   1.0000   1.0000   1.0000   1.0000
     1.0000   1.0000   1.0000   1.0000   1.0000   1.0000   1.0000   1.0000
     1.0000   1.0000   1.0000   1.0000   1.0000   1.0000   1.0000   1.0000
     1.0000   1.0000   1.0000   1.0000   1.0000   1.0000   1.0000   1.0000
     1.0000   1.0000   1.0000   1.0000   1.0000   1.0000   1.0000   1.0000
     1.0000   1.0000   1.0000   1.0000   1.0000   1.0000   1.0000   1.0000
     1.0000   1.0000   1.0000   1.0000   1.0000   1.0000   1.0000   1.0000
     1.0000   1.0000   1.0000   1.0000   1.0000   1.0000   1.0000   1.0000
     1.0000   1.0000   1.0000   1.0000   1.0000   1.0000   1.0000   1.0000
     1.0000   1.0000   1.0000   1.0000   1.0000   1.0000   1.0000   1.0000
     1.0000   1.0000   1.0000   1.0000   1.0000   1.0000   1.0000   1.0000
     1.0000   1.0000   1.0000   1.0000   1.0000   1.0000   0.9999   0.9999
     0.9999   0.9998   0.9998   0.9997   0.9996   0.9996   0.9992   0.9988
     0.9986   0.9985   0.9983   0.9981   0.9975   0.9972   0.9968   0.9960
     0.9954   0.9947   0.9923   0.9913   0.9897   0.9878   0.9846   0.9814
     0.9801   0.9787   0.9771   0.9682   0.9524   0.9414   0.9389   0.9243
     0.9139   0.9095   0.9015   0.8992   0.8899   0.8851   0.8742   0.8467
     0.8326   0.8263   0.7533   0.7428   0.7264   0.7157   0.7077   0.7034
     0.6991   0.6949   0.6793   0.6782   0.6684   0.6662   0.6607   0.6503
     0.6437   0.6397   0.6276   0.6209   0.6184   0.5982   0.5885   0.5535
     0.3344   0.3228   0.2064   0.0746   0.0502   0.0197   0.0061   0.0048
     0.0003   0.0001   0.0001   0.0000   0.0000   0.0000   0.0000   0.0000
     0.0000   0.0000   0.0000   0.0000   0.0000   0.0000   0.0000   0.0000
     0.0000   0.0000   0.0000   0.0000   0.0000   0.0000   0.0000   0.0000
     0.0000   0.0000   0.0000

          k = 0.0000-0.5000 0.0000 ( 65180 PWs)   bands (ev):

   -92.6896 -92.6374 -92.5432 -92.4971 -92.4412 -92.3963 -92.3783 -92.2561
   -56.0431 -56.0241 -55.9006 -55.8902 -55.8831 -55.8770 -55.8412 -55.8125
   -55.7967 -55.7959 -55.7883 -55.7475 -55.7284 -55.6921 -55.6696 -55.6408
   -55.6327 -55.5840 -55.5824 -55.5814 -55.5729 -55.5309 -55.5087 -55.4226
   -31.2665 -31.2472 -31.1066 -31.0312 -31.0195 -31.0040 -30.7795 -30.6584
   -29.8347 -29.7917 -29.7696 -29.6596 -14.9973 -14.9484 -14.8966 -14.7624
   -14.6847 -14.5438 -14.3964 -14.2620 -14.1460 -14.0729 -14.0291 -14.0233
   -13.9735 -13.9614 -13.9574 -13.9123 -13.8884 -13.8649 -13.8274 -13.7726
   -13.7471 -13.5718 -13.5136 -13.4918 -13.4455 -13.3757 -13.3471 -13.3005
   -13.2722 -13.2386 -13.2071 -13.0984 -13.0799 -13.0096 -12.9702 -12.9567
   -12.9404 -12.9181 -12.8710 -12.7938 -12.7711 -12.7548 -12.7063 -12.6944
   -12.6858 -12.6409 -12.5732 -12.5038 -12.3563 -12.3122 -12.2220 -12.1529
   -12.1337 -11.7687 -11.7664 -11.7393 -11.7030 -11.6682 -11.6571 -11.6133
   -11.6094 -11.5638 -11.5046 -11.4906 -11.4763  -2.5794  -2.5203  -2.3698
    -2.2980  -2.0162  -1.9327  -1.8059  -1.6682  -1.6316  -1.6111  -1.5340
    -1.4997  -1.4203  -1.3840  -1.3061  -1.2670  -1.2281  -1.2018  -1.1504
    -1.1423  -1.1068  -1.0539  -1.0223  -0.9912  -0.9534  -0.8469  -0.8019
    -0.7664  -0.7652  -0.6779  -0.6469  -0.6222  -0.5753  -0.4916  -0.4142
    -0.3288  -0.3025  -0.1815  -0.1551  -0.0180   0.0191   0.0547   0.0973
     0.2352   0.3009   0.4037   0.4749   0.4818   0.6105   0.6748   0.7578
     0.8952   0.9938   1.0274   1.0673   1.0746   1.1086   1.1263   1.1632
     1.1837   1.1961   1.3045   1.3610   1.3869   1.4119   1.6805   1.7137
     1.7477   1.8300   1.8490   1.8896   1.9076   1.9272   1.9544   1.9647
     1.9850   2.0172   2.0430   2.0749   2.0784   2.1115   2.1666   2.2537
     2.2938   2.4418   2.4601   2.5031   2.6162   2.6320   2.6411   2.6813
     2.6869   2.6959   2.7445   2.7563   2.8104   2.8327   2.9129   2.9216
     2.9934   2.9971   3.0210   3.0256   3.0420   3.0462   3.0493   3.0553
     3.0588   3.0717   3.0894   3.0912   3.1554   3.1610   3.1772   3.2328
     4.1354   4.1693   4.2195   4.2682   4.7446   4.9223   5.0357   5.1741
     5.4219   5.4740   5.5949   5.7315   6.0351   6.0601   6.2759   6.4828
     6.8593   6.9593   7.2345   7.2849   7.3681   7.4859   7.7383   7.7643
     7.9183   7.9918   8.1555   8.3008   8.3347   8.4911   8.5488   8.6788
     8.8238   8.8628   8.8906

     occupation numbers 
     1.0000   1.0000   1.0000   1.0000   1.0000   1.0000   1.0000   1.0000
     1.0000   1.0000   1.0000   1.0000   1.0000   1.0000   1.0000   1.0000
     1.0000   1.0000   1.0000   1.0000   1.0000   1.0000   1.0000   1.0000
     1.0000   1.0000   1.0000   1.0000   1.0000   1.0000   1.0000   1.0000
     1.0000   1.0000   1.0000   1.0000   1.0000   1.0000   1.0000   1.0000
     1.0000   1.0000   1.0000   1.0000   1.0000   1.0000   1.0000   1.0000
     1.0000   1.0000   1.0000   1.0000   1.0000   1.0000   1.0000   1.0000
     1.0000   1.0000   1.0000   1.0000   1.0000   1.0000   1.0000   1.0000
     1.0000   1.0000   1.0000   1.0000   1.0000   1.0000   1.0000   1.0000
     1.0000   1.0000   1.0000   1.0000   1.0000   1.0000   1.0000   1.0000
     1.0000   1.0000   1.0000   1.0000   1.0000   1.0000   1.0000   1.0000
     1.0000   1.0000   1.0000   1.0000   1.0000   1.0000   1.0000   1.0000
     1.0000   1.0000   1.0000   1.0000   1.0000   1.0000   1.0000   1.0000
     1.0000   1.0000   1.0000   1.0000   1.0000   1.0000   1.0000   1.0000
     1.0000   1.0000   1.0000   1.0000   1.0000   1.0000   1.0000   1.0000
     1.0000   1.0000   1.0000   1.0000   1.0000   1.0000   1.0000   1.0000
     1.0000   1.0000   1.0000   1.0000   1.0000   1.0000   1.0000   1.0000
     1.0000   1.0000   1.0000   1.0000   1.0000   1.0000   1.0000   1.0000
     1.0000   1.0000   1.0000   1.0000   1.0000   1.0000   1.0000   1.0000
     1.0000   1.0000   1.0000   1.0000   1.0000   1.0000   1.0000   0.9999
     0.9999   0.9998   0.9997   0.9996   0.9996   0.9995   0.9995   0.9994
     0.9993   0.9993   0.9987   0.9983   0.9981   0.9979   0.9931   0.9921
     0.9909   0.9874   0.9865   0.9843   0.9832   0.9819   0.9801   0.9793
     0.9778   0.9751   0.9728   0.9697   0.9693   0.9657   0.9591   0.9464
     0.9395   0.9084   0.9039   0.8925   0.8582   0.8528   0.8497   0.8354
     0.8333   0.8299   0.8110   0.8063   0.7834   0.7736   0.7362   0.7320
     0.6957   0.6938   0.6812   0.6788   0.6700   0.6677   0.6661   0.6628
     0.6609   0.6539   0.6441   0.6431   0.6070   0.6038   0.5945   0.5622
     0.1183   0.1086   0.0954   0.0837   0.0184   0.0093   0.0059   0.0032
     0.0010   0.0008   0.0004   0.0002   0.0000   0.0000   0.0000   0.0000
     0.0000   0.0000   0.0000   0.0000   0.0000   0.0000   0.0000   0.0000
     0.0000   0.0000   0.0000   0.0000   0.0000   0.0000   0.0000   0.0000
     0.0000   0.0000   0.0000

          k = 0.2500 0.2500 0.0000 ( 65198 PWs)   bands (ev):

   -92.6896 -92.6374 -92.5432 -92.4971 -92.4412 -92.3963 -92.3783 -92.2561
   -56.0431 -56.0241 -55.9006 -55.8902 -55.8831 -55.8770 -55.8412 -55.8125
   -55.7967 -55.7959 -55.7883 -55.7475 -55.7284 -55.6921 -55.6696 -55.6408
   -55.6327 -55.5840 -55.5824 -55.5814 -55.5729 -55.5309 -55.5087 -55.4226
   -31.2650 -31.2490 -31.1060 -31.0321 -31.0197 -31.0029 -30.7799 -30.6582
   -29.8343 -29.7930 -29.7686 -29.6597 -15.0043 -14.9626 -14.8917 -14.7744
   -14.6542 -14.5272 -14.4582 -14.2488 -14.0967 -14.0827 -14.0460 -14.0159
   -13.9931 -13.9682 -13.9621 -13.9279 -13.8997 -13.8279 -13.8090 -13.6517
   -13.6358 -13.6074 -13.5878 -13.5340 -13.4985 -13.4156 -13.4075 -13.2726
   -13.2458 -13.2178 -13.1303 -13.0907 -13.0388 -13.0085 -13.0015 -12.9690
   -12.9358 -12.9172 -12.8992 -12.8385 -12.7972 -12.7500 -12.7321 -12.7035
   -12.6995 -12.6424 -12.5681 -12.4413 -12.4288 -12.3755 -12.2662 -12.0864
   -12.0265 -11.7871 -11.7554 -11.7445 -11.7377 -11.6747 -11.6409 -11.6338
   -11.5977 -11.5906 -11.4989 -11.4579 -11.4404  -2.6558  -2.4473  -2.3291
    -2.2352  -2.1142  -2.0496  -1.8519  -1.7070  -1.6883  -1.6589  -1.5631
    -1.5309  -1.4353  -1.4084  -1.3578  -1.2278  -1.1788  -1.1481  -1.1046
    -1.0595  -1.0163  -0.9926  -0.9686  -0.9256  -0.9104  -0.8197  -0.7688
    -0.7036  -0.6543  -0.6225  -0.5759  -0.5594  -0.4975  -0.4484  -0.3913
    -0.3584  -0.2717  -0.2147  -0.1893  -0.1509  -0.0963   0.0018   0.0196
     0.0395   0.1271   0.1518   0.4227   0.5729   0.6058   0.6720   0.7162
     0.7630   0.8221   0.8891   0.9149   1.1870   1.2536   1.3273   1.3525
     1.4012   1.4318   1.4683   1.5061   1.5220   1.5499   1.5965   1.6028
     1.6182   1.6607   1.7000   1.7399   1.8130   1.8462   1.8545   1.8981
     1.9235   1.9774   2.0044   2.1285   2.1933   2.2288   2.2468   2.3132
     2.3830   2.4084   2.4363   2.4465   2.4771   2.4839   2.5141   2.5946
     2.6302   2.7182   2.8885   2.9049   2.9114   2.9277   2.9432   2.9551
     2.9689   2.9750   2.9854   2.9990   3.0111   3.0293   3.0350   3.0473
     3.0694   3.0811   3.0909   3.1222   3.4226   3.5164   3.5585   3.6336
     3.6609   3.8671   3.9657   4.3238   4.5278   4.7278   4.9991   5.1719
     5.6606   5.7126   5.7713   5.8478   5.9073   6.0780   6.1681   6.2189
     6.9034   6.9415   7.0751   7.2822   7.5595   7.6143   7.7216   7.8467
     7.8966   8.0202   8.1806   8.2480   8.3150   8.3698   8.4375   8.4567
     8.5538   8.8333   8.9126

     occupation numbers 
     1.0000   1.0000   1.0000   1.0000   1.0000   1.0000   1.0000   1.0000
     1.0000   1.0000   1.0000   1.0000   1.0000   1.0000   1.0000   1.0000
     1.0000   1.0000   1.0000   1.0000   1.0000   1.0000   1.0000   1.0000
     1.0000   1.0000   1.0000   1.0000   1.0000   1.0000   1.0000   1.0000
     1.0000   1.0000   1.0000   1.0000   1.0000   1.0000   1.0000   1.0000
     1.0000   1.0000   1.0000   1.0000   1.0000   1.0000   1.0000   1.0000
     1.0000   1.0000   1.0000   1.0000   1.0000   1.0000   1.0000   1.0000
     1.0000   1.0000   1.0000   1.0000   1.0000   1.0000   1.0000   1.0000
     1.0000   1.0000   1.0000   1.0000   1.0000   1.0000   1.0000   1.0000
     1.0000   1.0000   1.0000   1.0000   1.0000   1.0000   1.0000   1.0000
     1.0000   1.0000   1.0000   1.0000   1.0000   1.0000   1.0000   1.0000
     1.0000   1.0000   1.0000   1.0000   1.0000   1.0000   1.0000   1.0000
     1.0000   1.0000   1.0000   1.0000   1.0000   1.0000   1.0000   1.0000
     1.0000   1.0000   1.0000   1.0000   1.0000   1.0000   1.0000   1.0000
     1.0000   1.0000   1.0000   1.0000   1.0000   1.0000   1.0000   1.0000
     1.0000   1.0000   1.0000   1.0000   1.0000   1.0000   1.0000   1.0000
     1.0000   1.0000   1.0000   1.0000   1.0000   1.0000   1.0000   1.0000
     1.0000   1.0000   1.0000   1.0000   1.0000   1.0000   1.0000   1.0000
     1.0000   1.0000   1.0000   1.0000   1.0000   1.0000   1.0000   1.0000
     1.0000   1.0000   1.0000   1.0000   1.0000   1.0000   1.0000   1.0000
     0.9999   0.9999   0.9999   0.9998   0.9993   0.9990   0.9986   0.9984
     0.9980   0.9977   0.9973   0.9967   0.9965   0.9960   0.9951   0.9950
     0.9947   0.9936   0.9925   0.9912   0.9882   0.9866   0.9862   0.9838
     0.9822   0.9783   0.9762   0.9638   0.9554   0.9503   0.9475   0.9360
     0.9220   0.9163   0.9098   0.9073   0.8995   0.8977   0.8895   0.8652
     0.8535   0.8214   0.7479   0.7401   0.7369   0.7289   0.7213   0.7153
     0.7083   0.7052   0.6998   0.6928   0.6864   0.6768   0.6738   0.6671
     0.6552   0.6487   0.6433   0.6258   0.4502   0.3957   0.3718   0.3305
     0.3159   0.2161   0.1757   0.0717   0.0387   0.0195   0.0068   0.0032
     0.0003   0.0002   0.0002   0.0001   0.0001   0.0000   0.0000   0.0000
     0.0000   0.0000   0.0000   0.0000   0.0000   0.0000   0.0000   0.0000
     0.0000   0.0000   0.0000   0.0000   0.0000   0.0000   0.0000   0.0000
     0.0000   0.0000   0.0000

          k = 0.2500-0.5000 0.0000 ( 65138 PWs)   bands (ev):

   -92.6896 -92.6374 -92.5432 -92.4971 -92.4412 -92.3963 -92.3783 -92.2561
   -56.0431 -56.0241 -55.9006 -55.8902 -55.8831 -55.8770 -55.8412 -55.8125
   -55.7967 -55.7959 -55.7883 -55.7475 -55.7284 -55.6921 -55.6696 -55.6408
   -55.6327 -55.5840 -55.5824 -55.5814 -55.5729 -55.5309 -55.5087 -55.4226
   -31.2648 -31.2489 -31.1062 -31.0311 -31.0198 -31.0040 -30.7796 -30.6585
   -29.8337 -29.7927 -29.7692 -29.6600 -14.9667 -14.9215 -14.8534 -14.7327
   -14.7070 -14.5855 -14.4976 -14.3612 -14.0614 -14.0067 -13.9802 -13.9615
   -13.9580 -13.9420 -13.9307 -13.8961 -13.8773 -13.8415 -13.8074 -13.7734
   -13.7302 -13.6543 -13.6054 -13.5507 -13.5273 -13.4575 -13.4177 -13.3335
   -13.2997 -13.1957 -13.1313 -13.1077 -13.0225 -12.9959 -12.9744 -12.9544
   -12.9403 -12.9304 -12.9005 -12.7955 -12.7738 -12.7479 -12.7114 -12.7035
   -12.6447 -12.6133 -12.5742 -12.5101 -12.3431 -12.3096 -12.2084 -12.1421
   -12.1275 -11.7626 -11.7506 -11.7400 -11.7132 -11.6809 -11.6536 -11.6108
   -11.5845 -11.5612 -11.5174 -11.4918 -11.4801  -2.4373  -2.3722  -2.2436
    -2.1667  -2.0365  -1.9529  -1.8303  -1.6796  -1.6264  -1.6032  -1.5404
    -1.5277  -1.4313  -1.3625  -1.2782  -1.2284  -1.2185  -1.1573  -1.1488
    -1.1134  -1.0792  -1.0315  -0.9933  -0.9581  -0.9196  -0.9087  -0.8619
    -0.8325  -0.7908  -0.7596  -0.6933  -0.5921  -0.5522  -0.4734  -0.4066
    -0.3564  -0.3165  -0.2959  -0.2327  -0.0766  -0.0643   0.0313   0.0687
     0.0748   0.1176   0.1637   0.1965   0.2274   0.2895   0.5716   0.6863
     0.7222   0.7885   1.0541   1.0759   1.1643   1.1851   1.3505   1.3846
     1.4257   1.4503   1.4637   1.4847   1.5463   1.5937   1.6296   1.7037
     1.8161   1.8456   1.8671   1.8695   1.9128   1.9221   1.9422   1.9806
     1.9875   2.0120   2.0315   2.0545   2.0723   2.1074   2.1668   2.2083
     2.2891   2.4182   2.4447   2.5016   2.5687   2.5855   2.6041   2.6327
     2.6608   2.6822   2.7036   2.7177   2.7407   2.8381   2.8902   2.9066
     2.9096   2.9250   2.9449   2.9585   2.9778   2.9863   3.0193   3.0289
     3.0440   3.0527   3.0603   3.0722   3.5922   3.6118   3.7546   3.8109
     4.1495   4.2047   4.2170   4.3296   4.7650   4.9433   5.0727   5.1479
     5.3165   5.4405   5.6142   5.6415   5.7809   5.7999   6.3697   6.4051
     6.4986   6.6118   7.2461   7.3405   7.5767   7.7077   7.8191   7.8712
     7.9129   8.0491   8.2804   8.4114   8.4747   8.5293   8.5598   8.5760
     8.7227   8.7545   8.7908

     occupation numbers 
     1.0000   1.0000   1.0000   1.0000   1.0000   1.0000   1.0000   1.0000
     1.0000   1.0000   1.0000   1.0000   1.0000   1.0000   1.0000   1.0000
     1.0000   1.0000   1.0000   1.0000   1.0000   1.0000   1.0000   1.0000
     1.0000   1.0000   1.0000   1.0000   1.0000   1.0000   1.0000   1.0000
     1.0000   1.0000   1.0000   1.0000   1.0000   1.0000   1.0000   1.0000
     1.0000   1.0000   1.0000   1.0000   1.0000   1.0000   1.0000   1.0000
     1.0000   1.0000   1.0000   1.0000   1.0000   1.0000   1.0000   1.0000
     1.0000   1.0000   1.0000   1.0000   1.0000   1.0000   1.0000   1.0000
     1.0000   1.0000   1.0000   1.0000   1.0000   1.0000   1.0000   1.0000
     1.0000   1.0000   1.0000   1.0000   1.0000   1.0000   1.0000   1.0000
     1.0000   1.0000   1.0000   1.0000   1.0000   1.0000   1.0000   1.0000
     1.0000   1.0000   1.0000   1.0000   1.0000   1.0000   1.0000   1.0000
     1.0000   1.0000   1.0000   1.0000   1.0000   1.0000   1.0000   1.0000
     1.0000   1.0000   1.0000   1.0000   1.0000   1.0000   1.0000   1.0000
     1.0000   1.0000   1.0000   1.0000   1.0000   1.0000   1.0000   1.0000
     1.0000   1.0000   1.0000   1.0000   1.0000   1.0000   1.0000   1.0000
     1.0000   1.0000   1.0000   1.0000   1.0000   1.0000   1.0000   1.0000
     1.0000   1.0000   1.0000   1.0000   1.0000   1.0000   1.0000   1.0000
     1.0000   1.0000   1.0000   1.0000   1.0000   1.0000   1.0000   1.0000
     1.0000   1.0000   1.0000   1.0000   1.0000   1.0000   1.0000   1.0000
     0.9999   0.9999   0.9997   0.9996   0.9994   0.9993   0.9984   0.9981
     0.9977   0.9975   0.9973   0.9970   0.9961   0.9952   0.9944   0.9924
     0.9881   0.9867   0.9855   0.9854   0.9829   0.9823   0.9809   0.9781
     0.9776   0.9755   0.9738   0.9717   0.9699   0.9662   0.9590   0.9533
     0.9404   0.9141   0.9077   0.8929   0.8734   0.8682   0.8622   0.8526
     0.8428   0.8350   0.8270   0.8216   0.8125   0.7711   0.7471   0.7392
     0.7378   0.7303   0.7204   0.7136   0.7038   0.6994   0.6821   0.6770
     0.6689   0.6642   0.6601   0.6536   0.3531   0.3423   0.2682   0.2414
     0.1142   0.0991   0.0960   0.0705   0.0171   0.0086   0.0050   0.0036
     0.0017   0.0009   0.0004   0.0003   0.0001   0.0001   0.0000   0.0000
     0.0000   0.0000   0.0000   0.0000   0.0000   0.0000   0.0000   0.0000
     0.0000   0.0000   0.0000   0.0000   0.0000   0.0000   0.0000   0.0000
     0.0000   0.0000   0.0000

          k =-0.5000-0.5000 0.0000 ( 65132 PWs)   bands (ev):

   -92.6896 -92.6374 -92.5432 -92.4971 -92.4412 -92.3963 -92.3783 -92.2561
   -56.0431 -56.0241 -55.9006 -55.8902 -55.8831 -55.8770 -55.8412 -55.8125
   -55.7967 -55.7959 -55.7883 -55.7475 -55.7284 -55.6921 -55.6696 -55.6408
   -55.6327 -55.5840 -55.5824 -55.5813 -55.5729 -55.5309 -55.5087 -55.4226
   -31.2627 -31.2510 -31.1058 -31.0310 -31.0202 -31.0039 -30.7797 -30.6586
   -29.8327 -29.7937 -29.7688 -29.6604 -14.9199 -14.8948 -14.7756 -14.7653
   -14.6703 -14.6335 -14.5966 -14.4622 -13.9707 -13.9612 -13.9575 -13.9244
   -13.9077 -13.8893 -13.8767 -13.8460 -13.8365 -13.8239 -13.8098 -13.7952
   -13.7218 -13.7136 -13.6800 -13.6493 -13.6369 -13.5470 -13.4684 -13.3626
   -13.3574 -13.1453 -13.1054 -13.0403 -13.0146 -12.9876 -12.9733 -12.9641
   -12.9554 -12.9412 -12.9171 -12.7876 -12.7776 -12.7509 -12.7239 -12.7026
   -12.5965 -12.5876 -12.5803 -12.5260 -12.3305 -12.3057 -12.1943 -12.1312
   -12.1211 -11.7595 -11.7469 -11.7289 -11.7126 -11.6769 -11.6585 -11.6264
   -11.5651 -11.5446 -11.5393 -11.4892 -11.4857  -2.2131  -2.1372  -2.1274
    -2.0574  -2.0177  -1.9393  -1.8714  -1.7459  -1.6304  -1.5996  -1.5604
    -1.5031  -1.4310  -1.4172  -1.3453  -1.3039  -1.1864  -1.1570  -1.1485
    -1.1070  -1.0806  -1.0161  -0.9695  -0.9501  -0.9375  -0.8852  -0.8411
    -0.8242  -0.7112  -0.6525  -0.6082  -0.5573  -0.5318  -0.5200  -0.4845
    -0.4404  -0.4055  -0.3954  -0.3096  -0.2352  -0.1984  -0.1668  -0.0976
    -0.0331  -0.0209   0.0361   0.0563   0.0664   0.0759   0.5367   0.6233
     0.6667   0.7104   1.0854   1.1010   1.1263   1.1634   1.4347   1.4553
     1.4601   1.4982   1.6290   1.7256   1.7526   1.7898   1.8219   1.8341
     1.8443   1.8751   1.8897   1.9087   1.9215   1.9574   1.9646   1.9919
     2.0257   2.0310   2.0460   2.0893   2.1076   2.1191   2.1534   2.1812
     2.2453   2.3117   2.4355   2.4968   2.5854   2.6119   2.6329   2.6497
     2.6670   2.6925   2.6937   2.7136   2.7248   2.7414   2.7643   2.7738
     2.8385   2.8429   2.8624   2.8785   2.8903   2.9087   2.9147   2.9251
     3.0251   3.0323   3.0577   3.0674   4.0084   4.0492   4.0942   4.1205
     4.3300   4.4036   4.4299   4.6709   4.7927   4.8755   5.0047   5.0940
     5.1097   5.2178   5.3129   5.4164   5.8593   5.8946   5.9664   6.0362
     6.5704   6.8620   6.9012   7.1396   7.8988   7.9292   7.9714   7.9808
     7.9945   8.0452   8.0971   8.2813   8.4653   8.5972   8.6271   8.6674
     8.6730   8.7403   8.7544

     occupation numbers 
     1.0000   1.0000   1.0000   1.0000   1.0000   1.0000   1.0000   1.0000
     1.0000   1.0000   1.0000   1.0000   1.0000   1.0000   1.0000   1.0000
     1.0000   1.0000   1.0000   1.0000   1.0000   1.0000   1.0000   1.0000
     1.0000   1.0000   1.0000   1.0000   1.0000   1.0000   1.0000   1.0000
     1.0000   1.0000   1.0000   1.0000   1.0000   1.0000   1.0000   1.0000
     1.0000   1.0000   1.0000   1.0000   1.0000   1.0000   1.0000   1.0000
     1.0000   1.0000   1.0000   1.0000   1.0000   1.0000   1.0000   1.0000
     1.0000   1.0000   1.0000   1.0000   1.0000   1.0000   1.0000   1.0000
     1.0000   1.0000   1.0000   1.0000   1.0000   1.0000   1.0000   1.0000
     1.0000   1.0000   1.0000   1.0000   1.0000   1.0000   1.0000   1.0000
     1.0000   1.0000   1.0000   1.0000   1.0000   1.0000   1.0000   1.0000
     1.0000   1.0000   1.0000   1.0000   1.0000   1.0000   1.0000   1.0000
     1.0000   1.0000   1.0000   1.0000   1.0000   1.0000   1.0000   1.0000
     1.0000   1.0000   1.0000   1.0000   1.0000   1.0000   1.0000   1.0000
     1.0000   1.0000   1.0000   1.0000   1.0000   1.0000   1.0000   1.0000
     1.0000   1.0000   1.0000   1.0000   1.0000   1.0000   1.0000   1.0000
     1.0000   1.0000   1.0000   1.0000   1.0000   1.0000   1.0000   1.0000
     1.0000   1.0000   1.0000   1.0000   1.0000   1.0000   1.0000   1.0000
     1.0000   1.0000   1.0000   1.0000   1.0000   1.0000   1.0000   1.0000
     1.0000   1.0000   1.0000   1.0000   1.0000   1.0000   1.0000   1.0000
     1.0000   1.0000   0.9996   0.9996   0.9995   0.9994   0.9976   0.9974
     0.9974   0.9969   0.9944   0.9917   0.9907   0.9893   0.9878   0.9872
     0.9867   0.9851   0.9843   0.9831   0.9823   0.9798   0.9793   0.9772
     0.9744   0.9739   0.9725   0.9682   0.9662   0.9649   0.9607   0.9571
     0.9477   0.9363   0.9100   0.8942   0.8682   0.8596   0.8525   0.8467
     0.8406   0.8312   0.8308   0.8232   0.8188   0.8122   0.8029   0.7990
     0.7710   0.7690   0.7601   0.7526   0.7470   0.7382   0.7353   0.7302
     0.6790   0.6752   0.6615   0.6562   0.1598   0.1456   0.1308   0.1227
     0.0704   0.0568   0.0525   0.0239   0.0154   0.0112   0.0067   0.0046
     0.0043   0.0026   0.0017   0.0010   0.0001   0.0001   0.0000   0.0000
     0.0000   0.0000   0.0000   0.0000   0.0000   0.0000   0.0000   0.0000
     0.0000   0.0000   0.0000   0.0000   0.0000   0.0000   0.0000   0.0000
     0.0000   0.0000   0.0000

          k = 0.2500 0.0000 0.0000 ( 65257 PWs)   bands (ev):

   -92.6896 -92.6374 -92.5432 -92.4971 -92.4412 -92.3963 -92.3783 -92.2561
   -56.0431 -56.0241 -55.9006 -55.8902 -55.8831 -55.8770 -55.8412 -55.8125
   -55.7967 -55.7959 -55.7883 -55.7475 -55.7284 -55.6921 -55.6696 -55.6408
   -55.6327 -55.5840 -55.5824 -55.5814 -55.5729 -55.5309 -55.5087 -55.4226
   -31.2652 -31.2491 -31.1058 -31.0331 -31.0196 -31.0019 -30.7801 -30.6580
   -29.8349 -29.7933 -29.7679 -29.6594 -15.0369 -14.9923 -14.9251 -14.7780
   -14.6710 -14.4739 -14.3438 -14.1625 -14.1461 -14.1169 -14.0856 -14.0600
   -14.0247 -14.0103 -13.9829 -13.9629 -13.9352 -13.8288 -13.7970 -13.6481
   -13.5784 -13.5686 -13.5067 -13.4806 -13.4663 -13.3932 -13.3341 -13.3019
   -13.1987 -13.1490 -13.1399 -13.0526 -13.0452 -13.0314 -13.0149 -12.9981
   -12.9625 -12.9272 -12.8971 -12.8651 -12.8496 -12.8090 -12.7605 -12.7399
   -12.6250 -12.6082 -12.5657 -12.5373 -12.4943 -12.3950 -12.2381 -12.0480
   -11.9836 -11.8141 -11.7625 -11.7447 -11.7318 -11.7049 -11.6549 -11.6310
   -11.6233 -11.5731 -11.4836 -11.4278 -11.4220  -2.7936  -2.5721  -2.4420
    -2.2696  -2.2057  -2.0361  -1.8284  -1.7514  -1.7077  -1.6728  -1.5711
    -1.5570  -1.5230  -1.5039  -1.4339  -1.2543  -1.1556  -1.1392  -1.1042
    -1.0081  -0.9970  -0.9176  -0.8908  -0.8383  -0.7977  -0.7456  -0.7174
    -0.6679  -0.6414  -0.6184  -0.5664  -0.5527  -0.4623  -0.4526  -0.3860
    -0.2929  -0.2409  -0.1155  -0.1036  -0.0414   0.0128   0.0578   0.0943
     0.1298   0.1807   0.2247   0.5123   0.6438   0.6726   0.7692   0.8038
     0.8181   0.8409   0.9208   1.0336   1.0796   1.1037   1.1438   1.2891
[...]
     0.3529   0.3279   0.2038   0.0777   0.0452   0.0219   0.0061   0.0047
     0.0003   0.0001   0.0001   0.0000   0.0000   0.0000   0.0000   0.0000
     0.0000   0.0000   0.0000   0.0000   0.0000   0.0000   0.0000   0.0000
     0.0000   0.0000   0.0000   0.0000   0.0000   0.0000   0.0000   0.0000
     0.0000   0.0000   0.0000

          k =-0.5000 0.0000 0.0000 ( 65180 PWs)   bands (ev):

   -92.6896 -92.6374 -92.5432 -92.4971 -92.4412 -92.3963 -92.3783 -92.2561
   -56.0431 -56.0241 -55.9006 -55.8902 -55.8831 -55.8770 -55.8412 -55.8125
   -55.7967 -55.7959 -55.7883 -55.7475 -55.7284 -55.6921 -55.6696 -55.6408
   -55.6327 -55.5840 -55.5824 -55.5814 -55.5729 -55.5309 -55.5087 -55.4226
   -31.2631 -31.2513 -31.1054 -31.0330 -31.0199 -31.0018 -30.7803 -30.6581
   -29.8339 -29.7944 -29.7676 -29.6598 -15.0027 -14.9497 -14.8875 -14.7799
   -14.6755 -14.5333 -14.3820 -14.2455 -14.1203 -14.1069 -14.0968 -14.0231
   -13.9790 -13.9610 -13.9449 -13.8946 -13.8900 -13.8736 -13.8267 -13.8054
   -13.6950 -13.5433 -13.5136 -13.4828 -13.4757 -13.3807 -13.3526 -13.2872
   -13.2572 -13.2335 -13.2161 -13.0437 -13.0412 -13.0292 -13.0045 -12.9982
   -12.9359 -12.9270 -12.9148 -12.8677 -12.8500 -12.7354 -12.6297 -12.6233
   -12.6165 -12.5815 -12.5394 -12.5297 -12.4390 -12.3166 -12.3129 -12.1361
   -12.0872 -11.7663 -11.7447 -11.7379 -11.7232 -11.7050 -11.6630 -11.6019
   -11.5846 -11.5517 -11.5059 -11.4967 -11.4814  -2.5692  -2.5310  -2.3676
    -2.3284  -2.0145  -1.9403  -1.7913  -1.6741  -1.6352  -1.5904  -1.5413
    -1.5169  -1.3932  -1.3491  -1.3332  -1.2517  -1.2168  -1.2030  -1.1693
    -1.1472  -1.1089  -1.0415  -1.0136  -0.9834  -0.8836  -0.8413  -0.7916
    -0.7597  -0.7383  -0.7090  -0.6610  -0.6354  -0.5919  -0.4998  -0.4265
    -0.3612  -0.3008  -0.1155  -0.1007  -0.0435  -0.0096   0.0646   0.0782
     0.2163   0.2448   0.2776   0.4537   0.5526   0.6027   0.6776   0.7735
     0.8700   0.8963   1.0243   1.0464   1.0976   1.1214   1.1639   1.1792
     1.2214   1.2470   1.3180   1.3594   1.4064   1.4144   1.7243   1.7317
     1.7456   1.7880   1.8823   1.8832   1.9055   1.9139   1.9346   1.9508
     1.9927   2.0092   2.0389   2.0898   2.1071   2.1556   2.1821   2.2339
     2.3361   2.4318   2.4488   2.5147   2.5219   2.5353   2.6146   2.6381
     2.6693   2.7362   2.7435   2.7510   2.7800   2.8480   2.8959   2.9388
     2.9711   3.0114   3.0162   3.0171   3.0294   3.0431   3.0556   3.0704
     3.0730   3.0955   3.0985   3.1221   3.1409   3.1465   3.2763   3.2829
     4.0712   4.1440   4.2156   4.3467   4.8048   4.8835   5.0531   5.0604
     5.4938   5.5180   5.6098   5.6659   6.0437   6.0497   6.2627   6.5102
     6.8046   7.0106   7.2818   7.3087   7.3439   7.4538   7.7306   7.7875
     7.8956   7.9176   8.1200   8.3754   8.4452   8.4607   8.5250   8.6443
     8.7686   8.8302   8.9196

     occupation numbers 
     1.0000   1.0000   1.0000   1.0000   1.0000   1.0000   1.0000   1.0000
     1.0000   1.0000   1.0000   1.0000   1.0000   1.0000   1.0000   1.0000
     1.0000   1.0000   1.0000   1.0000   1.0000   1.0000   1.0000   1.0000
     1.0000   1.0000   1.0000   1.0000   1.0000   1.0000   1.0000   1.0000
     1.0000   1.0000   1.0000   1.0000   1.0000   1.0000   1.0000   1.0000
     1.0000   1.0000   1.0000   1.0000   1.0000   1.0000   1.0000   1.0000
     1.0000   1.0000   1.0000   1.0000   1.0000   1.0000   1.0000   1.0000
     1.0000   1.0000   1.0000   1.0000   1.0000   1.0000   1.0000   1.0000
     1.0000   1.0000   1.0000   1.0000   1.0000   1.0000   1.0000   1.0000
     1.0000   1.0000   1.0000   1.0000   1.0000   1.0000   1.0000   1.0000
     1.0000   1.0000   1.0000   1.0000   1.0000   1.0000   1.0000   1.0000
     1.0000   1.0000   1.0000   1.0000   1.0000   1.0000   1.0000   1.0000
     1.0000   1.0000   1.0000   1.0000   1.0000   1.0000   1.0000   1.0000
     1.0000   1.0000   1.0000   1.0000   1.0000   1.0000   1.0000   1.0000
     1.0000   1.0000   1.0000   1.0000   1.0000   1.0000   1.0000   1.0000
     1.0000   1.0000   1.0000   1.0000   1.0000   1.0000   1.0000   1.0000
     1.0000   1.0000   1.0000   1.0000   1.0000   1.0000   1.0000   1.0000
     1.0000   1.0000   1.0000   1.0000   1.0000   1.0000   1.0000   1.0000
     1.0000   1.0000   1.0000   1.0000   1.0000   1.0000   1.0000   1.0000
     1.0000   1.0000   1.0000   1.0000   1.0000   1.0000   1.0000   0.9999
     0.9999   0.9999   0.9997   0.9997   0.9996   0.9995   0.9994   0.9993
     0.9992   0.9990   0.9986   0.9984   0.9979   0.9979   0.9917   0.9915
     0.9910   0.9893   0.9847   0.9846   0.9833   0.9828   0.9814   0.9803
     0.9771   0.9758   0.9732   0.9681   0.9662   0.9605   0.9570   0.9495
     0.9316   0.9109   0.9067   0.8893   0.8873   0.8834   0.8587   0.8508
     0.8397   0.8143   0.8114   0.8084   0.7964   0.7667   0.7443   0.7235
     0.7072   0.6863   0.6837   0.6833   0.6767   0.6694   0.6627   0.6546
     0.6531   0.6408   0.6391   0.6259   0.6153   0.6121   0.5366   0.5327
     0.1382   0.1158   0.0963   0.0671   0.0147   0.0109   0.0054   0.0053
     0.0007   0.0006   0.0004   0.0003   0.0000   0.0000   0.0000   0.0000
     0.0000   0.0000   0.0000   0.0000   0.0000   0.0000   0.0000   0.0000
     0.0000   0.0000   0.0000   0.0000   0.0000   0.0000   0.0000   0.0000
     0.0000   0.0000   0.0000

          k =-0.2500 0.2500 0.0000 ( 65198 PWs)   bands (ev):

   -92.6896 -92.6374 -92.5432 -92.4971 -92.4412 -92.3963 -92.3783 -92.2561
   -56.0431 -56.0241 -55.9006 -55.8902 -55.8831 -55.8770 -55.8412 -55.8125
   -55.7967 -55.7959 -55.7883 -55.7475 -55.7284 -55.6921 -55.6696 -55.6408
   -55.6327 -55.5840 -55.5824 -55.5814 -55.5729 -55.5309 -55.5087 -55.4226
   -31.2650 -31.2490 -31.1060 -31.0321 -31.0197 -31.0029 -30.7799 -30.6582
   -29.8343 -29.7930 -29.7686 -29.6597 -15.0056 -14.9616 -14.8899 -14.7732
   -14.6602 -14.5314 -14.4504 -14.2400 -14.1028 -14.0733 -14.0607 -14.0107
   -13.9883 -13.9708 -13.9600 -13.9452 -13.8973 -13.8246 -13.8099 -13.6604
   -13.6329 -13.6027 -13.5845 -13.5382 -13.4848 -13.4244 -13.4023 -13.2783
   -13.2444 -13.2121 -13.1346 -13.0920 -13.0285 -13.0077 -12.9947 -12.9740
   -12.9403 -12.9171 -12.9013 -12.8309 -12.8050 -12.7610 -12.7461 -12.6948
   -12.6813 -12.6515 -12.5733 -12.4551 -12.4309 -12.3443 -12.2719 -12.0780
   -12.0373 -11.7862 -11.7647 -11.7380 -11.7257 -11.6842 -11.6506 -11.6264
   -11.6059 -11.5827 -11.4986 -11.4534 -11.4436  -2.6542  -2.4462  -2.3249
    -2.2367  -2.1184  -2.0523  -1.8495  -1.7039  -1.6860  -1.6569  -1.5637
    -1.5298  -1.4351  -1.4017  -1.3752  -1.2334  -1.1792  -1.1444  -1.1086
    -1.0799  -1.0193  -0.9979  -0.9582  -0.9296  -0.8892  -0.8260  -0.7774
    -0.7158  -0.6458  -0.6184  -0.5689  -0.5410  -0.4945  -0.4388  -0.3937
    -0.3530  -0.2520  -0.2183  -0.2059  -0.1645  -0.0974  -0.0052   0.0244
     0.0485   0.1323   0.1483   0.4034   0.5739   0.6158   0.6593   0.7236
     0.7656   0.8243   0.8907   0.9163   1.1956   1.3039   1.3444   1.3774
     1.3807   1.4263   1.4422   1.4870   1.5188   1.5320   1.5574   1.6055
     1.6197   1.6590   1.6770   1.7222   1.8302   1.8377   1.8549   1.8954
     1.9218   1.9562   2.0146   2.1198   2.2259   2.2472   2.2928   2.3121
     2.3789   2.4210   2.4369   2.4489   2.4760   2.4949   2.5165   2.5933
     2.6286   2.7186   2.8953   2.9039   2.9170   2.9271   2.9375   2.9521
     2.9590   2.9762   2.9839   2.9995   3.0090   3.0219   3.0306   3.0368
     3.0710   3.0814   3.0898   3.1238   3.4158   3.4976   3.5622   3.6377
     3.6691   3.8514   3.9746   4.3231   4.5263   4.7288   5.0084   5.1718
     5.6615   5.7106   5.7744   5.8454   5.9081   6.0780   6.1766   6.2093
     6.8993   6.9373   7.0994   7.2592   7.5729   7.6209   7.6801   7.8602
     7.9251   7.9991   8.1942   8.2321   8.3189   8.3490   8.4581   8.4960
     8.5557   8.7793   8.9209

     occupation numbers 
     1.0000   1.0000   1.0000   1.0000   1.0000   1.0000   1.0000   1.0000
     1.0000   1.0000   1.0000   1.0000   1.0000   1.0000   1.0000   1.0000
     1.0000   1.0000   1.0000   1.0000   1.0000   1.0000   1.0000   1.0000
     1.0000   1.0000   1.0000   1.0000   1.0000   1.0000   1.0000   1.0000
     1.0000   1.0000   1.0000   1.0000   1.0000   1.0000   1.0000   1.0000
     1.0000   1.0000   1.0000   1.0000   1.0000   1.0000   1.0000   1.0000
     1.0000   1.0000   1.0000   1.0000   1.0000   1.0000   1.0000   1.0000
     1.0000   1.0000   1.0000   1.0000   1.0000   1.0000   1.0000   1.0000
     1.0000   1.0000   1.0000   1.0000   1.0000   1.0000   1.0000   1.0000
     1.0000   1.0000   1.0000   1.0000   1.0000   1.0000   1.0000   1.0000
     1.0000   1.0000   1.0000   1.0000   1.0000   1.0000   1.0000   1.0000
     1.0000   1.0000   1.0000   1.0000   1.0000   1.0000   1.0000   1.0000
     1.0000   1.0000   1.0000   1.0000   1.0000   1.0000   1.0000   1.0000
     1.0000   1.0000   1.0000   1.0000   1.0000   1.0000   1.0000   1.0000
     1.0000   1.0000   1.0000   1.0000   1.0000   1.0000   1.0000   1.0000
     1.0000   1.0000   1.0000   1.0000   1.0000   1.0000   1.0000   1.0000
     1.0000   1.0000   1.0000   1.0000   1.0000   1.0000   1.0000   1.0000
     1.0000   1.0000   1.0000   1.0000   1.0000   1.0000   1.0000   1.0000
     1.0000   1.0000   1.0000   1.0000   1.0000   1.0000   1.0000   1.0000
     1.0000   1.0000   1.0000   1.0000   1.0000   1.0000   1.0000   0.9999
     0.9999   0.9999   0.9999   0.9998   0.9993   0.9987   0.9985   0.9982
     0.9982   0.9977   0.9976   0.9970   0.9966   0.9963   0.9959   0.9950
     0.9946   0.9937   0.9932   0.9918   0.9874   0.9871   0.9862   0.9839
     0.9823   0.9799   0.9753   0.9648   0.9507   0.9474   0.9397   0.9362
     0.9228   0.9134   0.9096   0.9067   0.8998   0.8948   0.8888   0.8657
     0.8540   0.8212   0.7447   0.7405   0.7342   0.7292   0.7241   0.7168
     0.7133   0.7046   0.7006   0.6925   0.6875   0.6807   0.6761   0.6728
     0.6543   0.6485   0.6439   0.6249   0.4542   0.4065   0.3697   0.3283
     0.3116   0.2230   0.1723   0.0718   0.0389   0.0195   0.0066   0.0032
     0.0003   0.0002   0.0001   0.0001   0.0001   0.0000   0.0000   0.0000
     0.0000   0.0000   0.0000   0.0000   0.0000   0.0000   0.0000   0.0000
     0.0000   0.0000   0.0000   0.0000   0.0000   0.0000   0.0000   0.0000
     0.0000   0.0000   0.0000

          k =-0.5000 0.2500 0.0000 ( 65138 PWs)   bands (ev):

   -92.6896 -92.6374 -92.5432 -92.4971 -92.4412 -92.3963 -92.3783 -92.2561
   -56.0431 -56.0241 -55.9006 -55.8902 -55.8831 -55.8770 -55.8412 -55.8125
   -55.7967 -55.7959 -55.7883 -55.7475 -55.7284 -55.6921 -55.6696 -55.6408
   -55.6327 -55.5840 -55.5824 -55.5814 -55.5729 -55.5309 -55.5087 -55.4226
   -31.2629 -31.2512 -31.1056 -31.0320 -31.0201 -31.0028 -30.7800 -30.6583
   -29.8333 -29.7941 -29.7682 -29.6601 -14.9696 -14.9238 -14.8446 -14.7456
   -14.7055 -14.5797 -14.4862 -14.3600 -14.0536 -14.0215 -14.0096 -13.9641
   -13.9609 -13.9405 -13.9194 -13.8815 -13.8747 -13.8526 -13.8137 -13.8015
   -13.6897 -13.6260 -13.5772 -13.5730 -13.5567 -13.4582 -13.4239 -13.3260
   -13.2894 -13.1887 -13.1530 -13.0569 -13.0159 -13.0055 -12.9971 -12.9747
   -12.9434 -12.9288 -12.9025 -12.8617 -12.8044 -12.7435 -12.6654 -12.6434
   -12.6113 -12.6048 -12.5651 -12.5276 -12.3757 -12.3114 -12.2533 -12.1330
   -12.0996 -11.7591 -11.7464 -11.7320 -11.7202 -11.6985 -11.6680 -11.5889
   -11.5805 -11.5571 -11.5205 -11.4923 -11.4840  -2.4267  -2.3853  -2.2373
    -2.1949  -2.0337  -1.9588  -1.8156  -1.6805  -1.6239  -1.5974  -1.5575
    -1.5192  -1.4383  -1.3231  -1.2661  -1.2433  -1.2174  -1.1570  -1.1328
    -1.1109  -1.0711  -1.0557  -0.9944  -0.9656  -0.9264  -0.8915  -0.8625
    -0.8048  -0.7764  -0.7345  -0.7011  -0.5972  -0.5667  -0.4815  -0.4208
    -0.3883  -0.3327  -0.2470  -0.2096  -0.1124  -0.0580  -0.0164   0.0426
     0.0662   0.1390   0.1583   0.1898   0.2432   0.2859   0.5953   0.6912
     0.7198   0.7529   1.0393   1.0861   1.1624   1.1877   1.3623   1.3994
     1.4367   1.4487   1.4672   1.4851   1.5555   1.5973   1.6438   1.6666
     1.8131   1.8379   1.8566   1.8677   1.9184   1.9396   1.9541   1.9655
     1.9858   2.0100   2.0524   2.0652   2.1003   2.1232   2.1586   2.2100
     2.3306   2.4286   2.4380   2.4727   2.5003   2.5388   2.5651   2.6317
     2.6654   2.6706   2.7089   2.7432   2.7653   2.8477   2.8916   2.9048
     2.9092   2.9302   2.9530   2.9653   2.9815   2.9936   3.0148   3.0266
     3.0381   3.0449   3.0553   3.0662   3.5927   3.6519   3.7856   3.8098
     4.0797   4.1707   4.2176   4.4255   4.7991   4.9008   5.0498   5.0893
     5.4170   5.4431   5.5994   5.6348   5.7594   5.7983   6.3592   6.4011
     6.5047   6.6388   7.2423   7.3423   7.5678   7.7238   7.8038   7.8689
     7.9092   8.0350   8.2633   8.4027   8.5002   8.5595   8.5787   8.5882
     8.6735   8.7466   8.7854

     occupation numbers 
     1.0000   1.0000   1.0000   1.0000   1.0000   1.0000   1.0000   1.0000
     1.0000   1.0000   1.0000   1.0000   1.0000   1.0000   1.0000   1.0000
     1.0000   1.0000   1.0000   1.0000   1.0000   1.0000   1.0000   1.0000
     1.0000   1.0000   1.0000   1.0000   1.0000   1.0000   1.0000   1.0000
     1.0000   1.0000   1.0000   1.0000   1.0000   1.0000   1.0000   1.0000
     1.0000   1.0000   1.0000   1.0000   1.0000   1.0000   1.0000   1.0000
     1.0000   1.0000   1.0000   1.0000   1.0000   1.0000   1.0000   1.0000
     1.0000   1.0000   1.0000   1.0000   1.0000   1.0000   1.0000   1.0000
     1.0000   1.0000   1.0000   1.0000   1.0000   1.0000   1.0000   1.0000
     1.0000   1.0000   1.0000   1.0000   1.0000   1.0000   1.0000   1.0000
     1.0000   1.0000   1.0000   1.0000   1.0000   1.0000   1.0000   1.0000
     1.0000   1.0000   1.0000   1.0000   1.0000   1.0000   1.0000   1.0000
     1.0000   1.0000   1.0000   1.0000   1.0000   1.0000   1.0000   1.0000
     1.0000   1.0000   1.0000   1.0000   1.0000   1.0000   1.0000   1.0000
     1.0000   1.0000   1.0000   1.0000   1.0000   1.0000   1.0000   1.0000
     1.0000   1.0000   1.0000   1.0000   1.0000   1.0000   1.0000   1.0000
     1.0000   1.0000   1.0000   1.0000   1.0000   1.0000   1.0000   1.0000
     1.0000   1.0000   1.0000   1.0000   1.0000   1.0000   1.0000   1.0000
     1.0000   1.0000   1.0000   1.0000   1.0000   1.0000   1.0000   1.0000
     1.0000   1.0000   1.0000   1.0000   1.0000   1.0000   1.0000   1.0000
     0.9999   0.9999   0.9997   0.9996   0.9994   0.9993   0.9983   0.9980
     0.9976   0.9975   0.9973   0.9970   0.9959   0.9951   0.9941   0.9935
     0.9882   0.9871   0.9861   0.9855   0.9825   0.9811   0.9801   0.9792
     0.9777   0.9757   0.9719   0.9706   0.9670   0.9644   0.9601   0.9531
     0.9327   0.9116   0.9093   0.9006   0.8933   0.8824   0.8745   0.8529
     0.8411   0.8393   0.8250   0.8115   0.8026   0.7668   0.7464   0.7401
     0.7380   0.7277   0.7164   0.7101   0.7019   0.6956   0.6845   0.6782
     0.6721   0.6685   0.6628   0.6569   0.3528   0.3207   0.2533   0.2419
     0.1355   0.1082   0.0958   0.0532   0.0150   0.0102   0.0055   0.0047
     0.0010   0.0009   0.0004   0.0003   0.0002   0.0001   0.0000   0.0000
     0.0000   0.0000   0.0000   0.0000   0.0000   0.0000   0.0000   0.0000
     0.0000   0.0000   0.0000   0.0000   0.0000   0.0000   0.0000   0.0000
     0.0000   0.0000   0.0000

     the Fermi energy is     3.3383 ev

!    total energy              =   -4441.66010753 Ry
     estimated scf accuracy    <          7.8E-09 Ry
     smearing contrib. (-TS)   =      -1.15495485 Ry
     internal energy E=F+TS    =   -4440.50515268 Ry

     The total energy is F=E-TS. E is the sum of the following terms:
     one-electron contribution =  -20804.64462455 Ry
     hartree contribution      =   10534.48509209 Ry
     xc contribution           =    -694.18416731 Ry
     ewald contribution        =    6800.00805706 Ry
     one-center paw contrib.   =    -276.16950996 Ry
      -> PAW hartree energy AE =      25.10079117 Ry
      -> PAW hartree energy PS =     -24.98537556 Ry
      -> PAW xc energy AE      =     -16.50859006 Ry
      -> PAW xc energy PS      =       6.86765210 Ry
      -> total E_H with PAW    =   10534.60050769 Ry
      -> total E_XC with PAW   =    -703.82510528 Ry

     convergence has been achieved in  46 iterations

     Writing all to output data dir /bsuhome/zayahcortright/scratch/pwscf.save/
 
     init_run     :      8.28s CPU      8.83s WALL (       1 calls)
     electrons    :    813.63s CPU    894.47s WALL (       1 calls)

     Called by init_run:
     wfcinit      :      6.54s CPU      6.75s WALL (       1 calls)
     wfcinit:atom :      0.05s CPU      0.07s WALL (       5 calls)
     wfcinit:wfcr :      6.22s CPU      6.36s WALL (       5 calls)
     potinit      :      0.16s CPU      0.19s WALL (       1 calls)
     hinit0       :      0.67s CPU      0.77s WALL (       1 calls)

     Called by electrons:
     c_bands      :    657.18s CPU    669.45s WALL (      46 calls)
     sum_band     :    118.39s CPU    156.92s WALL (      46 calls)
     v_of_rho     :      5.23s CPU      5.58s WALL (      47 calls)
     v_h          :      0.47s CPU      0.47s WALL (      47 calls)
     v_xc         :      4.76s CPU      5.11s WALL (      47 calls)
     newd         :     18.34s CPU     47.51s WALL (      47 calls)
     PAW_pot      :      1.63s CPU      1.66s WALL (      47 calls)
     mix_rho      :     12.58s CPU     13.07s WALL (      46 calls)

     Called by c_bands:
     init_us_2    :      5.91s CPU      6.03s WALL (     465 calls)
     init_us_2:cp :      5.91s CPU      6.03s WALL (     465 calls)
     cegterg      :    619.13s CPU    630.89s WALL (     230 calls)

     Called by sum_band:
     sum_band:wei :      0.33s CPU      0.34s WALL (      46 calls)
     sum_band:loo :     99.04s CPU     99.77s WALL (      46 calls)
     sum_band:buf :      1.35s CPU      1.42s WALL (     230 calls)
     sum_band:ini :      2.73s CPU      2.75s WALL (     230 calls)
     sum_band:cal :     18.54s CPU     18.60s WALL (     230 calls)
     sum_band:bec :      0.53s CPU      0.57s WALL (     230 calls)
     addusdens    :     16.60s CPU     54.35s WALL (      46 calls)
                                        0.00s GPU  (      46 calls)
     addusd:skk   :      0.28s CPU      2.18s WALL (     184 calls)
                                        0.00s GPU  (     184 calls)

     Called by *egterg:
     cdiaghg      :     56.57s CPU     56.84s WALL (    1337 calls)
     cegterg:over :     50.55s CPU     50.81s WALL (    1107 calls)
     cegterg:upda :     51.73s CPU     52.77s WALL (    1107 calls)
     cegterg:last :     67.57s CPU     67.88s WALL (     419 calls)
     cdiaghg:chol :      3.15s CPU      3.17s WALL (    1337 calls)
     cdiaghg:inve :      3.29s CPU      3.31s WALL (    1337 calls)
     cdiaghg:para :      7.08s CPU      7.13s WALL (    2674 calls)
     h_psi        :    327.30s CPU    332.10s WALL (    1342 calls)
     s_psi        :     38.81s CPU     38.94s WALL (    1342 calls)
     g_psi        :      2.44s CPU      2.45s WALL (    1107 calls)

     Called by h_psi:
     h_psi:calbec :     43.96s CPU     44.21s WALL (    1342 calls)
     vloc_psi     :    239.00s CPU    241.06s WALL (    1342 calls)
     add_vuspsi   :     38.53s CPU     38.88s WALL (    1342 calls)

     General routines
     calbec       :     62.49s CPU     62.80s WALL (    1572 calls)
     fft          :      4.42s CPU      4.47s WALL (     609 calls)
     ffts         :      4.41s CPU      4.45s WALL (    4946 calls)
     fftw         :    217.76s CPU    219.36s WALL (  312552 calls)
     interpolate  :      0.39s CPU      0.40s WALL (      47 calls)
 
     Parallel routines

     PAW routines
     PAW_pot      :      1.63s CPU      1.66s WALL (      47 calls)
 
     PWSCF        :  13m43.71s CPU  15m 8.04s WALL

 
   This run was terminated on:  21:30:56  21Jun2024            

=------------------------------------------------------------------------------=
   JOB DONE.
=------------------------------------------------------------------------------=
