
     Program PWSCF v.7.2 starts on 18Jun2024 at 20:31:30 

     This program is part of the open-source Quantum ESPRESSO suite
     for quantum simulation of materials; please cite
         "P. Giannozzi et al., J. Phys.:Condens. Matter 21 395502 (2009);
         "P. Giannozzi et al., J. Phys.:Condens. Matter 29 465901 (2017);
         "P. Giannozzi et al., J. Chem. Phys. 152 154105 (2020);
          URL http://www.quantum-espresso.org", 
     in publications or presentations arising from this work. More details at
     http://www.quantum-espresso.org/quote

     Parallel version (MPI & OpenMP), running on      48 processor cores
     Number of MPI processes:                48
     Threads/MPI process:                     1

     MPI processes distributed on     1 nodes
     16423 MiB available memory on the printing compute node when the environment starts
 
     Reading input from espresso.pwi
Warning: card &CELL ignored
Warning: card / ignored
Warning: card &FCP ignored
Warning: card / ignored
Warning: card &RISM ignored
Warning: card / ignored

     Current dimensions of program PWSCF are:
     Max number of different atomic species (ntypx) = 10
     Max number of k-points (npk) =  40000
     Max angular momentum in pseudopotentials (lmaxx) =  4
     file O.pbe-n-kjpaw_psl.0.1.UPF: wavefunction(s)  2P renormalized
     signal trapping enabled: kill the code with -SIGUSR1 to stop cleanly the simulation 
 
     K-points division:     npool     =       2
     R & G space division:  proc/nbgrp/npool/nimage =      24
     Subspace diagonalization in iterative solution of the eigenvalue problem:
     one sub-group per band group will be used
     scalapack distributed-memory algorithm (size of sub-group:  3*  3 procs)

 
     Parallelization info
     --------------------
     sticks:   dense  smooth     PW     G-vecs:    dense   smooth      PW
     Min         350     175     47                61430    21716    3036
     Max         351     177     48                61449    21727    3041
     Sum        8421    4205   1137              1474595   521381   72913
 
     Using Slab Decomposition
 


     bravais-lattice index     =            0
     lattice parameter (alat)  =      14.8599  a.u.
     unit-cell volume          =    8305.1283 (a.u.)^3
     number of atoms/cell      =           51
     number of atomic types    =            4
     number of electrons       =       437.00
     number of Kohn-Sham states=          263
     kinetic-energy cutoff     =      60.0000  Ry
     charge density cutoff     =     480.0000  Ry
     scf convergence threshold =      1.0E-08
     mixing beta               =       0.1500
     number of iterations used =            8  local-TF  mixing
     Exchange-correlation= PBE
                           (   1   4   3   4   0   0   0)

     celldm(1)=  14.859904  celldm(2)=   0.000000  celldm(3)=   0.000000
     celldm(4)=   0.000000  celldm(5)=   0.000000  celldm(6)=   0.000000

     crystal axes: (cart. coord. in units of alat)
               a(1) = (   1.000000   0.000000   0.000000 )  
               a(2) = (   0.000000   1.000000   0.000000 )  
               a(3) = (   0.000000   0.000000   2.531036 )  

     reciprocal axes: (cart. coord. in units 2 pi/alat)
               b(1) = (  1.000000  0.000000  0.000000 )  
               b(2) = (  0.000000  1.000000  0.000000 )  
               b(3) = (  0.000000  0.000000  0.395095 )  


     PseudoPot. # 1 for Sr read from file:
     /bsuhome/zayahcortright/q-e/pseudo/Sr_pbe_v1.uspp.F.UPF
     MD5 check sum: 6b418c05fbe9db5448babca5e47b7a5b
     Pseudo is Ultrasoft + core correction, Zval = 10.0
     Generated by new atomic code, or converted to UPF format
     Using radial grid of  883 points,  6 beta functions with: 
                l(1) =   0
                l(2) =   0
                l(3) =   1
                l(4) =   1
                l(5) =   2
                l(6) =   2
     Q(r) pseudized with  6 coefficients,  rinner =    1.400   1.400   1.400
                                                       1.400   1.400

     PseudoPot. # 2 for O  read from file:
     /bsuhome/zayahcortright/q-e/pseudo/O.pbe-n-kjpaw_psl.0.1.UPF
     MD5 check sum: 0234752ac141de4415c5fc33072bef88
     Pseudo is Projector augmented-wave + core cor, Zval =  6.0
     Generated using "atomic" code by A. Dal Corso  v.5.0.99 svn rev. 10869
     Shape of augmentation charge: BESSEL
     Using radial grid of 1095 points,  4 beta functions with: 
                l(1) =   0
                l(2) =   0
                l(3) =   1
                l(4) =   1
     Q(r) pseudized with 0 coefficients 


     PseudoPot. # 3 for Co read from file:
     /bsuhome/zayahcortright/q-e/pseudo/Co_pbe_v1.2.uspp.F.UPF
     MD5 check sum: 5f91765df6ddd3222702df6e7b74a16d
     Pseudo is Ultrasoft + core correction, Zval = 17.0
     Generated by new atomic code, or converted to UPF format
     Using radial grid of  863 points,  6 beta functions with: 
                l(1) =   0
                l(2) =   0
                l(3) =   1
                l(4) =   1
                l(5) =   2
                l(6) =   2
     Q(r) pseudized with  8 coefficients,  rinner =    1.200   1.200   1.200
                                                       1.200   1.200

     PseudoPot. # 4 for H  read from file:
     /bsuhome/zayahcortright/q-e/pseudo/H.pbe-rrkjus_psl.1.0.0.UPF
     MD5 check sum: f52b6d4d1c606e5624b1dc7b2218f220
     Pseudo is Ultrasoft, Zval =  1.0
     Generated using "atomic" code by A. Dal Corso  v.5.1
     Using radial grid of  929 points,  2 beta functions with: 
                l(1) =   0
                l(2) =   0
     Q(r) pseudized with 0 coefficients 


     atomic species   valence    mass     pseudopotential
        Sr            10.00    87.62000     Sr( 1.00)
        O              6.00    15.99900     O ( 1.00)
        Co            17.00    58.93319     Co( 1.00)
        H              1.00     1.00800     H ( 1.00)

     No symmetry found


                                    s                        frac. trans.

      isym =  1     identity                                     

 cryst.   s( 1) = (     1          0          0      )
                  (     0          1          0      )
                  (     0          0          1      )

 cart.    s( 1) = (  1.0000000  0.0000000  0.0000000 )
                  (  0.0000000  1.0000000  0.0000000 )
                  (  0.0000000  0.0000000  1.0000000 )


   Cartesian axes

     site n.     atom                  positions (alat units)
         1           Sr  tau(   1) = (   0.2508693   0.7491307   1.7574407  )
         2           O   tau(   2) = (   0.4985141   0.5014859   1.7715967  )
         3           Sr  tau(   3) = (   0.7482398   0.7454518   1.7648669  )
         4           Sr  tau(   4) = (   0.7441748   0.2558252   1.7667843  )
         5           Sr  tau(   5) = (   0.2508693   0.7491307   1.2696799  )
         6           Sr  tau(   6) = (   0.2508693   0.7491307   0.7632319  )
         7           Co  tau(   7) = (   0.4998914   0.5001086   1.0164559  )
         8           Co  tau(   8) = (   0.4936915   0.5063085   1.5135603  )
         9           O   tau(   9) = (   0.4988895   0.7610401   1.0164559  )
        10           O   tau(  10) = (   0.2389599   0.5011105   1.0164559  )
        11           O   tau(  11) = (   0.0070918   0.7374880   1.0164559  )
        12           O   tau(  12) = (   0.0088340   0.7405089   1.5135603  )
        13           O   tau(  13) = (   0.5066944   0.7415376   1.5135603  )
        14           O   tau(  14) = (   0.2584624   0.4933056   1.5135603  )
        15           O   tau(  15) = (   0.4985141   0.5014859   0.7773880  )
        16           O   tau(  16) = (   0.4985141   0.5014859   1.2555238  )
        17           Sr  tau(  17) = (   0.7482398   0.7454518   0.7706582  )
        18           Sr  tau(  18) = (   0.7482398   0.7454518   1.2622536  )
        19           Sr  tau(  19) = (   0.7441748   0.2558252   0.7725755  )
        20           Sr  tau(  20) = (   0.7441748   0.2558252   1.2603363  )
        21           O   tau(  21) = (   0.7322655   0.0078049   1.5135603  )
        22           O   tau(  22) = (   0.7558175   0.4996027   1.5135603  )
        23           O   tau(  23) = (   0.5003973   0.2441825   1.5135603  )
        24           O   tau(  24) = (   0.7527966   0.4978604   1.0164559  )
        25           O   tau(  25) = (   0.5021396   0.2472034   1.0164559  )
        26           O   tau(  26) = (   0.7517679   0.0000000   1.0164559  )
        27           O   tau(  27) = (   0.0114961   0.4948124   1.7455321  )
        28           O   tau(  28) = (   0.0048226   0.0077944   1.7715967  )
        29           Sr  tau(  29) = (   0.2545482   0.2517602   1.7648669  )
        30           O   tau(  30) = (   0.5048017   0.0015068   1.7786929  )
        31           Co  tau(  31) = (   0.0056869   0.5006215   1.0164559  )
        32           Co  tau(  32) = (   0.0065315   0.4997770   1.5135603  )
        33           Co  tau(  33) = (   0.0061999   0.0064171   1.0164559  )
        34           Co  tau(  34) = (   0.0000000   0.0126169   1.5135603  )
        35           O   tau(  35) = (   0.0114961   0.4948124   1.2815885  )
        36           O   tau(  36) = (   0.0114961   0.4948124   0.7513233  )
        37           O   tau(  37) = (   0.0051979   0.2673486   1.0164559  )
        38           O   tau(  38) = (   0.0130029   0.2478461   1.5135603  )
        39           O   tau(  39) = (   0.0048226   0.0077944   0.7773880  )
        40           O   tau(  40) = (   0.0048226   0.0077944   1.2555238  )
        41           Sr  tau(  41) = (   0.2545482   0.2517602   0.7706582  )
        42           Sr  tau(  42) = (   0.2545482   0.2517602   1.2622536  )
        43           Co  tau(  43) = (   0.4989925   0.0073160   1.5135603  )
        44           Co  tau(  44) = (   0.4998370   0.0064714   1.0164559  )
        45           O   tau(  45) = (   0.5048017   0.0015068   0.7844841  )
        46           O   tau(  46) = (   0.5048017   0.0015068   1.2484277  )
        47           O   tau(  47) = (   0.2621260   0.0059111   1.5135603  )
        48           O   tau(  48) = (   0.2591051   0.0041689   1.0164559  )
        49           O   tau(  49) = (   0.1421646   0.7108228   2.1602013  )
        50           O   tau(  50) = (   0.1421646   0.7108228   2.3186489  )
        51           H   tau(  51) = (   0.1421646   0.7108228   2.4431567  )

   Crystallographic axes

     site n.     atom                  positions (cryst. coord.)
         1           Sr  tau(   1) = (  0.2508693  0.7491307  0.6943562  )
         2           O   tau(   2) = (  0.4985141  0.5014859  0.6999492  )
         3           Sr  tau(   3) = (  0.7482398  0.7454518  0.6972903  )
         4           Sr  tau(   4) = (  0.7441748  0.2558252  0.6980478  )
         5           Sr  tau(   5) = (  0.2508693  0.7491307  0.5016443  )
         6           Sr  tau(   6) = (  0.2508693  0.7491307  0.3015492  )
         7           Co  tau(   7) = (  0.4998914  0.5001086  0.4015968  )
         8           Co  tau(   8) = (  0.4936915  0.5063085  0.5980003  )
         9           O   tau(   9) = (  0.4988895  0.7610401  0.4015968  )
        10           O   tau(  10) = (  0.2389599  0.5011105  0.4015968  )
        11           O   tau(  11) = (  0.0070918  0.7374880  0.4015968  )
        12           O   tau(  12) = (  0.0088340  0.7405089  0.5980003  )
        13           O   tau(  13) = (  0.5066944  0.7415376  0.5980003  )
        14           O   tau(  14) = (  0.2584624  0.4933056  0.5980003  )
        15           O   tau(  15) = (  0.4985141  0.5014859  0.3071422  )
        16           O   tau(  16) = (  0.4985141  0.5014859  0.4960513  )
        17           Sr  tau(  17) = (  0.7482398  0.7454518  0.3044833  )
        18           Sr  tau(  18) = (  0.7482398  0.7454518  0.4987103  )
        19           Sr  tau(  19) = (  0.7441748  0.2558252  0.3052408  )
        20           Sr  tau(  20) = (  0.7441748  0.2558252  0.4979527  )
        21           O   tau(  21) = (  0.7322655  0.0078049  0.5980003  )
        22           O   tau(  22) = (  0.7558175  0.4996027  0.5980003  )
        23           O   tau(  23) = (  0.5003973  0.2441825  0.5980003  )
        24           O   tau(  24) = (  0.7527966  0.4978604  0.4015968  )
        25           O   tau(  25) = (  0.5021396  0.2472034  0.4015968  )
        26           O   tau(  26) = (  0.7517679  0.0000000  0.4015968  )
        27           O   tau(  27) = (  0.0114961  0.4948124  0.6896512  )
        28           O   tau(  28) = (  0.0048226  0.0077944  0.6999492  )
        29           Sr  tau(  29) = (  0.2545482  0.2517602  0.6972903  )
        30           O   tau(  30) = (  0.5048017  0.0015068  0.7027529  )
        31           Co  tau(  31) = (  0.0056869  0.5006215  0.4015968  )
        32           Co  tau(  32) = (  0.0065315  0.4997770  0.5980003  )
        33           Co  tau(  33) = (  0.0061999  0.0064171  0.4015968  )
        34           Co  tau(  34) = (  0.0000000  0.0126169  0.5980003  )
        35           O   tau(  35) = (  0.0114961  0.4948124  0.5063494  )
        36           O   tau(  36) = (  0.0114961  0.4948124  0.2968442  )
        37           O   tau(  37) = (  0.0051979  0.2673486  0.4015968  )
        38           O   tau(  38) = (  0.0130029  0.2478461  0.5980003  )
        39           O   tau(  39) = (  0.0048226  0.0077944  0.3071422  )
        40           O   tau(  40) = (  0.0048226  0.0077944  0.4960513  )
        41           Sr  tau(  41) = (  0.2545482  0.2517602  0.3044833  )
        42           Sr  tau(  42) = (  0.2545482  0.2517602  0.4987103  )
        43           Co  tau(  43) = (  0.4989925  0.0073160  0.5980003  )
        44           Co  tau(  44) = (  0.4998370  0.0064714  0.4015968  )
        45           O   tau(  45) = (  0.5048017  0.0015068  0.3099459  )
        46           O   tau(  46) = (  0.5048017  0.0015068  0.4932477  )
        47           O   tau(  47) = (  0.2621260  0.0059111  0.5980003  )
        48           O   tau(  48) = (  0.2591051  0.0041689  0.4015968  )
        49           O   tau(  49) = (  0.1421646  0.7108228  0.8534850  )
        50           O   tau(  50) = (  0.1421646  0.7108228  0.9160869  )
        51           H   tau(  51) = (  0.1421646  0.7108228  0.9652793  )

     number of k points=    10  Gaussian smearing, width (Ry)=  0.0700
                       cart. coord. in units 2pi/alat
        k(    1) = (   0.0000000   0.0000000   0.0000000), wk =   0.1250000
        k(    2) = (   0.0000000   0.2500000   0.0000000), wk =   0.2500000
        k(    3) = (   0.0000000  -0.5000000   0.0000000), wk =   0.1250000
        k(    4) = (   0.2500000   0.2500000   0.0000000), wk =   0.2500000
        k(    5) = (   0.2500000  -0.5000000   0.0000000), wk =   0.2500000
        k(    6) = (  -0.5000000  -0.5000000   0.0000000), wk =   0.1250000
        k(    7) = (   0.2500000   0.0000000   0.0000000), wk =   0.2500000
        k(    8) = (  -0.5000000   0.0000000   0.0000000), wk =   0.1250000
        k(    9) = (  -0.2500000   0.2500000   0.0000000), wk =   0.2500000
        k(   10) = (  -0.5000000   0.2500000   0.0000000), wk =   0.2500000

                       cryst. coord.
        k(    1) = (   0.0000000   0.0000000   0.0000000), wk =   0.1250000
        k(    2) = (   0.0000000   0.2500000   0.0000000), wk =   0.2500000
        k(    3) = (   0.0000000  -0.5000000   0.0000000), wk =   0.1250000
        k(    4) = (   0.2500000   0.2500000   0.0000000), wk =   0.2500000
        k(    5) = (   0.2500000  -0.5000000   0.0000000), wk =   0.2500000
        k(    6) = (  -0.5000000  -0.5000000   0.0000000), wk =   0.1250000
        k(    7) = (   0.2500000   0.0000000   0.0000000), wk =   0.2500000
        k(    8) = (  -0.5000000   0.0000000   0.0000000), wk =   0.1250000
        k(    9) = (  -0.2500000   0.2500000   0.0000000), wk =   0.2500000
        k(   10) = (  -0.5000000   0.2500000   0.0000000), wk =   0.2500000

     Dense  grid:  1474595 G-vectors     FFT dimensions: ( 108, 108, 270)

     Smooth grid:   521381 G-vectors     FFT dimensions: (  75,  75, 192)

     Dynamical RAM for                 wfc:      10.90 MB

     Dynamical RAM for     wfc (w. buffer):      65.37 MB

     Dynamical RAM for           str. fact:       3.75 MB

     Dynamical RAM for           local pot:       0.00 MB

     Dynamical RAM for          nlocal pot:      24.94 MB

     Dynamical RAM for                qrad:       7.03 MB

     Dynamical RAM for          rho,v,vnew:       6.02 MB

     Dynamical RAM for               rhoin:       2.01 MB

     Dynamical RAM for            rho*nmix:      15.00 MB

     Dynamical RAM for           G-vectors:       3.68 MB

     Dynamical RAM for          h,s,v(r/c):       1.40 MB

     Dynamical RAM for          <psi|beta>:       2.42 MB

     Dynamical RAM for                 psi:      21.79 MB

     Dynamical RAM for                hpsi:      21.79 MB

     Dynamical RAM for                spsi:      21.79 MB

     Dynamical RAM for      wfcinit/wfcrot:      34.89 MB

     Dynamical RAM for           addusdens:     101.73 MB

     Estimated static dynamical RAM per process >     122.82 MB

     Estimated max dynamical RAM per process >     239.55 MB

     Estimated total dynamical RAM >      10.88 GB

     Check: negative core charge=   -0.000004

     Initial potential from superposition of free atoms

     starting charge     428.5961, renormalised to     437.0000

     negative rho (up, down):  7.813E-01 0.000E+00
     Starting wfcs are  381 randomized atomic wfcs
     Checking if some PAW data can be deallocated... 
       PAW data deallocated on   18 nodes for type:  2

     total cpu time spent up to now is        9.1 secs

     Self-consistent Calculation

     iteration #  1     ecut=    60.00 Ry     beta= 0.15
     Davidson diagonalization with overlap

---- Real-time Memory Report at c_bands before calling an iterative solver
             0 MiB given to the printing process from OS
             0 MiB allocation reported by mallinfo(arena+hblkhd)
          6930 MiB available memory on the node where the printing process lives
------------------
     ethr =  1.00E-02,  avg # of iterations =  2.0

     negative rho (up, down):  7.716E-01 0.000E+00

     total cpu time spent up to now is       25.2 secs

     total energy              =   -4489.30890402 Ry
     estimated scf accuracy    <      49.73072724 Ry

     iteration #  2     ecut=    60.00 Ry     beta= 0.15
     Davidson diagonalization with overlap

---- Real-time Memory Report at c_bands before calling an iterative solver
             0 MiB given to the printing process from OS
             0 MiB allocation reported by mallinfo(arena+hblkhd)
          7215 MiB available memory on the node where the printing process lives
------------------
     ethr =  1.00E-02,  avg # of iterations =  1.0

     negative rho (up, down):  7.614E-01 0.000E+00

     total cpu time spent up to now is       38.3 secs

     total energy              =   -4486.81400618 Ry
     estimated scf accuracy    <      35.34635653 Ry

     iteration #  3     ecut=    60.00 Ry     beta= 0.15
     Davidson diagonalization with overlap

---- Real-time Memory Report at c_bands before calling an iterative solver
             0 MiB given to the printing process from OS
             0 MiB allocation reported by mallinfo(arena+hblkhd)
          6415 MiB available memory on the node where the printing process lives
------------------
     ethr =  8.09E-03,  avg # of iterations =  1.0

     negative rho (up, down):  7.563E-01 0.000E+00

     total cpu time spent up to now is       51.4 secs

     total energy              =   -4486.75868262 Ry
     estimated scf accuracy    <      35.11954855 Ry

     iteration #  4     ecut=    60.00 Ry     beta= 0.15
     Davidson diagonalization with overlap

---- Real-time Memory Report at c_bands before calling an iterative solver
             0 MiB given to the printing process from OS
             0 MiB allocation reported by mallinfo(arena+hblkhd)
          6390 MiB available memory on the node where the printing process lives
------------------
     ethr =  8.04E-03,  avg # of iterations =  1.0

     negative rho (up, down):  7.573E-01 0.000E+00

     total cpu time spent up to now is       64.5 secs

     total energy              =   -4486.65491538 Ry
     estimated scf accuracy    <      34.29969915 Ry

     iteration #  5     ecut=    60.00 Ry     beta= 0.15
     Davidson diagonalization with overlap

---- Real-time Memory Report at c_bands before calling an iterative solver
             0 MiB given to the printing process from OS
             0 MiB allocation reported by mallinfo(arena+hblkhd)
          6371 MiB available memory on the node where the printing process lives
------------------
     ethr =  7.85E-03,  avg # of iterations =  1.0

     negative rho (up, down):  7.340E-01 0.000E+00

     total cpu time spent up to now is       77.6 secs

     total energy              =   -4482.83933720 Ry
     estimated scf accuracy    <      23.49859136 Ry

     iteration #  6     ecut=    60.00 Ry     beta= 0.15
     Davidson diagonalization with overlap

---- Real-time Memory Report at c_bands before calling an iterative solver
             0 MiB given to the printing process from OS
             0 MiB allocation reported by mallinfo(arena+hblkhd)
          6356 MiB available memory on the node where the printing process lives
------------------
     ethr =  5.38E-03,  avg # of iterations =  2.0

     negative rho (up, down):  7.477E-01 0.000E+00

     total cpu time spent up to now is       92.3 secs

     total energy              =   -4484.05274575 Ry
     estimated scf accuracy    <      41.75460589 Ry

     iteration #  7     ecut=    60.00 Ry     beta= 0.15
     Davidson diagonalization with overlap

---- Real-time Memory Report at c_bands before calling an iterative solver
             0 MiB given to the printing process from OS
             0 MiB allocation reported by mallinfo(arena+hblkhd)
          6338 MiB available memory on the node where the printing process lives
------------------
     ethr =  5.38E-03,  avg # of iterations =  1.0

     negative rho (up, down):  7.530E-01 0.000E+00

     total cpu time spent up to now is      105.6 secs

     total energy              =   -4483.46964461 Ry
     estimated scf accuracy    <      42.30485595 Ry

     iteration #  8     ecut=    60.00 Ry     beta= 0.15
     Davidson diagonalization with overlap

---- Real-time Memory Report at c_bands before calling an iterative solver
             0 MiB given to the printing process from OS
             0 MiB allocation reported by mallinfo(arena+hblkhd)
          6315 MiB available memory on the node where the printing process lives
------------------
     ethr =  5.38E-03,  avg # of iterations =  1.0

     negative rho (up, down):  7.504E-01 0.000E+00

     total cpu time spent up to now is      119.0 secs

     total energy              =   -4483.83450091 Ry
     estimated scf accuracy    <       5.95261347 Ry

     iteration #  9     ecut=    60.00 Ry     beta= 0.15
     Davidson diagonalization with overlap

---- Real-time Memory Report at c_bands before calling an iterative solver
             0 MiB given to the printing process from OS
             0 MiB allocation reported by mallinfo(arena+hblkhd)
          6296 MiB available memory on the node where the printing process lives
------------------
     ethr =  1.36E-03,  avg # of iterations =  5.3

     negative rho (up, down):  7.640E-01 0.000E+00

     total cpu time spent up to now is      135.1 secs

     total energy              =   -4483.70158336 Ry
     estimated scf accuracy    <       3.53238158 Ry

     iteration # 10     ecut=    60.00 Ry     beta= 0.15
     Davidson diagonalization with overlap

---- Real-time Memory Report at c_bands before calling an iterative solver
             0 MiB given to the printing process from OS
             0 MiB allocation reported by mallinfo(arena+hblkhd)
          6267 MiB available memory on the node where the printing process lives
------------------
     ethr =  8.08E-04,  avg # of iterations =  9.2

     negative rho (up, down):  7.816E-01 0.000E+00

     total cpu time spent up to now is      154.2 secs

     total energy              =   -4483.52738619 Ry
     estimated scf accuracy    <       4.33872116 Ry

     iteration # 11     ecut=    60.00 Ry     beta= 0.15
     Davidson diagonalization with overlap

---- Real-time Memory Report at c_bands before calling an iterative solver
             0 MiB given to the printing process from OS
             0 MiB allocation reported by mallinfo(arena+hblkhd)
          5953 MiB available memory on the node where the printing process lives
------------------
     ethr =  8.08E-04,  avg # of iterations =  6.1

     negative rho (up, down):  7.882E-01 0.000E+00

     total cpu time spent up to now is      171.1 secs

     total energy              =   -4483.29190407 Ry
     estimated scf accuracy    <       4.18847715 Ry

     iteration # 12     ecut=    60.00 Ry     beta= 0.15
     Davidson diagonalization with overlap

---- Real-time Memory Report at c_bands before calling an iterative solver
             0 MiB given to the printing process from OS
             0 MiB allocation reported by mallinfo(arena+hblkhd)
          5856 MiB available memory on the node where the printing process lives
------------------
     ethr =  8.08E-04,  avg # of iterations =  8.0

     negative rho (up, down):  7.999E-01 0.000E+00

     total cpu time spent up to now is      189.0 secs

     total energy              =   -4483.20061321 Ry
     estimated scf accuracy    <       2.12131320 Ry

     iteration # 13     ecut=    60.00 Ry     beta= 0.15
     Davidson diagonalization with overlap

---- Real-time Memory Report at c_bands before calling an iterative solver
             0 MiB given to the printing process from OS
             0 MiB allocation reported by mallinfo(arena+hblkhd)
          5802 MiB available memory on the node where the printing process lives
------------------
     ethr =  4.85E-04,  avg # of iterations =  4.3

     negative rho (up, down):  7.985E-01 0.000E+00

     total cpu time spent up to now is      205.2 secs

     total energy              =   -4483.28885607 Ry
     estimated scf accuracy    <       1.58042681 Ry

     iteration # 14     ecut=    60.00 Ry     beta= 0.15
     Davidson diagonalization with overlap

---- Real-time Memory Report at c_bands before calling an iterative solver
             0 MiB given to the printing process from OS
             0 MiB allocation reported by mallinfo(arena+hblkhd)
          5806 MiB available memory on the node where the printing process lives
------------------
     ethr =  3.62E-04,  avg # of iterations =  1.6

     negative rho (up, down):  8.090E-01 0.000E+00

     total cpu time spent up to now is      218.7 secs

     total energy              =   -4483.18210590 Ry
     estimated scf accuracy    <       0.89758804 Ry

     iteration # 15     ecut=    60.00 Ry     beta= 0.15
     Davidson diagonalization with overlap

---- Real-time Memory Report at c_bands before calling an iterative solver
             0 MiB given to the printing process from OS
             0 MiB allocation reported by mallinfo(arena+hblkhd)
          5817 MiB available memory on the node where the printing process lives
------------------
     ethr =  2.05E-04,  avg # of iterations =  4.5

     negative rho (up, down):  8.162E-01 0.000E+00

     total cpu time spent up to now is      234.9 secs

     total energy              =   -4483.14989982 Ry
     estimated scf accuracy    <       1.61201346 Ry

     iteration # 16     ecut=    60.00 Ry     beta= 0.15
     Davidson diagonalization with overlap

---- Real-time Memory Report at c_bands before calling an iterative solver
             0 MiB given to the printing process from OS
             0 MiB allocation reported by mallinfo(arena+hblkhd)
          5784 MiB available memory on the node where the printing process lives
------------------
     ethr =  2.05E-04,  avg # of iterations =  4.0

     negative rho (up, down):  8.148E-01 0.000E+00

     total cpu time spent up to now is      250.3 secs

     total energy              =   -4483.11315979 Ry
     estimated scf accuracy    <       1.51193147 Ry

     iteration # 17     ecut=    60.00 Ry     beta= 0.15
     Davidson diagonalization with overlap

---- Real-time Memory Report at c_bands before calling an iterative solver
             0 MiB given to the printing process from OS
             0 MiB allocation reported by mallinfo(arena+hblkhd)
          5783 MiB available memory on the node where the printing process lives
------------------
     ethr =  2.05E-04,  avg # of iterations =  3.3

     negative rho (up, down):  8.181E-01 0.000E+00

     total cpu time spent up to now is      265.1 secs

     total energy              =   -4483.09603048 Ry
     estimated scf accuracy    <       0.40241650 Ry

     iteration # 18     ecut=    60.00 Ry     beta= 0.15
     Davidson diagonalization with overlap

---- Real-time Memory Report at c_bands before calling an iterative solver
             0 MiB given to the printing process from OS
             0 MiB allocation reported by mallinfo(arena+hblkhd)
          5795 MiB available memory on the node where the printing process lives
------------------
     ethr =  9.21E-05,  avg # of iterations = 11.8

     negative rho (up, down):  8.195E-01 0.000E+00

     total cpu time spent up to now is      284.4 secs

     total energy              =   -4483.05777857 Ry
     estimated scf accuracy    <       0.49992703 Ry

     iteration # 19     ecut=    60.00 Ry     beta= 0.15
     Davidson diagonalization with overlap

---- Real-time Memory Report at c_bands before calling an iterative solver
             0 MiB given to the printing process from OS
             0 MiB allocation reported by mallinfo(arena+hblkhd)
          5773 MiB available memory on the node where the printing process lives
------------------
     ethr =  9.21E-05,  avg # of iterations =  4.7

     negative rho (up, down):  8.230E-01 0.000E+00

     total cpu time spent up to now is      300.6 secs

     total energy              =   -4483.03399083 Ry
     estimated scf accuracy    <       0.39650610 Ry

     iteration # 20     ecut=    60.00 Ry     beta= 0.15
     Davidson diagonalization with overlap

---- Real-time Memory Report at c_bands before calling an iterative solver
             0 MiB given to the printing process from OS
             0 MiB allocation reported by mallinfo(arena+hblkhd)
          5772 MiB available memory on the node where the printing process lives
------------------
     c_bands:  1 eigenvalues not converged
     ethr =  9.07E-05,  avg # of iterations =  7.5

     negative rho (up, down):  8.256E-01 0.000E+00

     total cpu time spent up to now is      317.7 secs

     total energy              =   -4483.01047487 Ry
     estimated scf accuracy    <       0.26921070 Ry

     iteration # 21     ecut=    60.00 Ry     beta= 0.15
     Davidson diagonalization with overlap

---- Real-time Memory Report at c_bands before calling an iterative solver
             0 MiB given to the printing process from OS
             0 MiB allocation reported by mallinfo(arena+hblkhd)
          5788 MiB available memory on the node where the printing process lives
------------------
     ethr =  6.16E-05,  avg # of iterations =  9.7

     negative rho (up, down):  8.317E-01 0.000E+00

     total cpu time spent up to now is      336.1 secs

     total energy              =   -4482.97610357 Ry
     estimated scf accuracy    <       0.35046789 Ry

     iteration # 22     ecut=    60.00 Ry     beta= 0.15
     Davidson diagonalization with overlap

---- Real-time Memory Report at c_bands before calling an iterative solver
             0 MiB given to the printing process from OS
             0 MiB allocation reported by mallinfo(arena+hblkhd)
          5779 MiB available memory on the node where the printing process lives
------------------
     ethr =  6.16E-05,  avg # of iterations =  9.2

     negative rho (up, down):  8.366E-01 0.000E+00

     total cpu time spent up to now is      354.4 secs

     total energy              =   -4482.98290050 Ry
     estimated scf accuracy    <       0.06444325 Ry

     iteration # 23     ecut=    60.00 Ry     beta= 0.15
     Davidson diagonalization with overlap

---- Real-time Memory Report at c_bands before calling an iterative solver
             0 MiB given to the printing process from OS
             0 MiB allocation reported by mallinfo(arena+hblkhd)
          5763 MiB available memory on the node where the printing process lives
------------------
     ethr =  1.47E-05,  avg # of iterations = 10.9

     negative rho (up, down):  8.374E-01 0.000E+00

     total cpu time spent up to now is      373.8 secs

     total energy              =   -4482.98081596 Ry
     estimated scf accuracy    <       0.03246520 Ry

     iteration # 24     ecut=    60.00 Ry     beta= 0.15
     Davidson diagonalization with overlap

---- Real-time Memory Report at c_bands before calling an iterative solver
             0 MiB given to the printing process from OS
             0 MiB allocation reported by mallinfo(arena+hblkhd)
          5634 MiB available memory on the node where the printing process lives
------------------
     ethr =  7.43E-06,  avg # of iterations =  9.2

     negative rho (up, down):  8.251E-01 0.000E+00

     total cpu time spent up to now is      392.5 secs

     total energy              =   -4482.97915588 Ry
     estimated scf accuracy    <       0.01944784 Ry

     iteration # 25     ecut=    60.00 Ry     beta= 0.15
     Davidson diagonalization with overlap

---- Real-time Memory Report at c_bands before calling an iterative solver
             0 MiB given to the printing process from OS
             0 MiB allocation reported by mallinfo(arena+hblkhd)
          5617 MiB available memory on the node where the printing process lives
------------------
     ethr =  4.45E-06,  avg # of iterations =  6.4

     negative rho (up, down):  8.177E-01 0.000E+00

     total cpu time spent up to now is      410.0 secs

     total energy              =   -4482.97849829 Ry
     estimated scf accuracy    <       0.01082016 Ry

     iteration # 26     ecut=    60.00 Ry     beta= 0.15
     Davidson diagonalization with overlap

---- Real-time Memory Report at c_bands before calling an iterative solver
             0 MiB given to the printing process from OS
             0 MiB allocation reported by mallinfo(arena+hblkhd)
          5618 MiB available memory on the node where the printing process lives
------------------
     ethr =  2.48E-06,  avg # of iterations =  7.2

     negative rho (up, down):  8.025E-01 0.000E+00

     total cpu time spent up to now is      427.1 secs

     total energy              =   -4482.97760931 Ry
     estimated scf accuracy    <       0.00766148 Ry

     iteration # 27     ecut=    60.00 Ry     beta= 0.15
     Davidson diagonalization with overlap

---- Real-time Memory Report at c_bands before calling an iterative solver
             0 MiB given to the printing process from OS
             0 MiB allocation reported by mallinfo(arena+hblkhd)
          5588 MiB available memory on the node where the printing process lives
------------------
     c_bands:  2 eigenvalues not converged
     ethr =  1.75E-06,  avg # of iterations =  8.5

     negative rho (up, down):  7.966E-01 0.000E+00

     total cpu time spent up to now is      445.4 secs

     total energy              =   -4482.97685146 Ry
     estimated scf accuracy    <       0.00536903 Ry

     iteration # 28     ecut=    60.00 Ry     beta= 0.15
     Davidson diagonalization with overlap

---- Real-time Memory Report at c_bands before calling an iterative solver
             0 MiB given to the printing process from OS
             0 MiB allocation reported by mallinfo(arena+hblkhd)
          5579 MiB available memory on the node where the printing process lives
------------------
     ethr =  1.23E-06,  avg # of iterations =  7.9

     negative rho (up, down):  7.941E-01 0.000E+00

     total cpu time spent up to now is      463.2 secs

     total energy              =   -4482.97677000 Ry
     estimated scf accuracy    <       0.00195899 Ry

     iteration # 29     ecut=    60.00 Ry     beta= 0.15
     Davidson diagonalization with overlap

---- Real-time Memory Report at c_bands before calling an iterative solver
             0 MiB given to the printing process from OS
             0 MiB allocation reported by mallinfo(arena+hblkhd)
          5475 MiB available memory on the node where the printing process lives
------------------
     ethr =  4.48E-07,  avg # of iterations =  9.2

     negative rho (up, down):  7.940E-01 0.000E+00

     total cpu time spent up to now is      481.4 secs

     total energy              =   -4482.97675876 Ry
     estimated scf accuracy    <       0.00093609 Ry

     iteration # 30     ecut=    60.00 Ry     beta= 0.15
     Davidson diagonalization with overlap

---- Real-time Memory Report at c_bands before calling an iterative solver
             0 MiB given to the printing process from OS
             0 MiB allocation reported by mallinfo(arena+hblkhd)
          5474 MiB available memory on the node where the printing process lives
------------------
     ethr =  2.14E-07,  avg # of iterations =  3.4

     negative rho (up, down):  7.931E-01 0.000E+00

     total cpu time spent up to now is      496.3 secs

     total energy              =   -4482.97669837 Ry
     estimated scf accuracy    <       0.00044762 Ry

     iteration # 31     ecut=    60.00 Ry     beta= 0.15
     Davidson diagonalization with overlap

---- Real-time Memory Report at c_bands before calling an iterative solver
             0 MiB given to the printing process from OS
             0 MiB allocation reported by mallinfo(arena+hblkhd)
          5491 MiB available memory on the node where the printing process lives
------------------
     ethr =  1.02E-07,  avg # of iterations =  3.6

     negative rho (up, down):  7.928E-01 0.000E+00

     total cpu time spent up to now is      511.9 secs

     total energy              =   -4482.97671518 Ry
     estimated scf accuracy    <       0.00019725 Ry

     iteration # 32     ecut=    60.00 Ry     beta= 0.15
     Davidson diagonalization with overlap

---- Real-time Memory Report at c_bands before calling an iterative solver
             0 MiB given to the printing process from OS
             0 MiB allocation reported by mallinfo(arena+hblkhd)
          5501 MiB available memory on the node where the printing process lives
------------------
     ethr =  4.51E-08,  avg # of iterations =  3.3

     negative rho (up, down):  7.926E-01 0.000E+00

     total cpu time spent up to now is      527.1 secs

     total energy              =   -4482.97672152 Ry
     estimated scf accuracy    <       0.00011755 Ry

     iteration # 33     ecut=    60.00 Ry     beta= 0.15
     Davidson diagonalization with overlap

---- Real-time Memory Report at c_bands before calling an iterative solver
             0 MiB given to the printing process from OS
             0 MiB allocation reported by mallinfo(arena+hblkhd)
          5542 MiB available memory on the node where the printing process lives
------------------
     ethr =  2.69E-08,  avg # of iterations =  2.2

     negative rho (up, down):  7.924E-01 0.000E+00

     total cpu time spent up to now is      541.9 secs

     total energy              =   -4482.97671859 Ry
     estimated scf accuracy    <       0.00007063 Ry

     iteration # 34     ecut=    60.00 Ry     beta= 0.15
     Davidson diagonalization with overlap

---- Real-time Memory Report at c_bands before calling an iterative solver
             0 MiB given to the printing process from OS
             0 MiB allocation reported by mallinfo(arena+hblkhd)
          5584 MiB available memory on the node where the printing process lives
------------------
     ethr =  1.62E-08,  avg # of iterations =  5.3

     negative rho (up, down):  7.922E-01 0.000E+00

     total cpu time spent up to now is      557.9 secs

     total energy              =   -4482.97672162 Ry
     estimated scf accuracy    <       0.00003579 Ry

     iteration # 35     ecut=    60.00 Ry     beta= 0.15
     Davidson diagonalization with overlap

---- Real-time Memory Report at c_bands before calling an iterative solver
             0 MiB given to the printing process from OS
             0 MiB allocation reported by mallinfo(arena+hblkhd)
          5621 MiB available memory on the node where the printing process lives
------------------
     ethr =  8.19E-09,  avg # of iterations =  4.4

     negative rho (up, down):  7.921E-01 0.000E+00

     total cpu time spent up to now is      573.7 secs

     total energy              =   -4482.97672712 Ry
     estimated scf accuracy    <       0.00001769 Ry

     iteration # 36     ecut=    60.00 Ry     beta= 0.15
     Davidson diagonalization with overlap

---- Real-time Memory Report at c_bands before calling an iterative solver
             0 MiB given to the printing process from OS
             0 MiB allocation reported by mallinfo(arena+hblkhd)
          5619 MiB available memory on the node where the printing process lives
------------------
     ethr =  4.05E-09,  avg # of iterations =  3.2

     negative rho (up, down):  7.921E-01 0.000E+00

     total cpu time spent up to now is      588.9 secs

     total energy              =   -4482.97672973 Ry
     estimated scf accuracy    <       0.00001233 Ry

     iteration # 37     ecut=    60.00 Ry     beta= 0.15
     Davidson diagonalization with overlap

---- Real-time Memory Report at c_bands before calling an iterative solver
             0 MiB given to the printing process from OS
             0 MiB allocation reported by mallinfo(arena+hblkhd)
          5631 MiB available memory on the node where the printing process lives
------------------
     ethr =  2.82E-09,  avg # of iterations =  2.5

     negative rho (up, down):  7.922E-01 0.000E+00

     total cpu time spent up to now is      603.7 secs

     total energy              =   -4482.97673331 Ry
     estimated scf accuracy    <       0.00001021 Ry

     iteration # 38     ecut=    60.00 Ry     beta= 0.15
     Davidson diagonalization with overlap

---- Real-time Memory Report at c_bands before calling an iterative solver
             0 MiB given to the printing process from OS
             0 MiB allocation reported by mallinfo(arena+hblkhd)
          5640 MiB available memory on the node where the printing process lives
------------------
     ethr =  2.34E-09,  avg # of iterations =  4.0

     negative rho (up, down):  7.923E-01 0.000E+00

     total cpu time spent up to now is      619.3 secs

     total energy              =   -4482.97673608 Ry
     estimated scf accuracy    <       0.00000650 Ry

     iteration # 39     ecut=    60.00 Ry     beta= 0.15
     Davidson diagonalization with overlap

---- Real-time Memory Report at c_bands before calling an iterative solver
             0 MiB given to the printing process from OS
             0 MiB allocation reported by mallinfo(arena+hblkhd)
          5643 MiB available memory on the node where the printing process lives
------------------
     ethr =  1.49E-09,  avg # of iterations =  4.4

     negative rho (up, down):  7.923E-01 0.000E+00

     total cpu time spent up to now is      635.1 secs

     total energy              =   -4482.97673714 Ry
     estimated scf accuracy    <       0.00000399 Ry

     iteration # 40     ecut=    60.00 Ry     beta= 0.15
     Davidson diagonalization with overlap

---- Real-time Memory Report at c_bands before calling an iterative solver
             0 MiB given to the printing process from OS
             0 MiB allocation reported by mallinfo(arena+hblkhd)
          5645 MiB available memory on the node where the printing process lives
------------------
     ethr =  9.13E-10,  avg # of iterations =  4.0

     negative rho (up, down):  7.923E-01 0.000E+00

     total cpu time spent up to now is      650.5 secs

     total energy              =   -4482.97673766 Ry
     estimated scf accuracy    <       0.00000330 Ry

     iteration # 41     ecut=    60.00 Ry     beta= 0.15
     Davidson diagonalization with overlap

---- Real-time Memory Report at c_bands before calling an iterative solver
             0 MiB given to the printing process from OS
             0 MiB allocation reported by mallinfo(arena+hblkhd)
          5643 MiB available memory on the node where the printing process lives
------------------
     ethr =  7.56E-10,  avg # of iterations =  2.7

     negative rho (up, down):  7.923E-01 0.000E+00

     total cpu time spent up to now is      665.2 secs

     total energy              =   -4482.97673789 Ry
     estimated scf accuracy    <       0.00000318 Ry

     iteration # 42     ecut=    60.00 Ry     beta= 0.15
     Davidson diagonalization with overlap

---- Real-time Memory Report at c_bands before calling an iterative solver
             0 MiB given to the printing process from OS
             0 MiB allocation reported by mallinfo(arena+hblkhd)
          5648 MiB available memory on the node where the printing process lives
------------------
     ethr =  7.27E-10,  avg # of iterations =  3.8

     negative rho (up, down):  7.923E-01 0.000E+00

     total cpu time spent up to now is      680.8 secs

     total energy              =   -4482.97673831 Ry
     estimated scf accuracy    <       0.00000247 Ry

     iteration # 43     ecut=    60.00 Ry     beta= 0.15
     Davidson diagonalization with overlap

---- Real-time Memory Report at c_bands before calling an iterative solver
             0 MiB given to the printing process from OS
             0 MiB allocation reported by mallinfo(arena+hblkhd)
          5639 MiB available memory on the node where the printing process lives
------------------
     ethr =  5.65E-10,  avg # of iterations =  4.3

     negative rho (up, down):  7.923E-01 0.000E+00

     total cpu time spent up to now is      696.8 secs

     total energy              =   -4482.97673823 Ry
     estimated scf accuracy    <       0.00000157 Ry

     iteration # 44     ecut=    60.00 Ry     beta= 0.15
     Davidson diagonalization with overlap

---- Real-time Memory Report at c_bands before calling an iterative solver
             0 MiB given to the printing process from OS
             0 MiB allocation reported by mallinfo(arena+hblkhd)
          5645 MiB available memory on the node where the printing process lives
------------------
     ethr =  3.59E-10,  avg # of iterations =  4.0

     negative rho (up, down):  7.923E-01 0.000E+00

     total cpu time spent up to now is      712.3 secs

     total energy              =   -4482.97673864 Ry
     estimated scf accuracy    <       0.00000083 Ry

     iteration # 45     ecut=    60.00 Ry     beta= 0.15
     Davidson diagonalization with overlap

---- Real-time Memory Report at c_bands before calling an iterative solver
             0 MiB given to the printing process from OS
             0 MiB allocation reported by mallinfo(arena+hblkhd)
          5649 MiB available memory on the node where the printing process lives
------------------
     ethr =  1.90E-10,  avg # of iterations =  4.3

     negative rho (up, down):  7.923E-01 0.000E+00

     total cpu time spent up to now is      727.8 secs

     total energy              =   -4482.97673877 Ry
     estimated scf accuracy    <       0.00000041 Ry

     iteration # 46     ecut=    60.00 Ry     beta= 0.15
     Davidson diagonalization with overlap

---- Real-time Memory Report at c_bands before calling an iterative solver
             0 MiB given to the printing process from OS
             0 MiB allocation reported by mallinfo(arena+hblkhd)
          5645 MiB available memory on the node where the printing process lives
------------------
     ethr =  9.31E-11,  avg # of iterations =  4.1

     negative rho (up, down):  7.923E-01 0.000E+00

     total cpu time spent up to now is      743.2 secs

     total energy              =   -4482.97673880 Ry
     estimated scf accuracy    <       0.00000021 Ry

     iteration # 47     ecut=    60.00 Ry     beta= 0.15
     Davidson diagonalization with overlap

---- Real-time Memory Report at c_bands before calling an iterative solver
             0 MiB given to the printing process from OS
             0 MiB allocation reported by mallinfo(arena+hblkhd)
          5644 MiB available memory on the node where the printing process lives
------------------
     ethr =  4.84E-11,  avg # of iterations =  4.6

     negative rho (up, down):  7.923E-01 0.000E+00

     total cpu time spent up to now is      759.4 secs

     total energy              =   -4482.97673878 Ry
     estimated scf accuracy    <       0.00000011 Ry

     iteration # 48     ecut=    60.00 Ry     beta= 0.15
     Davidson diagonalization with overlap

---- Real-time Memory Report at c_bands before calling an iterative solver
             0 MiB given to the printing process from OS
             0 MiB allocation reported by mallinfo(arena+hblkhd)
          5635 MiB available memory on the node where the printing process lives
------------------
     ethr =  2.46E-11,  avg # of iterations =  4.7

     negative rho (up, down):  7.923E-01 0.000E+00

     total cpu time spent up to now is      776.9 secs

     total energy              =   -4482.97673880 Ry
     estimated scf accuracy    <       0.00000003 Ry

     iteration # 49     ecut=    60.00 Ry     beta= 0.15
     Davidson diagonalization with overlap

---- Real-time Memory Report at c_bands before calling an iterative solver
             0 MiB given to the printing process from OS
             0 MiB allocation reported by mallinfo(arena+hblkhd)
          5618 MiB available memory on the node where the printing process lives
------------------
     ethr =  7.92E-12,  avg # of iterations =  3.0

     negative rho (up, down):  7.923E-01 0.000E+00

     total cpu time spent up to now is      792.7 secs

     total energy              =   -4482.97673882 Ry
     estimated scf accuracy    <       0.00000002 Ry

     iteration # 50     ecut=    60.00 Ry     beta= 0.15
     Davidson diagonalization with overlap

---- Real-time Memory Report at c_bands before calling an iterative solver
             0 MiB given to the printing process from OS
             0 MiB allocation reported by mallinfo(arena+hblkhd)
          5655 MiB available memory on the node where the printing process lives
------------------
     ethr =  4.29E-12,  avg # of iterations =  4.5

     negative rho (up, down):  7.923E-01 0.000E+00

     total cpu time spent up to now is      808.4 secs

     total energy              =   -4482.97673883 Ry
     estimated scf accuracy    <       0.00000001 Ry

     iteration # 51     ecut=    60.00 Ry     beta= 0.15
     Davidson diagonalization with overlap

---- Real-time Memory Report at c_bands before calling an iterative solver
             0 MiB given to the printing process from OS
             0 MiB allocation reported by mallinfo(arena+hblkhd)
          5633 MiB available memory on the node where the printing process lives
------------------
     ethr =  2.51E-12,  avg # of iterations =  4.5

     negative rho (up, down):  7.923E-01 0.000E+00

     total cpu time spent up to now is      824.1 secs

     End of self-consistent calculation

          k = 0.0000 0.0000 0.0000 ( 65197 PWs)   bands (ev):

   -92.3480 -92.2950 -92.2021 -92.1525 -92.0954 -92.0543 -92.0371 -91.9139
   -55.7012 -55.6814 -55.5599 -55.5492 -55.5413 -55.5359 -55.4998 -55.4716
   -55.4552 -55.4533 -55.4457 -55.4035 -55.3835 -55.3474 -55.3281 -55.2949
   -55.2879 -55.2433 -55.2409 -55.2401 -55.2316 -55.1884 -55.1678 -55.0805
   -30.9350 -30.9159 -30.7938 -30.7752 -30.7540 -30.6883 -30.5018 -30.4338
   -29.4988 -29.4554 -29.4307 -29.3213 -22.2586 -14.7329 -14.6940 -14.6107
   -14.4804 -14.2948 -14.1723 -13.8723 -13.8575 -13.8228 -13.7888 -13.7804
   -13.7421 -13.7315 -13.7140 -13.6994 -13.6722 -13.6482 -13.5820 -13.4344
   -13.2605 -13.2235 -13.1905 -13.1619 -13.1445 -13.1004 -13.0608 -12.9819
   -12.9093 -12.8211 -12.8122 -12.7677 -12.7552 -12.7326 -12.7169 -12.7024
   -12.6674 -12.6515 -12.6290 -12.6134 -12.6005 -12.5825 -12.5741 -12.5574
   -12.4904 -12.4683 -12.4559 -12.3543 -12.3214 -12.3074 -12.0001 -11.8554
   -11.7248 -11.6507 -11.5128 -11.4380 -11.4273 -11.4049 -11.3874 -11.3232
   -11.3062 -11.2712 -11.2426 -11.1313 -11.0507 -11.0471  -5.9516  -3.1611
    -3.1560  -2.5931  -2.3598  -2.1305  -1.9837  -1.9202  -1.7774  -1.4707
    -1.4565  -1.4358  -1.3524  -1.3345  -1.2668  -1.2511  -1.2088  -1.1641
    -0.9835  -0.7597  -0.7304  -0.5812  -0.5674  -0.5223  -0.5054  -0.4612
    -0.4450  -0.3845  -0.3583  -0.2898  -0.2779  -0.1974  -0.0714  -0.0565
    -0.0271   0.0553   0.0672   0.0796   0.1398   0.2198   0.2447   0.3130
     0.3341   0.3884   0.4716   0.5277   0.5473   0.5560   0.8114   0.8286
     0.9975   1.0677   1.1295   1.1697   1.2650   1.2800   1.2951   1.3669
     1.3948   1.4302   1.4879   1.6230   1.6751   1.6981   1.7154   1.7253
     1.7944   1.8723   1.9665   1.9820   2.0368   2.0583   2.0958   2.1190
     2.1258   2.1800   2.2342   2.2387   2.2736   2.3034   2.3710   2.4997
     2.5807   2.6299   2.6409   2.7906   2.8042   2.8541   2.8643   2.9645
     3.0044   3.0258   3.0320   3.0494   3.0539   3.0696   3.1456   3.2539
     3.2891   3.3015   3.3084   3.3755   3.3791   3.4032   3.4120   3.4198
     3.4300   3.4381   3.4515   3.4570   3.4697   3.4791   3.4869   3.5072
     3.5281   3.5334   3.5452   3.5627   3.6860   3.7382   4.4131   4.7459
     4.7843   5.1328   5.3790   5.4605   5.7230   6.2752   6.3148   6.3435
     6.6133   6.6302   6.6653   6.7139   7.0056   7.1285   7.2094   7.3414
     7.6421   7.6834   7.8440   7.8999   7.9285   7.9331   7.9680   8.0425
     8.3197   8.3623   8.3742   8.3982   8.5451   8.6099   8.6586

     occupation numbers 
     1.0000   1.0000   1.0000   1.0000   1.0000   1.0000   1.0000   1.0000
     1.0000   1.0000   1.0000   1.0000   1.0000   1.0000   1.0000   1.0000
     1.0000   1.0000   1.0000   1.0000   1.0000   1.0000   1.0000   1.0000
     1.0000   1.0000   1.0000   1.0000   1.0000   1.0000   1.0000   1.0000
     1.0000   1.0000   1.0000   1.0000   1.0000   1.0000   1.0000   1.0000
     1.0000   1.0000   1.0000   1.0000   1.0000   1.0000   1.0000   1.0000
     1.0000   1.0000   1.0000   1.0000   1.0000   1.0000   1.0000   1.0000
     1.0000   1.0000   1.0000   1.0000   1.0000   1.0000   1.0000   1.0000
     1.0000   1.0000   1.0000   1.0000   1.0000   1.0000   1.0000   1.0000
     1.0000   1.0000   1.0000   1.0000   1.0000   1.0000   1.0000   1.0000
     1.0000   1.0000   1.0000   1.0000   1.0000   1.0000   1.0000   1.0000
     1.0000   1.0000   1.0000   1.0000   1.0000   1.0000   1.0000   1.0000
     1.0000   1.0000   1.0000   1.0000   1.0000   1.0000   1.0000   1.0000
     1.0000   1.0000   1.0000   1.0000   1.0000   1.0000   1.0000   1.0000
     1.0000   1.0000   1.0000   1.0000   1.0000   1.0000   1.0000   1.0000
     1.0000   1.0000   1.0000   1.0000   1.0000   1.0000   1.0000   1.0000
     1.0000   1.0000   1.0000   1.0000   1.0000   1.0000   1.0000   1.0000
     1.0000   1.0000   1.0000   1.0000   1.0000   1.0000   1.0000   1.0000
     1.0000   1.0000   1.0000   1.0000   1.0000   1.0000   1.0000   1.0000
     1.0000   1.0000   1.0000   1.0000   1.0000   1.0000   1.0000   1.0000
     1.0000   0.9999   0.9999   0.9999   0.9998   0.9998   0.9998   0.9997
     0.9997   0.9996   0.9994   0.9989   0.9985   0.9984   0.9982   0.9981
     0.9974   0.9963   0.9945   0.9941   0.9926   0.9919   0.9906   0.9897
     0.9894   0.9870   0.9840   0.9837   0.9815   0.9794   0.9739   0.9599
     0.9484   0.9402   0.9383   0.9063   0.9028   0.8895   0.8866   0.8554
     0.8415   0.8337   0.8314   0.8248   0.8231   0.8170   0.7855   0.7357
     0.7183   0.7121   0.7086   0.6735   0.6716   0.6586   0.6537   0.6495
     0.6438   0.6393   0.6319   0.6288   0.6217   0.6163   0.6119   0.6003
     0.5883   0.5852   0.5783   0.5682   0.4954   0.4646   0.1376   0.0564
     0.0503   0.0154   0.0058   0.0041   0.0012   0.0001   0.0000   0.0000
     0.0000   0.0000   0.0000   0.0000   0.0000   0.0000   0.0000   0.0000
     0.0000   0.0000   0.0000   0.0000   0.0000   0.0000   0.0000   0.0000
     0.0000   0.0000   0.0000   0.0000   0.0000   0.0000   0.0000

          k = 0.0000 0.2500 0.0000 ( 65257 PWs)   bands (ev):

   -92.3480 -92.2950 -92.2021 -92.1525 -92.0954 -92.0543 -92.0371 -91.9139
   -55.7012 -55.6814 -55.5599 -55.5492 -55.5413 -55.5359 -55.4998 -55.4716
   -55.4552 -55.4533 -55.4457 -55.4035 -55.3835 -55.3474 -55.3281 -55.2949
   -55.2879 -55.2433 -55.2409 -55.2401 -55.2316 -55.1884 -55.1678 -55.0805
   -30.9348 -30.9157 -30.7930 -30.7754 -30.7548 -30.6884 -30.5013 -30.4343
   -29.4982 -29.4551 -29.4313 -29.3216 -22.2586 -14.6960 -14.6679 -14.5858
   -14.4510 -14.3334 -14.1624 -14.0185 -13.8390 -13.8080 -13.7886 -13.7858
   -13.7581 -13.7002 -13.6944 -13.6791 -13.6611 -13.6271 -13.5021 -13.4643
   -13.3032 -13.2851 -13.2330 -13.1981 -13.1531 -13.1157 -13.0796 -13.0008
   -12.9685 -12.9387 -12.8712 -12.8063 -12.7882 -12.7651 -12.7470 -12.6787
   -12.6405 -12.6137 -12.5919 -12.5623 -12.5353 -12.5288 -12.5225 -12.4835
   -12.4668 -12.4554 -12.4384 -12.3418 -12.2327 -12.1673 -12.0614 -11.9067
   -11.7827 -11.7189 -11.4783 -11.4348 -11.4076 -11.3795 -11.3627 -11.3151
   -11.3039 -11.2816 -11.2469 -11.1456 -11.0924 -11.0817  -5.9516  -3.1611
    -3.1561  -2.4578  -2.2355  -2.0983  -1.9158  -1.8725  -1.7083  -1.4899
    -1.4037  -1.3907  -1.3330  -1.2318  -1.2164  -1.1824  -1.1568  -1.1129
    -0.9148  -0.7862  -0.7740  -0.6978  -0.6868  -0.5825  -0.5523  -0.4977
    -0.4722  -0.4288  -0.3659  -0.3408  -0.3072  -0.2791  -0.2617  -0.2268
    -0.1559  -0.1018  -0.0373   0.0693   0.0932   0.1316   0.2491   0.2841
     0.3445   0.3957   0.4520   0.4723   0.5046   0.5609   0.8596   0.9485
     0.9788   1.0647   1.1060   1.1258   1.2552   1.2731   1.3655   1.3925
     1.4236   1.5383   1.6254   1.6512   1.6756   1.6920   1.7211   1.7825
     1.8083   1.8349   1.8842   1.9137   1.9439   2.0233   2.0571   2.0883
     2.1466   2.1963   2.2254   2.2574   2.2921   2.3137   2.4071   2.5382
     2.6081   2.6251   2.7075   2.7495   2.7878   2.7928   2.8611   2.9040
     2.9825   3.0164   3.0303   3.0474   3.0539   3.2155   3.2364   3.2685
     3.2911   3.3078   3.3169   3.3244   3.3325   3.3628   3.3649   3.3818
     3.3867   3.3977   3.4146   3.4254   3.4354   3.4579   3.4688   3.4737
     3.5090   3.5258   3.5855   3.9367   3.9678   4.2270   4.5977   4.7391
     4.8983   5.0789   5.4019   5.5069   5.8473   5.9142   6.1570   6.2980
     6.3303   6.4479   6.5171   6.7405   6.9081   7.0659   7.2419   7.5412
     7.5975   7.6981   7.7899   7.8856   7.9219   7.9651   8.1002   8.2328
     8.2995   8.4405   8.4980   8.5751   8.6244   8.6730   8.9278

     occupation numbers 
     1.0000   1.0000   1.0000   1.0000   1.0000   1.0000   1.0000   1.0000
     1.0000   1.0000   1.0000   1.0000   1.0000   1.0000   1.0000   1.0000
     1.0000   1.0000   1.0000   1.0000   1.0000   1.0000   1.0000   1.0000
     1.0000   1.0000   1.0000   1.0000   1.0000   1.0000   1.0000   1.0000
     1.0000   1.0000   1.0000   1.0000   1.0000   1.0000   1.0000   1.0000
     1.0000   1.0000   1.0000   1.0000   1.0000   1.0000   1.0000   1.0000
     1.0000   1.0000   1.0000   1.0000   1.0000   1.0000   1.0000   1.0000
     1.0000   1.0000   1.0000   1.0000   1.0000   1.0000   1.0000   1.0000
     1.0000   1.0000   1.0000   1.0000   1.0000   1.0000   1.0000   1.0000
     1.0000   1.0000   1.0000   1.0000   1.0000   1.0000   1.0000   1.0000
     1.0000   1.0000   1.0000   1.0000   1.0000   1.0000   1.0000   1.0000
     1.0000   1.0000   1.0000   1.0000   1.0000   1.0000   1.0000   1.0000
     1.0000   1.0000   1.0000   1.0000   1.0000   1.0000   1.0000   1.0000
     1.0000   1.0000   1.0000   1.0000   1.0000   1.0000   1.0000   1.0000
     1.0000   1.0000   1.0000   1.0000   1.0000   1.0000   1.0000   1.0000
     1.0000   1.0000   1.0000   1.0000   1.0000   1.0000   1.0000   1.0000
     1.0000   1.0000   1.0000   1.0000   1.0000   1.0000   1.0000   1.0000
     1.0000   1.0000   1.0000   1.0000   1.0000   1.0000   1.0000   1.0000
     1.0000   1.0000   1.0000   1.0000   1.0000   1.0000   1.0000   1.0000
     1.0000   1.0000   1.0000   1.0000   1.0000   1.0000   1.0000   1.0000
     1.0000   0.9999   0.9999   0.9999   0.9998   0.9998   0.9997   0.9997
     0.9996   0.9993   0.9988   0.9987   0.9985   0.9984   0.9982   0.9976
     0.9973   0.9969   0.9961   0.9956   0.9950   0.9930   0.9920   0.9909
     0.9885   0.9861   0.9845   0.9826   0.9802   0.9786   0.9705   0.9548
     0.9440   0.9411   0.9253   0.9161   0.9070   0.9057   0.8875   0.8749
     0.8492   0.8372   0.8320   0.8256   0.8231   0.7540   0.7442   0.7286
     0.7173   0.7089   0.7042   0.7004   0.6962   0.6803   0.6792   0.6701
     0.6675   0.6615   0.6523   0.6464   0.6409   0.6283   0.6221   0.6194
     0.5992   0.5896   0.5548   0.3506   0.3337   0.2076   0.0861   0.0576
     0.0350   0.0188   0.0052   0.0033   0.0006   0.0005   0.0001   0.0001
     0.0000   0.0000   0.0000   0.0000   0.0000   0.0000   0.0000   0.0000
     0.0000   0.0000   0.0000   0.0000   0.0000   0.0000   0.0000   0.0000
     0.0000   0.0000   0.0000   0.0000   0.0000   0.0000   0.0000

          k = 0.0000-0.5000 0.0000 ( 65180 PWs)   bands (ev):

   -92.3480 -92.2950 -92.2021 -92.1525 -92.0954 -92.0543 -92.0371 -91.9139
   -55.7012 -55.6814 -55.5599 -55.5492 -55.5413 -55.5359 -55.4998 -55.4716
   -55.4552 -55.4533 -55.4457 -55.4035 -55.3835 -55.3474 -55.3281 -55.2949
   -55.2879 -55.2433 -55.2409 -55.2401 -55.2316 -55.1884 -55.1678 -55.0805
   -30.9346 -30.9156 -30.7922 -30.7756 -30.7556 -30.6886 -30.5008 -30.4348
   -29.4976 -29.4548 -29.4320 -29.3219 -22.2586 -14.6628 -14.6140 -14.5636
   -14.4355 -14.3504 -14.2105 -14.0685 -13.9385 -13.8094 -13.7871 -13.7505
   -13.7012 -13.6903 -13.6436 -13.6248 -13.5806 -13.5584 -13.5357 -13.4975
   -13.4668 -13.4362 -13.2364 -13.1788 -13.1617 -13.1101 -13.0938 -13.0141
   -13.0061 -12.9472 -12.9419 -12.8767 -12.7770 -12.7637 -12.7358 -12.7229
   -12.6288 -12.6140 -12.5871 -12.5390 -12.5289 -12.5169 -12.4813 -12.4625
   -12.4215 -12.3629 -12.3414 -12.3090 -12.1725 -12.0905 -11.9820 -11.9427
   -11.8980 -11.8636 -11.4317 -11.4299 -11.4028 -11.3653 -11.3311 -11.3201
   -11.2767 -11.2728 -11.2282 -11.1674 -11.1533 -11.1388  -5.9516  -3.1611
    -3.1563  -2.2429  -2.1839  -2.0323  -1.9598  -1.6787  -1.5968  -1.4681
    -1.3300  -1.2923  -1.2739  -1.1953  -1.1635  -1.0831  -1.0473  -0.9706
    -0.9299  -0.8901  -0.8634  -0.8077  -0.7707  -0.7217  -0.6871  -0.6543
    -0.6191  -0.5097  -0.4644  -0.4317  -0.4302  -0.3439  -0.3111  -0.2889
    -0.2430  -0.1548  -0.0890  -0.0024   0.0268   0.1260   0.1649   0.3188
     0.3541   0.3798   0.4242   0.5383   0.5999   0.7410   0.8073   0.8143
     0.9436   0.9861   1.0718   1.2216   1.3253   1.3584   1.3949   1.4008
     1.4368   1.4574   1.4938   1.5103   1.5206   1.6303   1.6883   1.7196
     1.7456   2.0059   2.0339   2.0533   2.1393   2.1688   2.2053   2.2204
     2.2554   2.2646   2.2709   2.3023   2.3506   2.3718   2.3991   2.4142
     2.4429   2.4975   2.5794   2.6064   2.7810   2.9528   2.9617   2.9757
     3.0128   3.0174   3.0304   3.0334   3.0524   3.0819   3.0945   3.1492
     3.1691   3.2468   3.2590   3.3289   3.3333   3.3597   3.3628   3.3802
     3.3832   3.3868   3.3934   3.3956   3.4074   3.4277   3.4294   3.4940
     3.5000   3.5154   3.5696   4.4642   4.4676   4.5176   4.5819   4.9759
     5.0967   5.2301   5.3443   5.5325   5.6748   5.7935   5.8867   6.0299
     6.2209   6.3734   6.3882   6.4440   7.0112   7.0809   7.1453   7.3984
     7.5948   7.6103   7.7716   8.0461   8.0594   8.1566   8.2028   8.4335
     8.4459   8.5511   8.6429   8.7360   8.7700   8.8566   8.9578

     occupation numbers 
     1.0000   1.0000   1.0000   1.0000   1.0000   1.0000   1.0000   1.0000
     1.0000   1.0000   1.0000   1.0000   1.0000   1.0000   1.0000   1.0000
     1.0000   1.0000   1.0000   1.0000   1.0000   1.0000   1.0000   1.0000
     1.0000   1.0000   1.0000   1.0000   1.0000   1.0000   1.0000   1.0000
     1.0000   1.0000   1.0000   1.0000   1.0000   1.0000   1.0000   1.0000
     1.0000   1.0000   1.0000   1.0000   1.0000   1.0000   1.0000   1.0000
     1.0000   1.0000   1.0000   1.0000   1.0000   1.0000   1.0000   1.0000
     1.0000   1.0000   1.0000   1.0000   1.0000   1.0000   1.0000   1.0000
     1.0000   1.0000   1.0000   1.0000   1.0000   1.0000   1.0000   1.0000
     1.0000   1.0000   1.0000   1.0000   1.0000   1.0000   1.0000   1.0000
     1.0000   1.0000   1.0000   1.0000   1.0000   1.0000   1.0000   1.0000
     1.0000   1.0000   1.0000   1.0000   1.0000   1.0000   1.0000   1.0000
     1.0000   1.0000   1.0000   1.0000   1.0000   1.0000   1.0000   1.0000
     1.0000   1.0000   1.0000   1.0000   1.0000   1.0000   1.0000   1.0000
     1.0000   1.0000   1.0000   1.0000   1.0000   1.0000   1.0000   1.0000
     1.0000   1.0000   1.0000   1.0000   1.0000   1.0000   1.0000   1.0000
     1.0000   1.0000   1.0000   1.0000   1.0000   1.0000   1.0000   1.0000
     1.0000   1.0000   1.0000   1.0000   1.0000   1.0000   1.0000   1.0000
     1.0000   1.0000   1.0000   1.0000   1.0000   1.0000   1.0000   1.0000
     1.0000   1.0000   1.0000   1.0000   1.0000   1.0000   1.0000   1.0000
     1.0000   1.0000   0.9999   0.9999   0.9998   0.9997   0.9997   0.9996
     0.9996   0.9995   0.9994   0.9994   0.9993   0.9988   0.9984   0.9982
     0.9979   0.9935   0.9927   0.9921   0.9889   0.9875   0.9856   0.9848
     0.9827   0.9821   0.9817   0.9795   0.9757   0.9738   0.9712   0.9697
     0.9667   0.9602   0.9486   0.9443   0.9086   0.8593   0.8564   0.8516
     0.8385   0.8368   0.8320   0.8309   0.8237   0.8121   0.8070   0.7840
     0.7752   0.7392   0.7333   0.6981   0.6958   0.6820   0.6803   0.6710
     0.6694   0.6675   0.6639   0.6627   0.6563   0.6451   0.6442   0.6079
     0.6044   0.5956   0.5641   0.1216   0.1206   0.1063   0.0898   0.0270
     0.0176   0.0106   0.0067   0.0029   0.0015   0.0008   0.0005   0.0002
     0.0001   0.0000   0.0000   0.0000   0.0000   0.0000   0.0000   0.0000
     0.0000   0.0000   0.0000   0.0000   0.0000   0.0000   0.0000   0.0000
     0.0000   0.0000   0.0000   0.0000   0.0000   0.0000   0.0000

          k = 0.2500 0.2500 0.0000 ( 65198 PWs)   bands (ev):

   -92.3480 -92.2950 -92.2021 -92.1525 -92.0954 -92.0543 -92.0371 -91.9139
   -55.7012 -55.6814 -55.5599 -55.5492 -55.5413 -55.5359 -55.4998 -55.4716
   -55.4552 -55.4533 -55.4457 -55.4035 -55.3835 -55.3474 -55.3281 -55.2949
   -55.2879 -55.2433 -55.2409 -55.2401 -55.2316 -55.1884 -55.1678 -55.0805
   -30.9331 -30.9175 -30.7930 -30.7750 -30.7547 -30.6888 -30.5014 -30.4344
   -29.4972 -29.4561 -29.4310 -29.3220 -22.2586 -14.6678 -14.6321 -14.5582
   -14.4406 -14.3255 -14.2019 -14.1238 -13.9222 -13.7875 -13.7624 -13.7512
   -13.7159 -13.6857 -13.6637 -13.6403 -13.6059 -13.5908 -13.4948 -13.4785
   -13.3195 -13.3049 -13.2746 -13.2550 -13.2081 -13.1669 -13.1246 -13.0832
   -12.9954 -12.9598 -12.8889 -12.8009 -12.7630 -12.7482 -12.7123 -12.6806
   -12.6697 -12.6209 -12.6058 -12.5927 -12.5638 -12.5410 -12.4733 -12.4292
   -12.4018 -12.3886 -12.3719 -12.3378 -12.1730 -12.1100 -12.1020 -11.9358
   -11.8177 -11.7594 -11.4505 -11.4185 -11.4079 -11.4008 -11.3381 -11.3038
   -11.2969 -11.2612 -11.2539 -11.1621 -11.1207 -11.1030  -5.9516  -3.1613
    -3.1561  -2.3197  -2.1098  -1.9926  -1.8983  -1.7768  -1.7115  -1.5149
    -1.3689  -1.3489  -1.3199  -1.2263  -1.1923  -1.0992  -1.0722  -1.0220
    -0.8902  -0.8424  -0.7694  -0.7243  -0.6805  -0.6561  -0.6312  -0.5901
    -0.5734  -0.4836  -0.4341  -0.3699  -0.3214  -0.2928  -0.2401  -0.2291
    -0.1659  -0.1141  -0.0572  -0.0252   0.0608   0.1120   0.1416   0.1817
     0.2355   0.2991   0.3443   0.3703   0.4358   0.4748   0.7537   0.9002
     0.9381   0.9910   1.0316   1.0789   1.1379   1.2027   1.2396   1.5147
     1.5861   1.6600   1.6854   1.7313   1.7651   1.8013   1.8375   1.8549
     1.8837   1.9214   1.9330   1.9504   1.9925   2.0308   2.0711   2.1161
     2.1544   2.1717   2.1937   2.2354   2.2859   2.3133   2.4475   2.5159
     2.5564   2.5844   2.6413   2.7092   2.7410   2.7792   2.8009   2.8129
     2.9256   2.9652   3.0243   3.0509   3.0616   3.2260   3.2439   3.2497
     3.2655   3.2795   3.2930   3.3057   3.3128   3.3233   3.3369   3.3491
     3.3676   3.3734   3.3854   3.4058   3.4195   3.4293   3.4600   3.7618
     3.8521   3.8919   3.9557   3.9667   4.1993   4.3035   4.6320   4.7915
     4.9721   5.1269   5.3183   5.5467   5.9060   5.9778   6.0157   6.1189
     6.1920   6.2349   6.3538   6.4022   6.9467   6.9978   7.0840   7.2423
     7.7061   7.8129   7.8583   7.9102   8.0141   8.1376   8.2198   8.3080
     8.4351   8.4675   8.5553   8.7032   8.7079   8.7731   8.8288

     occupation numbers 
     1.0000   1.0000   1.0000   1.0000   1.0000   1.0000   1.0000   1.0000
     1.0000   1.0000   1.0000   1.0000   1.0000   1.0000   1.0000   1.0000
     1.0000   1.0000   1.0000   1.0000   1.0000   1.0000   1.0000   1.0000
     1.0000   1.0000   1.0000   1.0000   1.0000   1.0000   1.0000   1.0000
     1.0000   1.0000   1.0000   1.0000   1.0000   1.0000   1.0000   1.0000
     1.0000   1.0000   1.0000   1.0000   1.0000   1.0000   1.0000   1.0000
     1.0000   1.0000   1.0000   1.0000   1.0000   1.0000   1.0000   1.0000
     1.0000   1.0000   1.0000   1.0000   1.0000   1.0000   1.0000   1.0000
     1.0000   1.0000   1.0000   1.0000   1.0000   1.0000   1.0000   1.0000
     1.0000   1.0000   1.0000   1.0000   1.0000   1.0000   1.0000   1.0000
     1.0000   1.0000   1.0000   1.0000   1.0000   1.0000   1.0000   1.0000
     1.0000   1.0000   1.0000   1.0000   1.0000   1.0000   1.0000   1.0000
     1.0000   1.0000   1.0000   1.0000   1.0000   1.0000   1.0000   1.0000
     1.0000   1.0000   1.0000   1.0000   1.0000   1.0000   1.0000   1.0000
     1.0000   1.0000   1.0000   1.0000   1.0000   1.0000   1.0000   1.0000
     1.0000   1.0000   1.0000   1.0000   1.0000   1.0000   1.0000   1.0000
     1.0000   1.0000   1.0000   1.0000   1.0000   1.0000   1.0000   1.0000
     1.0000   1.0000   1.0000   1.0000   1.0000   1.0000   1.0000   1.0000
     1.0000   1.0000   1.0000   1.0000   1.0000   1.0000   1.0000   1.0000
     1.0000   1.0000   1.0000   1.0000   1.0000   1.0000   1.0000   1.0000
     1.0000   1.0000   1.0000   0.9999   0.9999   0.9999   0.9999   0.9993
     0.9991   0.9986   0.9985   0.9981   0.9978   0.9973   0.9969   0.9966
     0.9961   0.9955   0.9952   0.9949   0.9938   0.9928   0.9915   0.9898
     0.9882   0.9874   0.9863   0.9839   0.9807   0.9787   0.9662   0.9578
     0.9521   0.9479   0.9382   0.9249   0.9180   0.9091   0.9037   0.9006
     0.8681   0.8552   0.8343   0.8242   0.8201   0.7491   0.7406   0.7377
     0.7301   0.7231   0.7164   0.7100   0.7064   0.7010   0.6939   0.6875
     0.6777   0.6746   0.6682   0.6572   0.6496   0.6442   0.6271   0.4507
     0.3982   0.3756   0.3402   0.3343   0.2196   0.1766   0.0784   0.0492
     0.0274   0.0157   0.0074   0.0028   0.0005   0.0003   0.0003   0.0001
     0.0001   0.0001   0.0000   0.0000   0.0000   0.0000   0.0000   0.0000
     0.0000   0.0000   0.0000   0.0000   0.0000   0.0000   0.0000   0.0000
     0.0000   0.0000   0.0000   0.0000   0.0000   0.0000   0.0000

          k = 0.2500-0.5000 0.0000 ( 65138 PWs)   bands (ev):

   -92.3480 -92.2950 -92.2021 -92.1525 -92.0954 -92.0543 -92.0371 -91.9139
   -55.7012 -55.6814 -55.5599 -55.5492 -55.5413 -55.5359 -55.4998 -55.4716
   -55.4552 -55.4533 -55.4457 -55.4035 -55.3835 -55.3474 -55.3281 -55.2949
   -55.2879 -55.2433 -55.2409 -55.2401 -55.2316 -55.1884 -55.1678 -55.0805
   -30.9329 -30.9173 -30.7922 -30.7752 -30.7555 -30.6890 -30.5010 -30.4349
   -29.4966 -29.4558 -29.4316 -29.3223 -22.2586 -14.6323 -14.5870 -14.5203
   -14.4041 -14.3746 -14.2514 -14.1695 -14.0362 -13.7869 -13.7267 -13.6796
   -13.6479 -13.6294 -13.6125 -13.5968 -13.5648 -13.5465 -13.5142 -13.4743
   -13.4520 -13.4260 -13.3199 -13.2715 -13.2263 -13.1927 -13.1488 -13.1232
   -13.0525 -13.0124 -12.8643 -12.8003 -12.7822 -12.7172 -12.7089 -12.6828
   -12.6468 -12.6284 -12.6014 -12.5706 -12.5330 -12.5222 -12.4749 -12.4539
   -12.4357 -12.3455 -12.3128 -12.2816 -12.1791 -12.0770 -11.9796 -11.9265
   -11.8872 -11.8612 -11.4258 -11.4140 -11.4032 -11.3762 -11.3444 -11.3166
   -11.2746 -11.2475 -11.2248 -11.1802 -11.1543 -11.1427  -5.9516  -3.1613
    -3.1563  -2.1012  -2.0362  -1.9063  -1.8288  -1.6994  -1.6170  -1.4926
    -1.3413  -1.2876  -1.2655  -1.2030  -1.1899  -1.0940  -1.0259  -0.9405
    -0.8925  -0.8830  -0.8187  -0.7777  -0.7423  -0.6950  -0.6574  -0.6229
    -0.5829  -0.5725  -0.5262  -0.4979  -0.4560  -0.4258  -0.3580  -0.2566
    -0.2206  -0.1407  -0.0761  -0.0278   0.0142   0.0355   0.0873   0.2466
     0.2539   0.3660   0.3962   0.4065   0.4522   0.4814   0.5172   0.5498
     0.6238   0.8867   0.9820   1.0363   1.1012   1.3745   1.3953   1.4885
     1.5116   1.6831   1.7161   1.7569   1.7814   1.7983   1.8191   1.8795
     1.9261   1.9623   2.0342   2.1215   2.1579   2.1810   2.1949   2.2281
     2.2448   2.2512   2.2918   2.3076   2.3271   2.3579   2.3761   2.4057
     2.4350   2.4957   2.5350   2.6103   2.7506   2.9052   2.9204   2.9395
     2.9659   2.9903   3.0164   3.0264   3.0398   3.0497   3.0607   3.0769
     3.1754   3.2250   3.2443   3.2486   3.2630   3.2833   3.2972   3.3156
     3.3238   3.3555   3.3668   3.3822   3.3899   3.3982   3.4097   3.9193
     3.9368   4.0932   4.1426   4.4669   4.5217   4.5264   4.6488   5.0367
     5.1267   5.2598   5.3815   5.4942   5.6453   5.7225   5.8436   5.9238
     6.0722   6.1184   6.3135   6.4940   6.5987   6.6247   7.1574   7.3095
     7.5226   7.7058   7.9480   8.0685   8.1714   8.2134   8.3431   8.4164
     8.5531   8.6388   8.6968   8.8002   8.8614   8.8947   8.9337

     occupation numbers 
     1.0000   1.0000   1.0000   1.0000   1.0000   1.0000   1.0000   1.0000
     1.0000   1.0000   1.0000   1.0000   1.0000   1.0000   1.0000   1.0000
     1.0000   1.0000   1.0000   1.0000   1.0000   1.0000   1.0000   1.0000
     1.0000   1.0000   1.0000   1.0000   1.0000   1.0000   1.0000   1.0000
     1.0000   1.0000   1.0000   1.0000   1.0000   1.0000   1.0000   1.0000
     1.0000   1.0000   1.0000   1.0000   1.0000   1.0000   1.0000   1.0000
     1.0000   1.0000   1.0000   1.0000   1.0000   1.0000   1.0000   1.0000
     1.0000   1.0000   1.0000   1.0000   1.0000   1.0000   1.0000   1.0000
     1.0000   1.0000   1.0000   1.0000   1.0000   1.0000   1.0000   1.0000
     1.0000   1.0000   1.0000   1.0000   1.0000   1.0000   1.0000   1.0000
     1.0000   1.0000   1.0000   1.0000   1.0000   1.0000   1.0000   1.0000
     1.0000   1.0000   1.0000   1.0000   1.0000   1.0000   1.0000   1.0000
     1.0000   1.0000   1.0000   1.0000   1.0000   1.0000   1.0000   1.0000
     1.0000   1.0000   1.0000   1.0000   1.0000   1.0000   1.0000   1.0000
     1.0000   1.0000   1.0000   1.0000   1.0000   1.0000   1.0000   1.0000
     1.0000   1.0000   1.0000   1.0000   1.0000   1.0000   1.0000   1.0000
     1.0000   1.0000   1.0000   1.0000   1.0000   1.0000   1.0000   1.0000
     1.0000   1.0000   1.0000   1.0000   1.0000   1.0000   1.0000   1.0000
     1.0000   1.0000   1.0000   1.0000   1.0000   1.0000   1.0000   1.0000
     1.0000   1.0000   1.0000   1.0000   1.0000   1.0000   1.0000   1.0000
     1.0000   1.0000   1.0000   1.0000   0.9999   0.9997   0.9997   0.9994
     0.9994   0.9985   0.9982   0.9978   0.9976   0.9974   0.9971   0.9962
     0.9954   0.9946   0.9927   0.9896   0.9880   0.9869   0.9862   0.9844
     0.9834   0.9830   0.9802   0.9791   0.9776   0.9750   0.9734   0.9706
     0.9676   0.9605   0.9552   0.9436   0.9158   0.8745   0.8698   0.8637
     0.8549   0.8465   0.8372   0.8335   0.8285   0.8247   0.8205   0.8141
     0.7724   0.7496   0.7404   0.7383   0.7313   0.7212   0.7143   0.7049
     0.7007   0.6841   0.6781   0.6699   0.6658   0.6613   0.6550   0.3602
     0.3506   0.2689   0.2453   0.1208   0.1052   0.1040   0.0748   0.0218
     0.0157   0.0094   0.0057   0.0035   0.0017   0.0012   0.0007   0.0004
     0.0002   0.0001   0.0000   0.0000   0.0000   0.0000   0.0000   0.0000
     0.0000   0.0000   0.0000   0.0000   0.0000   0.0000   0.0000   0.0000
     0.0000   0.0000   0.0000   0.0000   0.0000   0.0000   0.0000

          k =-0.5000-0.5000 0.0000 ( 65132 PWs)   bands (ev):

   -92.3480 -92.2950 -92.2021 -92.1525 -92.0954 -92.0543 -92.0371 -91.9139
   -55.7012 -55.6814 -55.5599 -55.5492 -55.5413 -55.5359 -55.4998 -55.4716
   -55.4552 -55.4533 -55.4457 -55.4035 -55.3835 -55.3474 -55.3281 -55.2949
   -55.2879 -55.2433 -55.2409 -55.2401 -55.2316 -55.1884 -55.1678 -55.0805
   -30.9306 -30.9196 -30.7921 -30.7749 -30.7553 -30.6893 -30.5011 -30.4350
   -29.4956 -29.4568 -29.4312 -29.3228 -22.2586 -14.5859 -14.5598 -14.4421
   -14.4318 -14.3412 -14.2988 -14.2708 -14.1362 -13.7867 -13.6377 -13.6282
   -13.5914 -13.5753 -13.5560 -13.5454 -13.5108 -13.5037 -13.4934 -13.4807
   -13.4673 -13.3892 -13.3816 -13.3584 -13.3197 -13.3180 -13.2193 -13.2141
   -13.1016 -13.0642 -12.8147 -12.7793 -12.7144 -12.6938 -12.6838 -12.6756
   -12.6428 -12.6392 -12.6310 -12.6114 -12.5381 -12.5181 -12.4776 -12.4534
   -12.4309 -12.3597 -12.2627 -12.2552 -12.1954 -12.0638 -11.9761 -11.9088
   -11.8769 -11.8593 -11.4225 -11.4101 -11.3922 -11.3758 -11.3406 -11.3225
   -11.2894 -11.2281 -11.2076 -11.2021 -11.1518 -11.1484  -5.9516  -3.1615
    -3.1563  -1.8772  -1.8014  -1.7933  -1.7199  -1.6805  -1.6022  -1.5345
    -1.4086  -1.2916  -1.2619  -1.2212  -1.1652  -1.0933  -1.0801  -1.0078
    -0.9658  -0.8498  -0.8219  -0.7725  -0.7417  -0.6777  -0.6338  -0.6145
    -0.6033  -0.5495  -0.5027  -0.4898  -0.3753  -0.3171  -0.2724  -0.2232
    -0.1974  -0.1847  -0.1506  -0.1117  -0.0745  -0.0634   0.0238   0.0900
     0.1388   0.1601   0.2362   0.2877   0.2949   0.3570   0.3863   0.3942
     0.4031   0.8554   0.8982   0.9832   1.0056   1.4037   1.4188   1.4509
     1.4911   1.7658   1.7848   1.7908   1.8319   1.9640   2.0610   2.0861
     2.1220   2.1362   2.1589   2.1696   2.2021   2.2073   2.2181   2.2302
     2.2915   2.2963   2.3215   2.3251   2.3517   2.3623   2.4044   2.4314
     2.4438   2.4795   2.5049   2.5786   2.6466   2.9164   2.9485   2.9677
     2.9885   2.9938   3.0207   3.0288   3.0325   3.0481   3.0515   3.0620
     3.0803   3.1041   3.1115   3.1764   3.1813   3.2006   3.2154   3.2276
     3.2478   3.2511   3.2600   3.3628   3.3678   3.3935   3.4047   4.3427
     4.3720   4.3862   4.4064   4.6695   4.7412   4.7699   5.0084   5.1309
     5.1593   5.2161   5.3363   5.3882   5.4417   5.5559   5.5638   5.7678
     5.9708   6.0625   6.1313   6.2210   6.5486   6.7155   6.7554   7.2636
     7.5302   7.5868   7.6816   8.2740   8.2911   8.3658   8.4885   8.5541
     8.6502   8.8723   8.8847   8.9185   8.9349   8.9511   8.9614

     occupation numbers 
     1.0000   1.0000   1.0000   1.0000   1.0000   1.0000   1.0000   1.0000
     1.0000   1.0000   1.0000   1.0000   1.0000   1.0000   1.0000   1.0000
     1.0000   1.0000   1.0000   1.0000   1.0000   1.0000   1.0000   1.0000
     1.0000   1.0000   1.0000   1.0000   1.0000   1.0000   1.0000   1.0000
     1.0000   1.0000   1.0000   1.0000   1.0000   1.0000   1.0000   1.0000
     1.0000   1.0000   1.0000   1.0000   1.0000   1.0000   1.0000   1.0000
[...]
     0.0000   0.0000   0.0000   0.0000   0.0000   0.0000   0.0000   0.0000
     0.0000   0.0000   0.0000   0.0000   0.0000   0.0000   0.0000

          k =-0.5000 0.0000 0.0000 ( 65180 PWs)   bands (ev):

   -92.3480 -92.2950 -92.2021 -92.1525 -92.0954 -92.0543 -92.0371 -91.9139
   -55.7012 -55.6814 -55.5599 -55.5492 -55.5413 -55.5359 -55.4998 -55.4716
   -55.4552 -55.4533 -55.4457 -55.4035 -55.3835 -55.3474 -55.3281 -55.2949
   -55.2879 -55.2433 -55.2409 -55.2401 -55.2316 -55.1884 -55.1678 -55.0805
   -30.9310 -30.9199 -30.7936 -30.7744 -30.7538 -30.6891 -30.5021 -30.4340
   -29.4968 -29.4574 -29.4299 -29.3221 -22.2586 -14.6671 -14.6166 -14.5552
   -14.4513 -14.3418 -14.1986 -14.0562 -13.9215 -13.7906 -13.7836 -13.7804
   -13.7598 -13.7012 -13.6479 -13.6139 -13.5648 -13.5636 -13.5486 -13.4936
   -13.4881 -13.3868 -13.2078 -13.1817 -13.1479 -13.1399 -13.1020 -13.0191
   -12.9935 -12.9270 -12.9115 -12.9035 -12.7994 -12.7121 -12.7060 -12.6899
   -12.6758 -12.6694 -12.6152 -12.6075 -12.5939 -12.5741 -12.4582 -12.3612
   -12.3245 -12.3114 -12.2975 -12.2883 -12.1985 -12.1702 -12.0367 -11.9859
   -11.8681 -11.8240 -11.4293 -11.4081 -11.4013 -11.3863 -11.3684 -11.3269
   -11.2645 -11.2474 -11.2151 -11.1690 -11.1596 -11.1440  -5.9516  -3.1615
    -3.1559  -2.2330  -2.1943  -2.0297  -1.9909  -1.6786  -1.6026  -1.4541
    -1.3365  -1.2973  -1.2514  -1.2033  -1.1780  -1.0565  -1.0112  -0.9967
    -0.9136  -0.8787  -0.8640  -0.8314  -0.7754  -0.7055  -0.6759  -0.6496
    -0.5554  -0.5054  -0.4559  -0.4248  -0.4034  -0.3730  -0.3260  -0.3012
    -0.2638  -0.1655  -0.0974  -0.0292   0.0315   0.1832   0.2277   0.2909
     0.3194   0.3736   0.4019   0.5292   0.5696   0.6072   0.7889   0.8871
     0.9335   1.0068   1.0666   1.2018   1.2122   1.3439   1.3762   1.4309
     1.4546   1.4962   1.5072   1.5532   1.5798   1.6439   1.6890   1.7369
     1.7453   2.0398   2.0491   2.0584   2.0826   2.1993   2.2077   2.2131
     2.2303   2.2620   2.2742   2.3095   2.3400   2.3574   2.4265   2.4307
     2.4885   2.5017   2.5676   2.6685   2.7663   2.8485   2.8632   2.9443
     2.9775   3.0043   3.0251   3.0468   3.0757   3.0850   3.0906   3.1189
     3.1851   3.2297   3.2763   3.3030   3.3498   3.3538   3.3552   3.3674
     3.3815   3.3941   3.4086   3.4114   3.4312   3.4373   3.4598   3.4802
     3.4846   3.6113   3.6179   4.4067   4.4602   4.5207   4.6362   4.9888
     5.1241   5.2304   5.2981   5.4356   5.7091   5.8639   5.9350   5.9756
     6.1899   6.3735   6.3853   6.4787   6.9745   7.0790   7.1536   7.4674
     7.5008   7.6815   7.7436   7.9529   8.0805   8.1802   8.2906   8.3507
     8.4464   8.6104   8.6688   8.7321   8.7895   8.8585   8.9297

     occupation numbers 
     1.0000   1.0000   1.0000   1.0000   1.0000   1.0000   1.0000   1.0000
     1.0000   1.0000   1.0000   1.0000   1.0000   1.0000   1.0000   1.0000
     1.0000   1.0000   1.0000   1.0000   1.0000   1.0000   1.0000   1.0000
     1.0000   1.0000   1.0000   1.0000   1.0000   1.0000   1.0000   1.0000
     1.0000   1.0000   1.0000   1.0000   1.0000   1.0000   1.0000   1.0000
     1.0000   1.0000   1.0000   1.0000   1.0000   1.0000   1.0000   1.0000
     1.0000   1.0000   1.0000   1.0000   1.0000   1.0000   1.0000   1.0000
     1.0000   1.0000   1.0000   1.0000   1.0000   1.0000   1.0000   1.0000
     1.0000   1.0000   1.0000   1.0000   1.0000   1.0000   1.0000   1.0000
     1.0000   1.0000   1.0000   1.0000   1.0000   1.0000   1.0000   1.0000
     1.0000   1.0000   1.0000   1.0000   1.0000   1.0000   1.0000   1.0000
     1.0000   1.0000   1.0000   1.0000   1.0000   1.0000   1.0000   1.0000
     1.0000   1.0000   1.0000   1.0000   1.0000   1.0000   1.0000   1.0000
     1.0000   1.0000   1.0000   1.0000   1.0000   1.0000   1.0000   1.0000
     1.0000   1.0000   1.0000   1.0000   1.0000   1.0000   1.0000   1.0000
     1.0000   1.0000   1.0000   1.0000   1.0000   1.0000   1.0000   1.0000
     1.0000   1.0000   1.0000   1.0000   1.0000   1.0000   1.0000   1.0000
     1.0000   1.0000   1.0000   1.0000   1.0000   1.0000   1.0000   1.0000
     1.0000   1.0000   1.0000   1.0000   1.0000   1.0000   1.0000   1.0000
     1.0000   1.0000   1.0000   1.0000   1.0000   1.0000   1.0000   1.0000
     1.0000   1.0000   0.9999   0.9999   0.9999   0.9997   0.9997   0.9996
     0.9995   0.9994   0.9994   0.9992   0.9991   0.9987   0.9984   0.9980
     0.9979   0.9925   0.9922   0.9919   0.9911   0.9860   0.9855   0.9852
     0.9842   0.9823   0.9815   0.9790   0.9766   0.9751   0.9685   0.9680
     0.9614   0.9597   0.9505   0.9331   0.9122   0.8911   0.8869   0.8621
     0.8510   0.8416   0.8340   0.8258   0.8146   0.8109   0.8086   0.7969
     0.7680   0.7474   0.7247   0.7113   0.6872   0.6851   0.6843   0.6778
     0.6703   0.6635   0.6556   0.6541   0.6431   0.6398   0.6272   0.6157
     0.6132   0.5396   0.5358   0.1397   0.1228   0.1055   0.0775   0.0258
     0.0159   0.0106   0.0081   0.0045   0.0013   0.0006   0.0004   0.0003
     0.0001   0.0000   0.0000   0.0000   0.0000   0.0000   0.0000   0.0000
     0.0000   0.0000   0.0000   0.0000   0.0000   0.0000   0.0000   0.0000
     0.0000   0.0000   0.0000   0.0000   0.0000   0.0000   0.0000

          k =-0.2500 0.2500 0.0000 ( 65198 PWs)   bands (ev):

   -92.3480 -92.2950 -92.2021 -92.1525 -92.0954 -92.0543 -92.0371 -91.9139
   -55.7012 -55.6814 -55.5599 -55.5492 -55.5413 -55.5359 -55.4998 -55.4716
   -55.4552 -55.4533 -55.4457 -55.4035 -55.3835 -55.3474 -55.3281 -55.2949
   -55.2879 -55.2433 -55.2409 -55.2401 -55.2316 -55.1884 -55.1678 -55.0805
   -30.9331 -30.9175 -30.7930 -30.7750 -30.7547 -30.6888 -30.5014 -30.4344
   -29.4972 -29.4561 -29.4310 -29.3220 -22.2586 -14.6692 -14.6310 -14.5565
   -14.4388 -14.3322 -14.2055 -14.1160 -13.9139 -13.7875 -13.7696 -13.7397
   -13.7313 -13.6803 -13.6586 -13.6412 -13.6240 -13.5877 -13.4917 -13.4794
   -13.3283 -13.3006 -13.2716 -13.2522 -13.2113 -13.1530 -13.1172 -13.0930
   -13.0050 -12.9562 -12.8822 -12.8046 -12.7654 -12.7449 -12.7009 -12.6816
   -12.6566 -12.6353 -12.6012 -12.5890 -12.5755 -12.5468 -12.4727 -12.4291
   -12.4248 -12.3976 -12.3495 -12.3362 -12.1912 -12.0996 -12.0812 -11.9416
   -11.8106 -11.7685 -11.4497 -11.4278 -11.4011 -11.3887 -11.3478 -11.3136
   -11.2899 -11.2689 -11.2460 -11.1618 -11.1160 -11.1063  -5.9516  -3.1613
    -3.1561  -2.3180  -2.1088  -1.9883  -1.9001  -1.7810  -1.7141  -1.5125
    -1.3657  -1.3466  -1.3178  -1.2269  -1.1911  -1.0989  -1.0654  -1.0397
    -0.8957  -0.8405  -0.7727  -0.7443  -0.6838  -0.6619  -0.6213  -0.5924
    -0.5523  -0.4901  -0.4432  -0.3809  -0.3131  -0.2890  -0.2361  -0.2079
    -0.1630  -0.1045  -0.0606  -0.0191   0.0792   0.1140   0.1206   0.1695
     0.2328   0.2989   0.3450   0.3763   0.4403   0.4724   0.7345   0.9031
     0.9464   0.9818   1.0377   1.0786   1.1394   1.2075   1.2393   1.5221
     1.6371   1.6757   1.7088   1.7152   1.7585   1.7751   1.8197   1.8504
     1.8661   1.8924   1.9328   1.9451   1.9914   2.0092   2.0528   2.1286
     2.1451   2.1691   2.1980   2.2342   2.2685   2.3183   2.4363   2.5472
     2.5804   2.6237   2.6440   2.7071   2.7532   2.7806   2.8019   2.8245
     2.9268   2.9631   3.0243   3.0486   3.0635   3.2337   3.2410   3.2550
     3.2650   3.2756   3.2892   3.2959   3.3134   3.3218   3.3375   3.3472
     3.3599   3.3691   3.3746   3.4080   3.4193   3.4284   3.4618   3.7549
     3.8353   3.8948   3.9536   3.9807   4.1836   4.3119   4.6320   4.7909
     4.9699   5.1274   5.3278   5.5470   5.9209   5.9792   6.0001   6.1206
     6.1873   6.2409   6.3482   6.4001   6.9228   7.0195   7.1145   7.2274
     7.6980   7.7813   7.8709   7.9428   7.9776   8.1639   8.2140   8.3484
     8.3950   8.4587   8.5554   8.6946   8.7131   8.7799   8.8429

     occupation numbers 
     1.0000   1.0000   1.0000   1.0000   1.0000   1.0000   1.0000   1.0000
     1.0000   1.0000   1.0000   1.0000   1.0000   1.0000   1.0000   1.0000
     1.0000   1.0000   1.0000   1.0000   1.0000   1.0000   1.0000   1.0000
     1.0000   1.0000   1.0000   1.0000   1.0000   1.0000   1.0000   1.0000
     1.0000   1.0000   1.0000   1.0000   1.0000   1.0000   1.0000   1.0000
     1.0000   1.0000   1.0000   1.0000   1.0000   1.0000   1.0000   1.0000
     1.0000   1.0000   1.0000   1.0000   1.0000   1.0000   1.0000   1.0000
     1.0000   1.0000   1.0000   1.0000   1.0000   1.0000   1.0000   1.0000
     1.0000   1.0000   1.0000   1.0000   1.0000   1.0000   1.0000   1.0000
     1.0000   1.0000   1.0000   1.0000   1.0000   1.0000   1.0000   1.0000
     1.0000   1.0000   1.0000   1.0000   1.0000   1.0000   1.0000   1.0000
     1.0000   1.0000   1.0000   1.0000   1.0000   1.0000   1.0000   1.0000
     1.0000   1.0000   1.0000   1.0000   1.0000   1.0000   1.0000   1.0000
     1.0000   1.0000   1.0000   1.0000   1.0000   1.0000   1.0000   1.0000
     1.0000   1.0000   1.0000   1.0000   1.0000   1.0000   1.0000   1.0000
     1.0000   1.0000   1.0000   1.0000   1.0000   1.0000   1.0000   1.0000
     1.0000   1.0000   1.0000   1.0000   1.0000   1.0000   1.0000   1.0000
     1.0000   1.0000   1.0000   1.0000   1.0000   1.0000   1.0000   1.0000
     1.0000   1.0000   1.0000   1.0000   1.0000   1.0000   1.0000   1.0000
     1.0000   1.0000   1.0000   1.0000   1.0000   1.0000   1.0000   1.0000
     1.0000   1.0000   1.0000   0.9999   0.9999   0.9999   0.9999   0.9993
     0.9988   0.9985   0.9983   0.9982   0.9978   0.9976   0.9971   0.9967
     0.9964   0.9960   0.9952   0.9950   0.9939   0.9934   0.9921   0.9893
     0.9886   0.9875   0.9860   0.9840   0.9818   0.9783   0.9674   0.9535
     0.9485   0.9413   0.9377   0.9254   0.9152   0.9087   0.9034   0.8976
     0.8678   0.8559   0.8342   0.8251   0.8193   0.7454   0.7419   0.7352
     0.7303   0.7251   0.7183   0.7149   0.7061   0.7017   0.6936   0.6885
     0.6818   0.6769   0.6740   0.6559   0.6498   0.6447   0.6261   0.4547
     0.4079   0.3740   0.3414   0.3267   0.2265   0.1734   0.0784   0.0493
     0.0276   0.0157   0.0072   0.0028   0.0004   0.0003   0.0003   0.0001
     0.0001   0.0001   0.0000   0.0000   0.0000   0.0000   0.0000   0.0000
     0.0000   0.0000   0.0000   0.0000   0.0000   0.0000   0.0000   0.0000
     0.0000   0.0000   0.0000   0.0000   0.0000   0.0000   0.0000

          k =-0.5000 0.2500 0.0000 ( 65138 PWs)   bands (ev):

   -92.3480 -92.2950 -92.2021 -92.1525 -92.0954 -92.0543 -92.0371 -91.9139
   -55.7012 -55.6814 -55.5599 -55.5492 -55.5413 -55.5359 -55.4998 -55.4716
   -55.4552 -55.4533 -55.4457 -55.4035 -55.3835 -55.3474 -55.3281 -55.2949
   -55.2879 -55.2433 -55.2409 -55.2401 -55.2316 -55.1884 -55.1678 -55.0805
   -30.9308 -30.9197 -30.7929 -30.7746 -30.7545 -30.6892 -30.5016 -30.4345
   -29.4962 -29.4571 -29.4306 -29.3224 -22.2586 -14.6345 -14.5902 -14.5122
   -14.4162 -14.3726 -14.2447 -14.1600 -14.0342 -13.7870 -13.7202 -13.6902
   -13.6774 -13.6331 -13.6148 -13.5875 -13.5506 -13.5493 -13.5250 -13.4890
   -13.4734 -13.3744 -13.2921 -13.2438 -13.2408 -13.2281 -13.1603 -13.1254
   -13.0428 -12.9982 -12.8580 -12.8223 -12.7458 -12.7282 -12.6882 -12.6750
   -12.6679 -12.6337 -12.6165 -12.5993 -12.5910 -12.5489 -12.4659 -12.4035
   -12.3807 -12.3385 -12.2798 -12.2719 -12.1967 -12.1094 -11.9815 -11.9774
   -11.8664 -11.8380 -11.4223 -11.4095 -11.3952 -11.3836 -11.3621 -11.3318
   -11.2520 -11.2433 -11.2202 -11.1835 -11.1552 -11.1465  -5.9516  -3.1615
    -3.1561  -2.0910  -2.0487  -1.8995  -1.8578  -1.6982  -1.6214  -1.4784
    -1.3428  -1.2854  -1.2588  -1.2194  -1.1807  -1.1005  -0.9859  -0.9291
    -0.9060  -0.8801  -0.8043  -0.7750  -0.7374  -0.7190  -0.6580  -0.6308
    -0.5897  -0.5549  -0.5262  -0.4691  -0.4429  -0.4017  -0.3670  -0.2623
    -0.2372  -0.1485  -0.0904  -0.0554   0.0019   0.0846   0.1148   0.2211
     0.2488   0.3114   0.3551   0.3892   0.4627   0.4906   0.5213   0.5798
     0.6175   0.9250   0.9777   1.0352   1.0537   1.3537   1.4138   1.4882
     1.5159   1.6947   1.7307   1.7682   1.7837   1.8013   1.8189   1.8884
     1.9301   1.9675   1.9983   2.1053   2.1490   2.1828   2.1929   2.2248
     2.2565   2.2713   2.2833   2.3061   2.3295   2.3715   2.3982   2.4282
     2.4520   2.4784   2.5446   2.6624   2.7633   2.7932   2.8624   2.9041
     2.9617   3.0000   3.0083   3.0237   3.0430   3.0551   3.0816   3.1049
     3.1849   3.2269   3.2415   3.2477   3.2685   3.2910   3.3037   3.3186
     3.3309   3.3511   3.3648   3.3756   3.3837   3.3925   3.4043   3.9279
     3.9624   4.1245   4.1448   4.4162   4.4815   4.5328   4.7322   5.0520
     5.1310   5.2421   5.3382   5.4301   5.7219   5.7608   5.8296   5.9163
     6.0443   6.1301   6.2942   6.5218   6.5683   6.6648   7.1221   7.2710
     7.5792   7.7239   7.9663   8.0513   8.1843   8.1999   8.3165   8.3716
     8.5503   8.6677   8.7434   8.8086   8.8450   8.8913   8.9297

     occupation numbers 
     1.0000   1.0000   1.0000   1.0000   1.0000   1.0000   1.0000   1.0000
     1.0000   1.0000   1.0000   1.0000   1.0000   1.0000   1.0000   1.0000
     1.0000   1.0000   1.0000   1.0000   1.0000   1.0000   1.0000   1.0000
     1.0000   1.0000   1.0000   1.0000   1.0000   1.0000   1.0000   1.0000
     1.0000   1.0000   1.0000   1.0000   1.0000   1.0000   1.0000   1.0000
     1.0000   1.0000   1.0000   1.0000   1.0000   1.0000   1.0000   1.0000
     1.0000   1.0000   1.0000   1.0000   1.0000   1.0000   1.0000   1.0000
     1.0000   1.0000   1.0000   1.0000   1.0000   1.0000   1.0000   1.0000
     1.0000   1.0000   1.0000   1.0000   1.0000   1.0000   1.0000   1.0000
     1.0000   1.0000   1.0000   1.0000   1.0000   1.0000   1.0000   1.0000
     1.0000   1.0000   1.0000   1.0000   1.0000   1.0000   1.0000   1.0000
     1.0000   1.0000   1.0000   1.0000   1.0000   1.0000   1.0000   1.0000
     1.0000   1.0000   1.0000   1.0000   1.0000   1.0000   1.0000   1.0000
     1.0000   1.0000   1.0000   1.0000   1.0000   1.0000   1.0000   1.0000
     1.0000   1.0000   1.0000   1.0000   1.0000   1.0000   1.0000   1.0000
     1.0000   1.0000   1.0000   1.0000   1.0000   1.0000   1.0000   1.0000
     1.0000   1.0000   1.0000   1.0000   1.0000   1.0000   1.0000   1.0000
     1.0000   1.0000   1.0000   1.0000   1.0000   1.0000   1.0000   1.0000
     1.0000   1.0000   1.0000   1.0000   1.0000   1.0000   1.0000   1.0000
     1.0000   1.0000   1.0000   1.0000   1.0000   1.0000   1.0000   1.0000
     1.0000   1.0000   1.0000   1.0000   1.0000   0.9997   0.9996   0.9994
     0.9993   0.9984   0.9981   0.9977   0.9975   0.9973   0.9971   0.9961
     0.9953   0.9945   0.9937   0.9902   0.9884   0.9868   0.9863   0.9846
     0.9826   0.9817   0.9808   0.9792   0.9774   0.9738   0.9713   0.9683
     0.9657   0.9626   0.9539   0.9343   0.9129   0.9056   0.8872   0.8748
     0.8564   0.8431   0.8401   0.8345   0.8272   0.8226   0.8122   0.8027
     0.7681   0.7487   0.7417   0.7387   0.7286   0.7174   0.7110   0.7034
     0.6971   0.6865   0.6792   0.6735   0.6691   0.6644   0.6580   0.3555
     0.3365   0.2538   0.2443   0.1366   0.1165   0.1023   0.0588   0.0207
     0.0155   0.0101   0.0069   0.0046   0.0012   0.0010   0.0007   0.0004
     0.0002   0.0001   0.0001   0.0000   0.0000   0.0000   0.0000   0.0000
     0.0000   0.0000   0.0000   0.0000   0.0000   0.0000   0.0000   0.0000
     0.0000   0.0000   0.0000   0.0000   0.0000   0.0000   0.0000

     the Fermi energy is     3.6783 ev

!    total energy              =   -4482.97673882 Ry
     estimated scf accuracy    <          6.5E-09 Ry
     smearing contrib. (-TS)   =      -1.17231111 Ry
     internal energy E=F+TS    =   -4481.80442772 Ry

     The total energy is F=E-TS. E is the sum of the following terms:
     one-electron contribution =  -20251.54638469 Ry
     hartree contribution      =   10265.29522804 Ry
     xc contribution           =    -701.58650001 Ry
     ewald contribution        =    6491.68704246 Ry
     one-center paw contrib.   =    -285.65381351 Ry
      -> PAW hartree energy AE =      25.17675605 Ry
      -> PAW hartree energy PS =     -25.06053483 Ry
      -> PAW xc energy AE      =     -16.51939787 Ry
      -> PAW xc energy PS      =       6.87897663 Ry
      -> total E_H with PAW    =   10265.41144926 Ry
      -> total E_XC with PAW   =    -711.22692125 Ry

     convergence has been achieved in  51 iterations

     Writing all to output data dir /bsuhome/zayahcortright/scratch/pwscf.save/
 
     init_run     :      7.83s CPU      8.69s WALL (       1 calls)
     electrons    :    780.69s CPU    815.13s WALL (       1 calls)

     Called by init_run:
     wfcinit      :      6.32s CPU      6.54s WALL (       1 calls)
     wfcinit:atom :      0.05s CPU      0.08s WALL (       5 calls)
     wfcinit:wfcr :      5.99s CPU      6.12s WALL (       5 calls)
     potinit      :      0.21s CPU      0.24s WALL (       1 calls)
     hinit0       :      0.39s CPU      0.75s WALL (       1 calls)

     Called by electrons:
     c_bands      :    626.16s CPU    633.36s WALL (      51 calls)
     sum_band     :    116.80s CPU    132.27s WALL (      51 calls)
     v_of_rho     :      5.61s CPU      5.95s WALL (      52 calls)
     v_h          :      0.45s CPU      0.45s WALL (      52 calls)
     v_xc         :      5.16s CPU      5.50s WALL (      52 calls)
     newd         :     16.92s CPU     27.97s WALL (      52 calls)
     PAW_pot      :      1.72s CPU      1.75s WALL (      52 calls)
     mix_rho      :     13.06s CPU     13.45s WALL (      51 calls)

     Called by c_bands:
     init_us_2    :      6.88s CPU      6.96s WALL (     515 calls)
     init_us_2:cp :      6.88s CPU      6.95s WALL (     515 calls)
     cegterg      :    591.56s CPU    598.45s WALL (     255 calls)

     Called by sum_band:
     sum_band:wei :      0.36s CPU      0.36s WALL (      51 calls)
     sum_band:loo :     98.56s CPU     99.39s WALL (      51 calls)
     sum_band:buf :      1.50s CPU      1.57s WALL (     255 calls)
     sum_band:ini :      3.16s CPU      3.17s WALL (     255 calls)
     sum_band:cal :     21.34s CPU     21.40s WALL (     255 calls)
     sum_band:bec :      0.61s CPU      0.65s WALL (     255 calls)
     addusdens    :     16.34s CPU     30.89s WALL (      51 calls)
                                        0.00s GPU  (      51 calls)
     addusd:skk   :      0.33s CPU      0.98s WALL (     204 calls)
                                        0.00s GPU  (     204 calls)

     Called by *egterg:
     cdiaghg      :     65.55s CPU     65.90s WALL (    1512 calls)
     cegterg:over :     44.39s CPU     44.59s WALL (    1257 calls)
     cegterg:upda :     33.18s CPU     33.74s WALL (    1257 calls)
     cegterg:last :     67.69s CPU     67.97s WALL (     475 calls)
     cdiaghg:chol :      3.80s CPU      3.83s WALL (    1512 calls)
     cdiaghg:inve :      4.05s CPU      4.07s WALL (    1512 calls)
     cdiaghg:para :      8.04s CPU      8.09s WALL (    3024 calls)
     h_psi        :    319.60s CPU    322.90s WALL (    1517 calls)
     s_psi        :     43.67s CPU     43.81s WALL (    1517 calls)
     g_psi        :      1.10s CPU      1.11s WALL (    1257 calls)

     Called by h_psi:
     h_psi:calbec :     50.40s CPU     50.68s WALL (    1517 calls)
     vloc_psi     :    222.66s CPU    224.73s WALL (    1517 calls)
     add_vuspsi   :     43.56s CPU     43.80s WALL (    1517 calls)

     General routines
     calbec       :     71.73s CPU     72.07s WALL (    1772 calls)
     fft          :      4.06s CPU      4.11s WALL (     674 calls)
     ffts         :      4.77s CPU      4.81s WALL (    5379 calls)
     fftw         :    192.17s CPU    193.71s WALL (  351753 calls)
     interpolate  :      0.47s CPU      0.48s WALL (      52 calls)
 
     Parallel routines

     PAW routines
     PAW_pot      :      1.72s CPU      1.75s WALL (      52 calls)
 
     PWSCF        :  13m10.07s CPU  13m49.82s WALL

 
   This run was terminated on:  20:45:20  18Jun2024            

=------------------------------------------------------------------------------=
   JOB DONE.
=------------------------------------------------------------------------------=
