
     Program PWSCF v.7.2 starts on 20Jun2024 at 18:42:45 

     This program is part of the open-source Quantum ESPRESSO suite
     for quantum simulation of materials; please cite
         "P. Giannozzi et al., J. Phys.:Condens. Matter 21 395502 (2009);
         "P. Giannozzi et al., J. Phys.:Condens. Matter 29 465901 (2017);
         "P. Giannozzi et al., J. Chem. Phys. 152 154105 (2020);
          URL http://www.quantum-espresso.org", 
     in publications or presentations arising from this work. More details at
     http://www.quantum-espresso.org/quote

     Parallel version (MPI & OpenMP), running on      48 processor cores
     Number of MPI processes:                48
     Threads/MPI process:                     1

     MPI processes distributed on     1 nodes
     41824 MiB available memory on the printing compute node when the environment starts
 
     Reading input from espresso.pwi
Warning: card &CELL ignored
Warning: card / ignored
Warning: card &FCP ignored
Warning: card / ignored
Warning: card &RISM ignored
Warning: card / ignored

     Current dimensions of program PWSCF are:
     Max number of different atomic species (ntypx) = 10
     Max number of k-points (npk) =  40000
     Max angular momentum in pseudopotentials (lmaxx) =  4
     file O.pbe-n-kjpaw_psl.0.1.UPF: wavefunction(s)  2P renormalized
     signal trapping enabled: kill the code with -SIGUSR1 to stop cleanly the simulation 
 
     K-points division:     npool     =       2
     R & G space division:  proc/nbgrp/npool/nimage =      24
     Subspace diagonalization in iterative solution of the eigenvalue problem:
     one sub-group per band group will be used
     scalapack distributed-memory algorithm (size of sub-group:  3*  3 procs)

 
     Parallelization info
     --------------------
     sticks:   dense  smooth     PW     G-vecs:    dense   smooth      PW
     Min         350     175     47                61430    21716    3036
     Max         351     177     48                61449    21727    3041
     Sum        8421    4205   1137              1474595   521381   72913
 
     Using Slab Decomposition
 


     bravais-lattice index     =            0
     lattice parameter (alat)  =      14.8599  a.u.
     unit-cell volume          =    8305.1283 (a.u.)^3
     number of atoms/cell      =           51
     number of atomic types    =            4
     number of electrons       =       437.00
     number of Kohn-Sham states=          263
     kinetic-energy cutoff     =      60.0000  Ry
     charge density cutoff     =     480.0000  Ry
     scf convergence threshold =      1.0E-08
     mixing beta               =       0.1500
     number of iterations used =            8  local-TF  mixing
     Exchange-correlation= PBE
                           (   1   4   3   4   0   0   0)

     celldm(1)=  14.859904  celldm(2)=   0.000000  celldm(3)=   0.000000
     celldm(4)=   0.000000  celldm(5)=   0.000000  celldm(6)=   0.000000

     crystal axes: (cart. coord. in units of alat)
               a(1) = (   1.000000   0.000000   0.000000 )  
               a(2) = (   0.000000   1.000000   0.000000 )  
               a(3) = (   0.000000   0.000000   2.531036 )  

     reciprocal axes: (cart. coord. in units 2 pi/alat)
               b(1) = (  1.000000  0.000000  0.000000 )  
               b(2) = (  0.000000  1.000000  0.000000 )  
               b(3) = (  0.000000  0.000000  0.395095 )  


     PseudoPot. # 1 for Sr read from file:
     /bsuhome/zayahcortright/q-e/pseudo/Sr_pbe_v1.uspp.F.UPF
     MD5 check sum: 6b418c05fbe9db5448babca5e47b7a5b
     Pseudo is Ultrasoft + core correction, Zval = 10.0
     Generated by new atomic code, or converted to UPF format
     Using radial grid of  883 points,  6 beta functions with: 
                l(1) =   0
                l(2) =   0
                l(3) =   1
                l(4) =   1
                l(5) =   2
                l(6) =   2
     Q(r) pseudized with  6 coefficients,  rinner =    1.400   1.400   1.400
                                                       1.400   1.400

     PseudoPot. # 2 for O  read from file:
     /bsuhome/zayahcortright/q-e/pseudo/O.pbe-n-kjpaw_psl.0.1.UPF
     MD5 check sum: 0234752ac141de4415c5fc33072bef88
     Pseudo is Projector augmented-wave + core cor, Zval =  6.0
     Generated using "atomic" code by A. Dal Corso  v.5.0.99 svn rev. 10869
     Shape of augmentation charge: BESSEL
     Using radial grid of 1095 points,  4 beta functions with: 
                l(1) =   0
                l(2) =   0
                l(3) =   1
                l(4) =   1
     Q(r) pseudized with 0 coefficients 


     PseudoPot. # 3 for Co read from file:
     /bsuhome/zayahcortright/q-e/pseudo/Co_pbe_v1.2.uspp.F.UPF
     MD5 check sum: 5f91765df6ddd3222702df6e7b74a16d
     Pseudo is Ultrasoft + core correction, Zval = 17.0
     Generated by new atomic code, or converted to UPF format
     Using radial grid of  863 points,  6 beta functions with: 
                l(1) =   0
                l(2) =   0
                l(3) =   1
                l(4) =   1
                l(5) =   2
                l(6) =   2
     Q(r) pseudized with  8 coefficients,  rinner =    1.200   1.200   1.200
                                                       1.200   1.200

     PseudoPot. # 4 for H  read from file:
     /bsuhome/zayahcortright/q-e/pseudo/H.pbe-rrkjus_psl.1.0.0.UPF
     MD5 check sum: f52b6d4d1c606e5624b1dc7b2218f220
     Pseudo is Ultrasoft, Zval =  1.0
     Generated using "atomic" code by A. Dal Corso  v.5.1
     Using radial grid of  929 points,  2 beta functions with: 
                l(1) =   0
                l(2) =   0
     Q(r) pseudized with 0 coefficients 


     atomic species   valence    mass     pseudopotential
        Sr            10.00    87.62000     Sr( 1.00)
        O              6.00    15.99900     O ( 1.00)
        Co            17.00    58.93319     Co( 1.00)
        H              1.00     1.00800     H ( 1.00)

     No symmetry found


                                    s                        frac. trans.

      isym =  1     identity                                     

 cryst.   s( 1) = (     1          0          0      )
                  (     0          1          0      )
                  (     0          0          1      )

 cart.    s( 1) = (  1.0000000  0.0000000  0.0000000 )
                  (  0.0000000  1.0000000  0.0000000 )
                  (  0.0000000  0.0000000  1.0000000 )


   Cartesian axes

     site n.     atom                  positions (alat units)
         1           Sr  tau(   1) = (   0.2508693   0.7491307   1.7574407  )
         2           O   tau(   2) = (   0.4985141   0.5014859   1.7715967  )
         3           Sr  tau(   3) = (   0.7482398   0.7454518   1.7648669  )
         4           Sr  tau(   4) = (   0.7441748   0.2558252   1.7667843  )
         5           Sr  tau(   5) = (   0.2508693   0.7491307   1.2696799  )
         6           Sr  tau(   6) = (   0.2508693   0.7491307   0.7632319  )
         7           Co  tau(   7) = (   0.4998914   0.5001086   1.0164559  )
         8           Co  tau(   8) = (   0.4936915   0.5063085   1.5135603  )
         9           O   tau(   9) = (   0.4988895   0.7610401   1.0164559  )
        10           O   tau(  10) = (   0.2389599   0.5011105   1.0164559  )
        11           O   tau(  11) = (   0.0070918   0.7374880   1.0164559  )
        12           O   tau(  12) = (   0.0088340   0.7405089   1.5135603  )
        13           O   tau(  13) = (   0.5066944   0.7415376   1.5135603  )
        14           O   tau(  14) = (   0.2584624   0.4933056   1.5135603  )
        15           O   tau(  15) = (   0.4985141   0.5014859   0.7773880  )
        16           O   tau(  16) = (   0.4985141   0.5014859   1.2555238  )
        17           Sr  tau(  17) = (   0.7482398   0.7454518   0.7706582  )
        18           Sr  tau(  18) = (   0.7482398   0.7454518   1.2622536  )
        19           Sr  tau(  19) = (   0.7441748   0.2558252   0.7725755  )
        20           Sr  tau(  20) = (   0.7441748   0.2558252   1.2603363  )
        21           O   tau(  21) = (   0.7322655   0.0078049   1.5135603  )
        22           O   tau(  22) = (   0.7558175   0.4996027   1.5135603  )
        23           O   tau(  23) = (   0.5003973   0.2441825   1.5135603  )
        24           O   tau(  24) = (   0.7527966   0.4978604   1.0164559  )
        25           O   tau(  25) = (   0.5021396   0.2472034   1.0164559  )
        26           O   tau(  26) = (   0.7517679   0.0000000   1.0164559  )
        27           O   tau(  27) = (   0.0114961   0.4948124   1.7455321  )
        28           O   tau(  28) = (   0.0048226   0.0077944   1.7715967  )
        29           Sr  tau(  29) = (   0.2545482   0.2517602   1.7648669  )
        30           O   tau(  30) = (   0.5048017   0.0015068   1.7786929  )
        31           Co  tau(  31) = (   0.0056869   0.5006215   1.0164559  )
        32           Co  tau(  32) = (   0.0065315   0.4997770   1.5135603  )
        33           Co  tau(  33) = (   0.0061999   0.0064171   1.0164559  )
        34           Co  tau(  34) = (   0.0000000   0.0126169   1.5135603  )
        35           O   tau(  35) = (   0.0114961   0.4948124   1.2815885  )
        36           O   tau(  36) = (   0.0114961   0.4948124   0.7513233  )
        37           O   tau(  37) = (   0.0051979   0.2673486   1.0164559  )
        38           O   tau(  38) = (   0.0130029   0.2478461   1.5135603  )
        39           O   tau(  39) = (   0.0048226   0.0077944   0.7773880  )
        40           O   tau(  40) = (   0.0048226   0.0077944   1.2555238  )
        41           Sr  tau(  41) = (   0.2545482   0.2517602   0.7706582  )
        42           Sr  tau(  42) = (   0.2545482   0.2517602   1.2622536  )
        43           Co  tau(  43) = (   0.4989925   0.0073160   1.5135603  )
        44           Co  tau(  44) = (   0.4998370   0.0064714   1.0164559  )
        45           O   tau(  45) = (   0.5048017   0.0015068   0.7844841  )
        46           O   tau(  46) = (   0.5048017   0.0015068   1.2484277  )
        47           O   tau(  47) = (   0.2621260   0.0059111   1.5135603  )
        48           O   tau(  48) = (   0.2591051   0.0041689   1.0164559  )
        49           O   tau(  49) = (   0.8529874   0.8529874   2.1602013  )
        50           O   tau(  50) = (   0.8529874   0.8529874   2.3186489  )
        51           H   tau(  51) = (   0.8529874   0.8529874   2.4431567  )

   Crystallographic axes

     site n.     atom                  positions (cryst. coord.)
         1           Sr  tau(   1) = (  0.2508693  0.7491307  0.6943562  )
         2           O   tau(   2) = (  0.4985141  0.5014859  0.6999492  )
         3           Sr  tau(   3) = (  0.7482398  0.7454518  0.6972903  )
         4           Sr  tau(   4) = (  0.7441748  0.2558252  0.6980478  )
         5           Sr  tau(   5) = (  0.2508693  0.7491307  0.5016443  )
         6           Sr  tau(   6) = (  0.2508693  0.7491307  0.3015492  )
         7           Co  tau(   7) = (  0.4998914  0.5001086  0.4015968  )
         8           Co  tau(   8) = (  0.4936915  0.5063085  0.5980003  )
         9           O   tau(   9) = (  0.4988895  0.7610401  0.4015968  )
        10           O   tau(  10) = (  0.2389599  0.5011105  0.4015968  )
        11           O   tau(  11) = (  0.0070918  0.7374880  0.4015968  )
        12           O   tau(  12) = (  0.0088340  0.7405089  0.5980003  )
        13           O   tau(  13) = (  0.5066944  0.7415376  0.5980003  )
        14           O   tau(  14) = (  0.2584624  0.4933056  0.5980003  )
        15           O   tau(  15) = (  0.4985141  0.5014859  0.3071422  )
        16           O   tau(  16) = (  0.4985141  0.5014859  0.4960513  )
        17           Sr  tau(  17) = (  0.7482398  0.7454518  0.3044833  )
        18           Sr  tau(  18) = (  0.7482398  0.7454518  0.4987103  )
        19           Sr  tau(  19) = (  0.7441748  0.2558252  0.3052408  )
        20           Sr  tau(  20) = (  0.7441748  0.2558252  0.4979527  )
        21           O   tau(  21) = (  0.7322655  0.0078049  0.5980003  )
        22           O   tau(  22) = (  0.7558175  0.4996027  0.5980003  )
        23           O   tau(  23) = (  0.5003973  0.2441825  0.5980003  )
        24           O   tau(  24) = (  0.7527966  0.4978604  0.4015968  )
        25           O   tau(  25) = (  0.5021396  0.2472034  0.4015968  )
        26           O   tau(  26) = (  0.7517679  0.0000000  0.4015968  )
        27           O   tau(  27) = (  0.0114961  0.4948124  0.6896512  )
        28           O   tau(  28) = (  0.0048226  0.0077944  0.6999492  )
        29           Sr  tau(  29) = (  0.2545482  0.2517602  0.6972903  )
        30           O   tau(  30) = (  0.5048017  0.0015068  0.7027529  )
        31           Co  tau(  31) = (  0.0056869  0.5006215  0.4015968  )
        32           Co  tau(  32) = (  0.0065315  0.4997770  0.5980003  )
        33           Co  tau(  33) = (  0.0061999  0.0064171  0.4015968  )
        34           Co  tau(  34) = (  0.0000000  0.0126169  0.5980003  )
        35           O   tau(  35) = (  0.0114961  0.4948124  0.5063494  )
        36           O   tau(  36) = (  0.0114961  0.4948124  0.2968442  )
        37           O   tau(  37) = (  0.0051979  0.2673486  0.4015968  )
        38           O   tau(  38) = (  0.0130029  0.2478461  0.5980003  )
        39           O   tau(  39) = (  0.0048226  0.0077944  0.3071422  )
        40           O   tau(  40) = (  0.0048226  0.0077944  0.4960513  )
        41           Sr  tau(  41) = (  0.2545482  0.2517602  0.3044833  )
        42           Sr  tau(  42) = (  0.2545482  0.2517602  0.4987103  )
        43           Co  tau(  43) = (  0.4989925  0.0073160  0.5980003  )
        44           Co  tau(  44) = (  0.4998370  0.0064714  0.4015968  )
        45           O   tau(  45) = (  0.5048017  0.0015068  0.3099459  )
        46           O   tau(  46) = (  0.5048017  0.0015068  0.4932477  )
        47           O   tau(  47) = (  0.2621260  0.0059111  0.5980003  )
        48           O   tau(  48) = (  0.2591051  0.0041689  0.4015968  )
        49           O   tau(  49) = (  0.8529874  0.8529874  0.8534850  )
        50           O   tau(  50) = (  0.8529874  0.8529874  0.9160869  )
        51           H   tau(  51) = (  0.8529874  0.8529874  0.9652793  )

     number of k points=    10  Gaussian smearing, width (Ry)=  0.0700
                       cart. coord. in units 2pi/alat
        k(    1) = (   0.0000000   0.0000000   0.0000000), wk =   0.1250000
        k(    2) = (   0.0000000   0.2500000   0.0000000), wk =   0.2500000
        k(    3) = (   0.0000000  -0.5000000   0.0000000), wk =   0.1250000
        k(    4) = (   0.2500000   0.2500000   0.0000000), wk =   0.2500000
        k(    5) = (   0.2500000  -0.5000000   0.0000000), wk =   0.2500000
        k(    6) = (  -0.5000000  -0.5000000   0.0000000), wk =   0.1250000
        k(    7) = (   0.2500000   0.0000000   0.0000000), wk =   0.2500000
        k(    8) = (  -0.5000000   0.0000000   0.0000000), wk =   0.1250000
        k(    9) = (  -0.2500000   0.2500000   0.0000000), wk =   0.2500000
        k(   10) = (  -0.5000000   0.2500000   0.0000000), wk =   0.2500000

                       cryst. coord.
        k(    1) = (   0.0000000   0.0000000   0.0000000), wk =   0.1250000
        k(    2) = (   0.0000000   0.2500000   0.0000000), wk =   0.2500000
        k(    3) = (   0.0000000  -0.5000000   0.0000000), wk =   0.1250000
        k(    4) = (   0.2500000   0.2500000   0.0000000), wk =   0.2500000
        k(    5) = (   0.2500000  -0.5000000   0.0000000), wk =   0.2500000
        k(    6) = (  -0.5000000  -0.5000000   0.0000000), wk =   0.1250000
        k(    7) = (   0.2500000   0.0000000   0.0000000), wk =   0.2500000
        k(    8) = (  -0.5000000   0.0000000   0.0000000), wk =   0.1250000
        k(    9) = (  -0.2500000   0.2500000   0.0000000), wk =   0.2500000
        k(   10) = (  -0.5000000   0.2500000   0.0000000), wk =   0.2500000

     Dense  grid:  1474595 G-vectors     FFT dimensions: ( 108, 108, 270)

     Smooth grid:   521381 G-vectors     FFT dimensions: (  75,  75, 192)

     Dynamical RAM for                 wfc:      10.90 MB

     Dynamical RAM for     wfc (w. buffer):      65.37 MB

     Dynamical RAM for           str. fact:       3.75 MB

     Dynamical RAM for           local pot:       0.00 MB

     Dynamical RAM for          nlocal pot:      24.94 MB

     Dynamical RAM for                qrad:       7.03 MB

     Dynamical RAM for          rho,v,vnew:       6.02 MB

     Dynamical RAM for               rhoin:       2.01 MB

     Dynamical RAM for            rho*nmix:      15.00 MB

     Dynamical RAM for           G-vectors:       3.68 MB

     Dynamical RAM for          h,s,v(r/c):       1.40 MB

     Dynamical RAM for          <psi|beta>:       2.42 MB

     Dynamical RAM for                 psi:      21.79 MB

     Dynamical RAM for                hpsi:      21.79 MB

     Dynamical RAM for                spsi:      21.79 MB

     Dynamical RAM for      wfcinit/wfcrot:      34.89 MB

     Dynamical RAM for           addusdens:     101.73 MB

     Estimated static dynamical RAM per process >     122.82 MB

     Estimated max dynamical RAM per process >     239.55 MB

     Estimated total dynamical RAM >      10.88 GB

     Check: negative core charge=   -0.000004

     Initial potential from superposition of free atoms

     starting charge     428.5961, renormalised to     437.0000

     negative rho (up, down):  7.813E-01 0.000E+00
     Starting wfcs are  381 randomized atomic wfcs
     Checking if some PAW data can be deallocated... 
       PAW data deallocated on   18 nodes for type:  2

     total cpu time spent up to now is       10.5 secs

     Self-consistent Calculation

     iteration #  1     ecut=    60.00 Ry     beta= 0.15
     Davidson diagonalization with overlap

---- Real-time Memory Report at c_bands before calling an iterative solver
             0 MiB given to the printing process from OS
             0 MiB allocation reported by mallinfo(arena+hblkhd)
         32060 MiB available memory on the node where the printing process lives
------------------
     ethr =  1.00E-02,  avg # of iterations =  2.0

     negative rho (up, down):  7.717E-01 0.000E+00

     total cpu time spent up to now is       26.6 secs

     total energy              =   -4489.33987641 Ry
     estimated scf accuracy    <      49.70985869 Ry

     iteration #  2     ecut=    60.00 Ry     beta= 0.15
     Davidson diagonalization with overlap

---- Real-time Memory Report at c_bands before calling an iterative solver
             0 MiB given to the printing process from OS
             0 MiB allocation reported by mallinfo(arena+hblkhd)
         32419 MiB available memory on the node where the printing process lives
------------------
     ethr =  1.00E-02,  avg # of iterations =  1.0

     negative rho (up, down):  7.615E-01 0.000E+00

     total cpu time spent up to now is       39.7 secs

     total energy              =   -4486.81623243 Ry
     estimated scf accuracy    <      35.44232808 Ry

     iteration #  3     ecut=    60.00 Ry     beta= 0.15
     Davidson diagonalization with overlap

---- Real-time Memory Report at c_bands before calling an iterative solver
             0 MiB given to the printing process from OS
             0 MiB allocation reported by mallinfo(arena+hblkhd)
         31629 MiB available memory on the node where the printing process lives
------------------
     ethr =  8.11E-03,  avg # of iterations =  1.0

     negative rho (up, down):  7.564E-01 0.000E+00

     total cpu time spent up to now is       52.9 secs

     total energy              =   -4486.76878634 Ry
     estimated scf accuracy    <      35.27210792 Ry

     iteration #  4     ecut=    60.00 Ry     beta= 0.15
     Davidson diagonalization with overlap

---- Real-time Memory Report at c_bands before calling an iterative solver
             0 MiB given to the printing process from OS
             0 MiB allocation reported by mallinfo(arena+hblkhd)
         31612 MiB available memory on the node where the printing process lives
------------------
     ethr =  8.07E-03,  avg # of iterations =  1.0

     negative rho (up, down):  7.576E-01 0.000E+00

     total cpu time spent up to now is       66.1 secs

     total energy              =   -4486.60963425 Ry
     estimated scf accuracy    <      34.29610301 Ry

     iteration #  5     ecut=    60.00 Ry     beta= 0.15
     Davidson diagonalization with overlap

---- Real-time Memory Report at c_bands before calling an iterative solver
             0 MiB given to the printing process from OS
             0 MiB allocation reported by mallinfo(arena+hblkhd)
         31596 MiB available memory on the node where the printing process lives
------------------
     ethr =  7.85E-03,  avg # of iterations =  1.0

     negative rho (up, down):  7.338E-01 0.000E+00

     total cpu time spent up to now is       79.4 secs

     total energy              =   -4482.59485914 Ry
     estimated scf accuracy    <      22.83295988 Ry

     iteration #  6     ecut=    60.00 Ry     beta= 0.15
     Davidson diagonalization with overlap

---- Real-time Memory Report at c_bands before calling an iterative solver
             0 MiB given to the printing process from OS
             0 MiB allocation reported by mallinfo(arena+hblkhd)
         31574 MiB available memory on the node where the printing process lives
------------------
     ethr =  5.22E-03,  avg # of iterations =  2.0

     negative rho (up, down):  7.485E-01 0.000E+00

     total cpu time spent up to now is       93.9 secs

     total energy              =   -4483.72175218 Ry
     estimated scf accuracy    <      36.04570726 Ry

     iteration #  7     ecut=    60.00 Ry     beta= 0.15
     Davidson diagonalization with overlap

---- Real-time Memory Report at c_bands before calling an iterative solver
             0 MiB given to the printing process from OS
             0 MiB allocation reported by mallinfo(arena+hblkhd)
         31556 MiB available memory on the node where the printing process lives
------------------
     ethr =  5.22E-03,  avg # of iterations =  1.0

     negative rho (up, down):  7.533E-01 0.000E+00

     total cpu time spent up to now is      107.0 secs

     total energy              =   -4483.59098971 Ry
     estimated scf accuracy    <      36.82922505 Ry

     iteration #  8     ecut=    60.00 Ry     beta= 0.15
     Davidson diagonalization with overlap

---- Real-time Memory Report at c_bands before calling an iterative solver
             0 MiB given to the printing process from OS
             0 MiB allocation reported by mallinfo(arena+hblkhd)
         31532 MiB available memory on the node where the printing process lives
------------------
     ethr =  5.22E-03,  avg # of iterations =  1.0

     negative rho (up, down):  7.506E-01 0.000E+00

     total cpu time spent up to now is      120.0 secs

     total energy              =   -4483.83604513 Ry
     estimated scf accuracy    <       6.10898317 Ry

     iteration #  9     ecut=    60.00 Ry     beta= 0.15
     Davidson diagonalization with overlap

---- Real-time Memory Report at c_bands before calling an iterative solver
             0 MiB given to the printing process from OS
             0 MiB allocation reported by mallinfo(arena+hblkhd)
         31513 MiB available memory on the node where the printing process lives
------------------
     ethr =  1.40E-03,  avg # of iterations =  2.9

     negative rho (up, down):  7.653E-01 0.000E+00

     total cpu time spent up to now is      134.9 secs

     total energy              =   -4483.73073270 Ry
     estimated scf accuracy    <       3.60214580 Ry

     iteration # 10     ecut=    60.00 Ry     beta= 0.15
     Davidson diagonalization with overlap

---- Real-time Memory Report at c_bands before calling an iterative solver
             0 MiB given to the printing process from OS
             0 MiB allocation reported by mallinfo(arena+hblkhd)
         31473 MiB available memory on the node where the printing process lives
------------------
     ethr =  8.24E-04,  avg # of iterations = 12.3

     negative rho (up, down):  7.875E-01 0.000E+00

     total cpu time spent up to now is      155.0 secs

     total energy              =   -4483.52602812 Ry
     estimated scf accuracy    <       4.53743787 Ry

     iteration # 11     ecut=    60.00 Ry     beta= 0.15
     Davidson diagonalization with overlap

---- Real-time Memory Report at c_bands before calling an iterative solver
             0 MiB given to the printing process from OS
             0 MiB allocation reported by mallinfo(arena+hblkhd)
         31127 MiB available memory on the node where the printing process lives
------------------
     ethr =  8.24E-04,  avg # of iterations =  5.5

     negative rho (up, down):  7.900E-01 0.000E+00

     total cpu time spent up to now is      171.8 secs

     total energy              =   -4483.18005493 Ry
     estimated scf accuracy    <       4.31139086 Ry

     iteration # 12     ecut=    60.00 Ry     beta= 0.15
     Davidson diagonalization with overlap

---- Real-time Memory Report at c_bands before calling an iterative solver
             0 MiB given to the printing process from OS
             0 MiB allocation reported by mallinfo(arena+hblkhd)
         31068 MiB available memory on the node where the printing process lives
------------------
     ethr =  8.24E-04,  avg # of iterations =  8.3

     negative rho (up, down):  8.006E-01 0.000E+00

     total cpu time spent up to now is      189.9 secs

     total energy              =   -4483.21357204 Ry
     estimated scf accuracy    <       2.06852211 Ry

     iteration # 13     ecut=    60.00 Ry     beta= 0.15
     Davidson diagonalization with overlap

---- Real-time Memory Report at c_bands before calling an iterative solver
             0 MiB given to the printing process from OS
             0 MiB allocation reported by mallinfo(arena+hblkhd)
         31049 MiB available memory on the node where the printing process lives
------------------
     ethr =  4.73E-04,  avg # of iterations =  3.0

     negative rho (up, down):  8.022E-01 0.000E+00

     total cpu time spent up to now is      205.2 secs

     total energy              =   -4483.25739042 Ry
     estimated scf accuracy    <       1.11182961 Ry

     iteration # 14     ecut=    60.00 Ry     beta= 0.15
     Davidson diagonalization with overlap

---- Real-time Memory Report at c_bands before calling an iterative solver
             0 MiB given to the printing process from OS
             0 MiB allocation reported by mallinfo(arena+hblkhd)
         31053 MiB available memory on the node where the printing process lives
------------------
     ethr =  2.54E-04,  avg # of iterations =  7.6

     negative rho (up, down):  8.150E-01 0.000E+00

     total cpu time spent up to now is      223.1 secs

     total energy              =   -4483.11865821 Ry
     estimated scf accuracy    <       0.72330728 Ry

     iteration # 15     ecut=    60.00 Ry     beta= 0.15
     Davidson diagonalization with overlap

---- Real-time Memory Report at c_bands before calling an iterative solver
             0 MiB given to the printing process from OS
             0 MiB allocation reported by mallinfo(arena+hblkhd)
         31001 MiB available memory on the node where the printing process lives
------------------
     c_bands:  1 eigenvalues not converged
     ethr =  1.66E-04,  avg # of iterations =  5.7

     negative rho (up, down):  8.184E-01 0.000E+00

     total cpu time spent up to now is      239.5 secs

     total energy              =   -4483.13893587 Ry
     estimated scf accuracy    <       3.28885237 Ry

     iteration # 16     ecut=    60.00 Ry     beta= 0.15
     Davidson diagonalization with overlap

---- Real-time Memory Report at c_bands before calling an iterative solver
             0 MiB given to the printing process from OS
             0 MiB allocation reported by mallinfo(arena+hblkhd)
         31000 MiB available memory on the node where the printing process lives
------------------
     ethr =  1.66E-04,  avg # of iterations =  4.8

     negative rho (up, down):  8.145E-01 0.000E+00

     total cpu time spent up to now is      255.4 secs

     total energy              =   -4483.11403589 Ry
     estimated scf accuracy    <       1.25377746 Ry

     iteration # 17     ecut=    60.00 Ry     beta= 0.15
     Davidson diagonalization with overlap

---- Real-time Memory Report at c_bands before calling an iterative solver
             0 MiB given to the printing process from OS
             0 MiB allocation reported by mallinfo(arena+hblkhd)
         30988 MiB available memory on the node where the printing process lives
------------------
     ethr =  1.66E-04,  avg # of iterations =  2.7

     negative rho (up, down):  8.195E-01 0.000E+00

     total cpu time spent up to now is      270.7 secs

     total energy              =   -4483.05458515 Ry
     estimated scf accuracy    <       0.39246857 Ry

     iteration # 18     ecut=    60.00 Ry     beta= 0.15
     Davidson diagonalization with overlap

---- Real-time Memory Report at c_bands before calling an iterative solver
             0 MiB given to the printing process from OS
             0 MiB allocation reported by mallinfo(arena+hblkhd)
         30994 MiB available memory on the node where the printing process lives
------------------
     ethr =  8.98E-05,  avg # of iterations =  8.8

     negative rho (up, down):  8.211E-01 0.000E+00

     total cpu time spent up to now is      289.4 secs

     total energy              =   -4483.03926047 Ry
     estimated scf accuracy    <       1.32608304 Ry

     iteration # 19     ecut=    60.00 Ry     beta= 0.15
     Davidson diagonalization with overlap

---- Real-time Memory Report at c_bands before calling an iterative solver
             0 MiB given to the printing process from OS
             0 MiB allocation reported by mallinfo(arena+hblkhd)
         30968 MiB available memory on the node where the printing process lives
------------------
     c_bands:  1 eigenvalues not converged
     ethr =  8.98E-05,  avg # of iterations = 10.0

     negative rho (up, down):  8.278E-01 0.000E+00

     total cpu time spent up to now is      308.4 secs

     total energy              =   -4483.03297305 Ry
     estimated scf accuracy    <       0.46902309 Ry

     iteration # 20     ecut=    60.00 Ry     beta= 0.15
     Davidson diagonalization with overlap

---- Real-time Memory Report at c_bands before calling an iterative solver
             0 MiB given to the printing process from OS
             0 MiB allocation reported by mallinfo(arena+hblkhd)
         30958 MiB available memory on the node where the printing process lives
------------------
     ethr =  8.98E-05,  avg # of iterations =  3.1

     negative rho (up, down):  8.259E-01 0.000E+00

     total cpu time spent up to now is      324.0 secs

     total energy              =   -4482.98628008 Ry
     estimated scf accuracy    <       0.68613099 Ry

     iteration # 21     ecut=    60.00 Ry     beta= 0.15
     Davidson diagonalization with overlap

---- Real-time Memory Report at c_bands before calling an iterative solver
             0 MiB given to the printing process from OS
             0 MiB allocation reported by mallinfo(arena+hblkhd)
         30959 MiB available memory on the node where the printing process lives
------------------
     ethr =  8.98E-05,  avg # of iterations =  8.5

     negative rho (up, down):  8.443E-01 0.000E+00

     total cpu time spent up to now is      342.0 secs

     total energy              =   -4482.98421618 Ry
     estimated scf accuracy    <       0.11354057 Ry

     iteration # 22     ecut=    60.00 Ry     beta= 0.15
     Davidson diagonalization with overlap

---- Real-time Memory Report at c_bands before calling an iterative solver
             0 MiB given to the printing process from OS
             0 MiB allocation reported by mallinfo(arena+hblkhd)
         30902 MiB available memory on the node where the printing process lives
------------------
     ethr =  2.60E-05,  avg # of iterations =  9.6

     negative rho (up, down):  8.437E-01 0.000E+00

     total cpu time spent up to now is      361.3 secs

     total energy              =   -4482.98273246 Ry
     estimated scf accuracy    <       0.04743935 Ry

     iteration # 23     ecut=    60.00 Ry     beta= 0.15
     Davidson diagonalization with overlap

---- Real-time Memory Report at c_bands before calling an iterative solver
             0 MiB given to the printing process from OS
             0 MiB allocation reported by mallinfo(arena+hblkhd)
         30805 MiB available memory on the node where the printing process lives
------------------
     ethr =  1.09E-05,  avg # of iterations =  8.6

     negative rho (up, down):  8.293E-01 0.000E+00

     total cpu time spent up to now is      379.2 secs

     total energy              =   -4482.97806177 Ry
     estimated scf accuracy    <       0.03016589 Ry

     iteration # 24     ecut=    60.00 Ry     beta= 0.15
     Davidson diagonalization with overlap

---- Real-time Memory Report at c_bands before calling an iterative solver
             0 MiB given to the printing process from OS
             0 MiB allocation reported by mallinfo(arena+hblkhd)
         30792 MiB available memory on the node where the printing process lives
------------------
     ethr =  6.90E-06,  avg # of iterations = 11.3

     negative rho (up, down):  8.210E-01 0.000E+00

     total cpu time spent up to now is      398.8 secs

     total energy              =   -4482.97785829 Ry
     estimated scf accuracy    <       0.01560969 Ry

     iteration # 25     ecut=    60.00 Ry     beta= 0.15
     Davidson diagonalization with overlap

---- Real-time Memory Report at c_bands before calling an iterative solver
             0 MiB given to the printing process from OS
             0 MiB allocation reported by mallinfo(arena+hblkhd)
         30799 MiB available memory on the node where the printing process lives
------------------
     ethr =  3.57E-06,  avg # of iterations =  2.4

     negative rho (up, down):  8.129E-01 0.000E+00

     total cpu time spent up to now is      413.7 secs

     total energy              =   -4482.97610301 Ry
     estimated scf accuracy    <       0.01075693 Ry

     iteration # 26     ecut=    60.00 Ry     beta= 0.15
     Davidson diagonalization with overlap

---- Real-time Memory Report at c_bands before calling an iterative solver
             0 MiB given to the printing process from OS
             0 MiB allocation reported by mallinfo(arena+hblkhd)
         30807 MiB available memory on the node where the printing process lives
------------------
     ethr =  2.46E-06,  avg # of iterations =  7.6

     negative rho (up, down):  7.975E-01 0.000E+00

     total cpu time spent up to now is      431.2 secs

     total energy              =   -4482.97534746 Ry
     estimated scf accuracy    <       0.00480395 Ry

     iteration # 27     ecut=    60.00 Ry     beta= 0.15
     Davidson diagonalization with overlap

---- Real-time Memory Report at c_bands before calling an iterative solver
             0 MiB given to the printing process from OS
             0 MiB allocation reported by mallinfo(arena+hblkhd)
         30782 MiB available memory on the node where the printing process lives
------------------
     ethr =  1.10E-06,  avg # of iterations =  8.6

     negative rho (up, down):  7.991E-01 0.000E+00

     total cpu time spent up to now is      450.9 secs

     total energy              =   -4482.97551389 Ry
     estimated scf accuracy    <       0.00207706 Ry

     iteration # 28     ecut=    60.00 Ry     beta= 0.15
     Davidson diagonalization with overlap

---- Real-time Memory Report at c_bands before calling an iterative solver
             0 MiB given to the printing process from OS
             0 MiB allocation reported by mallinfo(arena+hblkhd)
         30759 MiB available memory on the node where the printing process lives
------------------
     ethr =  4.75E-07,  avg # of iterations =  8.0

     negative rho (up, down):  7.954E-01 0.000E+00

     total cpu time spent up to now is      468.4 secs

     total energy              =   -4482.97550660 Ry
     estimated scf accuracy    <       0.00110792 Ry

     iteration # 29     ecut=    60.00 Ry     beta= 0.15
     Davidson diagonalization with overlap

---- Real-time Memory Report at c_bands before calling an iterative solver
             0 MiB given to the printing process from OS
             0 MiB allocation reported by mallinfo(arena+hblkhd)
         30701 MiB available memory on the node where the printing process lives
------------------
     ethr =  2.54E-07,  avg # of iterations =  5.3

     negative rho (up, down):  7.927E-01 0.000E+00

     total cpu time spent up to now is      485.0 secs

     total energy              =   -4482.97542290 Ry
     estimated scf accuracy    <       0.00063691 Ry

     iteration # 30     ecut=    60.00 Ry     beta= 0.15
     Davidson diagonalization with overlap

---- Real-time Memory Report at c_bands before calling an iterative solver
             0 MiB given to the printing process from OS
             0 MiB allocation reported by mallinfo(arena+hblkhd)
         30729 MiB available memory on the node where the printing process lives
------------------
     c_bands:  1 eigenvalues not converged
     ethr =  1.46E-07,  avg # of iterations =  6.9

     negative rho (up, down):  7.924E-01 0.000E+00

     total cpu time spent up to now is      502.4 secs

     total energy              =   -4482.97544959 Ry
     estimated scf accuracy    <       0.00025184 Ry

     iteration # 31     ecut=    60.00 Ry     beta= 0.15
     Davidson diagonalization with overlap

---- Real-time Memory Report at c_bands before calling an iterative solver
             0 MiB given to the printing process from OS
             0 MiB allocation reported by mallinfo(arena+hblkhd)
         30730 MiB available memory on the node where the printing process lives
------------------
     ethr =  5.76E-08,  avg # of iterations =  2.7

     negative rho (up, down):  7.926E-01 0.000E+00

     total cpu time spent up to now is      517.3 secs

     total energy              =   -4482.97543304 Ry
     estimated scf accuracy    <       0.00019712 Ry

     iteration # 32     ecut=    60.00 Ry     beta= 0.15
     Davidson diagonalization with overlap

---- Real-time Memory Report at c_bands before calling an iterative solver
             0 MiB given to the printing process from OS
             0 MiB allocation reported by mallinfo(arena+hblkhd)
         30738 MiB available memory on the node where the printing process lives
------------------
     ethr =  4.51E-08,  avg # of iterations =  3.9

     negative rho (up, down):  7.927E-01 0.000E+00

     total cpu time spent up to now is      532.8 secs

     total energy              =   -4482.97540502 Ry
     estimated scf accuracy    <       0.00012909 Ry

     iteration # 33     ecut=    60.00 Ry     beta= 0.15
     Davidson diagonalization with overlap

---- Real-time Memory Report at c_bands before calling an iterative solver
             0 MiB given to the printing process from OS
             0 MiB allocation reported by mallinfo(arena+hblkhd)
         30733 MiB available memory on the node where the printing process lives
------------------
     ethr =  2.95E-08,  avg # of iterations =  6.1

     negative rho (up, down):  7.924E-01 0.000E+00

     total cpu time spent up to now is      549.5 secs

     total energy              =   -4482.97540561 Ry
     estimated scf accuracy    <       0.00008436 Ry

     iteration # 34     ecut=    60.00 Ry     beta= 0.15
     Davidson diagonalization with overlap

---- Real-time Memory Report at c_bands before calling an iterative solver
             0 MiB given to the printing process from OS
             0 MiB allocation reported by mallinfo(arena+hblkhd)
         30737 MiB available memory on the node where the printing process lives
------------------
     ethr =  1.93E-08,  avg # of iterations =  3.4

     negative rho (up, down):  7.922E-01 0.000E+00

     total cpu time spent up to now is      564.7 secs

     total energy              =   -4482.97541204 Ry
     estimated scf accuracy    <       0.00003814 Ry

     iteration # 35     ecut=    60.00 Ry     beta= 0.15
     Davidson diagonalization with overlap

---- Real-time Memory Report at c_bands before calling an iterative solver
             0 MiB given to the printing process from OS
             0 MiB allocation reported by mallinfo(arena+hblkhd)
         30738 MiB available memory on the node where the printing process lives
------------------
     ethr =  8.73E-09,  avg # of iterations =  2.8

     negative rho (up, down):  7.922E-01 0.000E+00

     total cpu time spent up to now is      579.7 secs

     total energy              =   -4482.97541803 Ry
     estimated scf accuracy    <       0.00002004 Ry

     iteration # 36     ecut=    60.00 Ry     beta= 0.15
     Davidson diagonalization with overlap

---- Real-time Memory Report at c_bands before calling an iterative solver
             0 MiB given to the printing process from OS
             0 MiB allocation reported by mallinfo(arena+hblkhd)
         30751 MiB available memory on the node where the printing process lives
------------------
     ethr =  4.59E-09,  avg # of iterations =  4.1

     negative rho (up, down):  7.923E-01 0.000E+00

     total cpu time spent up to now is      595.0 secs

     total energy              =   -4482.97542012 Ry
     estimated scf accuracy    <       0.00001017 Ry

     iteration # 37     ecut=    60.00 Ry     beta= 0.15
     Davidson diagonalization with overlap

---- Real-time Memory Report at c_bands before calling an iterative solver
             0 MiB given to the printing process from OS
             0 MiB allocation reported by mallinfo(arena+hblkhd)
         30753 MiB available memory on the node where the printing process lives
------------------
     ethr =  2.33E-09,  avg # of iterations =  3.7

     negative rho (up, down):  7.923E-01 0.000E+00

     total cpu time spent up to now is      610.6 secs

     total energy              =   -4482.97542149 Ry
     estimated scf accuracy    <       0.00000652 Ry

     iteration # 38     ecut=    60.00 Ry     beta= 0.15
     Davidson diagonalization with overlap

---- Real-time Memory Report at c_bands before calling an iterative solver
             0 MiB given to the printing process from OS
             0 MiB allocation reported by mallinfo(arena+hblkhd)
         30749 MiB available memory on the node where the printing process lives
------------------
     ethr =  1.49E-09,  avg # of iterations =  2.5

     negative rho (up, down):  7.923E-01 0.000E+00

     total cpu time spent up to now is      625.2 secs

     total energy              =   -4482.97542185 Ry
     estimated scf accuracy    <       0.00000464 Ry

     iteration # 39     ecut=    60.00 Ry     beta= 0.15
     Davidson diagonalization with overlap

---- Real-time Memory Report at c_bands before calling an iterative solver
             0 MiB given to the printing process from OS
             0 MiB allocation reported by mallinfo(arena+hblkhd)
         30778 MiB available memory on the node where the printing process lives
------------------
     ethr =  1.06E-09,  avg # of iterations =  3.5

     negative rho (up, down):  7.923E-01 0.000E+00

     total cpu time spent up to now is      640.4 secs

     total energy              =   -4482.97542175 Ry
     estimated scf accuracy    <       0.00000235 Ry

     iteration # 40     ecut=    60.00 Ry     beta= 0.15
     Davidson diagonalization with overlap

---- Real-time Memory Report at c_bands before calling an iterative solver
             0 MiB given to the printing process from OS
             0 MiB allocation reported by mallinfo(arena+hblkhd)
         30817 MiB available memory on the node where the printing process lives
------------------
     ethr =  5.37E-10,  avg # of iterations =  2.5

     negative rho (up, down):  7.923E-01 0.000E+00

     total cpu time spent up to now is      655.2 secs

     total energy              =   -4482.97542180 Ry
     estimated scf accuracy    <       0.00000175 Ry

     iteration # 41     ecut=    60.00 Ry     beta= 0.15
     Davidson diagonalization with overlap

---- Real-time Memory Report at c_bands before calling an iterative solver
             0 MiB given to the printing process from OS
             0 MiB allocation reported by mallinfo(arena+hblkhd)
         30803 MiB available memory on the node where the printing process lives
------------------
     ethr =  4.01E-10,  avg # of iterations =  2.6

     negative rho (up, down):  7.923E-01 0.000E+00

     total cpu time spent up to now is      670.2 secs

     total energy              =   -4482.97542184 Ry
     estimated scf accuracy    <       0.00000119 Ry

     iteration # 42     ecut=    60.00 Ry     beta= 0.15
     Davidson diagonalization with overlap

---- Real-time Memory Report at c_bands before calling an iterative solver
             0 MiB given to the printing process from OS
             0 MiB allocation reported by mallinfo(arena+hblkhd)
         30801 MiB available memory on the node where the printing process lives
------------------
     ethr =  2.73E-10,  avg # of iterations =  3.6

     negative rho (up, down):  7.923E-01 0.000E+00

     total cpu time spent up to now is      687.0 secs

     total energy              =   -4482.97542179 Ry
     estimated scf accuracy    <       0.00000062 Ry

     iteration # 43     ecut=    60.00 Ry     beta= 0.15
     Davidson diagonalization with overlap

---- Real-time Memory Report at c_bands before calling an iterative solver
             0 MiB given to the printing process from OS
             0 MiB allocation reported by mallinfo(arena+hblkhd)
         30806 MiB available memory on the node where the printing process lives
------------------
     ethr =  1.41E-10,  avg # of iterations =  4.8

     negative rho (up, down):  7.923E-01 0.000E+00

     total cpu time spent up to now is      702.9 secs

     total energy              =   -4482.97542182 Ry
     estimated scf accuracy    <       0.00000036 Ry

     iteration # 44     ecut=    60.00 Ry     beta= 0.15
     Davidson diagonalization with overlap

---- Real-time Memory Report at c_bands before calling an iterative solver
             0 MiB given to the printing process from OS
             0 MiB allocation reported by mallinfo(arena+hblkhd)
         30792 MiB available memory on the node where the printing process lives
------------------
     ethr =  8.29E-11,  avg # of iterations =  1.8

     negative rho (up, down):  7.923E-01 0.000E+00

     total cpu time spent up to now is      717.4 secs

     total energy              =   -4482.97542184 Ry
     estimated scf accuracy    <       0.00000029 Ry

     iteration # 45     ecut=    60.00 Ry     beta= 0.15
     Davidson diagonalization with overlap

---- Real-time Memory Report at c_bands before calling an iterative solver
             0 MiB given to the printing process from OS
             0 MiB allocation reported by mallinfo(arena+hblkhd)
         30798 MiB available memory on the node where the printing process lives
------------------
     ethr =  6.69E-11,  avg # of iterations =  2.4

     negative rho (up, down):  7.923E-01 0.000E+00

     total cpu time spent up to now is      732.3 secs

     total energy              =   -4482.97542186 Ry
     estimated scf accuracy    <       0.00000025 Ry

     iteration # 46     ecut=    60.00 Ry     beta= 0.15
     Davidson diagonalization with overlap

---- Real-time Memory Report at c_bands before calling an iterative solver
             0 MiB given to the printing process from OS
             0 MiB allocation reported by mallinfo(arena+hblkhd)
         30799 MiB available memory on the node where the printing process lives
------------------
     ethr =  5.61E-11,  avg # of iterations =  2.0

     negative rho (up, down):  7.923E-01 0.000E+00

     total cpu time spent up to now is      746.9 secs

     total energy              =   -4482.97542188 Ry
     estimated scf accuracy    <       0.00000019 Ry

     iteration # 47     ecut=    60.00 Ry     beta= 0.15
     Davidson diagonalization with overlap

---- Real-time Memory Report at c_bands before calling an iterative solver
             0 MiB given to the printing process from OS
             0 MiB allocation reported by mallinfo(arena+hblkhd)
         30797 MiB available memory on the node where the printing process lives
------------------
     ethr =  4.31E-11,  avg # of iterations =  3.9

     negative rho (up, down):  7.923E-01 0.000E+00

     total cpu time spent up to now is      762.4 secs

     total energy              =   -4482.97542192 Ry
     estimated scf accuracy    <       0.00000011 Ry

     iteration # 48     ecut=    60.00 Ry     beta= 0.15
     Davidson diagonalization with overlap

---- Real-time Memory Report at c_bands before calling an iterative solver
             0 MiB given to the printing process from OS
             0 MiB allocation reported by mallinfo(arena+hblkhd)
         30789 MiB available memory on the node where the printing process lives
------------------
     ethr =  2.59E-11,  avg # of iterations =  4.7

     negative rho (up, down):  7.923E-01 0.000E+00

     total cpu time spent up to now is      778.1 secs

     total energy              =   -4482.97542193 Ry
     estimated scf accuracy    <       0.00000006 Ry

     iteration # 49     ecut=    60.00 Ry     beta= 0.15
     Davidson diagonalization with overlap

---- Real-time Memory Report at c_bands before calling an iterative solver
             0 MiB given to the printing process from OS
             0 MiB allocation reported by mallinfo(arena+hblkhd)
         30789 MiB available memory on the node where the printing process lives
------------------
     ethr =  1.41E-11,  avg # of iterations =  3.6

     negative rho (up, down):  7.923E-01 0.000E+00

     total cpu time spent up to now is      793.5 secs

     total energy              =   -4482.97542193 Ry
     estimated scf accuracy    <       0.00000004 Ry

     iteration # 50     ecut=    60.00 Ry     beta= 0.15
     Davidson diagonalization with overlap

---- Real-time Memory Report at c_bands before calling an iterative solver
             0 MiB given to the printing process from OS
             0 MiB allocation reported by mallinfo(arena+hblkhd)
         30809 MiB available memory on the node where the printing process lives
------------------
     ethr =  8.69E-12,  avg # of iterations =  3.8

     negative rho (up, down):  7.923E-01 0.000E+00

     total cpu time spent up to now is      809.1 secs

     total energy              =   -4482.97542193 Ry
     estimated scf accuracy    <       0.00000002 Ry

     iteration # 51     ecut=    60.00 Ry     beta= 0.15
     Davidson diagonalization with overlap

---- Real-time Memory Report at c_bands before calling an iterative solver
             0 MiB given to the printing process from OS
             0 MiB allocation reported by mallinfo(arena+hblkhd)
         30803 MiB available memory on the node where the printing process lives
------------------
     ethr =  4.35E-12,  avg # of iterations =  4.4

     negative rho (up, down):  7.923E-01 0.000E+00

     total cpu time spent up to now is      825.0 secs

     End of self-consistent calculation

          k = 0.0000 0.0000 0.0000 ( 65197 PWs)   bands (ev):

   -92.3428 -92.2883 -92.1966 -92.1477 -92.0890 -92.0490 -92.0319 -91.9091
   -55.6959 -55.6747 -55.5545 -55.5439 -55.5361 -55.5306 -55.4936 -55.4662
   -55.4500 -55.4480 -55.4392 -55.3977 -55.3786 -55.3408 -55.3225 -55.2885
   -55.2832 -55.2380 -55.2353 -55.2348 -55.2263 -55.1838 -55.1626 -55.0761
   -30.9294 -30.9104 -30.7695 -30.7174 -30.6830 -30.6344 -30.5992 -30.5238
   -29.4938 -29.4503 -29.4245 -29.3170 -22.2554 -14.7279 -14.6921 -14.6057
   -14.4756 -14.2917 -14.1693 -13.8682 -13.8478 -13.8181 -13.7829 -13.7730
   -13.7347 -13.7290 -13.7116 -13.6929 -13.6721 -13.6335 -13.5764 -13.4288
   -13.2585 -13.2178 -13.1864 -13.1581 -13.1406 -13.0951 -13.0558 -12.9764
   -12.9036 -12.8022 -12.7627 -12.7534 -12.7482 -12.7264 -12.7091 -12.6693
   -12.6551 -12.6449 -12.6119 -12.5786 -12.5651 -12.5513 -12.5399 -12.5222
   -12.4985 -12.4679 -12.4474 -12.4394 -12.4034 -12.3893 -11.9947 -11.8499
   -11.7314 -11.6585 -11.5078 -11.4330 -11.4218 -11.3999 -11.3821 -11.3183
   -11.3011 -11.2661 -11.2370 -11.1268 -11.0458 -11.0422  -5.9218  -3.1577
    -3.1543  -2.5882  -2.3547  -2.1252  -1.9795  -1.9151  -1.7722  -1.4663
    -1.4521  -1.4306  -1.3491  -1.3300  -1.2622  -1.2462  -1.2044  -1.1588
    -0.9787  -0.7558  -0.7269  -0.5759  -0.5623  -0.5187  -0.5002  -0.4563
    -0.4406  -0.3792  -0.3532  -0.2857  -0.2729  -0.1921  -0.0666  -0.0515
    -0.0218   0.0598   0.0617   0.0749   0.1455   0.2245   0.2489   0.3189
     0.3392   0.3948   0.4809   0.5327   0.5551   0.5607   0.8180   0.8310
     1.0027   1.0721   1.1345   1.1751   1.2740   1.2863   1.3027   1.3709
     1.3997   1.4340   1.4929   1.6283   1.6805   1.7030   1.7188   1.7296
     1.8003   1.8777   1.9720   1.9846   2.0414   2.0633   2.1014   2.1234
     2.1296   2.1853   2.2364   2.2518   2.2791   2.3075   2.3760   2.5055
     2.5833   2.6341   2.6498   2.7973   2.8123   2.8584   2.8696   2.9689
     3.0095   3.0334   3.0455   3.0499   3.0562   3.0768   3.1475   3.2595
     3.2922   3.3066   3.3137   3.3801   3.3838   3.4091   3.4173   3.4251
     3.4365   3.4437   3.4562   3.4616   3.4760   3.4841   3.4914   3.5122
     3.5335   3.5387   3.5503   3.5691   3.6912   3.7437   4.4179   4.7518
     4.7878   5.1355   5.3827   5.4734   5.7257   6.2726   6.3152   6.3501
     6.6163   6.6265   6.6704   6.7186   6.9982   7.1725   7.2163   7.3302
     7.6005   7.6517   7.8230   7.9202   7.9319   7.9660   8.0287   8.0410
     8.3223   8.3721   8.3829   8.4489   8.5157   8.5791   8.5975

     occupation numbers 
     1.0000   1.0000   1.0000   1.0000   1.0000   1.0000   1.0000   1.0000
     1.0000   1.0000   1.0000   1.0000   1.0000   1.0000   1.0000   1.0000
     1.0000   1.0000   1.0000   1.0000   1.0000   1.0000   1.0000   1.0000
     1.0000   1.0000   1.0000   1.0000   1.0000   1.0000   1.0000   1.0000
     1.0000   1.0000   1.0000   1.0000   1.0000   1.0000   1.0000   1.0000
     1.0000   1.0000   1.0000   1.0000   1.0000   1.0000   1.0000   1.0000
     1.0000   1.0000   1.0000   1.0000   1.0000   1.0000   1.0000   1.0000
     1.0000   1.0000   1.0000   1.0000   1.0000   1.0000   1.0000   1.0000
     1.0000   1.0000   1.0000   1.0000   1.0000   1.0000   1.0000   1.0000
     1.0000   1.0000   1.0000   1.0000   1.0000   1.0000   1.0000   1.0000
     1.0000   1.0000   1.0000   1.0000   1.0000   1.0000   1.0000   1.0000
     1.0000   1.0000   1.0000   1.0000   1.0000   1.0000   1.0000   1.0000
     1.0000   1.0000   1.0000   1.0000   1.0000   1.0000   1.0000   1.0000
     1.0000   1.0000   1.0000   1.0000   1.0000   1.0000   1.0000   1.0000
     1.0000   1.0000   1.0000   1.0000   1.0000   1.0000   1.0000   1.0000
     1.0000   1.0000   1.0000   1.0000   1.0000   1.0000   1.0000   1.0000
     1.0000   1.0000   1.0000   1.0000   1.0000   1.0000   1.0000   1.0000
     1.0000   1.0000   1.0000   1.0000   1.0000   1.0000   1.0000   1.0000
     1.0000   1.0000   1.0000   1.0000   1.0000   1.0000   1.0000   1.0000
     1.0000   1.0000   1.0000   1.0000   1.0000   1.0000   1.0000   1.0000
     1.0000   0.9999   0.9999   0.9999   0.9998   0.9998   0.9998   0.9997
     0.9997   0.9996   0.9994   0.9989   0.9985   0.9984   0.9982   0.9981
     0.9974   0.9963   0.9945   0.9942   0.9926   0.9919   0.9906   0.9897
     0.9895   0.9870   0.9842   0.9833   0.9815   0.9795   0.9739   0.9599
     0.9489   0.9404   0.9376   0.9059   0.9021   0.8898   0.8866   0.8557
     0.8416   0.8328   0.8283   0.8266   0.8242   0.8162   0.7870   0.7356
     0.7195   0.7122   0.7086   0.6739   0.6719   0.6582   0.6538   0.6495
     0.6432   0.6392   0.6322   0.6292   0.6211   0.6165   0.6124   0.6005
     0.5882   0.5852   0.5785   0.5675   0.4955   0.4645   0.1378   0.0564
     0.0505   0.0155   0.0058   0.0039   0.0012   0.0001   0.0000   0.0000
     0.0000   0.0000   0.0000   0.0000   0.0000   0.0000   0.0000   0.0000
     0.0000   0.0000   0.0000   0.0000   0.0000   0.0000   0.0000   0.0000
     0.0000   0.0000   0.0000   0.0000   0.0000   0.0000   0.0000

          k = 0.0000 0.2500 0.0000 ( 65257 PWs)   bands (ev):

   -92.3428 -92.2883 -92.1966 -92.1477 -92.0890 -92.0490 -92.0319 -91.9091
   -55.6959 -55.6747 -55.5545 -55.5439 -55.5361 -55.5306 -55.4936 -55.4662
   -55.4500 -55.4480 -55.4392 -55.3977 -55.3786 -55.3408 -55.3225 -55.2885
   -55.2832 -55.2380 -55.2353 -55.2348 -55.2263 -55.1838 -55.1626 -55.0761
   -30.9292 -30.9103 -30.7697 -30.7171 -30.6832 -30.6348 -30.5988 -30.5243
   -29.4931 -29.4500 -29.4252 -29.3174 -22.2554 -14.6908 -14.6664 -14.5808
   -14.4461 -14.3305 -14.1586 -14.0135 -13.8336 -13.8036 -13.7850 -13.7742
   -13.7512 -13.6949 -13.6903 -13.6765 -13.6565 -13.6163 -13.4969 -13.4593
   -13.2982 -13.2831 -13.2274 -13.1940 -13.1506 -13.1103 -13.0734 -12.9946
   -12.9619 -12.9148 -12.8501 -12.8000 -12.7603 -12.7440 -12.7284 -12.6424
   -12.6243 -12.6026 -12.5852 -12.5542 -12.5208 -12.5138 -12.4909 -12.4834
   -12.4576 -12.4524 -12.4450 -12.4147 -12.2928 -12.2050 -12.0561 -11.9012
   -11.7885 -11.7273 -11.4733 -11.4298 -11.4025 -11.3739 -11.3572 -11.3102
   -11.2988 -11.2761 -11.2419 -11.1411 -11.0875 -11.0768  -5.9218  -3.1579
    -3.1543  -2.4530  -2.2304  -2.0934  -1.9112  -1.8676  -1.7031  -1.4861
    -1.3986  -1.3856  -1.3301  -1.2270  -1.2117  -1.1773  -1.1519  -1.1083
    -0.9100  -0.7818  -0.7696  -0.6939  -0.6826  -0.5776  -0.5471  -0.4922
    -0.4674  -0.4237  -0.3618  -0.3365  -0.3028  -0.2734  -0.2567  -0.2224
    -0.1506  -0.0968  -0.0379   0.0718   0.0914   0.1341   0.2530   0.2870
     0.3500   0.4010   0.4637   0.4785   0.5109   0.5660   0.8637   0.9528
     0.9818   1.0707   1.1137   1.1299   1.2612   1.2786   1.3735   1.3978
     1.4285   1.5436   1.6286   1.6570   1.6796   1.6958   1.7266   1.7873
     1.8135   1.8400   1.8895   1.9189   1.9494   2.0274   2.0569   2.0945
     2.1515   2.2014   2.2382   2.2631   2.2975   2.3199   2.4116   2.5405
     2.6119   2.6329   2.7126   2.7557   2.7929   2.7996   2.8669   2.9093
     2.9867   3.0258   3.0388   3.0471   3.0599   3.2205   3.2418   3.2737
     3.2952   3.3132   3.3223   3.3297   3.3374   3.3676   3.3699   3.3870
     3.3909   3.4037   3.4205   3.4303   3.4407   3.4634   3.4738   3.4788
     3.5138   3.5308   3.5913   3.9420   3.9740   4.2330   4.6024   4.7449
     4.9016   5.0804   5.4094   5.5232   5.8494   5.9018   6.1573   6.3091
     6.3320   6.4537   6.5208   6.7387   6.9341   7.0828   7.2422   7.5383
     7.5490   7.7035   7.7942   7.8868   7.9292   7.9506   8.1010   8.2298
     8.3191   8.3982   8.5462   8.5804   8.6173   8.6792   8.9278

     occupation numbers 
     1.0000   1.0000   1.0000   1.0000   1.0000   1.0000   1.0000   1.0000
     1.0000   1.0000   1.0000   1.0000   1.0000   1.0000   1.0000   1.0000
     1.0000   1.0000   1.0000   1.0000   1.0000   1.0000   1.0000   1.0000
     1.0000   1.0000   1.0000   1.0000   1.0000   1.0000   1.0000   1.0000
     1.0000   1.0000   1.0000   1.0000   1.0000   1.0000   1.0000   1.0000
     1.0000   1.0000   1.0000   1.0000   1.0000   1.0000   1.0000   1.0000
     1.0000   1.0000   1.0000   1.0000   1.0000   1.0000   1.0000   1.0000
     1.0000   1.0000   1.0000   1.0000   1.0000   1.0000   1.0000   1.0000
     1.0000   1.0000   1.0000   1.0000   1.0000   1.0000   1.0000   1.0000
     1.0000   1.0000   1.0000   1.0000   1.0000   1.0000   1.0000   1.0000
     1.0000   1.0000   1.0000   1.0000   1.0000   1.0000   1.0000   1.0000
     1.0000   1.0000   1.0000   1.0000   1.0000   1.0000   1.0000   1.0000
     1.0000   1.0000   1.0000   1.0000   1.0000   1.0000   1.0000   1.0000
     1.0000   1.0000   1.0000   1.0000   1.0000   1.0000   1.0000   1.0000
     1.0000   1.0000   1.0000   1.0000   1.0000   1.0000   1.0000   1.0000
     1.0000   1.0000   1.0000   1.0000   1.0000   1.0000   1.0000   1.0000
     1.0000   1.0000   1.0000   1.0000   1.0000   1.0000   1.0000   1.0000
     1.0000   1.0000   1.0000   1.0000   1.0000   1.0000   1.0000   1.0000
     1.0000   1.0000   1.0000   1.0000   1.0000   1.0000   1.0000   1.0000
     1.0000   1.0000   1.0000   1.0000   1.0000   1.0000   1.0000   1.0000
     1.0000   0.9999   0.9999   0.9999   0.9998   0.9998   0.9997   0.9997
     0.9996   0.9993   0.9989   0.9987   0.9985   0.9984   0.9982   0.9976
     0.9973   0.9969   0.9961   0.9956   0.9950   0.9930   0.9921   0.9909
     0.9885   0.9861   0.9841   0.9825   0.9802   0.9786   0.9705   0.9552
     0.9442   0.9406   0.9253   0.9159   0.9070   0.9054   0.8874   0.8749
     0.8496   0.8357   0.8309   0.8277   0.8228   0.7542   0.7441   0.7286
     0.7180   0.7089   0.7042   0.7004   0.6964   0.6805   0.6793   0.6702
     0.6681   0.6612   0.6520   0.6466   0.6408   0.6282   0.6223   0.6195
     0.5995   0.5898   0.5545   0.3506   0.3331   0.2073   0.0862   0.0575
     0.0353   0.0190   0.0052   0.0032   0.0006   0.0005   0.0001   0.0000
     0.0000   0.0000   0.0000   0.0000   0.0000   0.0000   0.0000   0.0000
     0.0000   0.0000   0.0000   0.0000   0.0000   0.0000   0.0000   0.0000
     0.0000   0.0000   0.0000   0.0000   0.0000   0.0000   0.0000

          k = 0.0000-0.5000 0.0000 ( 65180 PWs)   bands (ev):

   -92.3428 -92.2883 -92.1966 -92.1477 -92.0890 -92.0490 -92.0319 -91.9091
   -55.6959 -55.6747 -55.5545 -55.5439 -55.5361 -55.5306 -55.4936 -55.4662
   -55.4500 -55.4480 -55.4392 -55.3977 -55.3786 -55.3408 -55.3225 -55.2885
   -55.2832 -55.2380 -55.2353 -55.2348 -55.2263 -55.1838 -55.1626 -55.0761
   -30.9290 -30.9102 -30.7699 -30.7167 -30.6833 -30.6351 -30.5984 -30.5247
   -29.4925 -29.4496 -29.4258 -29.3177 -22.2554 -14.6594 -14.6101 -14.5596
   -14.4316 -14.3455 -14.2061 -14.0643 -13.9341 -13.8041 -13.7822 -13.7381
   -13.6945 -13.6846 -13.6395 -13.6197 -13.5749 -13.5559 -13.5294 -13.4926
   -13.4637 -13.4309 -13.2310 -13.1746 -13.1594 -13.1047 -13.0830 -13.0079
   -12.9848 -12.9363 -12.9301 -12.8711 -12.7611 -12.7431 -12.7141 -12.6649
   -12.6251 -12.6089 -12.5816 -12.5335 -12.5158 -12.4867 -12.4776 -12.4543
   -12.4376 -12.4163 -12.3571 -12.3037 -12.1672 -12.1399 -11.9765 -11.9670
   -11.9049 -11.8625 -11.4267 -11.4249 -11.3976 -11.3597 -11.3254 -11.3143
   -11.2715 -11.2677 -11.2236 -11.1627 -11.1485 -11.1341  -5.9218  -3.1581
    -3.1543  -2.2386  -2.1785  -2.0275  -1.9546  -1.6752  -1.5916  -1.4636
    -1.3247  -1.2899  -1.2692  -1.1899  -1.1581  -1.0783  -1.0422  -0.9666
    -0.9250  -0.8852  -0.8583  -0.8040  -0.7649  -0.7191  -0.6813  -0.6490
    -0.6144  -0.5044  -0.4591  -0.4274  -0.4257  -0.3398  -0.3063  -0.2839
    -0.2367  -0.1520  -0.0842  -0.0022   0.0237   0.1278   0.1732   0.3241
     0.3523   0.3836   0.4355   0.5521   0.6009   0.7463   0.8120   0.8191
     0.9476   0.9856   1.0866   1.2244   1.3319   1.3638   1.3975   1.4043
     1.4436   1.4618   1.4997   1.5179   1.5265   1.6347   1.6935   1.7221
     1.7491   2.0062   2.0375   2.0609   2.1522   2.1753   2.2093   2.2241
     2.2606   2.2676   2.2783   2.3093   2.3541   2.3788   2.4076   2.4194
     2.4485   2.5026   2.5819   2.6072   2.7904   2.9565   2.9657   2.9804
     3.0197   3.0233   3.0357   3.0459   3.0545   3.0865   3.0997   3.1545
     3.1748   3.2513   3.2630   3.3319   3.3401   3.3649   3.3667   3.3862
     3.3886   3.3927   3.3975   3.4013   3.4133   3.4337   3.4345   3.4990
     3.5049   3.5204   3.5745   4.4741   4.4789   4.5195   4.5858   4.9546
     5.1186   5.2270   5.4144   5.5190   5.6121   5.8049   5.9202   6.0104
     6.2322   6.3688   6.3947   6.4806   7.0095   7.1028   7.1355   7.3994
     7.6050   7.6394   7.6899   8.0325   8.0665   8.1586   8.2039   8.3022
     8.5170   8.6099   8.6396   8.7407   8.7653   8.8545   8.9717

     occupation numbers 
     1.0000   1.0000   1.0000   1.0000   1.0000   1.0000   1.0000   1.0000
     1.0000   1.0000   1.0000   1.0000   1.0000   1.0000   1.0000   1.0000
     1.0000   1.0000   1.0000   1.0000   1.0000   1.0000   1.0000   1.0000
     1.0000   1.0000   1.0000   1.0000   1.0000   1.0000   1.0000   1.0000
     1.0000   1.0000   1.0000   1.0000   1.0000   1.0000   1.0000   1.0000
     1.0000   1.0000   1.0000   1.0000   1.0000   1.0000   1.0000   1.0000
     1.0000   1.0000   1.0000   1.0000   1.0000   1.0000   1.0000   1.0000
     1.0000   1.0000   1.0000   1.0000   1.0000   1.0000   1.0000   1.0000
     1.0000   1.0000   1.0000   1.0000   1.0000   1.0000   1.0000   1.0000
     1.0000   1.0000   1.0000   1.0000   1.0000   1.0000   1.0000   1.0000
     1.0000   1.0000   1.0000   1.0000   1.0000   1.0000   1.0000   1.0000
     1.0000   1.0000   1.0000   1.0000   1.0000   1.0000   1.0000   1.0000
     1.0000   1.0000   1.0000   1.0000   1.0000   1.0000   1.0000   1.0000
     1.0000   1.0000   1.0000   1.0000   1.0000   1.0000   1.0000   1.0000
     1.0000   1.0000   1.0000   1.0000   1.0000   1.0000   1.0000   1.0000
     1.0000   1.0000   1.0000   1.0000   1.0000   1.0000   1.0000   1.0000
     1.0000   1.0000   1.0000   1.0000   1.0000   1.0000   1.0000   1.0000
     1.0000   1.0000   1.0000   1.0000   1.0000   1.0000   1.0000   1.0000
     1.0000   1.0000   1.0000   1.0000   1.0000   1.0000   1.0000   1.0000
     1.0000   1.0000   1.0000   1.0000   1.0000   1.0000   1.0000   1.0000
     1.0000   1.0000   0.9999   0.9999   0.9998   0.9997   0.9997   0.9996
     0.9996   0.9995   0.9994   0.9993   0.9993   0.9988   0.9984   0.9982
     0.9980   0.9936   0.9927   0.9920   0.9885   0.9874   0.9857   0.9849
     0.9827   0.9823   0.9815   0.9794   0.9758   0.9737   0.9709   0.9698
     0.9667   0.9603   0.9491   0.9450   0.9076   0.8599   0.8568   0.8518
     0.8379   0.8366   0.8320   0.8282   0.8249   0.8124   0.8070   0.7840
     0.7750   0.7396   0.7339   0.6993   0.6950   0.6820   0.6810   0.6706
     0.6694   0.6671   0.6645   0.6625   0.6559   0.6447   0.6443   0.6080
     0.6046   0.5958   0.5643   0.1202   0.1188   0.1073   0.0902   0.0296
     0.0166   0.0110   0.0051   0.0032   0.0021   0.0008   0.0004   0.0003
     0.0001   0.0000   0.0000   0.0000   0.0000   0.0000   0.0000   0.0000
     0.0000   0.0000   0.0000   0.0000   0.0000   0.0000   0.0000   0.0000
     0.0000   0.0000   0.0000   0.0000   0.0000   0.0000   0.0000

          k = 0.2500 0.2500 0.0000 ( 65198 PWs)   bands (ev):

   -92.3428 -92.2883 -92.1966 -92.1477 -92.0890 -92.0490 -92.0319 -91.9091
   -55.6959 -55.6747 -55.5545 -55.5439 -55.5361 -55.5306 -55.4936 -55.4662
   -55.4500 -55.4480 -55.4392 -55.3977 -55.3786 -55.3408 -55.3225 -55.2885
   -55.2832 -55.2380 -55.2353 -55.2348 -55.2263 -55.1838 -55.1626 -55.0761
   -30.9275 -30.9121 -30.7693 -30.7169 -30.6835 -30.6340 -30.5997 -30.5244
   -29.4922 -29.4509 -29.4248 -29.3178 -22.2554 -14.6630 -14.6310 -14.5529
   -14.4355 -14.3219 -14.1977 -14.1182 -13.9167 -13.7819 -13.7565 -13.7443
   -13.7111 -13.6791 -13.6607 -13.6391 -13.6037 -13.5751 -13.4891 -13.4737
   -13.3138 -13.3004 -13.2700 -13.2501 -13.2074 -13.1621 -13.1197 -13.0775
   -12.9772 -12.9358 -12.8828 -12.7946 -12.7537 -12.7027 -12.6844 -12.6706
   -12.6298 -12.6020 -12.5983 -12.5712 -12.5391 -12.5155 -12.4795 -12.4628
   -12.4265 -12.4027 -12.3944 -12.3660 -12.2327 -12.1046 -12.0900 -11.9304
   -11.8168 -11.7815 -11.4454 -11.4134 -11.4029 -11.3954 -11.3331 -11.2980
   -11.2916 -11.2565 -11.2482 -11.1577 -11.1157 -11.0984  -5.9218  -3.1579
    -3.1545  -2.3150  -2.1047  -1.9875  -1.8942  -1.7719  -1.7064  -1.5112
    -1.3641  -1.3437  -1.3167  -1.2218  -1.1870  -1.0940  -1.0678  -1.0177
    -0.8847  -0.8378  -0.7659  -0.7199  -0.6761  -0.6510  -0.6260  -0.5846
    -0.5684  -0.4789  -0.4290  -0.3671  -0.3169  -0.2877  -0.2348  -0.2249
    -0.1610  -0.1105  -0.0569  -0.0205   0.0624   0.1154   0.1449   0.1864
     0.2405   0.3023   0.3480   0.3752   0.4428   0.4845   0.7579   0.9028
     0.9432   0.9925   1.0382   1.0907   1.1458   1.2061   1.2456   1.5189
     1.5909   1.6645   1.6906   1.7346   1.7710   1.8053   1.8417   1.8598
     1.8882   1.9253   1.9366   1.9552   1.9959   2.0371   2.0771   2.1217
     2.1593   2.1733   2.2030   2.2425   2.2944   2.3206   2.4520   2.5202
     2.5609   2.5899   2.6476   2.7163   2.7467   2.7844   2.8055   2.8196
     2.9318   2.9687   3.0407   3.0452   3.0689   3.2312   3.2489   3.2553
     3.2702   3.2846   3.2976   3.3102   3.3178   3.3280   3.3415   3.3532
     3.3729   3.3789   3.3907   3.4109   3.4246   3.4345   3.4655   3.7672
     3.8582   3.8953   3.9604   3.9770   4.2036   4.3089   4.6379   4.7960
     4.9769   5.1294   5.3239   5.5604   5.9432   5.9697   5.9824   6.1185
     6.1964   6.2457   6.3468   6.4107   6.9337   7.0220   7.1149   7.2151
     7.7089   7.7775   7.8632   7.9130   8.0217   8.1352   8.2219   8.3361
     8.3846   8.4529   8.6260   8.6856   8.7251   8.7498   8.8365

     occupation numbers 
     1.0000   1.0000   1.0000   1.0000   1.0000   1.0000   1.0000   1.0000
     1.0000   1.0000   1.0000   1.0000   1.0000   1.0000   1.0000   1.0000
     1.0000   1.0000   1.0000   1.0000   1.0000   1.0000   1.0000   1.0000
     1.0000   1.0000   1.0000   1.0000   1.0000   1.0000   1.0000   1.0000
     1.0000   1.0000   1.0000   1.0000   1.0000   1.0000   1.0000   1.0000
     1.0000   1.0000   1.0000   1.0000   1.0000   1.0000   1.0000   1.0000
     1.0000   1.0000   1.0000   1.0000   1.0000   1.0000   1.0000   1.0000
     1.0000   1.0000   1.0000   1.0000   1.0000   1.0000   1.0000   1.0000
     1.0000   1.0000   1.0000   1.0000   1.0000   1.0000   1.0000   1.0000
     1.0000   1.0000   1.0000   1.0000   1.0000   1.0000   1.0000   1.0000
     1.0000   1.0000   1.0000   1.0000   1.0000   1.0000   1.0000   1.0000
     1.0000   1.0000   1.0000   1.0000   1.0000   1.0000   1.0000   1.0000
     1.0000   1.0000   1.0000   1.0000   1.0000   1.0000   1.0000   1.0000
     1.0000   1.0000   1.0000   1.0000   1.0000   1.0000   1.0000   1.0000
     1.0000   1.0000   1.0000   1.0000   1.0000   1.0000   1.0000   1.0000
     1.0000   1.0000   1.0000   1.0000   1.0000   1.0000   1.0000   1.0000
     1.0000   1.0000   1.0000   1.0000   1.0000   1.0000   1.0000   1.0000
     1.0000   1.0000   1.0000   1.0000   1.0000   1.0000   1.0000   1.0000
     1.0000   1.0000   1.0000   1.0000   1.0000   1.0000   1.0000   1.0000
     1.0000   1.0000   1.0000   1.0000   1.0000   1.0000   1.0000   1.0000
     1.0000   1.0000   1.0000   0.9999   0.9999   0.9999   0.9999   0.9993
     0.9991   0.9986   0.9985   0.9981   0.9977   0.9974   0.9969   0.9966
     0.9962   0.9955   0.9953   0.9949   0.9939   0.9928   0.9915   0.9898
     0.9882   0.9875   0.9860   0.9838   0.9804   0.9785   0.9663   0.9580
     0.9523   0.9478   0.9380   0.9246   0.9179   0.9091   0.9039   0.9003
     0.8679   0.8558   0.8301   0.8284   0.8193   0.7492   0.7407   0.7376
     0.7304   0.7232   0.7167   0.7104   0.7065   0.7013   0.6943   0.6881
     0.6777   0.6745   0.6682   0.6573   0.6497   0.6443   0.6270   0.4506
     0.3977   0.3767   0.3405   0.3316   0.2200   0.1766   0.0782   0.0493
     0.0274   0.0159   0.0074   0.0027   0.0004   0.0003   0.0003   0.0001
     0.0001   0.0001   0.0000   0.0000   0.0000   0.0000   0.0000   0.0000
     0.0000   0.0000   0.0000   0.0000   0.0000   0.0000   0.0000   0.0000
     0.0000   0.0000   0.0000   0.0000   0.0000   0.0000   0.0000

          k = 0.2500-0.5000 0.0000 ( 65138 PWs)   bands (ev):

   -92.3428 -92.2883 -92.1966 -92.1477 -92.0890 -92.0490 -92.0319 -91.9091
   -55.6959 -55.6747 -55.5545 -55.5439 -55.5361 -55.5306 -55.4936 -55.4662
   -55.4500 -55.4480 -55.4392 -55.3977 -55.3786 -55.3408 -55.3225 -55.2885
   -55.2832 -55.2380 -55.2353 -55.2348 -55.2263 -55.1838 -55.1626 -55.0761
   -30.9273 -30.9119 -30.7695 -30.7166 -30.6837 -30.6343 -30.5993 -30.5249
   -29.4915 -29.4506 -29.4254 -29.3181 -22.2554 -14.6293 -14.5832 -14.5168
   -14.4001 -14.3693 -14.2467 -14.1639 -14.0313 -13.7815 -13.7202 -13.6723
   -13.6421 -13.6249 -13.6049 -13.5921 -13.5602 -13.5437 -13.5079 -13.4690
   -13.4458 -13.4235 -13.3147 -13.2663 -13.2255 -13.1873 -13.1391 -13.1176
   -13.0273 -12.9949 -12.8589 -12.7947 -12.7711 -12.6853 -12.6844 -12.6422
   -12.6239 -12.6072 -12.5954 -12.5642 -12.5346 -12.4989 -12.4940 -12.4549
   -12.4365 -12.4158 -12.3076 -12.2762 -12.1739 -12.1229 -11.9741 -11.9505
   -11.8924 -11.8605 -11.4208 -11.4090 -11.3980 -11.3708 -11.3391 -11.3109
   -11.2693 -11.2421 -11.2197 -11.1758 -11.1496 -11.1383  -5.9218  -3.1580
    -3.1545  -2.0972  -2.0308  -1.9016  -1.8236  -1.6958  -1.6118  -1.4882
    -1.3364  -1.2842  -1.2615  -1.1978  -1.1846  -1.0889  -1.0207  -0.9355
    -0.8883  -0.8784  -0.8135  -0.7736  -0.7372  -0.6899  -0.6530  -0.6183
    -0.5776  -0.5675  -0.5211  -0.4932  -0.4516  -0.4212  -0.3534  -0.2535
    -0.2146  -0.1372  -0.0732  -0.0267   0.0179   0.0409   0.0879   0.2511
     0.2599   0.3649   0.4038   0.4142   0.4594   0.4850   0.5257   0.5530
     0.6283   0.8887   0.9782   1.0527   1.1138   1.3752   1.4022   1.4919
     1.5161   1.6874   1.7191   1.7622   1.7866   1.8035   1.8237   1.8836
     1.9280   1.9662   2.0429   2.1232   2.1642   2.1894   2.1999   2.2349
     2.2493   2.2574   2.2967   2.3146   2.3304   2.3671   2.3833   2.4115
     2.4409   2.5008   2.5379   2.6139   2.7584   2.9105   2.9257   2.9434
     2.9706   2.9954   3.0213   3.0383   3.0461   3.0523   3.0648   3.0834
     3.1814   3.2294   3.2493   3.2520   3.2683   3.2884   3.3025   3.3210
     3.3289   3.3589   3.3710   3.3867   3.3955   3.4036   3.4157   3.9298
     3.9388   4.0984   4.1470   4.4792   4.5278   4.5302   4.6531   5.0187
     5.1487   5.2554   5.4362   5.4911   5.6522   5.6703   5.8710   5.9148
     6.0892   6.1107   6.3122   6.5152   6.6101   6.6408   7.1541   7.2588
     7.5550   7.6676   7.9502   8.0728   8.1745   8.2220   8.3379   8.4181
     8.5325   8.6240   8.6986   8.8028   8.8572   8.9177   8.9410

     occupation numbers 
     1.0000   1.0000   1.0000   1.0000   1.0000   1.0000   1.0000   1.0000
     1.0000   1.0000   1.0000   1.0000   1.0000   1.0000   1.0000   1.0000
     1.0000   1.0000   1.0000   1.0000   1.0000   1.0000   1.0000   1.0000
     1.0000   1.0000   1.0000   1.0000   1.0000   1.0000   1.0000   1.0000
     1.0000   1.0000   1.0000   1.0000   1.0000   1.0000   1.0000   1.0000
     1.0000   1.0000   1.0000   1.0000   1.0000   1.0000   1.0000   1.0000
     1.0000   1.0000   1.0000   1.0000   1.0000   1.0000   1.0000   1.0000
     1.0000   1.0000   1.0000   1.0000   1.0000   1.0000   1.0000   1.0000
     1.0000   1.0000   1.0000   1.0000   1.0000   1.0000   1.0000   1.0000
     1.0000   1.0000   1.0000   1.0000   1.0000   1.0000   1.0000   1.0000
     1.0000   1.0000   1.0000   1.0000   1.0000   1.0000   1.0000   1.0000
     1.0000   1.0000   1.0000   1.0000   1.0000   1.0000   1.0000   1.0000
     1.0000   1.0000   1.0000   1.0000   1.0000   1.0000   1.0000   1.0000
     1.0000   1.0000   1.0000   1.0000   1.0000   1.0000   1.0000   1.0000
     1.0000   1.0000   1.0000   1.0000   1.0000   1.0000   1.0000   1.0000
     1.0000   1.0000   1.0000   1.0000   1.0000   1.0000   1.0000   1.0000
     1.0000   1.0000   1.0000   1.0000   1.0000   1.0000   1.0000   1.0000
     1.0000   1.0000   1.0000   1.0000   1.0000   1.0000   1.0000   1.0000
     1.0000   1.0000   1.0000   1.0000   1.0000   1.0000   1.0000   1.0000
     1.0000   1.0000   1.0000   1.0000   1.0000   1.0000   1.0000   1.0000
     1.0000   1.0000   1.0000   1.0000   0.9999   0.9997   0.9996   0.9994
     0.9994   0.9985   0.9982   0.9978   0.9976   0.9974   0.9971   0.9962
     0.9954   0.9946   0.9926   0.9898   0.9880   0.9867   0.9862   0.9843
     0.9834   0.9829   0.9803   0.9790   0.9777   0.9747   0.9732   0.9706
     0.9675   0.9605   0.9556   0.9439   0.9153   0.8745   0.8698   0.8642
     0.8551   0.8466   0.8373   0.8310   0.8281   0.8258   0.8209   0.8136
     0.7721   0.7500   0.7405   0.7392   0.7313   0.7213   0.7143   0.7049
     0.7008   0.6852   0.6787   0.6703   0.6656   0.6612   0.6546   0.3574
     0.3524   0.2690   0.2457   0.1187   0.1050   0.1044   0.0750   0.0237
     0.0148   0.0098   0.0046   0.0036   0.0017   0.0016   0.0006   0.0005
     0.0002   0.0002   0.0000   0.0000   0.0000   0.0000   0.0000   0.0000
     0.0000   0.0000   0.0000   0.0000   0.0000   0.0000   0.0000   0.0000
     0.0000   0.0000   0.0000   0.0000   0.0000   0.0000   0.0000

          k =-0.5000-0.5000 0.0000 ( 65132 PWs)   bands (ev):

   -92.3428 -92.2883 -92.1966 -92.1477 -92.0890 -92.0490 -92.0319 -91.9091
   -55.6959 -55.6747 -55.5545 -55.5439 -55.5361 -55.5306 -55.4936 -55.4662
   -55.4500 -55.4480 -55.4392 -55.3977 -55.3786 -55.3408 -55.3225 -55.2885
   -55.2832 -55.2380 -55.2353 -55.2348 -55.2263 -55.1838 -55.1626 -55.0761
   -30.9250 -30.9142 -30.7691 -30.7164 -30.6841 -30.6334 -30.6002 -30.5250
   -29.4905 -29.4516 -29.4250 -29.3185 -22.2554 -14.5845 -14.5556 -14.4386
   -14.4278 -14.3348 -14.2951 -14.2636 -14.1309 -13.7812 -13.6332 -13.6227
   -13.5852 -13.5678 -13.5512 -13.5432 -13.5075 -13.4999 -13.4869 -13.4752
   -13.4570 -13.3825 -13.3774 -13.3496 -13.3272 -13.3134 -13.2153 -13.2018
   -13.0759 -13.0455 -12.8107 -12.7670 -12.7041 -12.6779 -12.6612 -12.6374
   -12.6318 -12.6241 -12.6054 -12.5529 -12.5407 -12.5199 -12.4882 -12.4777
   -12.4359 -12.4274 -12.2574 -12.2497 -12.1902 -12.1068 -11.9706 -11.9331
   -11.8799 -11.8590 -11.4173 -11.4050 -11.3871 -11.3703 -11.3356 -11.3177
   -11.2830 -11.2228 -11.2019 -11.1978 -11.1473 -11.1443  -5.9218  -3.1580
    -3.1546  -1.8738  -1.7978  -1.7876  -1.7145  -1.6760  -1.5976  -1.5299
    -1.4041  -1.2867  -1.2571  -1.2182  -1.1603  -1.0879  -1.0748  -1.0028
    -0.9601  -0.8440  -0.8174  -0.7681  -0.7364  -0.6725  -0.6297  -0.6094
    -0.5985  -0.5462  -0.4975  -0.4851  -0.3708  -0.3144  -0.2683  -0.2179
    -0.1935  -0.1825  -0.1458  -0.1058  -0.0721  -0.0563   0.0281   0.0939
     0.1441   0.1641   0.2411   0.2900   0.3027   0.3617   0.3840   0.3997
     0.4115   0.8572   0.8913   1.0051   1.0179   1.4108   1.4207   1.4532
     1.4935   1.7694   1.7893   1.7963   1.8343   1.9685   2.0653   2.0909
     2.1261   2.1367   2.1659   2.1754   2.2074   2.2129   2.2220   2.2359
     2.2991   2.3011   2.3278   2.3343   2.3589   2.3677   2.4088   2.4396
     2.4508   2.4845   2.5110   2.5839   2.6520   2.9217   2.9549   2.9694
     2.9935   2.9998   3.0256   3.0353   3.0447   3.0497   3.0588   3.0715
     3.0830   3.1047   3.1165   3.1831   3.1864   3.2062   3.2203   3.2323
     3.2512   3.2551   3.2654   3.3673   3.3713   3.3996   3.4098   4.3543
     4.3735   4.3975   4.4095   4.6753   4.7473   4.7750   5.0151   5.1332
     5.1547   5.2204   5.3383   5.3958   5.4635   5.5597   5.5863   5.7361
     5.9843   6.0760   6.1097   6.2222   6.6127   6.6649   6.7742   7.2217
     7.5361   7.5519   7.7061   8.2783   8.2992   8.3780   8.4461   8.5621
     8.6634   8.8520   8.8890   8.9064   8.9150   8.9582   9.0235

     occupation numbers 
     1.0000   1.0000   1.0000   1.0000   1.0000   1.0000   1.0000   1.0000
     1.0000   1.0000   1.0000   1.0000   1.0000   1.0000   1.0000   1.0000
     1.0000   1.0000   1.0000   1.0000   1.0000   1.0000   1.0000   1.0000
     1.0000   1.0000   1.0000   1.0000   1.0000   1.0000   1.0000   1.0000
     1.0000   1.0000   1.0000   1.0000   1.0000   1.0000   1.0000   1.0000
[...]
     0.0000   0.0000   0.0000   0.0000   0.0000   0.0000   0.0000   0.0000
     0.0000   0.0000   0.0000   0.0000   0.0000   0.0000   0.0000

          k =-0.5000 0.0000 0.0000 ( 65180 PWs)   bands (ev):

   -92.3428 -92.2883 -92.1966 -92.1477 -92.0890 -92.0490 -92.0319 -91.9091
   -55.6959 -55.6747 -55.5545 -55.5439 -55.5361 -55.5306 -55.4936 -55.4662
   -55.4500 -55.4480 -55.4392 -55.3977 -55.3786 -55.3408 -55.3225 -55.2885
   -55.2832 -55.2380 -55.2353 -55.2348 -55.2263 -55.1838 -55.1626 -55.0761
   -30.9254 -30.9145 -30.7687 -30.7171 -30.6838 -30.6327 -30.6010 -30.5242
   -29.4918 -29.4523 -29.4237 -29.3179 -22.2554 -14.6627 -14.6153 -14.5519
   -14.4436 -14.3380 -14.1932 -14.0573 -13.9097 -13.7847 -13.7786 -13.7706
   -13.7544 -13.7014 -13.6431 -13.6108 -13.5645 -13.5568 -13.5409 -13.4878
   -13.4721 -13.3825 -13.2027 -13.1848 -13.1433 -13.1342 -13.0936 -13.0139
   -12.9908 -12.9215 -12.8982 -12.8953 -12.7240 -12.7062 -12.6938 -12.6695
   -12.6667 -12.6593 -12.5992 -12.5779 -12.5239 -12.5044 -12.4723 -12.4618
   -12.4159 -12.3843 -12.2921 -12.2831 -12.1932 -12.1539 -11.9934 -11.9804
   -11.8912 -11.8566 -11.4241 -11.4031 -11.3960 -11.3814 -11.3633 -11.3221
   -11.2590 -11.2413 -11.2084 -11.1651 -11.1556 -11.1395  -5.9218  -3.1577
    -3.1547  -2.2284  -2.1893  -2.0248  -1.9856  -1.6744  -1.5992  -1.4500
    -1.3312  -1.2931  -1.2471  -1.1991  -1.1728  -1.0515  -1.0056  -0.9924
    -0.9091  -0.8727  -0.8606  -0.8262  -0.7706  -0.7013  -0.6709  -0.6447
    -0.5488  -0.5006  -0.4525  -0.4205  -0.3984  -0.3691  -0.3208  -0.2955
    -0.2595  -0.1650  -0.0908  -0.0295   0.0344   0.1878   0.2348   0.2966
     0.3184   0.3753   0.4064   0.5370   0.5741   0.6143   0.7939   0.8921
     0.9390   1.0163   1.0723   1.2074   1.2202   1.3490   1.3809   1.4343
     1.4577   1.5014   1.5120   1.5605   1.5829   1.6465   1.6947   1.7413
     1.7506   2.0419   2.0546   2.0637   2.0832   2.2027   2.2117   2.2196
     2.2374   2.2677   2.2807   2.3152   2.3477   2.3645   2.4317   2.4368
     2.4942   2.5079   2.5723   2.6777   2.7724   2.8539   2.8687   2.9518
     2.9826   3.0060   3.0423   3.0465   3.0820   3.0870   3.0942   3.1224
     3.1901   3.2352   3.2791   3.3085   3.3558   3.3591   3.3599   3.3725
     3.3865   3.3991   3.4133   3.4161   3.4364   3.4423   3.4656   3.4854
     3.4898   3.6165   3.6241   4.4205   4.4592   4.5233   4.6477   4.9922
     5.1621   5.1725   5.3333   5.4470   5.6979   5.8654   5.9377   5.9919
     6.2404   6.3414   6.3778   6.4379   6.9768   7.1034   7.1529   7.4536
     7.5107   7.6760   7.7673   8.0424   8.0856   8.1425   8.1917   8.3320
     8.5409   8.5969   8.6441   8.7358   8.7643   8.8638   8.9503

     occupation numbers 
     1.0000   1.0000   1.0000   1.0000   1.0000   1.0000   1.0000   1.0000
     1.0000   1.0000   1.0000   1.0000   1.0000   1.0000   1.0000   1.0000
     1.0000   1.0000   1.0000   1.0000   1.0000   1.0000   1.0000   1.0000
     1.0000   1.0000   1.0000   1.0000   1.0000   1.0000   1.0000   1.0000
     1.0000   1.0000   1.0000   1.0000   1.0000   1.0000   1.0000   1.0000
     1.0000   1.0000   1.0000   1.0000   1.0000   1.0000   1.0000   1.0000
     1.0000   1.0000   1.0000   1.0000   1.0000   1.0000   1.0000   1.0000
     1.0000   1.0000   1.0000   1.0000   1.0000   1.0000   1.0000   1.0000
     1.0000   1.0000   1.0000   1.0000   1.0000   1.0000   1.0000   1.0000
     1.0000   1.0000   1.0000   1.0000   1.0000   1.0000   1.0000   1.0000
     1.0000   1.0000   1.0000   1.0000   1.0000   1.0000   1.0000   1.0000
     1.0000   1.0000   1.0000   1.0000   1.0000   1.0000   1.0000   1.0000
     1.0000   1.0000   1.0000   1.0000   1.0000   1.0000   1.0000   1.0000
     1.0000   1.0000   1.0000   1.0000   1.0000   1.0000   1.0000   1.0000
     1.0000   1.0000   1.0000   1.0000   1.0000   1.0000   1.0000   1.0000
     1.0000   1.0000   1.0000   1.0000   1.0000   1.0000   1.0000   1.0000
     1.0000   1.0000   1.0000   1.0000   1.0000   1.0000   1.0000   1.0000
     1.0000   1.0000   1.0000   1.0000   1.0000   1.0000   1.0000   1.0000
     1.0000   1.0000   1.0000   1.0000   1.0000   1.0000   1.0000   1.0000
     1.0000   1.0000   1.0000   1.0000   1.0000   1.0000   1.0000   1.0000
     1.0000   1.0000   0.9999   0.9999   0.9999   0.9997   0.9997   0.9996
     0.9995   0.9994   0.9994   0.9992   0.9991   0.9988   0.9984   0.9980
     0.9980   0.9926   0.9922   0.9919   0.9913   0.9861   0.9856   0.9851
     0.9841   0.9822   0.9814   0.9789   0.9764   0.9749   0.9685   0.9679
     0.9613   0.9596   0.9505   0.9324   0.9120   0.8910   0.8869   0.8614
     0.8510   0.8428   0.8295   0.8279   0.8142   0.8122   0.8093   0.7977
     0.7682   0.7473   0.7260   0.7112   0.6868   0.6850   0.6846   0.6779
     0.6705   0.6637   0.6559   0.6544   0.6432   0.6399   0.6269   0.6158
     0.6132   0.5397   0.5352   0.1369   0.1247   0.1062   0.0761   0.0260
     0.0141   0.0135   0.0072   0.0044   0.0014   0.0006   0.0004   0.0003
     0.0001   0.0000   0.0000   0.0000   0.0000   0.0000   0.0000   0.0000
     0.0000   0.0000   0.0000   0.0000   0.0000   0.0000   0.0000   0.0000
     0.0000   0.0000   0.0000   0.0000   0.0000   0.0000   0.0000

          k =-0.2500 0.2500 0.0000 ( 65198 PWs)   bands (ev):

   -92.3428 -92.2883 -92.1966 -92.1477 -92.0890 -92.0490 -92.0319 -91.9091
   -55.6959 -55.6747 -55.5545 -55.5439 -55.5361 -55.5306 -55.4936 -55.4662
   -55.4500 -55.4480 -55.4392 -55.3977 -55.3786 -55.3408 -55.3225 -55.2885
   -55.2832 -55.2380 -55.2353 -55.2348 -55.2263 -55.1838 -55.1626 -55.0761
   -30.9275 -30.9121 -30.7693 -30.7169 -30.6835 -30.6340 -30.5997 -30.5244
   -29.4922 -29.4509 -29.4248 -29.3178 -22.2554 -14.6645 -14.6299 -14.5513
   -14.4338 -14.3280 -14.2027 -14.1101 -13.9076 -13.7823 -13.7638 -13.7345
   -13.7217 -13.6771 -13.6496 -13.6383 -13.6256 -13.5759 -13.4853 -13.4735
   -13.3231 -13.2954 -13.2692 -13.2474 -13.2128 -13.1468 -13.1076 -13.0869
   -12.9813 -12.9439 -12.8763 -12.7986 -12.7549 -12.6975 -12.6854 -12.6598
   -12.6365 -12.6038 -12.5865 -12.5818 -12.5585 -12.5128 -12.4776 -12.4489
   -12.4232 -12.4192 -12.4115 -12.3439 -12.2028 -12.1229 -12.0943 -11.9361
   -11.8253 -11.7695 -11.4446 -11.4228 -11.3959 -11.3835 -11.3427 -11.3077
   -11.2849 -11.2633 -11.2409 -11.1574 -11.1111 -11.1017  -5.9218  -3.1579
    -3.1545  -2.3133  -2.1037  -1.9833  -1.8960  -1.7760  -1.7091  -1.5088
    -1.3608  -1.3414  -1.3146  -1.2224  -1.1859  -1.0940  -1.0611  -1.0349
    -0.8910  -0.8354  -0.7684  -0.7398  -0.6804  -0.6563  -0.6162  -0.5873
    -0.5476  -0.4848  -0.4383  -0.3773  -0.3089  -0.2841  -0.2310  -0.2020
    -0.1580  -0.1011  -0.0597  -0.0149   0.0806   0.1174   0.1235   0.1736
     0.2373   0.3025   0.3499   0.3796   0.4466   0.4827   0.7394   0.9060
     0.9510   0.9860   1.0419   1.0872   1.1503   1.2159   1.2414   1.5257
     1.6432   1.6803   1.7115   1.7207   1.7620   1.7799   1.8246   1.8546
     1.8710   1.8976   1.9365   1.9489   1.9977   2.0126   2.0576   2.1301
     2.1525   2.1740   2.2082   2.2385   2.2760   2.3276   2.4410   2.5489
     2.5860   2.6298   2.6500   2.7150   2.7589   2.7861   2.8068   2.8303
     2.9327   2.9674   3.0427   3.0470   3.0640   3.2377   3.2464   3.2604
     3.2706   3.2807   3.2942   3.3007   3.3187   3.3268   3.3427   3.3521
     3.3647   3.3741   3.3801   3.4125   3.4245   3.4335   3.4671   3.7603
     3.8410   3.8986   3.9619   3.9870   4.1886   4.3175   4.6360   4.7971
     4.9713   5.1356   5.3327   5.5603   5.9206   5.9693   6.0043   6.1237
     6.1939   6.2434   6.3485   6.4126   6.9392   7.0075   7.1070   7.2247
     7.7147   7.8040   7.8549   7.9098   7.9782   8.1725   8.2255   8.3029
     8.4054   8.4739   8.5471   8.6943   8.7250   8.7908   8.8568

     occupation numbers 
     1.0000   1.0000   1.0000   1.0000   1.0000   1.0000   1.0000   1.0000
     1.0000   1.0000   1.0000   1.0000   1.0000   1.0000   1.0000   1.0000
     1.0000   1.0000   1.0000   1.0000   1.0000   1.0000   1.0000   1.0000
     1.0000   1.0000   1.0000   1.0000   1.0000   1.0000   1.0000   1.0000
     1.0000   1.0000   1.0000   1.0000   1.0000   1.0000   1.0000   1.0000
     1.0000   1.0000   1.0000   1.0000   1.0000   1.0000   1.0000   1.0000
     1.0000   1.0000   1.0000   1.0000   1.0000   1.0000   1.0000   1.0000
     1.0000   1.0000   1.0000   1.0000   1.0000   1.0000   1.0000   1.0000
     1.0000   1.0000   1.0000   1.0000   1.0000   1.0000   1.0000   1.0000
     1.0000   1.0000   1.0000   1.0000   1.0000   1.0000   1.0000   1.0000
     1.0000   1.0000   1.0000   1.0000   1.0000   1.0000   1.0000   1.0000
     1.0000   1.0000   1.0000   1.0000   1.0000   1.0000   1.0000   1.0000
     1.0000   1.0000   1.0000   1.0000   1.0000   1.0000   1.0000   1.0000
     1.0000   1.0000   1.0000   1.0000   1.0000   1.0000   1.0000   1.0000
     1.0000   1.0000   1.0000   1.0000   1.0000   1.0000   1.0000   1.0000
     1.0000   1.0000   1.0000   1.0000   1.0000   1.0000   1.0000   1.0000
     1.0000   1.0000   1.0000   1.0000   1.0000   1.0000   1.0000   1.0000
     1.0000   1.0000   1.0000   1.0000   1.0000   1.0000   1.0000   1.0000
     1.0000   1.0000   1.0000   1.0000   1.0000   1.0000   1.0000   1.0000
     1.0000   1.0000   1.0000   1.0000   1.0000   1.0000   1.0000   1.0000
     1.0000   1.0000   1.0000   0.9999   0.9999   0.9999   0.9999   0.9993
     0.9988   0.9985   0.9983   0.9982   0.9978   0.9976   0.9971   0.9967
     0.9964   0.9960   0.9953   0.9950   0.9938   0.9935   0.9921   0.9895
     0.9885   0.9875   0.9858   0.9841   0.9817   0.9780   0.9675   0.9540
     0.9484   0.9412   0.9376   0.9248   0.9151   0.9087   0.9035   0.8974
     0.8676   0.8562   0.8294   0.8278   0.8212   0.7460   0.7419   0.7351
     0.7301   0.7252   0.7185   0.7152   0.7061   0.7019   0.6936   0.6887
     0.6821   0.6771   0.6739   0.6564   0.6498   0.6448   0.6261   0.4547
     0.4076   0.3748   0.3397   0.3262   0.2267   0.1733   0.0787   0.0491
     0.0279   0.0155   0.0072   0.0027   0.0004   0.0003   0.0003   0.0001
     0.0001   0.0001   0.0000   0.0000   0.0000   0.0000   0.0000   0.0000
     0.0000   0.0000   0.0000   0.0000   0.0000   0.0000   0.0000   0.0000
     0.0000   0.0000   0.0000   0.0000   0.0000   0.0000   0.0000

          k =-0.5000 0.2500 0.0000 ( 65138 PWs)   bands (ev):

   -92.3428 -92.2883 -92.1966 -92.1477 -92.0890 -92.0490 -92.0319 -91.9091
   -55.6959 -55.6747 -55.5545 -55.5439 -55.5361 -55.5306 -55.4936 -55.4662
   -55.4500 -55.4480 -55.4392 -55.3977 -55.3786 -55.3408 -55.3225 -55.2885
   -55.2832 -55.2380 -55.2353 -55.2348 -55.2263 -55.1838 -55.1626 -55.0761
   -30.9252 -30.9144 -30.7689 -30.7168 -30.6839 -30.6331 -30.6006 -30.5246
   -29.4911 -29.4520 -29.4244 -29.3182 -22.2554 -14.6307 -14.5883 -14.5092
   -14.4093 -14.3671 -14.2397 -14.1587 -14.0255 -13.7814 -13.7142 -13.6840
   -13.6727 -13.6311 -13.6095 -13.5832 -13.5494 -13.5409 -13.5198 -13.4770
   -13.4652 -13.3694 -13.2869 -13.2455 -13.2357 -13.2254 -13.1502 -13.1202
   -13.0320 -12.9731 -12.8531 -12.8156 -12.7204 -12.6846 -12.6754 -12.6671
   -12.6357 -12.6153 -12.6029 -12.5911 -12.5447 -12.4961 -12.4841 -12.4671
   -12.4230 -12.4050 -12.2743 -12.2669 -12.1915 -12.1290 -11.9759 -11.9647
   -11.8831 -11.8586 -11.4170 -11.4045 -11.3902 -11.3783 -11.3571 -11.3268
   -11.2460 -11.2377 -11.2138 -11.1796 -11.1511 -11.1420  -5.9218  -3.1578
    -3.1547  -2.0864  -2.0440  -1.8947  -1.8525  -1.6936  -1.6180  -1.4741
    -1.3375  -1.2818  -1.2541  -1.2151  -1.1754  -1.0956  -0.9807  -0.9242
    -0.9004  -0.8751  -0.8009  -0.7695  -0.7337  -0.7137  -0.6536  -0.6260
    -0.5853  -0.5498  -0.5214  -0.4643  -0.4380  -0.3959  -0.3624  -0.2584
    -0.2328  -0.1479  -0.0837  -0.0532   0.0032   0.0903   0.1202   0.2248
     0.2529   0.3155   0.3604   0.3862   0.4683   0.4990   0.5287   0.5850
     0.6229   0.9275   0.9753   1.0532   1.0642   1.3583   1.4167   1.4935
     1.5172   1.6995   1.7354   1.7731   1.7887   1.8066   1.8242   1.8919
     1.9353   1.9707   2.0003   2.1096   2.1511   2.1888   2.1998   2.2319
     2.2611   2.2761   2.2917   2.3111   2.3363   2.3794   2.4035   2.4348
     2.4580   2.4837   2.5508   2.6692   2.7695   2.7979   2.8683   2.9094
     2.9667   3.0042   3.0129   3.0425   3.0450   3.0578   3.0833   3.1081
     3.1903   3.2324   3.2450   3.2524   3.2736   3.2962   3.3091   3.3229
     3.3366   3.3558   3.3694   3.3805   3.3883   3.3979   3.4100   3.9339
     3.9680   4.1301   4.1502   4.4270   4.4849   4.5367   4.7410   5.0477
     5.1673   5.2049   5.3445   5.4629   5.7117   5.7642   5.8214   5.9474
     6.0462   6.1131   6.3500   6.4579   6.5715   6.6464   7.1602   7.3296
     7.5274   7.6634   7.9633   8.0575   8.1814   8.2336   8.3200   8.4268
     8.5339   8.6280   8.7257   8.7769   8.8666   8.9140   8.9570

     occupation numbers 
     1.0000   1.0000   1.0000   1.0000   1.0000   1.0000   1.0000   1.0000
     1.0000   1.0000   1.0000   1.0000   1.0000   1.0000   1.0000   1.0000
     1.0000   1.0000   1.0000   1.0000   1.0000   1.0000   1.0000   1.0000
     1.0000   1.0000   1.0000   1.0000   1.0000   1.0000   1.0000   1.0000
     1.0000   1.0000   1.0000   1.0000   1.0000   1.0000   1.0000   1.0000
     1.0000   1.0000   1.0000   1.0000   1.0000   1.0000   1.0000   1.0000
     1.0000   1.0000   1.0000   1.0000   1.0000   1.0000   1.0000   1.0000
     1.0000   1.0000   1.0000   1.0000   1.0000   1.0000   1.0000   1.0000
     1.0000   1.0000   1.0000   1.0000   1.0000   1.0000   1.0000   1.0000
     1.0000   1.0000   1.0000   1.0000   1.0000   1.0000   1.0000   1.0000
     1.0000   1.0000   1.0000   1.0000   1.0000   1.0000   1.0000   1.0000
     1.0000   1.0000   1.0000   1.0000   1.0000   1.0000   1.0000   1.0000
     1.0000   1.0000   1.0000   1.0000   1.0000   1.0000   1.0000   1.0000
     1.0000   1.0000   1.0000   1.0000   1.0000   1.0000   1.0000   1.0000
     1.0000   1.0000   1.0000   1.0000   1.0000   1.0000   1.0000   1.0000
     1.0000   1.0000   1.0000   1.0000   1.0000   1.0000   1.0000   1.0000
     1.0000   1.0000   1.0000   1.0000   1.0000   1.0000   1.0000   1.0000
     1.0000   1.0000   1.0000   1.0000   1.0000   1.0000   1.0000   1.0000
     1.0000   1.0000   1.0000   1.0000   1.0000   1.0000   1.0000   1.0000
     1.0000   1.0000   1.0000   1.0000   1.0000   1.0000   1.0000   1.0000
     1.0000   1.0000   1.0000   1.0000   0.9999   0.9997   0.9996   0.9994
     0.9994   0.9984   0.9981   0.9977   0.9976   0.9973   0.9971   0.9961
     0.9953   0.9945   0.9938   0.9903   0.9886   0.9868   0.9862   0.9844
     0.9827   0.9817   0.9806   0.9792   0.9773   0.9736   0.9713   0.9682
     0.9656   0.9626   0.9537   0.9340   0.9127   0.9058   0.8870   0.8749
     0.8565   0.8435   0.8404   0.8294   0.8285   0.8236   0.8137   0.8036
     0.7681   0.7486   0.7426   0.7390   0.7287   0.7175   0.7109   0.7039
     0.6968   0.6868   0.6796   0.6737   0.6695   0.6643   0.6577   0.3551
     0.3364   0.2537   0.2442   0.1348   0.1171   0.1026   0.0582   0.0214
     0.0138   0.0119   0.0068   0.0041   0.0013   0.0010   0.0008   0.0004
     0.0002   0.0002   0.0000   0.0000   0.0000   0.0000   0.0000   0.0000
     0.0000   0.0000   0.0000   0.0000   0.0000   0.0000   0.0000   0.0000
     0.0000   0.0000   0.0000   0.0000   0.0000   0.0000   0.0000

     the Fermi energy is     3.6836 ev

!    total energy              =   -4482.97542193 Ry
     estimated scf accuracy    <          8.3E-09 Ry
     smearing contrib. (-TS)   =      -1.17230032 Ry
     internal energy E=F+TS    =   -4481.80312161 Ry

     The total energy is F=E-TS. E is the sum of the following terms:
     one-electron contribution =  -20251.68625418 Ry
     hartree contribution      =   10265.44950096 Ry
     xc contribution           =    -701.58589729 Ry
     ewald contribution        =    6491.67433066 Ry
     one-center paw contrib.   =    -285.65480176 Ry
      -> PAW hartree energy AE =      25.18456286 Ry
      -> PAW hartree energy PS =     -25.06826288 Ry
      -> PAW xc energy AE      =     -16.52050329 Ry
      -> PAW xc energy PS      =       6.88013630 Ry
      -> total E_H with PAW    =   10265.56580094 Ry
      -> total E_XC with PAW   =    -711.22626428 Ry

     convergence has been achieved in  51 iterations

     Writing all to output data dir /bsuhome/zayahcortright/scratch/pwscf.save/
 
     init_run     :      8.98s CPU      9.63s WALL (       1 calls)
     electrons    :    802.13s CPU    814.71s WALL (       1 calls)

     Called by init_run:
     wfcinit      :      7.08s CPU      7.22s WALL (       1 calls)
     wfcinit:atom :      0.06s CPU      0.07s WALL (       5 calls)
     wfcinit:wfcr :      6.71s CPU      6.81s WALL (       5 calls)
     potinit      :      0.16s CPU      0.18s WALL (       1 calls)
     hinit0       :      0.85s CPU      1.24s WALL (       1 calls)

     Called by electrons:
     c_bands      :    636.50s CPU    641.58s WALL (      51 calls)
     sum_band     :    122.92s CPU    127.26s WALL (      51 calls)
     v_of_rho     :      5.69s CPU      5.94s WALL (      52 calls)
     v_h          :      0.47s CPU      0.47s WALL (      52 calls)
     v_xc         :      5.22s CPU      5.47s WALL (      52 calls)
     newd         :     22.08s CPU     24.61s WALL (      52 calls)
     PAW_pot      :      1.67s CPU      1.69s WALL (      52 calls)
     mix_rho      :     12.97s CPU     13.23s WALL (      51 calls)

     Called by c_bands:
     init_us_2    :      7.77s CPU      7.83s WALL (     515 calls)
     init_us_2:cp :      7.76s CPU      7.82s WALL (     515 calls)
     cegterg      :    599.54s CPU    604.44s WALL (     255 calls)

     Called by sum_band:
     sum_band:wei :      0.37s CPU      0.38s WALL (      51 calls)
     sum_band:loo :     99.67s CPU    100.40s WALL (      51 calls)
     sum_band:buf :      1.72s CPU      1.73s WALL (     255 calls)
     sum_band:ini :      3.57s CPU      3.58s WALL (     255 calls)
     sum_band:cal :     21.33s CPU     21.39s WALL (     255 calls)
     sum_band:bec :      0.64s CPU      0.65s WALL (     255 calls)
     addusdens    :     18.78s CPU     22.35s WALL (      51 calls)
                                        0.00s GPU  (      51 calls)
     addusd:skk   :      0.37s CPU      0.74s WALL (     204 calls)
                                        0.00s GPU  (     204 calls)

     Called by *egterg:
     cdiaghg      :     62.90s CPU     63.12s WALL (    1458 calls)
     cegterg:over :     43.45s CPU     43.59s WALL (    1203 calls)
     cegterg:upda :     33.29s CPU     33.66s WALL (    1203 calls)
     cegterg:last :     68.79s CPU     68.99s WALL (     477 calls)
     cdiaghg:chol :      3.76s CPU      3.78s WALL (    1458 calls)
     cdiaghg:inve :      3.67s CPU      3.69s WALL (    1458 calls)
     cdiaghg:para :      7.93s CPU      7.97s WALL (    2916 calls)
     h_psi        :    329.05s CPU    331.91s WALL (    1463 calls)
     s_psi        :     44.97s CPU     45.10s WALL (    1463 calls)
     g_psi        :      1.20s CPU      1.20s WALL (    1203 calls)

     Called by h_psi:
     h_psi:calbec :     49.63s CPU     49.79s WALL (    1463 calls)
     vloc_psi     :    231.30s CPU    233.42s WALL (    1463 calls)
     add_vuspsi   :     44.70s CPU     44.87s WALL (    1463 calls)

     General routines
     calbec       :     70.95s CPU     71.17s WALL (    1718 calls)
     fft          :      6.77s CPU      6.81s WALL (     674 calls)
     ffts         :      4.79s CPU      4.83s WALL (    5371 calls)
     fftw         :    194.73s CPU    196.15s WALL (  351875 calls)
     interpolate  :      0.43s CPU      0.44s WALL (      52 calls)
 
     Parallel routines

     PAW routines
     PAW_pot      :      1.67s CPU      1.69s WALL (      52 calls)
 
     PWSCF        :  13m33.21s CPU  13m49.32s WALL

 
   This run was terminated on:  18:56:34  20Jun2024            

=------------------------------------------------------------------------------=
   JOB DONE.
=------------------------------------------------------------------------------=
