
     Program PWSCF v.7.2 starts on 21Jun2024 at 21:45:33 

     This program is part of the open-source Quantum ESPRESSO suite
     for quantum simulation of materials; please cite
         "P. Giannozzi et al., J. Phys.:Condens. Matter 21 395502 (2009);
         "P. Giannozzi et al., J. Phys.:Condens. Matter 29 465901 (2017);
         "P. Giannozzi et al., J. Chem. Phys. 152 154105 (2020);
          URL http://www.quantum-espresso.org", 
     in publications or presentations arising from this work. More details at
     http://www.quantum-espresso.org/quote

     Parallel version (MPI & OpenMP), running on      48 processor cores
     Number of MPI processes:                48
     Threads/MPI process:                     1

     MPI processes distributed on     1 nodes
     33233 MiB available memory on the printing compute node when the environment starts
 
     Reading input from espresso.pwi
Warning: card &CELL ignored
Warning: card / ignored
Warning: card &FCP ignored
Warning: card / ignored
Warning: card &RISM ignored
Warning: card / ignored

     Current dimensions of program PWSCF are:
     Max number of different atomic species (ntypx) = 10
     Max number of k-points (npk) =  40000
     Max angular momentum in pseudopotentials (lmaxx) =  4
     file O.pbe-n-kjpaw_psl.0.1.UPF: wavefunction(s)  2P renormalized
     signal trapping enabled: kill the code with -SIGUSR1 to stop cleanly the simulation 
 
     K-points division:     npool     =       2
     R & G space division:  proc/nbgrp/npool/nimage =      24
     Subspace diagonalization in iterative solution of the eigenvalue problem:
     one sub-group per band group will be used
     scalapack distributed-memory algorithm (size of sub-group:  3*  3 procs)

 
     Parallelization info
     --------------------
     sticks:   dense  smooth     PW     G-vecs:    dense   smooth      PW
     Min         350     175     47                61430    21716    3036
     Max         351     177     48                61449    21727    3041
     Sum        8421    4205   1137              1474595   521381   72913
 
     Using Slab Decomposition
 


     bravais-lattice index     =            0
     lattice parameter (alat)  =      14.8599  a.u.
     unit-cell volume          =    8305.1283 (a.u.)^3
     number of atoms/cell      =           50
     number of atomic types    =            4
     number of electrons       =       431.00
     number of Kohn-Sham states=          259
     kinetic-energy cutoff     =      60.0000  Ry
     charge density cutoff     =     480.0000  Ry
     scf convergence threshold =      1.0E-08
     mixing beta               =       0.1500
     number of iterations used =            8  local-TF  mixing
     Exchange-correlation= PBE
                           (   1   4   3   4   0   0   0)

     celldm(1)=  14.859904  celldm(2)=   0.000000  celldm(3)=   0.000000
     celldm(4)=   0.000000  celldm(5)=   0.000000  celldm(6)=   0.000000

     crystal axes: (cart. coord. in units of alat)
               a(1) = (   1.000000   0.000000   0.000000 )  
               a(2) = (   0.000000   1.000000   0.000000 )  
               a(3) = (   0.000000   0.000000   2.531036 )  

     reciprocal axes: (cart. coord. in units 2 pi/alat)
               b(1) = (  1.000000  0.000000  0.000000 )  
               b(2) = (  0.000000  1.000000  0.000000 )  
               b(3) = (  0.000000  0.000000  0.395095 )  


     PseudoPot. # 1 for Sr read from file:
     /bsuhome/zayahcortright/q-e/pseudo/Sr_pbe_v1.uspp.F.UPF
     MD5 check sum: 6b418c05fbe9db5448babca5e47b7a5b
     Pseudo is Ultrasoft + core correction, Zval = 10.0
     Generated by new atomic code, or converted to UPF format
     Using radial grid of  883 points,  6 beta functions with: 
                l(1) =   0
                l(2) =   0
                l(3) =   1
                l(4) =   1
                l(5) =   2
                l(6) =   2
     Q(r) pseudized with  6 coefficients,  rinner =    1.400   1.400   1.400
                                                       1.400   1.400

     PseudoPot. # 2 for O  read from file:
     /bsuhome/zayahcortright/q-e/pseudo/O.pbe-n-kjpaw_psl.0.1.UPF
     MD5 check sum: 0234752ac141de4415c5fc33072bef88
     Pseudo is Projector augmented-wave + core cor, Zval =  6.0
     Generated using "atomic" code by A. Dal Corso  v.5.0.99 svn rev. 10869
     Shape of augmentation charge: BESSEL
     Using radial grid of 1095 points,  4 beta functions with: 
                l(1) =   0
                l(2) =   0
                l(3) =   1
                l(4) =   1
     Q(r) pseudized with 0 coefficients 


     PseudoPot. # 3 for Co read from file:
     /bsuhome/zayahcortright/q-e/pseudo/Co_pbe_v1.2.uspp.F.UPF
     MD5 check sum: 5f91765df6ddd3222702df6e7b74a16d
     Pseudo is Ultrasoft + core correction, Zval = 17.0
     Generated by new atomic code, or converted to UPF format
     Using radial grid of  863 points,  6 beta functions with: 
                l(1) =   0
                l(2) =   0
                l(3) =   1
                l(4) =   1
                l(5) =   2
                l(6) =   2
     Q(r) pseudized with  8 coefficients,  rinner =    1.200   1.200   1.200
                                                       1.200   1.200

     PseudoPot. # 4 for H  read from file:
     /bsuhome/zayahcortright/q-e/pseudo/H.pbe-rrkjus_psl.1.0.0.UPF
     MD5 check sum: f52b6d4d1c606e5624b1dc7b2218f220
     Pseudo is Ultrasoft, Zval =  1.0
     Generated using "atomic" code by A. Dal Corso  v.5.1
     Using radial grid of  929 points,  2 beta functions with: 
                l(1) =   0
                l(2) =   0
     Q(r) pseudized with 0 coefficients 


     atomic species   valence    mass     pseudopotential
        Sr            10.00    87.62000     Sr( 1.00)
        O              6.00    15.99900     O ( 1.00)
        Co            17.00    58.93319     Co( 1.00)
        H              1.00     1.00800     H ( 1.00)

     No symmetry found


                                    s                        frac. trans.

      isym =  1     identity                                     

 cryst.   s( 1) = (     1          0          0      )
                  (     0          1          0      )
                  (     0          0          1      )

 cart.    s( 1) = (  1.0000000  0.0000000  0.0000000 )
                  (  0.0000000  1.0000000  0.0000000 )
                  (  0.0000000  0.0000000  1.0000000 )


   Cartesian axes

     site n.     atom                  positions (alat units)
         1           Sr  tau(   1) = (   0.2508693   0.7491307   1.7574407  )
         2           O   tau(   2) = (   0.4985141   0.5014859   1.7715967  )
         3           Sr  tau(   3) = (   0.7482398   0.7454518   1.7648669  )
         4           Sr  tau(   4) = (   0.7441748   0.2558252   1.7667843  )
         5           Sr  tau(   5) = (   0.2508693   0.7491307   1.2696799  )
         6           Sr  tau(   6) = (   0.2508693   0.7491307   0.7632319  )
         7           Co  tau(   7) = (   0.4998914   0.5001086   1.0164559  )
         8           Co  tau(   8) = (   0.4936915   0.5063085   1.5135603  )
         9           O   tau(   9) = (   0.4988895   0.7610401   1.0164559  )
        10           O   tau(  10) = (   0.2389599   0.5011105   1.0164559  )
        11           O   tau(  11) = (   0.0070918   0.7374880   1.0164559  )
        12           O   tau(  12) = (   0.0088340   0.7405089   1.5135603  )
        13           O   tau(  13) = (   0.5066944   0.7415376   1.5135603  )
        14           O   tau(  14) = (   0.2584624   0.4933056   1.5135603  )
        15           O   tau(  15) = (   0.4985141   0.5014859   0.7773880  )
        16           O   tau(  16) = (   0.4985141   0.5014859   1.2555238  )
        17           Sr  tau(  17) = (   0.7482398   0.7454518   0.7706582  )
        18           Sr  tau(  18) = (   0.7482398   0.7454518   1.2622536  )
        19           Sr  tau(  19) = (   0.7441748   0.2558252   0.7725755  )
        20           Sr  tau(  20) = (   0.7441748   0.2558252   1.2603363  )
        21           O   tau(  21) = (   0.7322655   0.0078049   1.5135603  )
        22           O   tau(  22) = (   0.7558175   0.4996027   1.5135603  )
        23           O   tau(  23) = (   0.5003973   0.2441825   1.5135603  )
        24           O   tau(  24) = (   0.7527966   0.4978604   1.0164559  )
        25           O   tau(  25) = (   0.5021396   0.2472034   1.0164559  )
        26           O   tau(  26) = (   0.7517679   0.0000000   1.0164559  )
        27           O   tau(  27) = (   0.0114961   0.4948124   1.7455321  )
        28           O   tau(  28) = (   0.0048226   0.0077944   1.7715967  )
        29           Sr  tau(  29) = (   0.2545482   0.2517602   1.7648669  )
        30           O   tau(  30) = (   0.5048017   0.0015068   1.7786929  )
        31           Co  tau(  31) = (   0.0056869   0.5006215   1.0164559  )
        32           Co  tau(  32) = (   0.0065315   0.4997770   1.5135603  )
        33           Co  tau(  33) = (   0.0061999   0.0064171   1.0164559  )
        34           Co  tau(  34) = (   0.0000000   0.0126169   1.5135603  )
        35           O   tau(  35) = (   0.0114961   0.4948124   1.2815885  )
        36           O   tau(  36) = (   0.0114961   0.4948124   0.7513233  )
        37           O   tau(  37) = (   0.0051979   0.2673486   1.0164559  )
        38           O   tau(  38) = (   0.0130029   0.2478461   1.5135603  )
        39           O   tau(  39) = (   0.0048226   0.0077944   0.7773880  )
        40           O   tau(  40) = (   0.0048226   0.0077944   1.2555238  )
        41           Sr  tau(  41) = (   0.2545482   0.2517602   0.7706582  )
        42           Sr  tau(  42) = (   0.2545482   0.2517602   1.2622536  )
        43           Co  tau(  43) = (   0.4989925   0.0073160   1.5135603  )
        44           Co  tau(  44) = (   0.4998370   0.0064714   1.0164559  )
        45           O   tau(  45) = (   0.5048017   0.0015068   0.7844841  )
        46           O   tau(  46) = (   0.5048017   0.0015068   1.2484277  )
        47           O   tau(  47) = (   0.2621260   0.0059111   1.5135603  )
        48           O   tau(  48) = (   0.2591051   0.0041689   1.0164559  )
        49           O   tau(  49) = (   0.4264937   0.9951520   2.1602013  )
        50           H   tau(  50) = (   0.4264937   0.9951520   2.2847091  )

   Crystallographic axes

     site n.     atom                  positions (cryst. coord.)
         1           Sr  tau(   1) = (  0.2508693  0.7491307  0.6943562  )
         2           O   tau(   2) = (  0.4985141  0.5014859  0.6999492  )
         3           Sr  tau(   3) = (  0.7482398  0.7454518  0.6972903  )
         4           Sr  tau(   4) = (  0.7441748  0.2558252  0.6980478  )
         5           Sr  tau(   5) = (  0.2508693  0.7491307  0.5016443  )
         6           Sr  tau(   6) = (  0.2508693  0.7491307  0.3015492  )
         7           Co  tau(   7) = (  0.4998914  0.5001086  0.4015968  )
         8           Co  tau(   8) = (  0.4936915  0.5063085  0.5980003  )
         9           O   tau(   9) = (  0.4988895  0.7610401  0.4015968  )
        10           O   tau(  10) = (  0.2389599  0.5011105  0.4015968  )
        11           O   tau(  11) = (  0.0070918  0.7374880  0.4015968  )
        12           O   tau(  12) = (  0.0088340  0.7405089  0.5980003  )
        13           O   tau(  13) = (  0.5066944  0.7415376  0.5980003  )
        14           O   tau(  14) = (  0.2584624  0.4933056  0.5980003  )
        15           O   tau(  15) = (  0.4985141  0.5014859  0.3071422  )
        16           O   tau(  16) = (  0.4985141  0.5014859  0.4960513  )
        17           Sr  tau(  17) = (  0.7482398  0.7454518  0.3044833  )
        18           Sr  tau(  18) = (  0.7482398  0.7454518  0.4987103  )
        19           Sr  tau(  19) = (  0.7441748  0.2558252  0.3052408  )
        20           Sr  tau(  20) = (  0.7441748  0.2558252  0.4979527  )
        21           O   tau(  21) = (  0.7322655  0.0078049  0.5980003  )
        22           O   tau(  22) = (  0.7558175  0.4996027  0.5980003  )
        23           O   tau(  23) = (  0.5003973  0.2441825  0.5980003  )
        24           O   tau(  24) = (  0.7527966  0.4978604  0.4015968  )
        25           O   tau(  25) = (  0.5021396  0.2472034  0.4015968  )
        26           O   tau(  26) = (  0.7517679  0.0000000  0.4015968  )
        27           O   tau(  27) = (  0.0114961  0.4948124  0.6896512  )
        28           O   tau(  28) = (  0.0048226  0.0077944  0.6999492  )
        29           Sr  tau(  29) = (  0.2545482  0.2517602  0.6972903  )
        30           O   tau(  30) = (  0.5048017  0.0015068  0.7027529  )
        31           Co  tau(  31) = (  0.0056869  0.5006215  0.4015968  )
        32           Co  tau(  32) = (  0.0065315  0.4997770  0.5980003  )
        33           Co  tau(  33) = (  0.0061999  0.0064171  0.4015968  )
        34           Co  tau(  34) = (  0.0000000  0.0126169  0.5980003  )
        35           O   tau(  35) = (  0.0114961  0.4948124  0.5063494  )
        36           O   tau(  36) = (  0.0114961  0.4948124  0.2968442  )
        37           O   tau(  37) = (  0.0051979  0.2673486  0.4015968  )
        38           O   tau(  38) = (  0.0130029  0.2478461  0.5980003  )
        39           O   tau(  39) = (  0.0048226  0.0077944  0.3071422  )
        40           O   tau(  40) = (  0.0048226  0.0077944  0.4960513  )
        41           Sr  tau(  41) = (  0.2545482  0.2517602  0.3044833  )
        42           Sr  tau(  42) = (  0.2545482  0.2517602  0.4987103  )
        43           Co  tau(  43) = (  0.4989925  0.0073160  0.5980003  )
        44           Co  tau(  44) = (  0.4998370  0.0064714  0.4015968  )
        45           O   tau(  45) = (  0.5048017  0.0015068  0.3099459  )
        46           O   tau(  46) = (  0.5048017  0.0015068  0.4932477  )
        47           O   tau(  47) = (  0.2621260  0.0059111  0.5980003  )
        48           O   tau(  48) = (  0.2591051  0.0041689  0.4015968  )
        49           O   tau(  49) = (  0.4264937  0.9951520  0.8534850  )
        50           H   tau(  50) = (  0.4264937  0.9951520  0.9026774  )

     number of k points=    10  Gaussian smearing, width (Ry)=  0.0700
                       cart. coord. in units 2pi/alat
        k(    1) = (   0.0000000   0.0000000   0.0000000), wk =   0.1250000
        k(    2) = (   0.0000000   0.2500000   0.0000000), wk =   0.2500000
        k(    3) = (   0.0000000  -0.5000000   0.0000000), wk =   0.1250000
        k(    4) = (   0.2500000   0.2500000   0.0000000), wk =   0.2500000
        k(    5) = (   0.2500000  -0.5000000   0.0000000), wk =   0.2500000
        k(    6) = (  -0.5000000  -0.5000000   0.0000000), wk =   0.1250000
        k(    7) = (   0.2500000   0.0000000   0.0000000), wk =   0.2500000
        k(    8) = (  -0.5000000   0.0000000   0.0000000), wk =   0.1250000
        k(    9) = (  -0.2500000   0.2500000   0.0000000), wk =   0.2500000
        k(   10) = (  -0.5000000   0.2500000   0.0000000), wk =   0.2500000

                       cryst. coord.
        k(    1) = (   0.0000000   0.0000000   0.0000000), wk =   0.1250000
        k(    2) = (   0.0000000   0.2500000   0.0000000), wk =   0.2500000
        k(    3) = (   0.0000000  -0.5000000   0.0000000), wk =   0.1250000
        k(    4) = (   0.2500000   0.2500000   0.0000000), wk =   0.2500000
        k(    5) = (   0.2500000  -0.5000000   0.0000000), wk =   0.2500000
        k(    6) = (  -0.5000000  -0.5000000   0.0000000), wk =   0.1250000
        k(    7) = (   0.2500000   0.0000000   0.0000000), wk =   0.2500000
        k(    8) = (  -0.5000000   0.0000000   0.0000000), wk =   0.1250000
        k(    9) = (  -0.2500000   0.2500000   0.0000000), wk =   0.2500000
        k(   10) = (  -0.5000000   0.2500000   0.0000000), wk =   0.2500000

     Dense  grid:  1474595 G-vectors     FFT dimensions: ( 108, 108, 270)

     Smooth grid:   521381 G-vectors     FFT dimensions: (  75,  75, 192)

     Dynamical RAM for                 wfc:      10.73 MB

     Dynamical RAM for     wfc (w. buffer):      64.38 MB

     Dynamical RAM for           str. fact:       3.75 MB

     Dynamical RAM for           local pot:       0.00 MB

     Dynamical RAM for          nlocal pot:      24.61 MB

     Dynamical RAM for                qrad:       7.03 MB

     Dynamical RAM for          rho,v,vnew:       6.02 MB

     Dynamical RAM for               rhoin:       2.01 MB

     Dynamical RAM for            rho*nmix:      15.00 MB

     Dynamical RAM for           G-vectors:       3.68 MB

     Dynamical RAM for          h,s,v(r/c):       1.35 MB

     Dynamical RAM for          <psi|beta>:       2.35 MB

     Dynamical RAM for                 psi:      21.46 MB

     Dynamical RAM for                hpsi:      21.46 MB

     Dynamical RAM for                spsi:      21.46 MB

     Dynamical RAM for      wfcinit/wfcrot:      34.49 MB

     Dynamical RAM for           addusdens:     101.26 MB

     Estimated static dynamical RAM per process >     121.50 MB

     Estimated max dynamical RAM per process >     237.76 MB

     Estimated total dynamical RAM >      10.79 GB

     Check: negative core charge=   -0.000004

     Initial potential from superposition of free atoms

     starting charge     422.5961, renormalised to     431.0000

     negative rho (up, down):  7.820E-01 0.000E+00
     Starting wfcs are  377 randomized atomic wfcs
     Checking if some PAW data can be deallocated... 
       PAW data deallocated on   19 nodes for type:  2

     total cpu time spent up to now is        9.5 secs

     Self-consistent Calculation

     iteration #  1     ecut=    60.00 Ry     beta= 0.15
     Davidson diagonalization with overlap

---- Real-time Memory Report at c_bands before calling an iterative solver
             0 MiB given to the printing process from OS
             0 MiB allocation reported by mallinfo(arena+hblkhd)
         24008 MiB available memory on the node where the printing process lives
------------------
     ethr =  1.00E-02,  avg # of iterations =  2.0

     negative rho (up, down):  7.717E-01 0.000E+00

     total cpu time spent up to now is       26.6 secs

     total energy              =   -4446.66328427 Ry
     estimated scf accuracy    <      44.94492514 Ry

     iteration #  2     ecut=    60.00 Ry     beta= 0.15
     Davidson diagonalization with overlap

---- Real-time Memory Report at c_bands before calling an iterative solver
             0 MiB given to the printing process from OS
             0 MiB allocation reported by mallinfo(arena+hblkhd)
         24262 MiB available memory on the node where the printing process lives
------------------
     ethr =  1.00E-02,  avg # of iterations =  1.0

     negative rho (up, down):  7.580E-01 0.000E+00

     total cpu time spent up to now is       41.7 secs

     total energy              =   -4443.21652297 Ry
     estimated scf accuracy    <      29.77585043 Ry

     iteration #  3     ecut=    60.00 Ry     beta= 0.15
     Davidson diagonalization with overlap

---- Real-time Memory Report at c_bands before calling an iterative solver
             0 MiB given to the printing process from OS
             0 MiB allocation reported by mallinfo(arena+hblkhd)
         23425 MiB available memory on the node where the printing process lives
------------------
     ethr =  6.91E-03,  avg # of iterations =  1.0

     negative rho (up, down):  7.553E-01 0.000E+00

     total cpu time spent up to now is       56.8 secs

     total energy              =   -4444.26305233 Ry
     estimated scf accuracy    <      29.56044038 Ry

     iteration #  4     ecut=    60.00 Ry     beta= 0.15
     Davidson diagonalization with overlap

---- Real-time Memory Report at c_bands before calling an iterative solver
             0 MiB given to the printing process from OS
             0 MiB allocation reported by mallinfo(arena+hblkhd)
         23405 MiB available memory on the node where the printing process lives
------------------
     ethr =  6.86E-03,  avg # of iterations =  1.0

     negative rho (up, down):  7.493E-01 0.000E+00

     total cpu time spent up to now is       72.1 secs

     total energy              =   -4443.07837527 Ry
     estimated scf accuracy    <      21.34832071 Ry

     iteration #  5     ecut=    60.00 Ry     beta= 0.15
     Davidson diagonalization with overlap

---- Real-time Memory Report at c_bands before calling an iterative solver
             0 MiB given to the printing process from OS
             0 MiB allocation reported by mallinfo(arena+hblkhd)
         23384 MiB available memory on the node where the printing process lives
------------------
     ethr =  4.95E-03,  avg # of iterations =  1.0

     negative rho (up, down):  7.405E-01 0.000E+00

     total cpu time spent up to now is       87.5 secs

     total energy              =   -4442.56328873 Ry
     estimated scf accuracy    <       9.92301974 Ry

     iteration #  6     ecut=    60.00 Ry     beta= 0.15
     Davidson diagonalization with overlap

---- Real-time Memory Report at c_bands before calling an iterative solver
             0 MiB given to the printing process from OS
             0 MiB allocation reported by mallinfo(arena+hblkhd)
         23363 MiB available memory on the node where the printing process lives
------------------
     ethr =  2.30E-03,  avg # of iterations =  1.1

     negative rho (up, down):  7.431E-01 0.000E+00

     total cpu time spent up to now is      103.2 secs

     total energy              =   -4442.79696749 Ry
     estimated scf accuracy    <       4.90379174 Ry

     iteration #  7     ecut=    60.00 Ry     beta= 0.15
     Davidson diagonalization with overlap

---- Real-time Memory Report at c_bands before calling an iterative solver
             0 MiB given to the printing process from OS
             0 MiB allocation reported by mallinfo(arena+hblkhd)
         23343 MiB available memory on the node where the printing process lives
------------------
     ethr =  1.14E-03,  avg # of iterations =  1.7

     negative rho (up, down):  7.640E-01 0.000E+00

     total cpu time spent up to now is      119.1 secs

     total energy              =   -4441.63384357 Ry
     estimated scf accuracy    <       3.96698458 Ry

     iteration #  8     ecut=    60.00 Ry     beta= 0.15
     Davidson diagonalization with overlap

---- Real-time Memory Report at c_bands before calling an iterative solver
             0 MiB given to the printing process from OS
             0 MiB allocation reported by mallinfo(arena+hblkhd)
         23330 MiB available memory on the node where the printing process lives
------------------
     ethr =  9.20E-04,  avg # of iterations =  7.2

     negative rho (up, down):  7.711E-01 0.000E+00

     total cpu time spent up to now is      140.8 secs

     total energy              =   -4441.52163792 Ry
     estimated scf accuracy    <      13.05389573 Ry

     iteration #  9     ecut=    60.00 Ry     beta= 0.15
     Davidson diagonalization with overlap

---- Real-time Memory Report at c_bands before calling an iterative solver
             0 MiB given to the printing process from OS
             0 MiB allocation reported by mallinfo(arena+hblkhd)
         23051 MiB available memory on the node where the printing process lives
------------------
     ethr =  9.20E-04,  avg # of iterations = 10.0

     negative rho (up, down):  7.703E-01 0.000E+00

     total cpu time spent up to now is      162.5 secs

     total energy              =   -4441.81521316 Ry
     estimated scf accuracy    <       1.97189721 Ry

     iteration # 10     ecut=    60.00 Ry     beta= 0.15
     Davidson diagonalization with overlap

---- Real-time Memory Report at c_bands before calling an iterative solver
             0 MiB given to the printing process from OS
             0 MiB allocation reported by mallinfo(arena+hblkhd)
         22844 MiB available memory on the node where the printing process lives
------------------
     ethr =  4.58E-04,  avg # of iterations =  5.3

     negative rho (up, down):  7.821E-01 0.000E+00

     total cpu time spent up to now is      181.2 secs

     total energy              =   -4441.91616063 Ry
     estimated scf accuracy    <       1.03064073 Ry

     iteration # 11     ecut=    60.00 Ry     beta= 0.15
     Davidson diagonalization with overlap

---- Real-time Memory Report at c_bands before calling an iterative solver
             0 MiB given to the printing process from OS
             0 MiB allocation reported by mallinfo(arena+hblkhd)
         22756 MiB available memory on the node where the printing process lives
------------------
     ethr =  2.39E-04,  avg # of iterations =  6.3

     negative rho (up, down):  8.056E-01 0.000E+00

     total cpu time spent up to now is      201.9 secs

     total energy              =   -4441.73329065 Ry
     estimated scf accuracy    <       1.51507347 Ry

     iteration # 12     ecut=    60.00 Ry     beta= 0.15
     Davidson diagonalization with overlap

---- Real-time Memory Report at c_bands before calling an iterative solver
             0 MiB given to the printing process from OS
             0 MiB allocation reported by mallinfo(arena+hblkhd)
         22732 MiB available memory on the node where the printing process lives
------------------
     ethr =  2.39E-04,  avg # of iterations =  6.4

     negative rho (up, down):  8.112E-01 0.000E+00

     total cpu time spent up to now is      221.7 secs

     total energy              =   -4441.82928362 Ry
     estimated scf accuracy    <       0.69464762 Ry

     iteration # 13     ecut=    60.00 Ry     beta= 0.15
     Davidson diagonalization with overlap

---- Real-time Memory Report at c_bands before calling an iterative solver
             0 MiB given to the printing process from OS
             0 MiB allocation reported by mallinfo(arena+hblkhd)
         22704 MiB available memory on the node where the printing process lives
------------------
     ethr =  1.61E-04,  avg # of iterations =  2.6

     negative rho (up, down):  8.188E-01 0.000E+00

     total cpu time spent up to now is      238.7 secs

     total energy              =   -4441.78381119 Ry
     estimated scf accuracy    <       0.46982581 Ry

     iteration # 14     ecut=    60.00 Ry     beta= 0.15
     Davidson diagonalization with overlap

---- Real-time Memory Report at c_bands before calling an iterative solver
             0 MiB given to the printing process from OS
             0 MiB allocation reported by mallinfo(arena+hblkhd)
         22705 MiB available memory on the node where the printing process lives
------------------
     ethr =  1.09E-04,  avg # of iterations =  9.0

     negative rho (up, down):  8.271E-01 0.000E+00

     total cpu time spent up to now is      259.4 secs

     total energy              =   -4441.69907919 Ry
     estimated scf accuracy    <       0.35289948 Ry

     iteration # 15     ecut=    60.00 Ry     beta= 0.15
     Davidson diagonalization with overlap

---- Real-time Memory Report at c_bands before calling an iterative solver
             0 MiB given to the printing process from OS
             0 MiB allocation reported by mallinfo(arena+hblkhd)
         22690 MiB available memory on the node where the printing process lives
------------------
     c_bands:  2 eigenvalues not converged
     ethr =  8.19E-05,  avg # of iterations = 12.5

     negative rho (up, down):  8.301E-01 0.000E+00

     total cpu time spent up to now is      282.2 secs

     total energy              =   -4441.71562898 Ry
     estimated scf accuracy    <       0.32094576 Ry

     iteration # 16     ecut=    60.00 Ry     beta= 0.15
     Davidson diagonalization with overlap

---- Real-time Memory Report at c_bands before calling an iterative solver
             0 MiB given to the printing process from OS
             0 MiB allocation reported by mallinfo(arena+hblkhd)
         22681 MiB available memory on the node where the printing process lives
------------------
     ethr =  7.45E-05,  avg # of iterations =  1.3

     negative rho (up, down):  8.256E-01 0.000E+00

     total cpu time spent up to now is      298.2 secs

     total energy              =   -4441.69635446 Ry
     estimated scf accuracy    <       0.22784740 Ry

     iteration # 17     ecut=    60.00 Ry     beta= 0.15
     Davidson diagonalization with overlap

---- Real-time Memory Report at c_bands before calling an iterative solver
             0 MiB given to the printing process from OS
             0 MiB allocation reported by mallinfo(arena+hblkhd)
         22686 MiB available memory on the node where the printing process lives
------------------
     ethr =  5.29E-05,  avg # of iterations =  3.0

     negative rho (up, down):  8.037E-01 0.000E+00

     total cpu time spent up to now is      316.1 secs

     total energy              =   -4441.66470106 Ry
     estimated scf accuracy    <       0.16939982 Ry

     iteration # 18     ecut=    60.00 Ry     beta= 0.15
     Davidson diagonalization with overlap

---- Real-time Memory Report at c_bands before calling an iterative solver
             0 MiB given to the printing process from OS
             0 MiB allocation reported by mallinfo(arena+hblkhd)
         22685 MiB available memory on the node where the printing process lives
------------------
     c_bands:  1 eigenvalues not converged
     ethr =  3.93E-05,  avg # of iterations =  9.0

     negative rho (up, down):  8.359E-01 0.000E+00

     total cpu time spent up to now is      337.5 secs

     total energy              =   -4441.65545937 Ry
     estimated scf accuracy    <       0.08871360 Ry

     iteration # 19     ecut=    60.00 Ry     beta= 0.15
     Davidson diagonalization with overlap

---- Real-time Memory Report at c_bands before calling an iterative solver
             0 MiB given to the printing process from OS
             0 MiB allocation reported by mallinfo(arena+hblkhd)
         22674 MiB available memory on the node where the printing process lives
------------------
     ethr =  2.06E-05,  avg # of iterations = 10.5

     negative rho (up, down):  8.422E-01 0.000E+00

     total cpu time spent up to now is      360.8 secs

     total energy              =   -4441.65806225 Ry
     estimated scf accuracy    <       0.04362211 Ry

     iteration # 20     ecut=    60.00 Ry     beta= 0.15
     Davidson diagonalization with overlap

---- Real-time Memory Report at c_bands before calling an iterative solver
             0 MiB given to the printing process from OS
             0 MiB allocation reported by mallinfo(arena+hblkhd)
         22623 MiB available memory on the node where the printing process lives
------------------
     ethr =  1.01E-05,  avg # of iterations =  3.7

     negative rho (up, down):  8.174E-01 0.000E+00

     total cpu time spent up to now is      378.9 secs

     total energy              =   -4441.65231010 Ry
     estimated scf accuracy    <       0.03195726 Ry

     iteration # 21     ecut=    60.00 Ry     beta= 0.15
     Davidson diagonalization with overlap

---- Real-time Memory Report at c_bands before calling an iterative solver
             0 MiB given to the printing process from OS
             0 MiB allocation reported by mallinfo(arena+hblkhd)
         22627 MiB available memory on the node where the printing process lives
------------------
     ethr =  7.41E-06,  avg # of iterations =  6.4

     negative rho (up, down):  8.047E-01 0.000E+00

     total cpu time spent up to now is      398.4 secs

     total energy              =   -4441.64944493 Ry
     estimated scf accuracy    <       0.02112230 Ry

     iteration # 22     ecut=    60.00 Ry     beta= 0.15
     Davidson diagonalization with overlap

---- Real-time Memory Report at c_bands before calling an iterative solver
             0 MiB given to the printing process from OS
             0 MiB allocation reported by mallinfo(arena+hblkhd)
         22685 MiB available memory on the node where the printing process lives
------------------
     c_bands:  1 eigenvalues not converged
     ethr =  4.90E-06,  avg # of iterations = 10.4

     negative rho (up, down):  8.017E-01 0.000E+00

     total cpu time spent up to now is      420.2 secs

     total energy              =   -4441.64798686 Ry
     estimated scf accuracy    <       0.01216695 Ry

     iteration # 23     ecut=    60.00 Ry     beta= 0.15
     Davidson diagonalization with overlap

---- Real-time Memory Report at c_bands before calling an iterative solver
             0 MiB given to the printing process from OS
             0 MiB allocation reported by mallinfo(arena+hblkhd)
         22680 MiB available memory on the node where the printing process lives
------------------
     ethr =  2.82E-06,  avg # of iterations = 14.1

     negative rho (up, down):  8.010E-01 0.000E+00

     total cpu time spent up to now is      445.4 secs

     total energy              =   -4441.64797158 Ry
     estimated scf accuracy    <       0.00581943 Ry

     iteration # 24     ecut=    60.00 Ry     beta= 0.15
     Davidson diagonalization with overlap

---- Real-time Memory Report at c_bands before calling an iterative solver
             0 MiB given to the printing process from OS
             0 MiB allocation reported by mallinfo(arena+hblkhd)
         22585 MiB available memory on the node where the printing process lives
------------------
     ethr =  1.35E-06,  avg # of iterations =  2.0

     negative rho (up, down):  7.965E-01 0.000E+00

     total cpu time spent up to now is      462.2 secs

     total energy              =   -4441.64731963 Ry
     estimated scf accuracy    <       0.00430328 Ry

     iteration # 25     ecut=    60.00 Ry     beta= 0.15
     Davidson diagonalization with overlap

---- Real-time Memory Report at c_bands before calling an iterative solver
             0 MiB given to the printing process from OS
             0 MiB allocation reported by mallinfo(arena+hblkhd)
         22595 MiB available memory on the node where the printing process lives
------------------
     c_bands:  1 eigenvalues not converged
     ethr =  9.98E-07,  avg # of iterations = 12.0

     negative rho (up, down):  7.972E-01 0.000E+00

     total cpu time spent up to now is      485.1 secs

     total energy              =   -4441.64733236 Ry
     estimated scf accuracy    <       0.00236709 Ry

     iteration # 26     ecut=    60.00 Ry     beta= 0.15
     Davidson diagonalization with overlap

---- Real-time Memory Report at c_bands before calling an iterative solver
             0 MiB given to the printing process from OS
             0 MiB allocation reported by mallinfo(arena+hblkhd)
         22585 MiB available memory on the node where the printing process lives
------------------
     ethr =  5.49E-07,  avg # of iterations =  9.6

     negative rho (up, down):  7.985E-01 0.000E+00

     total cpu time spent up to now is      506.5 secs

     total energy              =   -4441.64742543 Ry
     estimated scf accuracy    <       0.00135354 Ry

     iteration # 27     ecut=    60.00 Ry     beta= 0.15
     Davidson diagonalization with overlap

---- Real-time Memory Report at c_bands before calling an iterative solver
             0 MiB given to the printing process from OS
             0 MiB allocation reported by mallinfo(arena+hblkhd)
         22590 MiB available memory on the node where the printing process lives
------------------
     c_bands:  1 eigenvalues not converged
     ethr =  3.14E-07,  avg # of iterations = 12.2

     negative rho (up, down):  7.981E-01 0.000E+00

     total cpu time spent up to now is      529.6 secs

     total energy              =   -4441.64746505 Ry
     estimated scf accuracy    <       0.00079132 Ry

     iteration # 28     ecut=    60.00 Ry     beta= 0.15
     Davidson diagonalization with overlap

---- Real-time Memory Report at c_bands before calling an iterative solver
             0 MiB given to the printing process from OS
             0 MiB allocation reported by mallinfo(arena+hblkhd)
         22575 MiB available memory on the node where the printing process lives
------------------
     ethr =  1.84E-07,  avg # of iterations =  3.6

     negative rho (up, down):  7.937E-01 0.000E+00

     total cpu time spent up to now is      547.2 secs

     total energy              =   -4441.64740430 Ry
     estimated scf accuracy    <       0.00053301 Ry

     iteration # 29     ecut=    60.00 Ry     beta= 0.15
     Davidson diagonalization with overlap

---- Real-time Memory Report at c_bands before calling an iterative solver
             0 MiB given to the printing process from OS
             0 MiB allocation reported by mallinfo(arena+hblkhd)
         22583 MiB available memory on the node where the printing process lives
------------------
     ethr =  1.24E-07,  avg # of iterations =  7.8

     negative rho (up, down):  7.935E-01 0.000E+00

     total cpu time spent up to now is      567.2 secs

     total energy              =   -4441.64742002 Ry
     estimated scf accuracy    <       0.00021090 Ry

     iteration # 30     ecut=    60.00 Ry     beta= 0.15
     Davidson diagonalization with overlap

---- Real-time Memory Report at c_bands before calling an iterative solver
             0 MiB given to the printing process from OS
             0 MiB allocation reported by mallinfo(arena+hblkhd)
         22609 MiB available memory on the node where the printing process lives
------------------
     ethr =  4.89E-08,  avg # of iterations =  2.1

     negative rho (up, down):  7.919E-01 0.000E+00

     total cpu time spent up to now is      584.3 secs

     total energy              =   -4441.64743013 Ry
     estimated scf accuracy    <       0.00007021 Ry

     iteration # 31     ecut=    60.00 Ry     beta= 0.15
     Davidson diagonalization with overlap

---- Real-time Memory Report at c_bands before calling an iterative solver
             0 MiB given to the printing process from OS
             0 MiB allocation reported by mallinfo(arena+hblkhd)
         22612 MiB available memory on the node where the printing process lives
------------------
     ethr =  1.63E-08,  avg # of iterations =  3.7

     negative rho (up, down):  7.919E-01 0.000E+00

     total cpu time spent up to now is      602.5 secs

     total energy              =   -4441.64743229 Ry
     estimated scf accuracy    <       0.00002207 Ry

     iteration # 32     ecut=    60.00 Ry     beta= 0.15
     Davidson diagonalization with overlap

---- Real-time Memory Report at c_bands before calling an iterative solver
             0 MiB given to the printing process from OS
             0 MiB allocation reported by mallinfo(arena+hblkhd)
         22617 MiB available memory on the node where the printing process lives
------------------
     ethr =  5.12E-09,  avg # of iterations =  2.1

     negative rho (up, down):  7.919E-01 0.000E+00

     total cpu time spent up to now is      620.1 secs

     total energy              =   -4441.64743057 Ry
     estimated scf accuracy    <       0.00000704 Ry

     iteration # 33     ecut=    60.00 Ry     beta= 0.15
     Davidson diagonalization with overlap

---- Real-time Memory Report at c_bands before calling an iterative solver
             0 MiB given to the printing process from OS
             0 MiB allocation reported by mallinfo(arena+hblkhd)
         22615 MiB available memory on the node where the printing process lives
------------------
     ethr =  1.63E-09,  avg # of iterations =  3.2

     negative rho (up, down):  7.920E-01 0.000E+00

     total cpu time spent up to now is      638.4 secs

     total energy              =   -4441.64743134 Ry
     estimated scf accuracy    <       0.00000324 Ry

     iteration # 34     ecut=    60.00 Ry     beta= 0.15
     Davidson diagonalization with overlap

---- Real-time Memory Report at c_bands before calling an iterative solver
             0 MiB given to the printing process from OS
             0 MiB allocation reported by mallinfo(arena+hblkhd)
         22614 MiB available memory on the node where the printing process lives
------------------
     ethr =  7.52E-10,  avg # of iterations =  2.1

     negative rho (up, down):  7.921E-01 0.000E+00

     total cpu time spent up to now is      655.6 secs

     total energy              =   -4441.64743254 Ry
     estimated scf accuracy    <       0.00000182 Ry

     iteration # 35     ecut=    60.00 Ry     beta= 0.15
     Davidson diagonalization with overlap

---- Real-time Memory Report at c_bands before calling an iterative solver
             0 MiB given to the printing process from OS
             0 MiB allocation reported by mallinfo(arena+hblkhd)
         22620 MiB available memory on the node where the printing process lives
------------------
     ethr =  4.22E-10,  avg # of iterations =  2.3

     negative rho (up, down):  7.923E-01 0.000E+00

     total cpu time spent up to now is      672.8 secs

     total energy              =   -4441.64743382 Ry
     estimated scf accuracy    <       0.00000109 Ry

     iteration # 36     ecut=    60.00 Ry     beta= 0.15
     Davidson diagonalization with overlap

---- Real-time Memory Report at c_bands before calling an iterative solver
             0 MiB given to the printing process from OS
             0 MiB allocation reported by mallinfo(arena+hblkhd)
         22619 MiB available memory on the node where the printing process lives
------------------
     ethr =  2.52E-10,  avg # of iterations =  3.9

     negative rho (up, down):  7.924E-01 0.000E+00

     total cpu time spent up to now is      691.1 secs

     total energy              =   -4441.64743411 Ry
     estimated scf accuracy    <       0.00000055 Ry

     iteration # 37     ecut=    60.00 Ry     beta= 0.15
     Davidson diagonalization with overlap

---- Real-time Memory Report at c_bands before calling an iterative solver
             0 MiB given to the printing process from OS
             0 MiB allocation reported by mallinfo(arena+hblkhd)
         22617 MiB available memory on the node where the printing process lives
------------------
     ethr =  1.27E-10,  avg # of iterations =  3.8

     negative rho (up, down):  7.924E-01 0.000E+00

     total cpu time spent up to now is      709.8 secs

     total energy              =   -4441.64743420 Ry
     estimated scf accuracy    <       0.00000036 Ry

     iteration # 38     ecut=    60.00 Ry     beta= 0.15
     Davidson diagonalization with overlap

---- Real-time Memory Report at c_bands before calling an iterative solver
             0 MiB given to the printing process from OS
             0 MiB allocation reported by mallinfo(arena+hblkhd)
         22622 MiB available memory on the node where the printing process lives
------------------
     ethr =  8.31E-11,  avg # of iterations =  1.2

     negative rho (up, down):  7.924E-01 0.000E+00

     total cpu time spent up to now is      725.3 secs

     total energy              =   -4441.64743423 Ry
     estimated scf accuracy    <       0.00000028 Ry

     iteration # 39     ecut=    60.00 Ry     beta= 0.15
     Davidson diagonalization with overlap

---- Real-time Memory Report at c_bands before calling an iterative solver
             0 MiB given to the printing process from OS
             0 MiB allocation reported by mallinfo(arena+hblkhd)
         22660 MiB available memory on the node where the printing process lives
------------------
     ethr =  6.41E-11,  avg # of iterations =  2.0

     negative rho (up, down):  7.924E-01 0.000E+00

     total cpu time spent up to now is      742.1 secs

     total energy              =   -4441.64743426 Ry
     estimated scf accuracy    <       0.00000021 Ry

     iteration # 40     ecut=    60.00 Ry     beta= 0.15
     Davidson diagonalization with overlap

---- Real-time Memory Report at c_bands before calling an iterative solver
             0 MiB given to the printing process from OS
             0 MiB allocation reported by mallinfo(arena+hblkhd)
         22659 MiB available memory on the node where the printing process lives
------------------
     ethr =  4.99E-11,  avg # of iterations =  2.2

     negative rho (up, down):  7.924E-01 0.000E+00

     total cpu time spent up to now is      759.7 secs

     total energy              =   -4441.64743428 Ry
     estimated scf accuracy    <       0.00000015 Ry

     iteration # 41     ecut=    60.00 Ry     beta= 0.15
     Davidson diagonalization with overlap

---- Real-time Memory Report at c_bands before calling an iterative solver
             0 MiB given to the printing process from OS
             0 MiB allocation reported by mallinfo(arena+hblkhd)
         22654 MiB available memory on the node where the printing process lives
------------------
     ethr =  3.48E-11,  avg # of iterations =  2.2

     negative rho (up, down):  7.924E-01 0.000E+00

     total cpu time spent up to now is      777.2 secs

     total energy              =   -4441.64743430 Ry
     estimated scf accuracy    <       0.00000009 Ry

     iteration # 42     ecut=    60.00 Ry     beta= 0.15
     Davidson diagonalization with overlap

---- Real-time Memory Report at c_bands before calling an iterative solver
             0 MiB given to the printing process from OS
             0 MiB allocation reported by mallinfo(arena+hblkhd)
         22660 MiB available memory on the node where the printing process lives
------------------
     ethr =  2.16E-11,  avg # of iterations =  2.1

     negative rho (up, down):  7.924E-01 0.000E+00

     total cpu time spent up to now is      794.8 secs

     total energy              =   -4441.64743429 Ry
     estimated scf accuracy    <       0.00000007 Ry

     iteration # 43     ecut=    60.00 Ry     beta= 0.15
     Davidson diagonalization with overlap

---- Real-time Memory Report at c_bands before calling an iterative solver
             0 MiB given to the printing process from OS
             0 MiB allocation reported by mallinfo(arena+hblkhd)
         22657 MiB available memory on the node where the printing process lives
------------------
     ethr =  1.64E-11,  avg # of iterations =  3.9

     negative rho (up, down):  7.924E-01 0.000E+00

     total cpu time spent up to now is      813.6 secs

     total energy              =   -4441.64743427 Ry
     estimated scf accuracy    <       0.00000003 Ry

     iteration # 44     ecut=    60.00 Ry     beta= 0.15
     Davidson diagonalization with overlap

---- Real-time Memory Report at c_bands before calling an iterative solver
             0 MiB given to the printing process from OS
             0 MiB allocation reported by mallinfo(arena+hblkhd)
         22653 MiB available memory on the node where the printing process lives
------------------
     ethr =  6.83E-12,  avg # of iterations =  2.9

     negative rho (up, down):  7.924E-01 0.000E+00

     total cpu time spent up to now is      831.5 secs

     total energy              =   -4441.64743428 Ry
     estimated scf accuracy    <       0.00000002 Ry

     iteration # 45     ecut=    60.00 Ry     beta= 0.15
     Davidson diagonalization with overlap

---- Real-time Memory Report at c_bands before calling an iterative solver
             0 MiB given to the printing process from OS
             0 MiB allocation reported by mallinfo(arena+hblkhd)
         22651 MiB available memory on the node where the printing process lives
------------------
     ethr =  4.24E-12,  avg # of iterations =  2.1

     negative rho (up, down):  7.924E-01 0.000E+00

     total cpu time spent up to now is      848.7 secs

     End of self-consistent calculation

          k = 0.0000 0.0000 0.0000 ( 65197 PWs)   bands (ev):

   -92.6741 -92.6191 -92.5271 -92.4809 -92.4224 -92.3799 -92.3625 -92.2411
   -56.0276 -56.0055 -55.8846 -55.8745 -55.8658 -55.8614 -55.8238 -55.7965
   -55.7810 -55.7794 -55.7700 -55.7297 -55.7132 -55.6733 -55.6534 -55.6226
   -55.6157 -55.5682 -55.5665 -55.5652 -55.5567 -55.5162 -55.4929 -55.4079
   -31.2514 -31.2319 -31.0904 -31.0690 -31.0034 -30.9833 -30.7979 -30.6811
   -29.8216 -29.7778 -29.7527 -29.6436 -15.0540 -15.0106 -14.9299 -14.8000
   -14.6085 -14.4848 -14.1926 -14.1734 -14.1427 -14.0978 -14.0529 -14.0429
   -14.0323 -14.0143 -13.9904 -13.9590 -13.9250 -13.9029 -13.7520 -13.5784
   -13.5409 -13.5099 -13.4832 -13.4628 -13.4086 -13.3747 -13.2960 -13.2238
   -13.0928 -13.0832 -13.0752 -13.0574 -13.0475 -13.0304 -12.9846 -12.9771
   -12.9599 -12.9315 -12.8971 -12.8902 -12.8747 -12.8666 -12.8496 -12.7638
   -12.7458 -12.7115 -12.6229 -12.5912 -12.5852 -12.3160 -12.1702 -11.9826
   -11.9289 -11.8348 -11.7607 -11.7497 -11.7267 -11.7092 -11.6455 -11.6282
   -11.5934 -11.5647 -11.4526 -11.3728 -11.3693  -2.9147  -2.6821  -2.4528
    -2.3057  -2.2427  -2.1004  -1.7933  -1.7794  -1.7595  -1.6761  -1.6561
    -1.5881  -1.5716  -1.5307  -1.4869  -1.3046  -1.0819  -1.0541  -1.0399
    -0.9037  -0.8893  -0.8436  -0.8257  -0.7788  -0.7630  -0.7067  -0.6802
    -0.6070  -0.5925  -0.5198  -0.3873  -0.3741  -0.3471  -0.2659  -0.2598
    -0.2437  -0.1734  -0.1016  -0.0373  -0.0035   0.0374   0.0994   0.1640
     0.2098   0.2304   0.2436   0.4980   0.5131   0.6950   0.7563   0.8314
     0.8660   0.9507   0.9687   0.9810   1.0501   1.0767   1.1108   1.1698
     1.3005   1.3651   1.3800   1.3972   1.4098   1.4778   1.5492   1.6539
     1.6634   1.7350   1.7498   1.7869   1.8034   1.8092   1.8684   1.9219
     1.9541   1.9777   2.0426   2.0584   2.1853   2.2713   2.3119   2.3288
     2.4591   2.4842   2.5284   2.5305   2.5436   2.5490   2.6525   2.6846
     2.7106   2.7289   2.7425   2.8246   2.9350   2.9647   2.9782   2.9850
     3.0532   3.0571   3.0804   3.0884   3.0965   3.1100   3.1162   3.1295
     3.1348   3.1479   3.1562   3.1641   3.1841   3.2049   3.2101   3.2223
     3.2600   3.3636   3.4365   4.1320   4.4720   4.7991   4.8847   5.0672
     5.7107   5.9628   6.0181   6.0324   6.3413   6.3884   6.4997   6.5076
     6.7258   7.0269   7.1019   7.3394   7.4608   7.5053   7.6666   7.6835
     7.7077   7.8891   7.9203   8.0613   8.1331   8.2047   8.4024   8.4500
     8.7119   8.8080   8.8847

     occupation numbers 
     1.0000   1.0000   1.0000   1.0000   1.0000   1.0000   1.0000   1.0000
     1.0000   1.0000   1.0000   1.0000   1.0000   1.0000   1.0000   1.0000
     1.0000   1.0000   1.0000   1.0000   1.0000   1.0000   1.0000   1.0000
     1.0000   1.0000   1.0000   1.0000   1.0000   1.0000   1.0000   1.0000
     1.0000   1.0000   1.0000   1.0000   1.0000   1.0000   1.0000   1.0000
     1.0000   1.0000   1.0000   1.0000   1.0000   1.0000   1.0000   1.0000
     1.0000   1.0000   1.0000   1.0000   1.0000   1.0000   1.0000   1.0000
     1.0000   1.0000   1.0000   1.0000   1.0000   1.0000   1.0000   1.0000
     1.0000   1.0000   1.0000   1.0000   1.0000   1.0000   1.0000   1.0000
     1.0000   1.0000   1.0000   1.0000   1.0000   1.0000   1.0000   1.0000
     1.0000   1.0000   1.0000   1.0000   1.0000   1.0000   1.0000   1.0000
     1.0000   1.0000   1.0000   1.0000   1.0000   1.0000   1.0000   1.0000
     1.0000   1.0000   1.0000   1.0000   1.0000   1.0000   1.0000   1.0000
     1.0000   1.0000   1.0000   1.0000   1.0000   1.0000   1.0000   1.0000
     1.0000   1.0000   1.0000   1.0000   1.0000   1.0000   1.0000   1.0000
     1.0000   1.0000   1.0000   1.0000   1.0000   1.0000   1.0000   1.0000
     1.0000   1.0000   1.0000   1.0000   1.0000   1.0000   1.0000   1.0000
     1.0000   1.0000   1.0000   1.0000   1.0000   1.0000   1.0000   1.0000
     1.0000   1.0000   1.0000   1.0000   1.0000   1.0000   1.0000   1.0000
     1.0000   1.0000   1.0000   1.0000   1.0000   1.0000   0.9999   0.9999
     0.9999   0.9998   0.9998   0.9998   0.9997   0.9996   0.9996   0.9994
     0.9989   0.9984   0.9983   0.9982   0.9981   0.9973   0.9963   0.9942
     0.9940   0.9919   0.9914   0.9900   0.9894   0.9891   0.9863   0.9833
     0.9812   0.9795   0.9743   0.9728   0.9587   0.9461   0.9391   0.9361
     0.9081   0.9018   0.8899   0.8893   0.8856   0.8841   0.8512   0.8399
     0.8304   0.8234   0.8181   0.7841   0.7332   0.7184   0.7116   0.7082
     0.6725   0.6704   0.6578   0.6534   0.6489   0.6415   0.6381   0.6306
     0.6276   0.6203   0.6156   0.6111   0.5996   0.5877   0.5847   0.5776
     0.5556   0.4944   0.4513   0.1240   0.0485   0.0160   0.0115   0.0055
     0.0002   0.0001   0.0000   0.0000   0.0000   0.0000   0.0000   0.0000
     0.0000   0.0000   0.0000   0.0000   0.0000   0.0000   0.0000   0.0000
     0.0000   0.0000   0.0000   0.0000   0.0000   0.0000   0.0000   0.0000
     0.0000   0.0000   0.0000

          k = 0.0000 0.2500 0.0000 ( 65257 PWs)   bands (ev):

   -92.6741 -92.6191 -92.5271 -92.4809 -92.4224 -92.3799 -92.3625 -92.2411
   -56.0276 -56.0055 -55.8846 -55.8745 -55.8658 -55.8614 -55.8238 -55.7965
   -55.7810 -55.7794 -55.7700 -55.7297 -55.7132 -55.6733 -55.6534 -55.6226
   -55.6157 -55.5682 -55.5665 -55.5652 -55.5567 -55.5162 -55.4929 -55.4079
   -31.2512 -31.2318 -31.0906 -31.0686 -31.0035 -30.9836 -30.7976 -30.6814
   -29.8210 -29.7775 -29.7533 -29.6439 -15.0175 -14.9844 -14.9046 -14.7708
   -14.6487 -14.4760 -14.3378 -14.1586 -14.1244 -14.1026 -14.0744 -14.0165
   -14.0101 -13.9948 -13.9767 -13.9344 -13.9217 -13.8224 -13.7827 -13.6213
   -13.6026 -13.5512 -13.5167 -13.4750 -13.4268 -13.3834 -13.3158 -13.2813
   -13.1999 -13.1566 -13.1213 -13.0831 -13.0718 -13.0407 -12.9665 -12.9441
   -12.9143 -12.9027 -12.8752 -12.8405 -12.8157 -12.7975 -12.7725 -12.7485
   -12.7139 -12.6964 -12.6236 -12.5065 -12.4538 -12.3773 -12.2215 -12.0380
   -11.9945 -11.8003 -11.7575 -11.7296 -11.7015 -11.6847 -11.6374 -11.6260
   -11.6036 -11.5693 -11.4670 -11.4145 -11.4039  -2.7794  -2.5577  -2.4203
    -2.2381  -2.1947  -2.0309  -1.8121  -1.7269  -1.7140  -1.6575  -1.5541
    -1.5380  -1.5047  -1.4776  -1.4339  -1.2360  -1.1082  -1.0973  -1.0428
    -1.0189  -1.0068  -0.9045  -0.8745  -0.8169  -0.7921  -0.7510  -0.6878
    -0.6611  -0.6289  -0.5921  -0.5780  -0.5466  -0.4718  -0.4222  -0.3623
    -0.2456  -0.2302  -0.1806  -0.0601  -0.0229   0.0461   0.0903   0.1467
     0.1641   0.1915   0.2599   0.5504   0.6344   0.6653   0.7566   0.8061
     0.8308   0.9380   0.9566   1.0557   1.0789   1.1035   1.2176   1.3101
     1.3382   1.3581   1.3733   1.4025   1.4623   1.4888   1.5168   1.5643
     1.6005   1.6294   1.7135   1.7441   1.7897   1.8328   1.8944   1.9463
     1.9654   1.9912   2.0229   2.1102   2.2206   2.2943   2.3109   2.3863
     2.4244   2.4662   2.4823   2.5204   2.5342   2.5453   2.5816   2.6692
     2.7019   2.7185   2.8922   2.9152   2.9482   2.9676   2.9856   2.9938
     3.0016   3.0116   3.0401   3.0419   3.0615   3.0637   3.0754   3.0934
     3.1051   3.1129   3.1351   3.1459   3.1504   3.1856   3.2026   3.2632
     3.6434   3.6647   3.9059   4.3204   4.4719   4.7366   5.0350   5.0932
     5.6633   5.7959   5.9120   6.0143   6.1076   6.1304   6.2101   6.6158
     6.8206   7.0637   7.1266   7.3509   7.5029   7.5177   7.5394   7.6631
     7.8543   7.9734   8.0222   8.1894   8.2482   8.3631   8.4078   8.4311
     8.5670   8.7960   8.9182

     occupation numbers 
     1.0000   1.0000   1.0000   1.0000   1.0000   1.0000   1.0000   1.0000
     1.0000   1.0000   1.0000   1.0000   1.0000   1.0000   1.0000   1.0000
     1.0000   1.0000   1.0000   1.0000   1.0000   1.0000   1.0000   1.0000
     1.0000   1.0000   1.0000   1.0000   1.0000   1.0000   1.0000   1.0000
     1.0000   1.0000   1.0000   1.0000   1.0000   1.0000   1.0000   1.0000
     1.0000   1.0000   1.0000   1.0000   1.0000   1.0000   1.0000   1.0000
     1.0000   1.0000   1.0000   1.0000   1.0000   1.0000   1.0000   1.0000
     1.0000   1.0000   1.0000   1.0000   1.0000   1.0000   1.0000   1.0000
     1.0000   1.0000   1.0000   1.0000   1.0000   1.0000   1.0000   1.0000
     1.0000   1.0000   1.0000   1.0000   1.0000   1.0000   1.0000   1.0000
     1.0000   1.0000   1.0000   1.0000   1.0000   1.0000   1.0000   1.0000
     1.0000   1.0000   1.0000   1.0000   1.0000   1.0000   1.0000   1.0000
     1.0000   1.0000   1.0000   1.0000   1.0000   1.0000   1.0000   1.0000
     1.0000   1.0000   1.0000   1.0000   1.0000   1.0000   1.0000   1.0000
     1.0000   1.0000   1.0000   1.0000   1.0000   1.0000   1.0000   1.0000
     1.0000   1.0000   1.0000   1.0000   1.0000   1.0000   1.0000   1.0000
     1.0000   1.0000   1.0000   1.0000   1.0000   1.0000   1.0000   1.0000
     1.0000   1.0000   1.0000   1.0000   1.0000   1.0000   1.0000   1.0000
     1.0000   1.0000   1.0000   1.0000   1.0000   1.0000   1.0000   1.0000
     1.0000   1.0000   1.0000   1.0000   1.0000   1.0000   0.9999   0.9999
     0.9999   0.9998   0.9998   0.9997   0.9996   0.9996   0.9992   0.9988
     0.9986   0.9985   0.9984   0.9981   0.9975   0.9972   0.9968   0.9961
     0.9954   0.9948   0.9926   0.9916   0.9899   0.9881   0.9849   0.9817
     0.9804   0.9785   0.9760   0.9676   0.9538   0.9422   0.9393   0.9246
     0.9163   0.9063   0.9023   0.8921   0.8883   0.8851   0.8743   0.8454
     0.8336   0.8273   0.7536   0.7427   0.7267   0.7170   0.7079   0.7037
     0.6997   0.6945   0.6795   0.6785   0.6680   0.6669   0.6605   0.6506
     0.6442   0.6399   0.6275   0.6214   0.6188   0.5988   0.5890   0.5537
     0.3338   0.3224   0.2063   0.0757   0.0485   0.0200   0.0063   0.0049
     0.0003   0.0001   0.0001   0.0000   0.0000   0.0000   0.0000   0.0000
     0.0000   0.0000   0.0000   0.0000   0.0000   0.0000   0.0000   0.0000
     0.0000   0.0000   0.0000   0.0000   0.0000   0.0000   0.0000   0.0000
     0.0000   0.0000   0.0000

          k = 0.0000-0.5000 0.0000 ( 65180 PWs)   bands (ev):

   -92.6741 -92.6191 -92.5271 -92.4809 -92.4224 -92.3799 -92.3625 -92.2411
   -56.0276 -56.0055 -55.8846 -55.8745 -55.8658 -55.8614 -55.8238 -55.7965
   -55.7810 -55.7794 -55.7700 -55.7297 -55.7132 -55.6733 -55.6534 -55.6226
   -55.6157 -55.5682 -55.5665 -55.5652 -55.5567 -55.5162 -55.4929 -55.4079
   -31.2510 -31.2317 -31.0908 -31.0683 -31.0037 -30.9840 -30.7974 -30.6817
   -29.8204 -29.7771 -29.7539 -29.6443 -14.9825 -14.9337 -14.8805 -14.7528
   -14.6692 -14.5320 -14.3798 -14.2554 -14.1304 -14.0599 -14.0165 -14.0108
   -13.9614 -13.9439 -13.9264 -13.8946 -13.8764 -13.8496 -13.8158 -13.7801
   -13.7362 -13.5562 -13.4988 -13.4831 -13.4296 -13.3785 -13.3318 -13.2814
   -13.2568 -13.2342 -13.1915 -13.0842 -13.0729 -13.0219 -12.9789 -12.9399
   -12.9241 -12.9023 -12.8555 -12.8084 -12.7869 -12.7503 -12.7013 -12.6795
   -12.6744 -12.6300 -12.6234 -12.4882 -12.3781 -12.2967 -12.2532 -12.1523
   -12.1060 -11.7544 -11.7519 -11.7245 -11.6873 -11.6530 -11.6419 -11.5991
   -11.5953 -11.5506 -11.4889 -11.4751 -11.4609  -2.5651  -2.5048  -2.3546
    -2.2825  -2.0022  -1.9165  -1.7906  -1.6529  -1.6176  -1.5959  -1.5180
    -1.4864  -1.4047  -1.3690  -1.2922  -1.2518  -1.2131  -1.1860  -1.1287
    -1.0913  -1.0464  -1.0404  -1.0075  -0.9751  -0.9401  -0.8315  -0.7865
    -0.7517  -0.7503  -0.6642  -0.6325  -0.6090  -0.5575  -0.4776  -0.4005
    -0.3224  -0.2937  -0.1838  -0.1259  -0.0021   0.0282   0.0619   0.1214
     0.2753   0.3083   0.4191   0.4877   0.4950   0.6228   0.6702   0.7996
     0.9030   1.0118   1.0415   1.0794   1.0831   1.1248   1.1414   1.1771
     1.2024   1.2070   1.3156   1.3779   1.3999   1.4250   1.6857   1.7247
     1.7519   1.8454   1.8776   1.8966   1.9148   1.9405   1.9614   1.9756
     2.0113   2.0288   2.0617   2.0911   2.0945   2.1308   2.1850   2.2638
     2.2940   2.4743   2.4890   2.5281   2.6308   2.6435   2.6618   2.6940
     2.7019   2.7123   2.7623   2.7726   2.8261   2.8474   2.9259   2.9383
     3.0047   3.0162   3.0364   3.0382   3.0579   3.0646   3.0660   3.0702
     3.0735   3.0872   3.1056   3.1063   3.1708   3.1763   3.1923   3.2462
     4.1559   4.2022   4.2256   4.2793   4.7634   4.9296   5.0508   5.1792
     5.4366   5.4891   5.6065   5.7397   6.0432   6.0793   6.2510   6.4549
     6.8720   6.9719   7.2449   7.3036   7.3589   7.4762   7.6213   7.7790
     7.9321   8.0866   8.1987   8.2301   8.2968   8.4448   8.5136   8.6932
     8.8243   8.8367   8.8845

     occupation numbers 
     1.0000   1.0000   1.0000   1.0000   1.0000   1.0000   1.0000   1.0000
     1.0000   1.0000   1.0000   1.0000   1.0000   1.0000   1.0000   1.0000
     1.0000   1.0000   1.0000   1.0000   1.0000   1.0000   1.0000   1.0000
     1.0000   1.0000   1.0000   1.0000   1.0000   1.0000   1.0000   1.0000
     1.0000   1.0000   1.0000   1.0000   1.0000   1.0000   1.0000   1.0000
     1.0000   1.0000   1.0000   1.0000   1.0000   1.0000   1.0000   1.0000
     1.0000   1.0000   1.0000   1.0000   1.0000   1.0000   1.0000   1.0000
     1.0000   1.0000   1.0000   1.0000   1.0000   1.0000   1.0000   1.0000
     1.0000   1.0000   1.0000   1.0000   1.0000   1.0000   1.0000   1.0000
     1.0000   1.0000   1.0000   1.0000   1.0000   1.0000   1.0000   1.0000
     1.0000   1.0000   1.0000   1.0000   1.0000   1.0000   1.0000   1.0000
     1.0000   1.0000   1.0000   1.0000   1.0000   1.0000   1.0000   1.0000
     1.0000   1.0000   1.0000   1.0000   1.0000   1.0000   1.0000   1.0000
     1.0000   1.0000   1.0000   1.0000   1.0000   1.0000   1.0000   1.0000
     1.0000   1.0000   1.0000   1.0000   1.0000   1.0000   1.0000   1.0000
     1.0000   1.0000   1.0000   1.0000   1.0000   1.0000   1.0000   1.0000
     1.0000   1.0000   1.0000   1.0000   1.0000   1.0000   1.0000   1.0000
     1.0000   1.0000   1.0000   1.0000   1.0000   1.0000   1.0000   1.0000
     1.0000   1.0000   1.0000   1.0000   1.0000   1.0000   1.0000   1.0000
     1.0000   1.0000   1.0000   1.0000   1.0000   1.0000   1.0000   0.9999
     0.9999   0.9997   0.9997   0.9996   0.9996   0.9995   0.9995   0.9994
     0.9993   0.9993   0.9988   0.9983   0.9981   0.9979   0.9934   0.9922
     0.9913   0.9875   0.9858   0.9848   0.9837   0.9821   0.9807   0.9797
     0.9769   0.9755   0.9725   0.9696   0.9693   0.9653   0.9587   0.9473
     0.9423   0.9043   0.9005   0.8900   0.8586   0.8543   0.8480   0.8365
     0.8336   0.8297   0.8103   0.8061   0.7835   0.7741   0.7376   0.7315
     0.6980   0.6921   0.6814   0.6805   0.6700   0.6664   0.6656   0.6633
     0.6615   0.6541   0.6439   0.6435   0.6073   0.6041   0.5949   0.5636
     0.1169   0.1040   0.0978   0.0847   0.0182   0.0097   0.0059   0.0034
     0.0010   0.0008   0.0004   0.0002   0.0000   0.0000   0.0000   0.0000
     0.0000   0.0000   0.0000   0.0000   0.0000   0.0000   0.0000   0.0000
     0.0000   0.0000   0.0000   0.0000   0.0000   0.0000   0.0000   0.0000
     0.0000   0.0000   0.0000

          k = 0.2500 0.2500 0.0000 ( 65198 PWs)   bands (ev):

   -92.6741 -92.6191 -92.5271 -92.4809 -92.4224 -92.3799 -92.3625 -92.2411
   -56.0276 -56.0055 -55.8846 -55.8745 -55.8658 -55.8614 -55.8238 -55.7965
   -55.7810 -55.7794 -55.7700 -55.7297 -55.7132 -55.6733 -55.6534 -55.6226
   -55.6157 -55.5682 -55.5665 -55.5652 -55.5567 -55.5162 -55.4929 -55.4079
   -31.2495 -31.2335 -31.0902 -31.0685 -31.0039 -30.9836 -30.7977 -30.6815
   -29.8200 -29.7784 -29.7529 -29.6444 -14.9887 -14.9492 -14.8768 -14.7603
   -14.6415 -14.5157 -14.4437 -14.2382 -14.0820 -14.0689 -14.0329 -14.0035
   -13.9805 -13.9540 -13.9264 -13.9205 -13.8947 -13.8135 -13.7973 -13.6371
   -13.6226 -13.5934 -13.5732 -13.5295 -13.4840 -13.4161 -13.3997 -13.2588
   -13.2354 -13.2022 -13.1159 -13.0760 -13.0314 -13.0118 -12.9915 -12.9588
   -12.9214 -12.9144 -12.8906 -12.8378 -12.7979 -12.7459 -12.7179 -12.7109
   -12.6872 -12.6511 -12.6239 -12.4626 -12.4258 -12.3613 -12.2507 -12.0666
   -12.0414 -11.7726 -11.7409 -11.7300 -11.7231 -11.6603 -11.6256 -11.6189
   -11.5835 -11.5760 -11.4836 -11.4428 -11.4252  -2.6412  -2.4320  -2.3145
    -2.2201  -2.0992  -2.0340  -1.8371  -1.6917  -1.6725  -1.6440  -1.5491
    -1.5150  -1.4207  -1.3930  -1.3431  -1.2123  -1.1637  -1.0927  -1.0532
    -1.0319  -1.0022  -0.9783  -0.9538  -0.9109  -0.8956  -0.8053  -0.7548
    -0.6914  -0.6412  -0.6076  -0.5604  -0.5438  -0.4831  -0.4353  -0.3810
    -0.3437  -0.2600  -0.2035  -0.1751  -0.1370  -0.0824   0.0019   0.0379
     0.0600   0.1470   0.1755   0.4368   0.5823   0.6190   0.6797   0.7222
     0.7848   0.8639   0.8994   0.9306   1.1992   1.2666   1.3411   1.3667
     1.4134   1.4466   1.4810   1.5194   1.5356   1.5630   1.6084   1.6160
     1.6306   1.6731   1.7164   1.7540   1.8163   1.8558   1.8636   1.9083
     1.9346   1.9902   2.0326   2.1518   2.2062   2.2371   2.2624   2.3262
     2.3953   2.4206   2.4588   2.4774   2.4880   2.5213   2.5332   2.6121
     2.6437   2.7317   2.9038   2.9201   2.9268   2.9429   2.9573   2.9700
     2.9839   2.9907   3.0006   3.0137   3.0255   3.0451   3.0507   3.0627
     3.0849   3.0968   3.1059   3.1372   3.4385   3.5336   3.5724   3.6430
     3.6878   3.8802   3.9815   4.3337   4.5562   4.7441   5.0068   5.1826
     5.6700   5.7217   5.7750   5.8643   5.9215   6.0492   6.1780   6.2339
     6.8855   6.9178   7.1270   7.2080   7.5738   7.6220   7.7315   7.8458
     7.9022   8.0216   8.1619   8.2085   8.3019   8.3638   8.4276   8.4719
     8.5966   8.7276   8.8892

     occupation numbers 
     1.0000   1.0000   1.0000   1.0000   1.0000   1.0000   1.0000   1.0000
     1.0000   1.0000   1.0000   1.0000   1.0000   1.0000   1.0000   1.0000
     1.0000   1.0000   1.0000   1.0000   1.0000   1.0000   1.0000   1.0000
     1.0000   1.0000   1.0000   1.0000   1.0000   1.0000   1.0000   1.0000
     1.0000   1.0000   1.0000   1.0000   1.0000   1.0000   1.0000   1.0000
     1.0000   1.0000   1.0000   1.0000   1.0000   1.0000   1.0000   1.0000
     1.0000   1.0000   1.0000   1.0000   1.0000   1.0000   1.0000   1.0000
     1.0000   1.0000   1.0000   1.0000   1.0000   1.0000   1.0000   1.0000
     1.0000   1.0000   1.0000   1.0000   1.0000   1.0000   1.0000   1.0000
     1.0000   1.0000   1.0000   1.0000   1.0000   1.0000   1.0000   1.0000
     1.0000   1.0000   1.0000   1.0000   1.0000   1.0000   1.0000   1.0000
     1.0000   1.0000   1.0000   1.0000   1.0000   1.0000   1.0000   1.0000
     1.0000   1.0000   1.0000   1.0000   1.0000   1.0000   1.0000   1.0000
     1.0000   1.0000   1.0000   1.0000   1.0000   1.0000   1.0000   1.0000
     1.0000   1.0000   1.0000   1.0000   1.0000   1.0000   1.0000   1.0000
     1.0000   1.0000   1.0000   1.0000   1.0000   1.0000   1.0000   1.0000
     1.0000   1.0000   1.0000   1.0000   1.0000   1.0000   1.0000   1.0000
     1.0000   1.0000   1.0000   1.0000   1.0000   1.0000   1.0000   1.0000
     1.0000   1.0000   1.0000   1.0000   1.0000   1.0000   1.0000   1.0000
     1.0000   1.0000   1.0000   1.0000   1.0000   1.0000   1.0000   1.0000
     0.9999   0.9999   0.9999   0.9998   0.9993   0.9990   0.9986   0.9984
     0.9980   0.9977   0.9973   0.9968   0.9965   0.9961   0.9952   0.9951
     0.9948   0.9937   0.9925   0.9912   0.9888   0.9870   0.9866   0.9841
     0.9825   0.9786   0.9751   0.9629   0.9559   0.9514   0.9475   0.9365
     0.9227   0.9172   0.9082   0.9035   0.9008   0.8919   0.8886   0.8647
     0.8543   0.8223   0.7481   0.7404   0.7371   0.7293   0.7222   0.7158
     0.7087   0.7053   0.7002   0.6934   0.6872   0.6769   0.6738   0.6674
     0.6553   0.6488   0.6438   0.6263   0.4502   0.3949   0.3729   0.3340
     0.3101   0.2173   0.1758   0.0729   0.0371   0.0195   0.0071   0.0033
     0.0003   0.0002   0.0002   0.0001   0.0001   0.0000   0.0000   0.0000
     0.0000   0.0000   0.0000   0.0000   0.0000   0.0000   0.0000   0.0000
     0.0000   0.0000   0.0000   0.0000   0.0000   0.0000   0.0000   0.0000
     0.0000   0.0000   0.0000

          k = 0.2500-0.5000 0.0000 ( 65138 PWs)   bands (ev):

   -92.6741 -92.6191 -92.5271 -92.4809 -92.4224 -92.3799 -92.3625 -92.2411
   -56.0276 -56.0055 -55.8846 -55.8745 -55.8658 -55.8614 -55.8238 -55.7965
   -55.7810 -55.7794 -55.7700 -55.7297 -55.7132 -55.6733 -55.6534 -55.6226
   -55.6157 -55.5682 -55.5665 -55.5652 -55.5567 -55.5162 -55.4929 -55.4079
   -31.2493 -31.2334 -31.0904 -31.0682 -31.0041 -30.9839 -30.7975 -30.6818
   -29.8194 -29.7781 -29.7535 -29.6447 -14.9518 -14.9068 -14.8374 -14.7229
   -14.6920 -14.5725 -14.4828 -14.3526 -14.0463 -13.9939 -13.9670 -13.9455
   -13.9298 -13.9260 -13.9158 -13.8793 -13.8649 -13.8304 -13.7928 -13.7689
   -13.7277 -13.6390 -13.5902 -13.5464 -13.5115 -13.4442 -13.4283 -13.3153
   -13.2891 -13.1802 -13.1157 -13.0955 -13.0136 -12.9888 -12.9700 -12.9556
   -12.9315 -12.9149 -12.8848 -12.8054 -12.7870 -12.7527 -12.7201 -12.6838
   -12.6379 -12.6264 -12.5964 -12.4949 -12.3572 -12.2942 -12.2271 -12.1454
   -12.1067 -11.7482 -11.7362 -11.7252 -11.6982 -11.6666 -11.6383 -11.5969
   -11.5693 -11.5471 -11.5019 -11.4763 -11.4649  -2.4235  -2.3565  -2.2284
    -2.1513  -2.0226  -1.9368  -1.8149  -1.6645  -1.6115  -1.5886  -1.5256
    -1.5127  -1.4155  -1.3482  -1.2633  -1.2140  -1.2046  -1.1414  -1.0994
    -1.0645  -1.0400  -1.0168  -0.9797  -0.9448  -0.9042  -0.8932  -0.8477
    -0.8177  -0.7775  -0.7456  -0.6794  -0.5796  -0.5344  -0.4595  -0.3946
    -0.3464  -0.3009  -0.2797  -0.2289  -0.0657  -0.0461   0.0406   0.0869
     0.0953   0.1345   0.1694   0.2213   0.2485   0.3024   0.5730   0.6705
     0.7562   0.8409   1.0589   1.0897   1.1735   1.2002   1.3639   1.3962
     1.4403   1.4623   1.4805   1.4987   1.5600   1.6044   1.6417   1.7232
     1.8150   1.8598   1.8747   1.8877   1.9241   1.9383   1.9449   1.9952
     1.9989   2.0284   2.0481   2.0752   2.0882   2.1294   2.1849   2.2181
     2.2961   2.4398   2.4892   2.5203   2.5845   2.6016   2.6199   2.6454
     2.6725   2.6999   2.7190   2.7346   2.7614   2.8531   2.9038   2.9221
     2.9238   2.9401   2.9605   2.9740   2.9934   3.0005   3.0328   3.0443
     3.0588   3.0682   3.0762   3.0876   3.6170   3.6211   3.7704   3.8212
     4.1793   4.2145   4.2396   4.3409   4.7836   4.9518   5.0876   5.1551
     5.3342   5.4545   5.6233   5.6454   5.7940   5.8154   6.3290   6.4180
     6.5104   6.5876   7.2302   7.3358   7.5612   7.7217   7.7999   7.8434
     7.9046   8.0625   8.2781   8.4167   8.4472   8.5359   8.5712   8.5768
     8.7029   8.7395   8.7884

     occupation numbers 
     1.0000   1.0000   1.0000   1.0000   1.0000   1.0000   1.0000   1.0000
     1.0000   1.0000   1.0000   1.0000   1.0000   1.0000   1.0000   1.0000
     1.0000   1.0000   1.0000   1.0000   1.0000   1.0000   1.0000   1.0000
     1.0000   1.0000   1.0000   1.0000   1.0000   1.0000   1.0000   1.0000
     1.0000   1.0000   1.0000   1.0000   1.0000   1.0000   1.0000   1.0000
     1.0000   1.0000   1.0000   1.0000   1.0000   1.0000   1.0000   1.0000
     1.0000   1.0000   1.0000   1.0000   1.0000   1.0000   1.0000   1.0000
     1.0000   1.0000   1.0000   1.0000   1.0000   1.0000   1.0000   1.0000
     1.0000   1.0000   1.0000   1.0000   1.0000   1.0000   1.0000   1.0000
     1.0000   1.0000   1.0000   1.0000   1.0000   1.0000   1.0000   1.0000
     1.0000   1.0000   1.0000   1.0000   1.0000   1.0000   1.0000   1.0000
     1.0000   1.0000   1.0000   1.0000   1.0000   1.0000   1.0000   1.0000
     1.0000   1.0000   1.0000   1.0000   1.0000   1.0000   1.0000   1.0000
     1.0000   1.0000   1.0000   1.0000   1.0000   1.0000   1.0000   1.0000
     1.0000   1.0000   1.0000   1.0000   1.0000   1.0000   1.0000   1.0000
     1.0000   1.0000   1.0000   1.0000   1.0000   1.0000   1.0000   1.0000
     1.0000   1.0000   1.0000   1.0000   1.0000   1.0000   1.0000   1.0000
     1.0000   1.0000   1.0000   1.0000   1.0000   1.0000   1.0000   1.0000
     1.0000   1.0000   1.0000   1.0000   1.0000   1.0000   1.0000   1.0000
     1.0000   1.0000   1.0000   1.0000   1.0000   1.0000   1.0000   1.0000
     0.9999   0.9999   0.9997   0.9996   0.9994   0.9993   0.9984   0.9982
     0.9978   0.9975   0.9973   0.9971   0.9961   0.9953   0.9945   0.9923
     0.9889   0.9868   0.9860   0.9853   0.9831   0.9822   0.9818   0.9782
     0.9779   0.9755   0.9738   0.9712   0.9699   0.9655   0.9587   0.9542
     0.9419   0.9127   0.9005   0.8922   0.8734   0.8681   0.8622   0.8537
     0.8443   0.8343   0.8272   0.8212   0.8106   0.7716   0.7482   0.7394
     0.7386   0.7306   0.7206   0.7138   0.7039   0.7003   0.6834   0.6773
     0.6695   0.6644   0.6601   0.6539   0.3481   0.3459   0.2683   0.2440
     0.1102   0.1007   0.0943   0.0714   0.0169   0.0088   0.0050   0.0037
     0.0016   0.0009   0.0004   0.0003   0.0001   0.0001   0.0000   0.0000
     0.0000   0.0000   0.0000   0.0000   0.0000   0.0000   0.0000   0.0000
     0.0000   0.0000   0.0000   0.0000   0.0000   0.0000   0.0000   0.0000
     0.0000   0.0000   0.0000

          k =-0.5000-0.5000 0.0000 ( 65132 PWs)   bands (ev):

   -92.6741 -92.6191 -92.5271 -92.4809 -92.4224 -92.3799 -92.3625 -92.2411
   -56.0276 -56.0055 -55.8846 -55.8745 -55.8658 -55.8614 -55.8238 -55.7965
   -55.7810 -55.7794 -55.7700 -55.7297 -55.7132 -55.6733 -55.6534 -55.6226
   -55.6157 -55.5682 -55.5665 -55.5652 -55.5567 -55.5162 -55.4929 -55.4079
   -31.2472 -31.2355 -31.0901 -31.0681 -31.0045 -30.9838 -30.7976 -30.6819
   -29.8184 -29.7791 -29.7531 -29.6451 -14.9049 -14.8797 -14.7624 -14.7498
   -14.6553 -14.6193 -14.5869 -14.4525 -13.9571 -13.9459 -13.9262 -13.9106
   -13.8929 -13.8729 -13.8626 -13.8328 -13.8222 -13.8081 -13.8004 -13.7848
   -13.7068 -13.6983 -13.6710 -13.6368 -13.6360 -13.5326 -13.4959 -13.3482
   -13.3369 -13.1307 -13.0930 -13.0239 -12.9990 -12.9742 -12.9672 -12.9575
   -12.9480 -12.9304 -12.9121 -12.7976 -12.7800 -12.7524 -12.7463 -12.6925
   -12.6451 -12.5778 -12.5704 -12.5112 -12.3379 -12.2906 -12.1988 -12.1421
   -12.1063 -11.7446 -11.7326 -11.7146 -11.6978 -11.6630 -11.6447 -11.6108
   -11.5495 -11.5297 -11.5241 -11.4741 -11.4707  -2.1999  -2.1238  -2.1110
    -2.0412  -2.0026  -1.9242  -1.8564  -1.7312  -1.6147  -1.5838  -1.5463
    -1.4878  -1.4162  -1.4020  -1.3310  -1.2884  -1.1717  -1.1426  -1.0957
    -1.0650  -1.0401  -1.0007  -0.9547  -0.9354  -0.9210  -0.8709  -0.8256
    -0.8116  -0.6974  -0.6395  -0.5929  -0.5435  -0.5175  -0.5075  -0.4699
    -0.4241  -0.3936  -0.3790  -0.2943  -0.2277  -0.1831  -0.1550  -0.0839
    -0.0288   0.0068   0.0479   0.0611   0.0853   0.1010   0.5415   0.5934
     0.6946   0.7850   1.0940   1.1050   1.1390   1.1787   1.4480   1.4676
     1.4744   1.5122   1.6435   1.7396   1.7665   1.8028   1.8233   1.8496
     1.8581   1.8863   1.8995   1.9210   1.9282   1.9733   1.9768   2.0053
     2.0386   2.0525   2.0642   2.1011   2.1224   2.1421   2.1695   2.1913
     2.2591   2.3264   2.4903   2.5121   2.6000   2.6272   2.6482   2.6652
     2.6822   2.7058   2.7097   2.7314   2.7421   2.7578   2.7783   2.7898
     2.8543   2.8580   2.8786   2.8942   2.9043   2.9238   2.9287   2.9377
     3.0409   3.0466   3.0725   3.0824   4.0319   4.0579   4.1029   4.1509
     4.3465   4.4192   4.4459   4.6869   4.8087   4.8914   5.0197   5.1081
     5.1166   5.2321   5.3356   5.4101   5.8749   5.9043   5.9749   6.0466
     6.4891   6.8712   6.9249   7.0812   7.8912   7.9170   7.9236   7.9733
     8.0013   8.0446   8.1111   8.2907   8.4393   8.6094   8.6353   8.6389
     8.6829   8.7510   8.7692

     occupation numbers 
     1.0000   1.0000   1.0000   1.0000   1.0000   1.0000   1.0000   1.0000
     1.0000   1.0000   1.0000   1.0000   1.0000   1.0000   1.0000   1.0000
     1.0000   1.0000   1.0000   1.0000   1.0000   1.0000   1.0000   1.0000
     1.0000   1.0000   1.0000   1.0000   1.0000   1.0000   1.0000   1.0000
     1.0000   1.0000   1.0000   1.0000   1.0000   1.0000   1.0000   1.0000
     1.0000   1.0000   1.0000   1.0000   1.0000   1.0000   1.0000   1.0000
     1.0000   1.0000   1.0000   1.0000   1.0000   1.0000   1.0000   1.0000
     1.0000   1.0000   1.0000   1.0000   1.0000   1.0000   1.0000   1.0000
     1.0000   1.0000   1.0000   1.0000   1.0000   1.0000   1.0000   1.0000
     1.0000   1.0000   1.0000   1.0000   1.0000   1.0000   1.0000   1.0000
     1.0000   1.0000   1.0000   1.0000   1.0000   1.0000   1.0000   1.0000
     1.0000   1.0000   1.0000   1.0000   1.0000   1.0000   1.0000   1.0000
     1.0000   1.0000   1.0000   1.0000   1.0000   1.0000   1.0000   1.0000
     1.0000   1.0000   1.0000   1.0000   1.0000   1.0000   1.0000   1.0000
     1.0000   1.0000   1.0000   1.0000   1.0000   1.0000   1.0000   1.0000
     1.0000   1.0000   1.0000   1.0000   1.0000   1.0000   1.0000   1.0000
     1.0000   1.0000   1.0000   1.0000   1.0000   1.0000   1.0000   1.0000
     1.0000   1.0000   1.0000   1.0000   1.0000   1.0000   1.0000   1.0000
     1.0000   1.0000   1.0000   1.0000   1.0000   1.0000   1.0000   1.0000
     1.0000   1.0000   1.0000   1.0000   1.0000   1.0000   1.0000   1.0000
     1.0000   0.9999   0.9996   0.9996   0.9995   0.9994   0.9977   0.9975
     0.9974   0.9969   0.9945   0.9917   0.9908   0.9894   0.9885   0.9873
     0.9868   0.9854   0.9846   0.9833   0.9829   0.9798   0.9796   0.9774
     0.9746   0.9734   0.9723   0.9686   0.9663   0.9641   0.9607   0.9579
     0.9480   0.9365   0.9002   0.8944   0.8686   0.8598   0.8527   0.8468
     0.8408   0.8321   0.8307   0.8224   0.8183   0.8120   0.8037   0.7990
     0.7710   0.7693   0.7599   0.7527   0.7479   0.7386   0.7362   0.7318
     0.6790   0.6760   0.6621   0.6567   0.1571   0.1480   0.1331   0.1184
     0.0703   0.0569   0.0525   0.0239   0.0154   0.0112   0.0067   0.0046
     0.0044   0.0026   0.0016   0.0011   0.0001   0.0001   0.0000   0.0000
     0.0000   0.0000   0.0000   0.0000   0.0000   0.0000   0.0000   0.0000
     0.0000   0.0000   0.0000   0.0000   0.0000   0.0000   0.0000   0.0000
     0.0000   0.0000   0.0000

          k = 0.2500 0.0000 0.0000 ( 65257 PWs)   bands (ev):

   -92.6741 -92.6191 -92.5271 -92.4809 -92.4224 -92.3799 -92.3625 -92.2411
   -56.0276 -56.0055 -55.8846 -55.8745 -55.8658 -55.8614 -55.8238 -55.7965
   -55.7810 -55.7794 -55.7700 -55.7297 -55.7132 -55.6733 -55.6534 -55.6226
   -55.6157 -55.5682 -55.5665 -55.5652 -55.5567 -55.5162 -55.4929 -55.4079
   -31.2497 -31.2336 -31.0900 -31.0689 -31.0038 -30.9832 -30.7980 -30.6812
   -29.8206 -29.7788 -29.7523 -29.6440 -15.0211 -14.9796 -14.9105 -14.7633
   -14.6585 -14.4621 -14.3295 -14.1507 -14.1321 -14.1027 -14.0724 -14.0472
   -14.0119 -13.9973 -13.9764 -13.9374 -13.9231 -13.8141 -13.7829 -13.6327
   -13.5660 -13.5571 -13.4972 -13.4656 -13.4537 -13.3947 -13.3184 -13.2864
   -13.1817 -13.1365 -13.1309 -13.0627 -13.0338 -13.0173 -13.0004 -12.9850
   -12.9488 -12.9172 -12.9033 -12.8695 -12.8559 -12.7933 -12.7458 -12.7362
   -12.6337 -12.6176 -12.6073 -12.5558 -12.5018 -12.3794 -12.2225 -12.0346
   -11.9927 -11.7997 -11.7478 -11.7305 -11.7170 -11.6903 -11.6398 -11.6165
   -11.6085 -11.5582 -11.4685 -11.4128 -11.4068  -2.7789  -2.5569  -2.4271
    -2.2544  -2.1908  -2.0205  -1.8136  -1.7361  -1.6919  -1.6577  -1.5569
    -1.5425  -1.5076  -1.4885  -1.4195  -1.2387  -1.1315  -1.0909  -1.0422
    -0.9935  -0.9821  -0.9023  -0.8758  -0.8254  -0.7835  -0.7319  -0.7044
    -0.6543  -0.6263  -0.6069  -0.5523  -0.5354  -0.4462  -0.4384  -0.3767
    -0.2817  -0.2303  -0.0992  -0.0892  -0.0342   0.0340   0.0757   0.1019
     0.1430   0.2048   0.2408   0.5205   0.6579   0.6879   0.7746   0.8174
     0.8400   0.8793   0.9355   1.0463   1.0931   1.1175   1.1578   1.3022
     1.3378   1.3705   1.3766   1.4197   1.4642   1.5060   1.5421   1.5928
     1.6439   1.6617   1.7121   1.7595   1.8022   1.8224   1.9087   1.9225
     1.9465   1.9926   2.0094   2.1396   2.1888   2.2532   2.3271   2.3392
     2.4234   2.4592   2.5056   2.5205   2.5375   2.5659   2.5776   2.5934
     2.6456   2.7686   2.8864   2.9080   2.9407   2.9638   2.9724   2.9923
     3.0031   3.0172   3.0379   3.0440   3.0688   3.0809   3.0869   3.1002
     3.1210   3.1454   3.1497   3.1575   3.1640   3.1742   3.1836   3.3152
     3.6129   3.6509   3.9087   4.3018   4.5079   4.7174   5.0380   5.0910
     5.6575   5.8082   5.9041   6.0370   6.0936   6.1191   6.2097   6.6041
     6.8114   7.0825   7.1346   7.3543   7.4941   7.5609   7.5752   7.6144
[...]
     0.3504   0.3297   0.2051   0.0797   0.0433   0.0215   0.0062   0.0050
     0.0003   0.0001   0.0001   0.0000   0.0000   0.0000   0.0000   0.0000
     0.0000   0.0000   0.0000   0.0000   0.0000   0.0000   0.0000   0.0000
     0.0000   0.0000   0.0000   0.0000   0.0000   0.0000   0.0000   0.0000
     0.0000   0.0000   0.0000

          k =-0.5000 0.0000 0.0000 ( 65180 PWs)   bands (ev):

   -92.6741 -92.6191 -92.5271 -92.4809 -92.4224 -92.3799 -92.3625 -92.2411
   -56.0276 -56.0055 -55.8846 -55.8745 -55.8658 -55.8614 -55.8238 -55.7965
   -55.7810 -55.7794 -55.7700 -55.7297 -55.7132 -55.6733 -55.6534 -55.6226
   -55.6157 -55.5682 -55.5665 -55.5652 -55.5567 -55.5162 -55.4929 -55.4079
   -31.2476 -31.2358 -31.0896 -31.0688 -31.0042 -30.9831 -30.7981 -30.6813
   -29.8196 -29.7798 -29.7519 -29.6444 -14.9874 -14.9356 -14.8738 -14.7672
   -14.6609 -14.5185 -14.3699 -14.2344 -14.1053 -14.0965 -14.0812 -14.0176
   -13.9649 -13.9329 -13.9244 -13.8827 -13.8784 -13.8622 -13.8118 -13.7976
   -13.6848 -13.5274 -13.5069 -13.4682 -13.4605 -13.3954 -13.3377 -13.2709
   -13.2415 -13.2179 -13.1948 -13.0534 -13.0279 -13.0156 -12.9922 -12.9831
   -12.9456 -12.9196 -12.8999 -12.8703 -12.8575 -12.7298 -12.6308 -12.6136
   -12.6044 -12.6030 -12.5993 -12.5144 -12.4333 -12.3127 -12.3005 -12.1280
   -12.0927 -11.7519 -11.7304 -11.7235 -11.7084 -11.6905 -11.6490 -11.5867
   -11.5693 -11.5367 -11.4909 -11.4817 -11.4661  -2.5546  -2.5162  -2.3522
    -2.3132  -1.9997  -1.9259  -1.7757  -1.6589  -1.6200  -1.5754  -1.5263
    -1.5013  -1.3781  -1.3336  -1.3187  -1.2361  -1.2009  -1.1856  -1.1539
    -1.0982  -1.0407  -1.0265  -0.9984  -0.9688  -0.8736  -0.8271  -0.7780
    -0.7449  -0.7235  -0.6954  -0.6457  -0.6216  -0.5809  -0.4889  -0.4077
    -0.3517  -0.2874  -0.1012  -0.0790  -0.0279  -0.0002   0.0798   0.0875
     0.2289   0.2555   0.2954   0.4684   0.5668   0.6152   0.6933   0.8042
     0.8911   0.9164   1.0395   1.0581   1.1113   1.1351   1.1779   1.1922
     1.2336   1.2597   1.3258   1.3749   1.4232   1.4279   1.7358   1.7405
     1.7554   1.7851   1.8856   1.8959   1.9167   1.9297   1.9495   1.9600
     2.0090   2.0260   2.0618   2.1050   2.1201   2.1694   2.2076   2.2473
     2.3544   2.4454   2.5010   2.5235   2.5406   2.5538   2.6337   2.6539
     2.6838   2.7496   2.7572   2.7656   2.7944   2.8646   2.9110   2.9514
     2.9870   3.0270   3.0313   3.0323   3.0447   3.0587   3.0703   3.0851
     3.0885   3.1125   3.1144   3.1370   3.1565   3.1617   3.2923   3.3005
     4.0945   4.1493   4.2162   4.3888   4.8182   4.8905   5.0613   5.0812
     5.5063   5.5314   5.6176   5.6783   6.0425   6.0627   6.2301   6.4774
     6.8180   7.0228   7.2906   7.3208   7.3490   7.4411   7.6385   7.8016
     7.9114   7.9677   8.1666   8.2607   8.3346   8.5032   8.5496   8.6569
     8.7812   8.8202   8.9065

     occupation numbers 
     1.0000   1.0000   1.0000   1.0000   1.0000   1.0000   1.0000   1.0000
     1.0000   1.0000   1.0000   1.0000   1.0000   1.0000   1.0000   1.0000
     1.0000   1.0000   1.0000   1.0000   1.0000   1.0000   1.0000   1.0000
     1.0000   1.0000   1.0000   1.0000   1.0000   1.0000   1.0000   1.0000
     1.0000   1.0000   1.0000   1.0000   1.0000   1.0000   1.0000   1.0000
     1.0000   1.0000   1.0000   1.0000   1.0000   1.0000   1.0000   1.0000
     1.0000   1.0000   1.0000   1.0000   1.0000   1.0000   1.0000   1.0000
     1.0000   1.0000   1.0000   1.0000   1.0000   1.0000   1.0000   1.0000
     1.0000   1.0000   1.0000   1.0000   1.0000   1.0000   1.0000   1.0000
     1.0000   1.0000   1.0000   1.0000   1.0000   1.0000   1.0000   1.0000
     1.0000   1.0000   1.0000   1.0000   1.0000   1.0000   1.0000   1.0000
     1.0000   1.0000   1.0000   1.0000   1.0000   1.0000   1.0000   1.0000
     1.0000   1.0000   1.0000   1.0000   1.0000   1.0000   1.0000   1.0000
     1.0000   1.0000   1.0000   1.0000   1.0000   1.0000   1.0000   1.0000
     1.0000   1.0000   1.0000   1.0000   1.0000   1.0000   1.0000   1.0000
     1.0000   1.0000   1.0000   1.0000   1.0000   1.0000   1.0000   1.0000
     1.0000   1.0000   1.0000   1.0000   1.0000   1.0000   1.0000   1.0000
     1.0000   1.0000   1.0000   1.0000   1.0000   1.0000   1.0000   1.0000
     1.0000   1.0000   1.0000   1.0000   1.0000   1.0000   1.0000   1.0000
     1.0000   1.0000   1.0000   1.0000   1.0000   1.0000   1.0000   0.9999
     0.9999   0.9999   0.9997   0.9997   0.9996   0.9995   0.9994   0.9993
     0.9992   0.9991   0.9987   0.9984   0.9979   0.9979   0.9919   0.9917
     0.9912   0.9901   0.9854   0.9848   0.9836   0.9828   0.9815   0.9808
     0.9771   0.9757   0.9725   0.9682   0.9665   0.9607   0.9557   0.9499
     0.9312   0.9114   0.8974   0.8913   0.8865   0.8827   0.8576   0.8508
     0.8402   0.8153   0.8123   0.8089   0.7970   0.7664   0.7447   0.7251
     0.7072   0.6864   0.6842   0.6836   0.6771   0.6696   0.6633   0.6552
     0.6534   0.6401   0.6390   0.6264   0.6154   0.6125   0.5365   0.5317
     0.1358   0.1188   0.1003   0.0622   0.0149   0.0113   0.0056   0.0052
     0.0007   0.0006   0.0004   0.0003   0.0000   0.0000   0.0000   0.0000
     0.0000   0.0000   0.0000   0.0000   0.0000   0.0000   0.0000   0.0000
     0.0000   0.0000   0.0000   0.0000   0.0000   0.0000   0.0000   0.0000
     0.0000   0.0000   0.0000

          k =-0.2500 0.2500 0.0000 ( 65198 PWs)   bands (ev):

   -92.6741 -92.6191 -92.5271 -92.4809 -92.4224 -92.3799 -92.3625 -92.2411
   -56.0276 -56.0055 -55.8846 -55.8745 -55.8658 -55.8614 -55.8238 -55.7965
   -55.7810 -55.7794 -55.7700 -55.7297 -55.7132 -55.6733 -55.6534 -55.6226
   -55.6157 -55.5682 -55.5665 -55.5652 -55.5567 -55.5162 -55.4929 -55.4079
   -31.2495 -31.2335 -31.0902 -31.0685 -31.0039 -30.9836 -30.7977 -30.6815
   -29.8200 -29.7784 -29.7529 -29.6444 -14.9901 -14.9481 -14.8754 -14.7586
   -14.6476 -14.5204 -14.4356 -14.2291 -14.0888 -14.0589 -14.0466 -13.9983
   -13.9743 -13.9551 -13.9408 -13.9223 -13.8960 -13.8097 -13.7979 -13.6457
   -13.6192 -13.5911 -13.5698 -13.5320 -13.4701 -13.4109 -13.4075 -13.2582
   -13.2427 -13.1967 -13.1199 -13.0779 -13.0167 -13.0091 -12.9829 -12.9622
   -12.9294 -12.9006 -12.8984 -12.8604 -12.8033 -12.7596 -12.7435 -12.6917
   -12.6662 -12.6446 -12.6244 -12.4430 -12.4155 -12.3834 -12.2564 -12.0689
   -12.0375 -11.7718 -11.7503 -11.7230 -11.7110 -11.6700 -11.6354 -11.6121
   -11.5909 -11.5681 -11.4834 -11.4380 -11.4286  -2.6395  -2.4309  -2.3103
    -2.2217  -2.1034  -2.0367  -1.8348  -1.6885  -1.6702  -1.6420  -1.5496
    -1.5138  -1.4203  -1.3867  -1.3604  -1.2178  -1.1623  -1.0950  -1.0691
    -1.0360  -1.0057  -0.9833  -0.9436  -0.9147  -0.8746  -0.8118  -0.7632
    -0.7032  -0.6324  -0.6031  -0.5543  -0.5252  -0.4797  -0.4259  -0.3832
    -0.3386  -0.2417  -0.2056  -0.1914  -0.1515  -0.0832  -0.0026   0.0424
     0.0685   0.1468   0.1748   0.4185   0.5837   0.6275   0.6683   0.7278
     0.7914   0.8636   0.9053   0.9275   1.2070   1.3175   1.3585   1.3891
     1.3956   1.4396   1.4568   1.5007   1.5314   1.5460   1.5715   1.6156
     1.6322   1.6747   1.6896   1.7355   1.8301   1.8482   1.8631   1.9142
     1.9299   1.9705   2.0392   2.1438   2.2328   2.2605   2.3059   2.3265
     2.3948   2.4336   2.4586   2.4768   2.5033   2.5156   2.5367   2.6121
     2.6421   2.7317   2.9101   2.9187   2.9323   2.9427   2.9534   2.9671
     2.9732   2.9910   2.9995   3.0148   3.0240   3.0368   3.0461   3.0526
     3.0861   3.0967   3.1051   3.1392   3.4316   3.5141   3.5773   3.6608
     3.6821   3.8645   3.9901   4.3327   4.5558   4.7444   5.0169   5.1825
     5.6717   5.7180   5.7776   5.8617   5.9225   6.0499   6.1914   6.2180
     6.8896   6.9237   7.1010   7.2274   7.5875   7.6289   7.6901   7.8584
     7.9160   7.9985   8.1873   8.2068   8.3218   8.3580   8.4048   8.4735
     8.5767   8.7518   8.8850

     occupation numbers 
     1.0000   1.0000   1.0000   1.0000   1.0000   1.0000   1.0000   1.0000
     1.0000   1.0000   1.0000   1.0000   1.0000   1.0000   1.0000   1.0000
     1.0000   1.0000   1.0000   1.0000   1.0000   1.0000   1.0000   1.0000
     1.0000   1.0000   1.0000   1.0000   1.0000   1.0000   1.0000   1.0000
     1.0000   1.0000   1.0000   1.0000   1.0000   1.0000   1.0000   1.0000
     1.0000   1.0000   1.0000   1.0000   1.0000   1.0000   1.0000   1.0000
     1.0000   1.0000   1.0000   1.0000   1.0000   1.0000   1.0000   1.0000
     1.0000   1.0000   1.0000   1.0000   1.0000   1.0000   1.0000   1.0000
     1.0000   1.0000   1.0000   1.0000   1.0000   1.0000   1.0000   1.0000
     1.0000   1.0000   1.0000   1.0000   1.0000   1.0000   1.0000   1.0000
     1.0000   1.0000   1.0000   1.0000   1.0000   1.0000   1.0000   1.0000
     1.0000   1.0000   1.0000   1.0000   1.0000   1.0000   1.0000   1.0000
     1.0000   1.0000   1.0000   1.0000   1.0000   1.0000   1.0000   1.0000
     1.0000   1.0000   1.0000   1.0000   1.0000   1.0000   1.0000   1.0000
     1.0000   1.0000   1.0000   1.0000   1.0000   1.0000   1.0000   1.0000
     1.0000   1.0000   1.0000   1.0000   1.0000   1.0000   1.0000   1.0000
     1.0000   1.0000   1.0000   1.0000   1.0000   1.0000   1.0000   1.0000
     1.0000   1.0000   1.0000   1.0000   1.0000   1.0000   1.0000   1.0000
     1.0000   1.0000   1.0000   1.0000   1.0000   1.0000   1.0000   1.0000
     1.0000   1.0000   1.0000   1.0000   1.0000   1.0000   1.0000   1.0000
     0.9999   0.9999   0.9999   0.9998   0.9993   0.9988   0.9985   0.9982
     0.9982   0.9978   0.9976   0.9970   0.9966   0.9964   0.9959   0.9951
     0.9947   0.9937   0.9933   0.9919   0.9882   0.9873   0.9866   0.9837
     0.9828   0.9800   0.9746   0.9638   0.9520   0.9478   0.9402   0.9365
     0.9228   0.9142   0.9082   0.9037   0.8968   0.8935   0.8876   0.8647
     0.8548   0.8223   0.7451   0.7410   0.7345   0.7294   0.7241   0.7173
     0.7142   0.7051   0.7008   0.6928   0.6880   0.6813   0.6763   0.6728
     0.6547   0.6488   0.6442   0.6252   0.4542   0.4061   0.3702   0.3244
     0.3131   0.2243   0.1725   0.0731   0.0372   0.0195   0.0068   0.0033
     0.0003   0.0002   0.0002   0.0001   0.0001   0.0000   0.0000   0.0000
     0.0000   0.0000   0.0000   0.0000   0.0000   0.0000   0.0000   0.0000
     0.0000   0.0000   0.0000   0.0000   0.0000   0.0000   0.0000   0.0000
     0.0000   0.0000   0.0000

          k =-0.5000 0.2500 0.0000 ( 65138 PWs)   bands (ev):

   -92.6741 -92.6191 -92.5271 -92.4809 -92.4224 -92.3799 -92.3625 -92.2411
   -56.0276 -56.0055 -55.8846 -55.8745 -55.8658 -55.8614 -55.8238 -55.7965
   -55.7810 -55.7794 -55.7700 -55.7297 -55.7132 -55.6733 -55.6534 -55.6226
   -55.6157 -55.5682 -55.5665 -55.5652 -55.5567 -55.5162 -55.4929 -55.4079
   -31.2474 -31.2356 -31.0899 -31.0684 -31.0043 -30.9835 -30.7979 -30.6816
   -29.8190 -29.7795 -29.7525 -29.6448 -14.9545 -14.9094 -14.8307 -14.7328
   -14.6907 -14.5650 -14.4749 -14.3491 -14.0394 -14.0085 -13.9967 -13.9508
   -13.9302 -13.9261 -13.9041 -13.8695 -13.8642 -13.8400 -13.8018 -13.7907
   -13.6790 -13.6102 -13.5648 -13.5605 -13.5480 -13.4478 -13.4410 -13.3095
   -13.2705 -13.1734 -13.1380 -13.0428 -13.0110 -12.9981 -12.9891 -12.9629
   -12.9312 -12.9142 -12.9006 -12.8751 -12.8096 -12.7397 -12.6763 -12.6512
   -12.6273 -12.5951 -12.5870 -12.5125 -12.3788 -12.2960 -12.2572 -12.1277
   -12.1012 -11.7446 -11.7317 -11.7176 -11.7058 -11.6842 -11.6539 -11.5738
   -11.5650 -11.5420 -11.5054 -11.4775 -11.4687  -2.4124  -2.3705  -2.2219
    -2.1797  -2.0187  -1.9445  -1.8001  -1.6652  -1.6091  -1.5820  -1.5424
    -1.5037  -1.4231  -1.3079  -1.2509  -1.2278  -1.2028  -1.1266  -1.0985
    -1.0626  -1.0420  -1.0328  -0.9796  -0.9515  -0.9121  -0.8767  -0.8477
    -0.7904  -0.7632  -0.7212  -0.6868  -0.5839  -0.5542  -0.4712  -0.4031
    -0.3742  -0.3213  -0.2316  -0.1941  -0.0995  -0.0486  -0.0005   0.0575
     0.0827   0.1498   0.1742   0.2059   0.2588   0.2993   0.6045   0.6741
     0.7416   0.8215   1.0480   1.0962   1.1740   1.2001   1.3760   1.4140
     1.4512   1.4630   1.4818   1.4992   1.5691   1.6105   1.6550   1.6778
     1.8155   1.8404   1.8705   1.8821   1.9353   1.9491   1.9627   1.9773
     2.0011   2.0217   2.0734   2.0825   2.1146   2.1379   2.1828   2.2269
     2.3452   2.4355   2.4752   2.5093   2.5142   2.5565   2.5807   2.6502
     2.6800   2.6862   2.7235   2.7564   2.7796   2.8642   2.9064   2.9190
     2.9240   2.9453   2.9682   2.9808   2.9961   3.0083   3.0302   3.0422
     3.0527   3.0599   3.0707   3.0817   3.6085   3.6699   3.8012   3.8274
     4.1014   4.1772   4.2273   4.4573   4.8129   4.9083   5.0624   5.1075
     5.4286   5.4576   5.6092   5.6412   5.7760   5.8044   6.3106   6.4125
     6.5163   6.6129   7.2113   7.3551   7.5650   7.7309   7.8002   7.8266
     7.9166   8.0490   8.2486   8.4246   8.4395   8.5314   8.5732   8.5925
     8.6781   8.7415   8.7915

     occupation numbers 
     1.0000   1.0000   1.0000   1.0000   1.0000   1.0000   1.0000   1.0000
     1.0000   1.0000   1.0000   1.0000   1.0000   1.0000   1.0000   1.0000
     1.0000   1.0000   1.0000   1.0000   1.0000   1.0000   1.0000   1.0000
     1.0000   1.0000   1.0000   1.0000   1.0000   1.0000   1.0000   1.0000
     1.0000   1.0000   1.0000   1.0000   1.0000   1.0000   1.0000   1.0000
     1.0000   1.0000   1.0000   1.0000   1.0000   1.0000   1.0000   1.0000
     1.0000   1.0000   1.0000   1.0000   1.0000   1.0000   1.0000   1.0000
     1.0000   1.0000   1.0000   1.0000   1.0000   1.0000   1.0000   1.0000
     1.0000   1.0000   1.0000   1.0000   1.0000   1.0000   1.0000   1.0000
     1.0000   1.0000   1.0000   1.0000   1.0000   1.0000   1.0000   1.0000
     1.0000   1.0000   1.0000   1.0000   1.0000   1.0000   1.0000   1.0000
     1.0000   1.0000   1.0000   1.0000   1.0000   1.0000   1.0000   1.0000
     1.0000   1.0000   1.0000   1.0000   1.0000   1.0000   1.0000   1.0000
     1.0000   1.0000   1.0000   1.0000   1.0000   1.0000   1.0000   1.0000
     1.0000   1.0000   1.0000   1.0000   1.0000   1.0000   1.0000   1.0000
     1.0000   1.0000   1.0000   1.0000   1.0000   1.0000   1.0000   1.0000
     1.0000   1.0000   1.0000   1.0000   1.0000   1.0000   1.0000   1.0000
     1.0000   1.0000   1.0000   1.0000   1.0000   1.0000   1.0000   1.0000
     1.0000   1.0000   1.0000   1.0000   1.0000   1.0000   1.0000   1.0000
     1.0000   1.0000   1.0000   1.0000   1.0000   1.0000   1.0000   1.0000
     0.9999   0.9999   0.9997   0.9996   0.9994   0.9993   0.9983   0.9980
     0.9976   0.9975   0.9973   0.9971   0.9960   0.9952   0.9942   0.9936
     0.9888   0.9877   0.9862   0.9856   0.9824   0.9815   0.9806   0.9795
     0.9777   0.9761   0.9714   0.9705   0.9672   0.9645   0.9590   0.9529
     0.9329   0.9137   0.9041   0.8952   0.8938   0.8819   0.8746   0.8520
     0.8416   0.8393   0.8255   0.8126   0.8032   0.7665   0.7469   0.7409
     0.7385   0.7281   0.7167   0.7103   0.7025   0.6962   0.6848   0.6784
     0.6728   0.6689   0.6631   0.6571   0.3528   0.3196   0.2534   0.2411
     0.1336   0.1108   0.0974   0.0507   0.0151   0.0105   0.0056   0.0046
     0.0010   0.0009   0.0004   0.0003   0.0002   0.0001   0.0000   0.0000
     0.0000   0.0000   0.0000   0.0000   0.0000   0.0000   0.0000   0.0000
     0.0000   0.0000   0.0000   0.0000   0.0000   0.0000   0.0000   0.0000
     0.0000   0.0000   0.0000

     the Fermi energy is     3.3541 ev

!    total energy              =   -4441.64743428 Ry
     estimated scf accuracy    <          8.8E-09 Ry
     smearing contrib. (-TS)   =      -1.15502417 Ry
     internal energy E=F+TS    =   -4440.49241011 Ry

     The total energy is F=E-TS. E is the sum of the following terms:
     one-electron contribution =  -20805.39990193 Ry
     hartree contribution      =   10535.07694238 Ry
     xc contribution           =    -694.17892585 Ry
     ewald contribution        =    6800.18123407 Ry
     one-center paw contrib.   =    -276.17175877 Ry
      -> PAW hartree energy AE =      25.16510796 Ry
      -> PAW hartree energy PS =     -25.04898216 Ry
      -> PAW xc energy AE      =     -16.51781649 Ry
      -> PAW xc energy PS      =       6.87729143 Ry
      -> total E_H with PAW    =   10535.19306818 Ry
      -> total E_XC with PAW   =    -703.81945091 Ry

     convergence has been achieved in  45 iterations

     Writing all to output data dir /bsuhome/zayahcortright/scratch/pwscf.save/
 
     init_run     :      8.09s CPU      8.64s WALL (       1 calls)
     electrons    :    758.13s CPU    839.37s WALL (       1 calls)

     Called by init_run:
     wfcinit      :      6.19s CPU      6.38s WALL (       1 calls)
     wfcinit:atom :      0.04s CPU      0.06s WALL (       5 calls)
     wfcinit:wfcr :      5.88s CPU      5.99s WALL (       5 calls)
     potinit      :      0.19s CPU      0.22s WALL (       1 calls)
     hinit0       :      0.68s CPU      0.79s WALL (       1 calls)

     Called by electrons:
     c_bands      :    613.82s CPU    625.74s WALL (      45 calls)
     sum_band     :    106.34s CPU    145.47s WALL (      45 calls)
     v_of_rho     :      5.30s CPU      5.75s WALL (      46 calls)
     v_h          :      0.44s CPU      0.44s WALL (      46 calls)
     v_xc         :      4.86s CPU      5.31s WALL (      46 calls)
     newd         :     18.06s CPU     47.27s WALL (      46 calls)
     PAW_pot      :      1.53s CPU      1.56s WALL (      46 calls)
     mix_rho      :     12.82s CPU     13.32s WALL (      45 calls)

     Called by c_bands:
     init_us_2    :      5.97s CPU      6.03s WALL (     455 calls)
     init_us_2:cp :      5.96s CPU      6.03s WALL (     455 calls)
     cegterg      :    579.53s CPU    591.15s WALL (     225 calls)

     Called by sum_band:
     sum_band:wei :      0.33s CPU      0.33s WALL (      45 calls)
     sum_band:loo :     87.97s CPU     88.69s WALL (      45 calls)
     sum_band:buf :      1.20s CPU      1.28s WALL (     225 calls)
     sum_band:ini :      2.62s CPU      2.62s WALL (     225 calls)
     sum_band:cal :     17.93s CPU     18.01s WALL (     225 calls)
     sum_band:bec :      0.51s CPU      0.53s WALL (     225 calls)
     addusdens    :     16.31s CPU     54.65s WALL (      45 calls)
                                        0.00s GPU  (      45 calls)
     addusd:skk   :      0.27s CPU      2.15s WALL (     180 calls)
                                        0.00s GPU  (     180 calls)

     Called by *egterg:
     cdiaghg      :     57.12s CPU     57.39s WALL (    1337 calls)
     cegterg:over :     48.83s CPU     49.03s WALL (    1112 calls)
     cegterg:upda :     50.17s CPU     51.22s WALL (    1112 calls)
     cegterg:last :     67.49s CPU     67.76s WALL (     413 calls)
     cdiaghg:chol :      3.23s CPU      3.25s WALL (    1337 calls)
     cdiaghg:inve :      3.48s CPU      3.49s WALL (    1337 calls)
     cdiaghg:para :      7.20s CPU      7.26s WALL (    2674 calls)
     h_psi        :    292.61s CPU    297.10s WALL (    1342 calls)
     s_psi        :     36.77s CPU     36.91s WALL (    1342 calls)
     g_psi        :      2.48s CPU      2.49s WALL (    1112 calls)

     Called by h_psi:
     h_psi:calbec :     43.40s CPU     43.60s WALL (    1342 calls)
     vloc_psi     :    206.75s CPU    208.68s WALL (    1342 calls)
     add_vuspsi   :     36.34s CPU     36.54s WALL (    1342 calls)

     General routines
     calbec       :     61.32s CPU     61.60s WALL (    1567 calls)
     fft          :      4.16s CPU      4.22s WALL (     596 calls)
     ffts         :      4.33s CPU      4.39s WALL (    4881 calls)
     fftw         :    179.74s CPU    181.13s WALL (  306335 calls)
     interpolate  :      0.41s CPU      0.42s WALL (      46 calls)
 
     Parallel routines

     PAW routines
     PAW_pot      :      1.53s CPU      1.56s WALL (      46 calls)
 
     PWSCF        :  12m48.22s CPU  14m12.93s WALL

 
   This run was terminated on:  21:59:46  21Jun2024            

=------------------------------------------------------------------------------=
   JOB DONE.
=------------------------------------------------------------------------------=
