
     Program PWSCF v.7.2 starts on 21Jun2024 at 19:21:24 

     This program is part of the open-source Quantum ESPRESSO suite
     for quantum simulation of materials; please cite
         "P. Giannozzi et al., J. Phys.:Condens. Matter 21 395502 (2009);
         "P. Giannozzi et al., J. Phys.:Condens. Matter 29 465901 (2017);
         "P. Giannozzi et al., J. Chem. Phys. 152 154105 (2020);
          URL http://www.quantum-espresso.org", 
     in publications or presentations arising from this work. More details at
     http://www.quantum-espresso.org/quote

     Parallel version (MPI & OpenMP), running on      48 processor cores
     Number of MPI processes:                48
     Threads/MPI process:                     1

     MPI processes distributed on     1 nodes
     60573 MiB available memory on the printing compute node when the environment starts
 
     Reading input from espresso.pwi
Warning: card &CELL ignored
Warning: card / ignored
Warning: card &FCP ignored
Warning: card / ignored
Warning: card &RISM ignored
Warning: card / ignored

     Current dimensions of program PWSCF are:
     Max number of different atomic species (ntypx) = 10
     Max number of k-points (npk) =  40000
     Max angular momentum in pseudopotentials (lmaxx) =  4
     file O.pbe-n-kjpaw_psl.0.1.UPF: wavefunction(s)  2P renormalized
     signal trapping enabled: kill the code with -SIGUSR1 to stop cleanly the simulation 
 
     K-points division:     npool     =       2
     R & G space division:  proc/nbgrp/npool/nimage =      24
     Subspace diagonalization in iterative solution of the eigenvalue problem:
     one sub-group per band group will be used
     scalapack distributed-memory algorithm (size of sub-group:  3*  3 procs)

 
     Parallelization info
     --------------------
     sticks:   dense  smooth     PW     G-vecs:    dense   smooth      PW
     Min         350     175     47                61430    21716    3036
     Max         351     177     48                61449    21727    3041
     Sum        8421    4205   1137              1474595   521381   72913
 
     Using Slab Decomposition
 


     bravais-lattice index     =            0
     lattice parameter (alat)  =      14.8599  a.u.
     unit-cell volume          =    8305.1283 (a.u.)^3
     number of atoms/cell      =           49
     number of atomic types    =            3
     number of electrons       =       430.00
     number of Kohn-Sham states=          258
     kinetic-energy cutoff     =      60.0000  Ry
     charge density cutoff     =     480.0000  Ry
     scf convergence threshold =      1.0E-08
     mixing beta               =       0.1500
     number of iterations used =            8  local-TF  mixing
     Exchange-correlation= SLA  PW   PBE  PBE
                           (   1   4   3   4   0   0   0)

     celldm(1)=  14.859904  celldm(2)=   0.000000  celldm(3)=   0.000000
     celldm(4)=   0.000000  celldm(5)=   0.000000  celldm(6)=   0.000000

     crystal axes: (cart. coord. in units of alat)
               a(1) = (   1.000000   0.000000   0.000000 )  
               a(2) = (   0.000000   1.000000   0.000000 )  
               a(3) = (   0.000000   0.000000   2.531036 )  

     reciprocal axes: (cart. coord. in units 2 pi/alat)
               b(1) = (  1.000000  0.000000  0.000000 )  
               b(2) = (  0.000000  1.000000  0.000000 )  
               b(3) = (  0.000000  0.000000  0.395095 )  


     PseudoPot. # 1 for Sr read from file:
     /bsuhome/zayahcortright/q-e/pseudo/Sr_pbe_v1.uspp.F.UPF
     MD5 check sum: 6b418c05fbe9db5448babca5e47b7a5b
     Pseudo is Ultrasoft + core correction, Zval = 10.0
     Generated by new atomic code, or converted to UPF format
     Using radial grid of  883 points,  6 beta functions with: 
                l(1) =   0
                l(2) =   0
                l(3) =   1
                l(4) =   1
                l(5) =   2
                l(6) =   2
     Q(r) pseudized with  6 coefficients,  rinner =    1.400   1.400   1.400
                                                       1.400   1.400

     PseudoPot. # 2 for O  read from file:
     /bsuhome/zayahcortright/q-e/pseudo/O.pbe-n-kjpaw_psl.0.1.UPF
     MD5 check sum: 0234752ac141de4415c5fc33072bef88
     Pseudo is Projector augmented-wave + core cor, Zval =  6.0
     Generated using "atomic" code by A. Dal Corso  v.5.0.99 svn rev. 10869
     Shape of augmentation charge: BESSEL
     Using radial grid of 1095 points,  4 beta functions with: 
                l(1) =   0
                l(2) =   0
                l(3) =   1
                l(4) =   1
     Q(r) pseudized with 0 coefficients 


     PseudoPot. # 3 for Co read from file:
     /bsuhome/zayahcortright/q-e/pseudo/Co_pbe_v1.2.uspp.F.UPF
     MD5 check sum: 5f91765df6ddd3222702df6e7b74a16d
     Pseudo is Ultrasoft + core correction, Zval = 17.0
     Generated by new atomic code, or converted to UPF format
     Using radial grid of  863 points,  6 beta functions with: 
                l(1) =   0
                l(2) =   0
                l(3) =   1
                l(4) =   1
                l(5) =   2
                l(6) =   2
     Q(r) pseudized with  8 coefficients,  rinner =    1.200   1.200   1.200
                                                       1.200   1.200

     atomic species   valence    mass     pseudopotential
        Sr            10.00    87.62000     Sr( 1.00)
        O              6.00    15.99900     O ( 1.00)
        Co            17.00    58.93319     Co( 1.00)

     No symmetry found


                                    s                        frac. trans.

      isym =  1     identity                                     

 cryst.   s( 1) = (     1          0          0      )
                  (     0          1          0      )
                  (     0          0          1      )

 cart.    s( 1) = (  1.0000000  0.0000000  0.0000000 )
                  (  0.0000000  1.0000000  0.0000000 )
                  (  0.0000000  0.0000000  1.0000000 )


   Cartesian axes

     site n.     atom                  positions (alat units)
         1           Sr  tau(   1) = (   0.2508693   0.7491307   1.7574407  )
         2           O   tau(   2) = (   0.4985141   0.5014859   1.7715967  )
         3           Sr  tau(   3) = (   0.7482398   0.7454518   1.7648669  )
         4           Sr  tau(   4) = (   0.7441748   0.2558252   1.7667843  )
         5           Sr  tau(   5) = (   0.2508693   0.7491307   1.2696799  )
         6           Sr  tau(   6) = (   0.2508693   0.7491307   0.7632319  )
         7           Co  tau(   7) = (   0.4998914   0.5001086   1.0164559  )
         8           Co  tau(   8) = (   0.4936915   0.5063085   1.5135603  )
         9           O   tau(   9) = (   0.4988895   0.7610401   1.0164559  )
        10           O   tau(  10) = (   0.2389599   0.5011105   1.0164559  )
        11           O   tau(  11) = (   0.0070918   0.7374880   1.0164559  )
        12           O   tau(  12) = (   0.0088340   0.7405089   1.5135603  )
        13           O   tau(  13) = (   0.5066944   0.7415376   1.5135603  )
        14           O   tau(  14) = (   0.2584624   0.4933056   1.5135603  )
        15           O   tau(  15) = (   0.4985141   0.5014859   0.7773880  )
        16           O   tau(  16) = (   0.4985141   0.5014859   1.2555238  )
        17           Sr  tau(  17) = (   0.7482398   0.7454518   0.7706582  )
        18           Sr  tau(  18) = (   0.7482398   0.7454518   1.2622536  )
        19           Sr  tau(  19) = (   0.7441748   0.2558252   0.7725755  )
        20           Sr  tau(  20) = (   0.7441748   0.2558252   1.2603363  )
        21           O   tau(  21) = (   0.7322655   0.0078049   1.5135603  )
        22           O   tau(  22) = (   0.7558175   0.4996027   1.5135603  )
        23           O   tau(  23) = (   0.5003973   0.2441825   1.5135603  )
        24           O   tau(  24) = (   0.7527966   0.4978604   1.0164559  )
        25           O   tau(  25) = (   0.5021396   0.2472034   1.0164559  )
        26           O   tau(  26) = (   0.7517679   0.0000000   1.0164559  )
        27           O   tau(  27) = (   0.0114961   0.4948124   1.7455321  )
        28           O   tau(  28) = (   0.0048226   0.0077944   1.7715967  )
        29           Sr  tau(  29) = (   0.2545482   0.2517602   1.7648669  )
        30           O   tau(  30) = (   0.5048017   0.0015068   1.7786929  )
        31           Co  tau(  31) = (   0.0056869   0.5006215   1.0164559  )
        32           Co  tau(  32) = (   0.0065315   0.4997770   1.5135603  )
        33           Co  tau(  33) = (   0.0061999   0.0064171   1.0164559  )
        34           Co  tau(  34) = (   0.0000000   0.0126169   1.5135603  )
        35           O   tau(  35) = (   0.0114961   0.4948124   1.2815885  )
        36           O   tau(  36) = (   0.0114961   0.4948124   0.7513233  )
        37           O   tau(  37) = (   0.0051979   0.2673486   1.0164559  )
        38           O   tau(  38) = (   0.0130029   0.2478461   1.5135603  )
        39           O   tau(  39) = (   0.0048226   0.0077944   0.7773880  )
        40           O   tau(  40) = (   0.0048226   0.0077944   1.2555238  )
        41           Sr  tau(  41) = (   0.2545482   0.2517602   0.7706582  )
        42           Sr  tau(  42) = (   0.2545482   0.2517602   1.2622536  )
        43           Co  tau(  43) = (   0.4989925   0.0073160   1.5135603  )
        44           Co  tau(  44) = (   0.4998370   0.0064714   1.0164559  )
        45           O   tau(  45) = (   0.5048017   0.0015068   0.7844841  )
        46           O   tau(  46) = (   0.5048017   0.0015068   1.2484277  )
        47           O   tau(  47) = (   0.2621260   0.0059111   1.5135603  )
        48           O   tau(  48) = (   0.2591051   0.0041689   1.0164559  )
        49           O   tau(  49) = (   0.4264937   0.0000000   2.1602013  )

   Crystallographic axes

     site n.     atom                  positions (cryst. coord.)
         1           Sr  tau(   1) = (  0.2508693  0.7491307  0.6943562  )
         2           O   tau(   2) = (  0.4985141  0.5014859  0.6999492  )
         3           Sr  tau(   3) = (  0.7482398  0.7454518  0.6972903  )
         4           Sr  tau(   4) = (  0.7441748  0.2558252  0.6980478  )
         5           Sr  tau(   5) = (  0.2508693  0.7491307  0.5016443  )
         6           Sr  tau(   6) = (  0.2508693  0.7491307  0.3015492  )
         7           Co  tau(   7) = (  0.4998914  0.5001086  0.4015968  )
         8           Co  tau(   8) = (  0.4936915  0.5063085  0.5980003  )
         9           O   tau(   9) = (  0.4988895  0.7610401  0.4015968  )
        10           O   tau(  10) = (  0.2389599  0.5011105  0.4015968  )
        11           O   tau(  11) = (  0.0070918  0.7374880  0.4015968  )
        12           O   tau(  12) = (  0.0088340  0.7405089  0.5980003  )
        13           O   tau(  13) = (  0.5066944  0.7415376  0.5980003  )
        14           O   tau(  14) = (  0.2584624  0.4933056  0.5980003  )
        15           O   tau(  15) = (  0.4985141  0.5014859  0.3071422  )
        16           O   tau(  16) = (  0.4985141  0.5014859  0.4960513  )
        17           Sr  tau(  17) = (  0.7482398  0.7454518  0.3044833  )
        18           Sr  tau(  18) = (  0.7482398  0.7454518  0.4987103  )
        19           Sr  tau(  19) = (  0.7441748  0.2558252  0.3052408  )
        20           Sr  tau(  20) = (  0.7441748  0.2558252  0.4979527  )
        21           O   tau(  21) = (  0.7322655  0.0078049  0.5980003  )
        22           O   tau(  22) = (  0.7558175  0.4996027  0.5980003  )
        23           O   tau(  23) = (  0.5003973  0.2441825  0.5980003  )
        24           O   tau(  24) = (  0.7527966  0.4978604  0.4015968  )
        25           O   tau(  25) = (  0.5021396  0.2472034  0.4015968  )
        26           O   tau(  26) = (  0.7517679  0.0000000  0.4015968  )
        27           O   tau(  27) = (  0.0114961  0.4948124  0.6896512  )
        28           O   tau(  28) = (  0.0048226  0.0077944  0.6999492  )
        29           Sr  tau(  29) = (  0.2545482  0.2517602  0.6972903  )
        30           O   tau(  30) = (  0.5048017  0.0015068  0.7027529  )
        31           Co  tau(  31) = (  0.0056869  0.5006215  0.4015968  )
        32           Co  tau(  32) = (  0.0065315  0.4997770  0.5980003  )
        33           Co  tau(  33) = (  0.0061999  0.0064171  0.4015968  )
        34           Co  tau(  34) = (  0.0000000  0.0126169  0.5980003  )
        35           O   tau(  35) = (  0.0114961  0.4948124  0.5063494  )
        36           O   tau(  36) = (  0.0114961  0.4948124  0.2968442  )
        37           O   tau(  37) = (  0.0051979  0.2673486  0.4015968  )
        38           O   tau(  38) = (  0.0130029  0.2478461  0.5980003  )
        39           O   tau(  39) = (  0.0048226  0.0077944  0.3071422  )
        40           O   tau(  40) = (  0.0048226  0.0077944  0.4960513  )
        41           Sr  tau(  41) = (  0.2545482  0.2517602  0.3044833  )
        42           Sr  tau(  42) = (  0.2545482  0.2517602  0.4987103  )
        43           Co  tau(  43) = (  0.4989925  0.0073160  0.5980003  )
        44           Co  tau(  44) = (  0.4998370  0.0064714  0.4015968  )
        45           O   tau(  45) = (  0.5048017  0.0015068  0.3099459  )
        46           O   tau(  46) = (  0.5048017  0.0015068  0.4932477  )
        47           O   tau(  47) = (  0.2621260  0.0059111  0.5980003  )
        48           O   tau(  48) = (  0.2591051  0.0041689  0.4015968  )
        49           O   tau(  49) = (  0.4264937  0.0000000  0.8534850  )

     number of k points=    10  Gaussian smearing, width (Ry)=  0.0700
                       cart. coord. in units 2pi/alat
        k(    1) = (   0.0000000   0.0000000   0.0000000), wk =   0.1250000
        k(    2) = (   0.0000000   0.2500000   0.0000000), wk =   0.2500000
        k(    3) = (   0.0000000  -0.5000000   0.0000000), wk =   0.1250000
        k(    4) = (   0.2500000   0.2500000   0.0000000), wk =   0.2500000
        k(    5) = (   0.2500000  -0.5000000   0.0000000), wk =   0.2500000
        k(    6) = (  -0.5000000  -0.5000000   0.0000000), wk =   0.1250000
        k(    7) = (   0.2500000   0.0000000   0.0000000), wk =   0.2500000
        k(    8) = (  -0.5000000   0.0000000   0.0000000), wk =   0.1250000
        k(    9) = (  -0.2500000   0.2500000   0.0000000), wk =   0.2500000
        k(   10) = (  -0.5000000   0.2500000   0.0000000), wk =   0.2500000

                       cryst. coord.
        k(    1) = (   0.0000000   0.0000000   0.0000000), wk =   0.1250000
        k(    2) = (   0.0000000   0.2500000   0.0000000), wk =   0.2500000
        k(    3) = (   0.0000000  -0.5000000   0.0000000), wk =   0.1250000
        k(    4) = (   0.2500000   0.2500000   0.0000000), wk =   0.2500000
        k(    5) = (   0.2500000  -0.5000000   0.0000000), wk =   0.2500000
        k(    6) = (  -0.5000000  -0.5000000   0.0000000), wk =   0.1250000
        k(    7) = (   0.2500000   0.0000000   0.0000000), wk =   0.2500000
        k(    8) = (  -0.5000000   0.0000000   0.0000000), wk =   0.1250000
        k(    9) = (  -0.2500000   0.2500000   0.0000000), wk =   0.2500000
        k(   10) = (  -0.5000000   0.2500000   0.0000000), wk =   0.2500000

     Dense  grid:  1474595 G-vectors     FFT dimensions: ( 108, 108, 270)

     Smooth grid:   521381 G-vectors     FFT dimensions: (  75,  75, 192)

     Dynamical RAM for                 wfc:      10.69 MB

     Dynamical RAM for     wfc (w. buffer):      64.13 MB

     Dynamical RAM for           str. fact:       2.81 MB

     Dynamical RAM for           local pot:       0.00 MB

     Dynamical RAM for          nlocal pot:      24.53 MB

     Dynamical RAM for                qrad:       5.27 MB

     Dynamical RAM for          rho,v,vnew:       6.02 MB

     Dynamical RAM for               rhoin:       2.01 MB

     Dynamical RAM for            rho*nmix:      15.00 MB

     Dynamical RAM for           G-vectors:       3.68 MB

     Dynamical RAM for          h,s,v(r/c):       1.35 MB

     Dynamical RAM for          <psi|beta>:       2.33 MB

     Dynamical RAM for                 psi:      21.38 MB

     Dynamical RAM for                hpsi:      21.38 MB

     Dynamical RAM for                spsi:      21.38 MB

     Dynamical RAM for      wfcinit/wfcrot:      34.39 MB

     Dynamical RAM for           addusdens:     101.26 MB

     Estimated static dynamical RAM per process >     117.53 MB

     Estimated max dynamical RAM per process >     233.79 MB

     Estimated total dynamical RAM >      10.61 GB

     Check: negative core charge=   -0.000004

     Initial potential from superposition of free atoms

     starting charge     421.5961, renormalised to     430.0000

     negative rho (up, down):  7.826E-01 0.000E+00
     Starting wfcs are  376 randomized atomic wfcs
     Checking if some PAW data can be deallocated... 
       PAW data deallocated on   19 nodes for type:  2

     total cpu time spent up to now is        9.6 secs

     Self-consistent Calculation

     iteration #  1     ecut=    60.00 Ry     beta= 0.15
     Davidson diagonalization with overlap

---- Real-time Memory Report at c_bands before calling an iterative solver
             0 MiB given to the printing process from OS
             0 MiB allocation reported by mallinfo(arena+hblkhd)
         51480 MiB available memory on the node where the printing process lives
------------------
     ethr =  1.00E-02,  avg # of iterations =  2.0

     negative rho (up, down):  7.716E-01 0.000E+00

     total cpu time spent up to now is       25.2 secs

     total energy              =   -4445.23876906 Ry
     estimated scf accuracy    <      53.96599114 Ry

     iteration #  2     ecut=    60.00 Ry     beta= 0.15
     Davidson diagonalization with overlap

---- Real-time Memory Report at c_bands before calling an iterative solver
             0 MiB given to the printing process from OS
             0 MiB allocation reported by mallinfo(arena+hblkhd)
         51861 MiB available memory on the node where the printing process lives
------------------
     ethr =  1.00E-02,  avg # of iterations =  1.0

     negative rho (up, down):  7.585E-01 0.000E+00

     total cpu time spent up to now is       38.1 secs

     total energy              =   -4441.77107680 Ry
     estimated scf accuracy    <      28.66166078 Ry

     iteration #  3     ecut=    60.00 Ry     beta= 0.15
     Davidson diagonalization with overlap

---- Real-time Memory Report at c_bands before calling an iterative solver
             0 MiB given to the printing process from OS
             0 MiB allocation reported by mallinfo(arena+hblkhd)
         51089 MiB available memory on the node where the printing process lives
------------------
     ethr =  6.67E-03,  avg # of iterations =  1.0

     negative rho (up, down):  7.533E-01 0.000E+00

     total cpu time spent up to now is       50.8 secs

     total energy              =   -4442.66384567 Ry
     estimated scf accuracy    <      28.93452895 Ry

     iteration #  4     ecut=    60.00 Ry     beta= 0.15
     Davidson diagonalization with overlap

---- Real-time Memory Report at c_bands before calling an iterative solver
             0 MiB given to the printing process from OS
             0 MiB allocation reported by mallinfo(arena+hblkhd)
         51044 MiB available memory on the node where the printing process lives
------------------
     ethr =  6.67E-03,  avg # of iterations =  1.0

     negative rho (up, down):  7.536E-01 0.000E+00

     total cpu time spent up to now is       63.5 secs

     total energy              =   -4442.38107068 Ry
     estimated scf accuracy    <      26.08308709 Ry

     iteration #  5     ecut=    60.00 Ry     beta= 0.15
     Davidson diagonalization with overlap

---- Real-time Memory Report at c_bands before calling an iterative solver
             0 MiB given to the printing process from OS
             0 MiB allocation reported by mallinfo(arena+hblkhd)
         51028 MiB available memory on the node where the printing process lives
------------------
     ethr =  6.07E-03,  avg # of iterations =  1.0

     negative rho (up, down):  7.356E-01 0.000E+00

     total cpu time spent up to now is       76.0 secs

     total energy              =   -4440.94219594 Ry
     estimated scf accuracy    <      17.72759881 Ry

     iteration #  6     ecut=    60.00 Ry     beta= 0.15
     Davidson diagonalization with overlap

---- Real-time Memory Report at c_bands before calling an iterative solver
             0 MiB given to the printing process from OS
             0 MiB allocation reported by mallinfo(arena+hblkhd)
         51005 MiB available memory on the node where the printing process lives
------------------
     ethr =  4.12E-03,  avg # of iterations =  2.0

     negative rho (up, down):  7.405E-01 0.000E+00

     total cpu time spent up to now is       90.1 secs

     total energy              =   -4443.47193552 Ry
     estimated scf accuracy    <      62.09073189 Ry

     iteration #  7     ecut=    60.00 Ry     beta= 0.15
     Davidson diagonalization with overlap

---- Real-time Memory Report at c_bands before calling an iterative solver
             0 MiB given to the printing process from OS
             0 MiB allocation reported by mallinfo(arena+hblkhd)
         50983 MiB available memory on the node where the printing process lives
------------------
     ethr =  4.12E-03,  avg # of iterations =  1.0

     negative rho (up, down):  7.439E-01 0.000E+00

     total cpu time spent up to now is      102.6 secs

     total energy              =   -4441.41781826 Ry
     estimated scf accuracy    <      54.54434456 Ry

     iteration #  8     ecut=    60.00 Ry     beta= 0.15
     Davidson diagonalization with overlap

---- Real-time Memory Report at c_bands before calling an iterative solver
             0 MiB given to the printing process from OS
             0 MiB allocation reported by mallinfo(arena+hblkhd)
         50966 MiB available memory on the node where the printing process lives
------------------
     ethr =  4.12E-03,  avg # of iterations =  1.0

     negative rho (up, down):  7.499E-01 0.000E+00

     total cpu time spent up to now is      115.0 secs

     total energy              =   -4441.06674230 Ry
     estimated scf accuracy    <      12.85639842 Ry

     iteration #  9     ecut=    60.00 Ry     beta= 0.15
     Davidson diagonalization with overlap

---- Real-time Memory Report at c_bands before calling an iterative solver
             0 MiB given to the printing process from OS
             0 MiB allocation reported by mallinfo(arena+hblkhd)
         50952 MiB available memory on the node where the printing process lives
------------------
     ethr =  2.99E-03,  avg # of iterations =  1.1

     negative rho (up, down):  7.531E-01 0.000E+00

     total cpu time spent up to now is      127.7 secs

     total energy              =   -4440.61028833 Ry
     estimated scf accuracy    <       4.86571825 Ry

     iteration # 10     ecut=    60.00 Ry     beta= 0.15
     Davidson diagonalization with overlap

---- Real-time Memory Report at c_bands before calling an iterative solver
             0 MiB given to the printing process from OS
             0 MiB allocation reported by mallinfo(arena+hblkhd)
         50929 MiB available memory on the node where the printing process lives
------------------
     ethr =  1.13E-03,  avg # of iterations =  6.6

     negative rho (up, down):  7.647E-01 0.000E+00

     total cpu time spent up to now is      143.7 secs

     total energy              =   -4440.32452235 Ry
     estimated scf accuracy    <       4.40981557 Ry

     iteration # 11     ecut=    60.00 Ry     beta= 0.15
     Davidson diagonalization with overlap

---- Real-time Memory Report at c_bands before calling an iterative solver
             0 MiB given to the printing process from OS
             0 MiB allocation reported by mallinfo(arena+hblkhd)
         50811 MiB available memory on the node where the printing process lives
------------------
     ethr =  1.03E-03,  avg # of iterations =  2.8

     negative rho (up, down):  7.818E-01 0.000E+00

     total cpu time spent up to now is      158.1 secs

     total energy              =   -4440.49200828 Ry
     estimated scf accuracy    <      22.85708322 Ry

     iteration # 12     ecut=    60.00 Ry     beta= 0.15
     Davidson diagonalization with overlap

---- Real-time Memory Report at c_bands before calling an iterative solver
             0 MiB given to the printing process from OS
             0 MiB allocation reported by mallinfo(arena+hblkhd)
         50790 MiB available memory on the node where the printing process lives
------------------
     c_bands:  1 eigenvalues not converged
     ethr =  1.03E-03,  avg # of iterations =  9.3

     negative rho (up, down):  7.815E-01 0.000E+00

     total cpu time spent up to now is      175.1 secs

     total energy              =   -4440.05712196 Ry
     estimated scf accuracy    <      13.62405522 Ry

     iteration # 13     ecut=    60.00 Ry     beta= 0.15
     Davidson diagonalization with overlap

---- Real-time Memory Report at c_bands before calling an iterative solver
             0 MiB given to the printing process from OS
             0 MiB allocation reported by mallinfo(arena+hblkhd)
         50682 MiB available memory on the node where the printing process lives
------------------
     ethr =  1.03E-03,  avg # of iterations =  2.7

     negative rho (up, down):  7.873E-01 0.000E+00

     total cpu time spent up to now is      189.6 secs

     total energy              =   -4440.43577658 Ry
     estimated scf accuracy    <       2.12056347 Ry

     iteration # 14     ecut=    60.00 Ry     beta= 0.15
     Davidson diagonalization with overlap

---- Real-time Memory Report at c_bands before calling an iterative solver
             0 MiB given to the printing process from OS
             0 MiB allocation reported by mallinfo(arena+hblkhd)
         50677 MiB available memory on the node where the printing process lives
------------------
     ethr =  4.93E-04,  avg # of iterations =  7.3

     negative rho (up, down):  8.028E-01 0.000E+00

     total cpu time spent up to now is      206.7 secs

     total energy              =   -4440.44474885 Ry
     estimated scf accuracy    <       0.97576932 Ry

     iteration # 15     ecut=    60.00 Ry     beta= 0.15
     Davidson diagonalization with overlap

---- Real-time Memory Report at c_bands before calling an iterative solver
             0 MiB given to the printing process from OS
             0 MiB allocation reported by mallinfo(arena+hblkhd)
         50583 MiB available memory on the node where the printing process lives
------------------
     ethr =  2.27E-04,  avg # of iterations =  8.0

     negative rho (up, down):  8.248E-01 0.000E+00

     total cpu time spent up to now is      224.2 secs

     total energy              =   -4440.21941294 Ry
     estimated scf accuracy    <       3.33952595 Ry

     iteration # 16     ecut=    60.00 Ry     beta= 0.15
     Davidson diagonalization with overlap

---- Real-time Memory Report at c_bands before calling an iterative solver
             0 MiB given to the printing process from OS
             0 MiB allocation reported by mallinfo(arena+hblkhd)
         50539 MiB available memory on the node where the printing process lives
------------------
     ethr =  2.27E-04,  avg # of iterations =  7.9

     negative rho (up, down):  8.243E-01 0.000E+00

     total cpu time spent up to now is      240.5 secs

     total energy              =   -4440.37188380 Ry
     estimated scf accuracy    <       1.72523728 Ry

     iteration # 17     ecut=    60.00 Ry     beta= 0.15
     Davidson diagonalization with overlap

---- Real-time Memory Report at c_bands before calling an iterative solver
             0 MiB given to the printing process from OS
             0 MiB allocation reported by mallinfo(arena+hblkhd)
         50527 MiB available memory on the node where the printing process lives
------------------
     ethr =  2.27E-04,  avg # of iterations =  1.6

     negative rho (up, down):  8.226E-01 0.000E+00

     total cpu time spent up to now is      254.3 secs

     total energy              =   -4440.28329840 Ry
     estimated scf accuracy    <       0.52503153 Ry

     iteration # 18     ecut=    60.00 Ry     beta= 0.15
     Davidson diagonalization with overlap

---- Real-time Memory Report at c_bands before calling an iterative solver
             0 MiB given to the printing process from OS
             0 MiB allocation reported by mallinfo(arena+hblkhd)
         50588 MiB available memory on the node where the printing process lives
------------------
     ethr =  1.22E-04,  avg # of iterations =  5.6

     negative rho (up, down):  8.206E-01 0.000E+00

     total cpu time spent up to now is      269.8 secs

     total energy              =   -4440.34747169 Ry
     estimated scf accuracy    <       9.08842434 Ry

     iteration # 19     ecut=    60.00 Ry     beta= 0.15
     Davidson diagonalization with overlap

---- Real-time Memory Report at c_bands before calling an iterative solver
             0 MiB given to the printing process from OS
             0 MiB allocation reported by mallinfo(arena+hblkhd)
         50664 MiB available memory on the node where the printing process lives
------------------
     ethr =  1.22E-04,  avg # of iterations =  4.9

     negative rho (up, down):  8.163E-01 0.000E+00

     total cpu time spent up to now is      284.7 secs

     total energy              =   -4440.26567280 Ry
     estimated scf accuracy    <       2.37895948 Ry

     iteration # 20     ecut=    60.00 Ry     beta= 0.15
     Davidson diagonalization with overlap

---- Real-time Memory Report at c_bands before calling an iterative solver
             0 MiB given to the printing process from OS
             0 MiB allocation reported by mallinfo(arena+hblkhd)
         50617 MiB available memory on the node where the printing process lives
------------------
     ethr =  1.22E-04,  avg # of iterations =  2.0

     negative rho (up, down):  8.050E-01 0.000E+00

     total cpu time spent up to now is      298.7 secs

     total energy              =   -4440.30160426 Ry
     estimated scf accuracy    <       0.64949581 Ry

     iteration # 21     ecut=    60.00 Ry     beta= 0.15
     Davidson diagonalization with overlap

---- Real-time Memory Report at c_bands before calling an iterative solver
             0 MiB given to the printing process from OS
             0 MiB allocation reported by mallinfo(arena+hblkhd)
         50632 MiB available memory on the node where the printing process lives
------------------
     ethr =  1.22E-04,  avg # of iterations =  5.7

     negative rho (up, down):  8.396E-01 0.000E+00

     total cpu time spent up to now is      314.5 secs

     total energy              =   -4440.30652485 Ry
     estimated scf accuracy    <       0.12170862 Ry

     iteration # 22     ecut=    60.00 Ry     beta= 0.15
     Davidson diagonalization with overlap

---- Real-time Memory Report at c_bands before calling an iterative solver
             0 MiB given to the printing process from OS
             0 MiB allocation reported by mallinfo(arena+hblkhd)
         50618 MiB available memory on the node where the printing process lives
------------------
     ethr =  2.83E-05,  avg # of iterations = 10.3

     negative rho (up, down):  8.425E-01 0.000E+00

     total cpu time spent up to now is      333.6 secs

     total energy              =   -4440.23775079 Ry
     estimated scf accuracy    <       2.39384596 Ry

     iteration # 23     ecut=    60.00 Ry     beta= 0.15
     Davidson diagonalization with overlap

---- Real-time Memory Report at c_bands before calling an iterative solver
             0 MiB given to the printing process from OS
             0 MiB allocation reported by mallinfo(arena+hblkhd)
         50372 MiB available memory on the node where the printing process lives
------------------
     ethr =  2.83E-05,  avg # of iterations =  2.0

     negative rho (up, down):  8.464E-01 0.000E+00

     total cpu time spent up to now is      347.7 secs

     total energy              =   -4440.28812454 Ry
     estimated scf accuracy    <       0.17351598 Ry

     iteration # 24     ecut=    60.00 Ry     beta= 0.15
     Davidson diagonalization with overlap

---- Real-time Memory Report at c_bands before calling an iterative solver
             0 MiB given to the printing process from OS
             0 MiB allocation reported by mallinfo(arena+hblkhd)
         50363 MiB available memory on the node where the printing process lives
------------------
     ethr =  2.83E-05,  avg # of iterations =  2.8

     negative rho (up, down):  8.238E-01 0.000E+00

     total cpu time spent up to now is      362.1 secs

     total energy              =   -4440.29269017 Ry
     estimated scf accuracy    <       0.10172635 Ry

     iteration # 25     ecut=    60.00 Ry     beta= 0.15
     Davidson diagonalization with overlap

---- Real-time Memory Report at c_bands before calling an iterative solver
             0 MiB given to the printing process from OS
             0 MiB allocation reported by mallinfo(arena+hblkhd)
         50367 MiB available memory on the node where the printing process lives
------------------
     ethr =  2.37E-05,  avg # of iterations =  3.6

     negative rho (up, down):  8.089E-01 0.000E+00

     total cpu time spent up to now is      376.9 secs

     total energy              =   -4440.29029621 Ry
     estimated scf accuracy    <       0.05222238 Ry

     iteration # 26     ecut=    60.00 Ry     beta= 0.15
     Davidson diagonalization with overlap

---- Real-time Memory Report at c_bands before calling an iterative solver
             0 MiB given to the printing process from OS
             0 MiB allocation reported by mallinfo(arena+hblkhd)
         50402 MiB available memory on the node where the printing process lives
------------------
     ethr =  1.21E-05,  avg # of iterations =  4.4

     negative rho (up, down):  7.983E-01 0.000E+00

     total cpu time spent up to now is      392.1 secs

     total energy              =   -4440.28901512 Ry
     estimated scf accuracy    <       0.00802983 Ry

     iteration # 27     ecut=    60.00 Ry     beta= 0.15
     Davidson diagonalization with overlap

---- Real-time Memory Report at c_bands before calling an iterative solver
             0 MiB given to the printing process from OS
             0 MiB allocation reported by mallinfo(arena+hblkhd)
         50402 MiB available memory on the node where the printing process lives
------------------
     c_bands:  1 eigenvalues not converged
     ethr =  1.87E-06,  avg # of iterations = 12.1

     negative rho (up, down):  7.959E-01 0.000E+00

     total cpu time spent up to now is      412.8 secs

     total energy              =   -4440.28888934 Ry
     estimated scf accuracy    <       0.03328986 Ry

     iteration # 28     ecut=    60.00 Ry     beta= 0.15
     Davidson diagonalization with overlap

---- Real-time Memory Report at c_bands before calling an iterative solver
             0 MiB given to the printing process from OS
             0 MiB allocation reported by mallinfo(arena+hblkhd)
         50253 MiB available memory on the node where the printing process lives
------------------
     c_bands:  1 eigenvalues not converged
     ethr =  1.87E-06,  avg # of iterations =  6.8

     negative rho (up, down):  7.945E-01 0.000E+00

     total cpu time spent up to now is      428.6 secs

     total energy              =   -4440.28943152 Ry
     estimated scf accuracy    <       0.00194782 Ry

     iteration # 29     ecut=    60.00 Ry     beta= 0.15
     Davidson diagonalization with overlap

---- Real-time Memory Report at c_bands before calling an iterative solver
             0 MiB given to the printing process from OS
             0 MiB allocation reported by mallinfo(arena+hblkhd)
         50328 MiB available memory on the node where the printing process lives
------------------
     c_bands:  1 eigenvalues not converged
     ethr =  4.53E-07,  avg # of iterations = 11.2

     negative rho (up, down):  7.945E-01 0.000E+00

     total cpu time spent up to now is      446.8 secs

     total energy              =   -4440.28893616 Ry
     estimated scf accuracy    <       0.05976683 Ry

     iteration # 30     ecut=    60.00 Ry     beta= 0.15
     Davidson diagonalization with overlap

---- Real-time Memory Report at c_bands before calling an iterative solver
             0 MiB given to the printing process from OS
             0 MiB allocation reported by mallinfo(arena+hblkhd)
         50343 MiB available memory on the node where the printing process lives
------------------
     ethr =  4.53E-07,  avg # of iterations =  8.0

     negative rho (up, down):  7.952E-01 0.000E+00

     total cpu time spent up to now is      463.6 secs

     total energy              =   -4440.28940492 Ry
     estimated scf accuracy    <       0.00415920 Ry

     iteration # 31     ecut=    60.00 Ry     beta= 0.15
     Davidson diagonalization with overlap

---- Real-time Memory Report at c_bands before calling an iterative solver
             0 MiB given to the printing process from OS
             0 MiB allocation reported by mallinfo(arena+hblkhd)
         50338 MiB available memory on the node where the printing process lives
------------------
     ethr =  4.53E-07,  avg # of iterations =  2.0

     negative rho (up, down):  7.940E-01 0.000E+00

     total cpu time spent up to now is      477.6 secs

     total energy              =   -4440.28948638 Ry
     estimated scf accuracy    <       0.00018767 Ry

     iteration # 32     ecut=    60.00 Ry     beta= 0.15
     Davidson diagonalization with overlap

---- Real-time Memory Report at c_bands before calling an iterative solver
             0 MiB given to the printing process from OS
             0 MiB allocation reported by mallinfo(arena+hblkhd)
         50342 MiB available memory on the node where the printing process lives
------------------
     ethr =  4.36E-08,  avg # of iterations =  1.9

     negative rho (up, down):  7.929E-01 0.000E+00

     total cpu time spent up to now is      491.5 secs

     total energy              =   -4440.28948425 Ry
     estimated scf accuracy    <       0.00006979 Ry

     iteration # 33     ecut=    60.00 Ry     beta= 0.15
     Davidson diagonalization with overlap

---- Real-time Memory Report at c_bands before calling an iterative solver
             0 MiB given to the printing process from OS
             0 MiB allocation reported by mallinfo(arena+hblkhd)
         50335 MiB available memory on the node where the printing process lives
------------------
     ethr =  1.62E-08,  avg # of iterations =  2.0

     negative rho (up, down):  7.928E-01 0.000E+00

     total cpu time spent up to now is      505.6 secs

     total energy              =   -4440.28948607 Ry
     estimated scf accuracy    <       0.00003172 Ry

     iteration # 34     ecut=    60.00 Ry     beta= 0.15
     Davidson diagonalization with overlap

---- Real-time Memory Report at c_bands before calling an iterative solver
             0 MiB given to the printing process from OS
             0 MiB allocation reported by mallinfo(arena+hblkhd)
         50340 MiB available memory on the node where the printing process lives
------------------
     ethr =  7.38E-09,  avg # of iterations =  2.0

     negative rho (up, down):  7.925E-01 0.000E+00

     total cpu time spent up to now is      519.8 secs

     total energy              =   -4440.28948705 Ry
     estimated scf accuracy    <       0.00001603 Ry

     iteration # 35     ecut=    60.00 Ry     beta= 0.15
     Davidson diagonalization with overlap

---- Real-time Memory Report at c_bands before calling an iterative solver
             0 MiB given to the printing process from OS
             0 MiB allocation reported by mallinfo(arena+hblkhd)
         50337 MiB available memory on the node where the printing process lives
------------------
     ethr =  3.73E-09,  avg # of iterations =  2.4

     negative rho (up, down):  7.925E-01 0.000E+00

     total cpu time spent up to now is      534.5 secs

     total energy              =   -4440.28948883 Ry
     estimated scf accuracy    <       0.00000463 Ry

     iteration # 36     ecut=    60.00 Ry     beta= 0.15
     Davidson diagonalization with overlap

---- Real-time Memory Report at c_bands before calling an iterative solver
             0 MiB given to the printing process from OS
             0 MiB allocation reported by mallinfo(arena+hblkhd)
         50349 MiB available memory on the node where the printing process lives
------------------
     ethr =  1.08E-09,  avg # of iterations =  2.0

     negative rho (up, down):  7.924E-01 0.000E+00

     total cpu time spent up to now is      548.7 secs

     total energy              =   -4440.28948967 Ry
     estimated scf accuracy    <       0.00000323 Ry

     iteration # 37     ecut=    60.00 Ry     beta= 0.15
     Davidson diagonalization with overlap

---- Real-time Memory Report at c_bands before calling an iterative solver
             0 MiB given to the printing process from OS
             0 MiB allocation reported by mallinfo(arena+hblkhd)
         50359 MiB available memory on the node where the printing process lives
------------------
     ethr =  7.51E-10,  avg # of iterations =  2.0

     negative rho (up, down):  7.924E-01 0.000E+00

     total cpu time spent up to now is      562.8 secs

     total energy              =   -4440.28949044 Ry
     estimated scf accuracy    <       0.00000275 Ry

     iteration # 38     ecut=    60.00 Ry     beta= 0.15
     Davidson diagonalization with overlap

---- Real-time Memory Report at c_bands before calling an iterative solver
             0 MiB given to the printing process from OS
             0 MiB allocation reported by mallinfo(arena+hblkhd)
         50360 MiB available memory on the node where the printing process lives
------------------
     ethr =  6.41E-10,  avg # of iterations =  2.4

     negative rho (up, down):  7.924E-01 0.000E+00

     total cpu time spent up to now is      577.1 secs

     total energy              =   -4440.28949054 Ry
     estimated scf accuracy    <       0.00000211 Ry

     iteration # 39     ecut=    60.00 Ry     beta= 0.15
     Davidson diagonalization with overlap

---- Real-time Memory Report at c_bands before calling an iterative solver
             0 MiB given to the printing process from OS
             0 MiB allocation reported by mallinfo(arena+hblkhd)
         50361 MiB available memory on the node where the printing process lives
------------------
     ethr =  4.92E-10,  avg # of iterations =  2.0

     negative rho (up, down):  7.924E-01 0.000E+00

     total cpu time spent up to now is      591.2 secs

     total energy              =   -4440.28949065 Ry
     estimated scf accuracy    <       0.00000165 Ry

     iteration # 40     ecut=    60.00 Ry     beta= 0.15
     Davidson diagonalization with overlap

---- Real-time Memory Report at c_bands before calling an iterative solver
             0 MiB given to the printing process from OS
             0 MiB allocation reported by mallinfo(arena+hblkhd)
         50365 MiB available memory on the node where the printing process lives
------------------
     ethr =  3.84E-10,  avg # of iterations =  2.4

     negative rho (up, down):  7.926E-01 0.000E+00

     total cpu time spent up to now is      605.3 secs

     total energy              =   -4440.28949069 Ry
     estimated scf accuracy    <       0.00000103 Ry

     iteration # 41     ecut=    60.00 Ry     beta= 0.15
     Davidson diagonalization with overlap

---- Real-time Memory Report at c_bands before calling an iterative solver
             0 MiB given to the printing process from OS
             0 MiB allocation reported by mallinfo(arena+hblkhd)
         50371 MiB available memory on the node where the printing process lives
------------------
     ethr =  2.40E-10,  avg # of iterations =  2.6

     negative rho (up, down):  7.927E-01 0.000E+00

     total cpu time spent up to now is      619.5 secs

     total energy              =   -4440.28949053 Ry
     estimated scf accuracy    <       0.00000044 Ry

     iteration # 42     ecut=    60.00 Ry     beta= 0.15
     Davidson diagonalization with overlap

---- Real-time Memory Report at c_bands before calling an iterative solver
             0 MiB given to the printing process from OS
             0 MiB allocation reported by mallinfo(arena+hblkhd)
         50373 MiB available memory on the node where the printing process lives
------------------
     ethr =  1.03E-10,  avg # of iterations =  2.7

     negative rho (up, down):  7.927E-01 0.000E+00

     total cpu time spent up to now is      634.2 secs

     total energy              =   -4440.28949049 Ry
     estimated scf accuracy    <       0.00000017 Ry

     iteration # 43     ecut=    60.00 Ry     beta= 0.15
     Davidson diagonalization with overlap

---- Real-time Memory Report at c_bands before calling an iterative solver
             0 MiB given to the printing process from OS
             0 MiB allocation reported by mallinfo(arena+hblkhd)
         50371 MiB available memory on the node where the printing process lives
------------------
     ethr =  3.86E-11,  avg # of iterations =  2.1

     negative rho (up, down):  7.927E-01 0.000E+00

     total cpu time spent up to now is      649.1 secs

     total energy              =   -4440.28949047 Ry
     estimated scf accuracy    <       0.00000010 Ry

     iteration # 44     ecut=    60.00 Ry     beta= 0.15
     Davidson diagonalization with overlap

---- Real-time Memory Report at c_bands before calling an iterative solver
             0 MiB given to the printing process from OS
             0 MiB allocation reported by mallinfo(arena+hblkhd)
         50373 MiB available memory on the node where the printing process lives
------------------
     ethr =  2.36E-11,  avg # of iterations =  1.8

     negative rho (up, down):  7.927E-01 0.000E+00

     total cpu time spent up to now is      662.9 secs

     total energy              =   -4440.28949053 Ry
     estimated scf accuracy    <       0.00000006 Ry

     iteration # 45     ecut=    60.00 Ry     beta= 0.15
     Davidson diagonalization with overlap

---- Real-time Memory Report at c_bands before calling an iterative solver
             0 MiB given to the printing process from OS
             0 MiB allocation reported by mallinfo(arena+hblkhd)
         50374 MiB available memory on the node where the printing process lives
------------------
     ethr =  1.39E-11,  avg # of iterations =  2.0

     negative rho (up, down):  7.926E-01 0.000E+00

     total cpu time spent up to now is      677.2 secs

     total energy              =   -4440.28949060 Ry
     estimated scf accuracy    <       0.00000005 Ry

     iteration # 46     ecut=    60.00 Ry     beta= 0.15
     Davidson diagonalization with overlap

---- Real-time Memory Report at c_bands before calling an iterative solver
             0 MiB given to the printing process from OS
             0 MiB allocation reported by mallinfo(arena+hblkhd)
         50374 MiB available memory on the node where the printing process lives
------------------
     ethr =  1.27E-11,  avg # of iterations =  2.1

     negative rho (up, down):  7.926E-01 0.000E+00

     total cpu time spent up to now is      691.3 secs

     total energy              =   -4440.28949069 Ry
     estimated scf accuracy    <       0.00000003 Ry

     iteration # 47     ecut=    60.00 Ry     beta= 0.15
     Davidson diagonalization with overlap

---- Real-time Memory Report at c_bands before calling an iterative solver
             0 MiB given to the printing process from OS
             0 MiB allocation reported by mallinfo(arena+hblkhd)
         50376 MiB available memory on the node where the printing process lives
------------------
     ethr =  6.76E-12,  avg # of iterations =  3.4

     negative rho (up, down):  7.926E-01 0.000E+00

     total cpu time spent up to now is      705.9 secs

     total energy              =   -4440.28949074 Ry
     estimated scf accuracy    <       0.00000001 Ry

     iteration # 48     ecut=    60.00 Ry     beta= 0.15
     Davidson diagonalization with overlap

---- Real-time Memory Report at c_bands before calling an iterative solver
             0 MiB given to the printing process from OS
             0 MiB allocation reported by mallinfo(arena+hblkhd)
         50368 MiB available memory on the node where the printing process lives
------------------
     ethr =  2.99E-12,  avg # of iterations =  3.6

     negative rho (up, down):  7.926E-01 0.000E+00

     total cpu time spent up to now is      720.5 secs

     End of self-consistent calculation

          k = 0.0000 0.0000 0.0000 ( 65197 PWs)   bands (ev):

   -92.8433 -92.7887 -92.6967 -92.6437 -92.5919 -92.5495 -92.5320 -92.4106
   -56.1968 -56.1752 -56.0538 -56.0436 -56.0315 -56.0305 -55.9931 -55.9658
   -55.9508 -55.9493 -55.9394 -55.8991 -55.8784 -55.8427 -55.8232 -55.7921
   -55.7746 -55.7373 -55.7357 -55.7345 -55.7260 -55.6857 -55.6621 -55.5774
   -31.4084 -31.3883 -31.2473 -31.2224 -31.1598 -31.1332 -30.9473 -30.8218
   -29.9894 -29.9454 -29.9205 -29.8114 -15.2199 -15.1764 -15.0963 -14.9656
   -14.7727 -14.6476 -14.3579 -14.3385 -14.3080 -14.2630 -14.2158 -14.2058
   -14.1966 -14.1790 -14.1550 -14.1229 -14.0702 -13.9178 -13.7415 -13.7063
   -13.6755 -13.6480 -13.6275 -13.5694 -13.5376 -13.4511 -13.3832 -13.2623
   -13.2409 -13.2353 -13.2106 -13.2062 -13.1885 -13.1404 -13.1350 -13.1185
   -13.0879 -13.0543 -13.0462 -13.0312 -13.0212 -13.0036 -12.9157 -12.8987
   -12.8644 -12.7663 -12.7389 -12.7306 -12.4744 -12.3286 -12.1507 -12.0824
   -12.0024 -11.9640 -11.9285 -11.9175 -11.8942 -11.8768 -11.8131 -11.7959
   -11.7610 -11.7324 -11.6201 -11.5405 -11.5370  -3.0820  -2.8498  -2.6203
    -2.4731  -2.4105  -2.2682  -1.9607  -1.9468  -1.9274  -1.8429  -1.8233
    -1.7549  -1.7381  -1.6974  -1.6538  -1.4718  -1.2481  -1.2180  -1.0708
    -1.0566  -1.0108  -0.9928  -0.9456  -0.9290  -0.8744  -0.8476  -0.7734
    -0.7606  -0.6873  -0.5526  -0.5377  -0.5133  -0.4325  -0.4204  -0.4040
    -0.3361  -0.2688  -0.2116  -0.1705  -0.1377  -0.0744  -0.0036   0.0410
     0.0641   0.0754   0.3335   0.3483   0.5223   0.5870   0.6568   0.7000
     0.7859   0.8013   0.8159   0.8842   0.9103   0.9441   1.0027   1.1327
     1.1938   1.2132   1.2337   1.2467   1.3107   1.3806   1.4894   1.4995
     1.5687   1.5822   1.6236   1.6382   1.6457   1.7043   1.7595   1.7771
     1.8149   1.8495   1.8870   2.0197   2.1058   2.1455   2.1644   2.3192
     2.3313   2.3713   2.3734   2.4824   2.5167   2.5423   2.5608   2.5753
     2.6376   2.6556   2.6615   2.6866   2.7802   2.7987   2.8106   2.8179
     2.8857   2.8957   2.9126   2.9203   2.9297   2.9461   2.9502   2.9627
     2.9682   2.9813   2.9890   2.9966   3.0162   3.0373   3.0424   3.0553
     3.1159   3.1968   3.2911   3.9754   4.3132   4.6576   4.8502   4.9038
     5.7202   5.8142   5.8718   5.8838   6.1738   6.2207   6.4583   6.4679
     6.9609   6.9794   7.0943   7.1934   7.3914   7.4652   7.5577   7.5771
     7.5968   7.8530   7.9005   7.9819   8.0592   8.1408   8.2844   8.5075
     8.7351   8.8939

     occupation numbers 
     1.0000   1.0000   1.0000   1.0000   1.0000   1.0000   1.0000   1.0000
     1.0000   1.0000   1.0000   1.0000   1.0000   1.0000   1.0000   1.0000
     1.0000   1.0000   1.0000   1.0000   1.0000   1.0000   1.0000   1.0000
     1.0000   1.0000   1.0000   1.0000   1.0000   1.0000   1.0000   1.0000
     1.0000   1.0000   1.0000   1.0000   1.0000   1.0000   1.0000   1.0000
     1.0000   1.0000   1.0000   1.0000   1.0000   1.0000   1.0000   1.0000
     1.0000   1.0000   1.0000   1.0000   1.0000   1.0000   1.0000   1.0000
     1.0000   1.0000   1.0000   1.0000   1.0000   1.0000   1.0000   1.0000
     1.0000   1.0000   1.0000   1.0000   1.0000   1.0000   1.0000   1.0000
     1.0000   1.0000   1.0000   1.0000   1.0000   1.0000   1.0000   1.0000
     1.0000   1.0000   1.0000   1.0000   1.0000   1.0000   1.0000   1.0000
     1.0000   1.0000   1.0000   1.0000   1.0000   1.0000   1.0000   1.0000
     1.0000   1.0000   1.0000   1.0000   1.0000   1.0000   1.0000   1.0000
     1.0000   1.0000   1.0000   1.0000   1.0000   1.0000   1.0000   1.0000
     1.0000   1.0000   1.0000   1.0000   1.0000   1.0000   1.0000   1.0000
     1.0000   1.0000   1.0000   1.0000   1.0000   1.0000   1.0000   1.0000
     1.0000   1.0000   1.0000   1.0000   1.0000   1.0000   1.0000   1.0000
     1.0000   1.0000   1.0000   1.0000   1.0000   1.0000   1.0000   1.0000
     1.0000   1.0000   1.0000   1.0000   1.0000   1.0000   1.0000   1.0000
     1.0000   1.0000   1.0000   1.0000   1.0000   0.9999   0.9999   0.9999
     0.9998   0.9998   0.9998   0.9997   0.9996   0.9996   0.9994   0.9988
     0.9984   0.9983   0.9981   0.9980   0.9973   0.9963   0.9941   0.9939
     0.9918   0.9914   0.9898   0.9892   0.9889   0.9861   0.9829   0.9818
     0.9791   0.9764   0.9731   0.9583   0.9456   0.9388   0.9353   0.9009
     0.8977   0.8867   0.8861   0.8518   0.8397   0.8303   0.8232   0.8176
     0.7921   0.7844   0.7818   0.7706   0.7264   0.7172   0.7112   0.7075
     0.6719   0.6666   0.6574   0.6532   0.6480   0.6389   0.6367   0.6297
     0.6266   0.6192   0.6149   0.6105   0.5993   0.5871   0.5842   0.5767
     0.5412   0.4934   0.4377   0.1205   0.0470   0.0144   0.0067   0.0054
     0.0001   0.0000   0.0000   0.0000   0.0000   0.0000   0.0000   0.0000
     0.0000   0.0000   0.0000   0.0000   0.0000   0.0000   0.0000   0.0000
     0.0000   0.0000   0.0000   0.0000   0.0000   0.0000   0.0000   0.0000
     0.0000   0.0000

          k = 0.0000 0.2500 0.0000 ( 65257 PWs)   bands (ev):

   -92.8433 -92.7887 -92.6967 -92.6437 -92.5919 -92.5495 -92.5320 -92.4106
   -56.1968 -56.1752 -56.0538 -56.0436 -56.0315 -56.0305 -55.9931 -55.9658
   -55.9508 -55.9493 -55.9394 -55.8991 -55.8784 -55.8427 -55.8232 -55.7921
   -55.7746 -55.7373 -55.7357 -55.7345 -55.7260 -55.6857 -55.6621 -55.5774
   -31.4082 -31.3882 -31.2475 -31.2221 -31.1600 -31.1336 -30.9471 -30.8220
   -29.9888 -29.9451 -29.9212 -29.8117 -15.1834 -15.1500 -15.0710 -14.9365
   -14.8139 -14.6393 -14.5036 -14.3235 -14.2886 -14.2663 -14.2390 -14.1812
   -14.1747 -14.1588 -14.1403 -14.0941 -13.9889 -13.9484 -13.7837 -13.7669
   -13.7160 -13.6809 -13.6394 -13.5895 -13.5455 -13.4768 -13.4373 -13.3694
   -13.3155 -13.2784 -13.2401 -13.2282 -13.1935 -13.1232 -13.0996 -13.0704
   -13.0583 -13.0331 -12.9988 -12.9693 -12.9520 -12.9305 -12.9004 -12.8664
   -12.8464 -12.7668 -12.6580 -12.6049 -12.5357 -12.3799 -12.2061 -12.1482
   -11.9678 -11.9644 -11.9252 -11.8972 -11.8692 -11.8524 -11.8050 -11.7937
   -11.7712 -11.7368 -11.6345 -11.5822 -11.5716  -2.9467  -2.7254  -2.5878
    -2.4056  -2.3622  -2.1986  -1.9784  -1.8950  -1.8820  -1.8244  -1.7212
    -1.7052  -1.6717  -1.6441  -1.6004  -1.4030  -1.2744  -1.2628  -1.1865
    -1.1763  -1.0720  -1.0417  -0.9841  -0.9589  -0.9185  -0.8543  -0.8271
    -0.7958  -0.7613  -0.7451  -0.7135  -0.6370  -0.5890  -0.5257  -0.4079
    -0.3917  -0.3454  -0.2278  -0.1896  -0.1255  -0.0817  -0.0179  -0.0057
     0.0221   0.0850   0.3818   0.4683   0.5003   0.5899   0.6374   0.6590
     0.7715   0.7904   0.8863   0.9121   0.9360   1.0507   1.1456   1.1683
     1.1908   1.2093   1.2358   1.2952   1.3221   1.3500   1.3976   1.4353
     1.4644   1.5487   1.5806   1.6251   1.6701   1.7288   1.7810   1.8017
     1.8199   1.8402   1.9315   2.0552   2.1279   2.1469   2.2194   2.2699
     2.3082   2.3196   2.3760   2.4142   2.4995   2.5357   2.5524   2.6432
     2.6577   2.6714   2.7274   2.7575   2.7830   2.8021   2.8197   2.8267
     2.8342   2.8514   2.8737   2.8754   2.8965   2.8985   2.9089   2.9280
     2.9434   2.9505   2.9684   2.9785   2.9829   3.0182   3.0359   3.0969
     3.4818   3.5216   3.7400   4.1625   4.3186   4.5848   4.9243   5.0137
     5.5457   5.6548   5.8362   5.9333   5.9656   6.0050   6.0954   6.5726
     6.9970   7.0530   7.1975   7.2697   7.3783   7.4346   7.4800   7.5741
     7.7280   7.9697   8.0989   8.1487   8.2535   8.2987   8.3256   8.3722
     8.5106   8.8321

     occupation numbers 
     1.0000   1.0000   1.0000   1.0000   1.0000   1.0000   1.0000   1.0000
     1.0000   1.0000   1.0000   1.0000   1.0000   1.0000   1.0000   1.0000
     1.0000   1.0000   1.0000   1.0000   1.0000   1.0000   1.0000   1.0000
     1.0000   1.0000   1.0000   1.0000   1.0000   1.0000   1.0000   1.0000
     1.0000   1.0000   1.0000   1.0000   1.0000   1.0000   1.0000   1.0000
     1.0000   1.0000   1.0000   1.0000   1.0000   1.0000   1.0000   1.0000
     1.0000   1.0000   1.0000   1.0000   1.0000   1.0000   1.0000   1.0000
     1.0000   1.0000   1.0000   1.0000   1.0000   1.0000   1.0000   1.0000
     1.0000   1.0000   1.0000   1.0000   1.0000   1.0000   1.0000   1.0000
     1.0000   1.0000   1.0000   1.0000   1.0000   1.0000   1.0000   1.0000
     1.0000   1.0000   1.0000   1.0000   1.0000   1.0000   1.0000   1.0000
     1.0000   1.0000   1.0000   1.0000   1.0000   1.0000   1.0000   1.0000
     1.0000   1.0000   1.0000   1.0000   1.0000   1.0000   1.0000   1.0000
     1.0000   1.0000   1.0000   1.0000   1.0000   1.0000   1.0000   1.0000
     1.0000   1.0000   1.0000   1.0000   1.0000   1.0000   1.0000   1.0000
     1.0000   1.0000   1.0000   1.0000   1.0000   1.0000   1.0000   1.0000
     1.0000   1.0000   1.0000   1.0000   1.0000   1.0000   1.0000   1.0000
     1.0000   1.0000   1.0000   1.0000   1.0000   1.0000   1.0000   1.0000
     1.0000   1.0000   1.0000   1.0000   1.0000   1.0000   1.0000   1.0000
     1.0000   1.0000   1.0000   1.0000   1.0000   0.9999   0.9999   0.9999
     0.9998   0.9998   0.9997   0.9996   0.9996   0.9992   0.9988   0.9986
     0.9985   0.9983   0.9981   0.9975   0.9972   0.9968   0.9960   0.9953
     0.9947   0.9925   0.9914   0.9898   0.9878   0.9847   0.9815   0.9801
     0.9787   0.9771   0.9687   0.9534   0.9419   0.9385   0.9243   0.9130
     0.9037   0.9008   0.8854   0.8740   0.8458   0.8328   0.8264   0.7897
     0.7834   0.7774   0.7519   0.7375   0.7250   0.7155   0.7065   0.7029
     0.6991   0.6902   0.6784   0.6775   0.6662   0.6651   0.6594   0.6490
     0.6404   0.6365   0.6265   0.6208   0.6183   0.5982   0.5879   0.5524
     0.3300   0.3089   0.2052   0.0734   0.0462   0.0189   0.0049   0.0033
     0.0002   0.0001   0.0000   0.0000   0.0000   0.0000   0.0000   0.0000
     0.0000   0.0000   0.0000   0.0000   0.0000   0.0000   0.0000   0.0000
     0.0000   0.0000   0.0000   0.0000   0.0000   0.0000   0.0000   0.0000
     0.0000   0.0000

          k = 0.0000-0.5000 0.0000 ( 65180 PWs)   bands (ev):

   -92.8433 -92.7887 -92.6967 -92.6437 -92.5919 -92.5495 -92.5320 -92.4106
   -56.1968 -56.1752 -56.0538 -56.0436 -56.0315 -56.0305 -55.9931 -55.9658
   -55.9508 -55.9493 -55.9394 -55.8991 -55.8784 -55.8427 -55.8232 -55.7921
   -55.7746 -55.7373 -55.7357 -55.7345 -55.7260 -55.6857 -55.6621 -55.5774
   -31.4080 -31.3880 -31.2477 -31.2218 -31.1601 -31.1339 -30.9468 -30.8223
   -29.9882 -29.9448 -29.9218 -29.8120 -15.1484 -15.0995 -15.0461 -14.9192
   -14.8351 -14.6976 -14.5433 -14.4192 -14.2952 -14.2249 -14.1824 -14.1761
   -14.1240 -14.1079 -14.0597 -14.0398 -14.0143 -13.9783 -13.9426 -13.9012
   -13.7210 -13.6633 -13.6470 -13.5936 -13.5391 -13.4947 -13.4458 -13.4127
   -13.4004 -13.3476 -13.2412 -13.2295 -13.1751 -13.1293 -13.0979 -13.0798
   -13.0594 -13.0140 -12.9610 -12.9407 -12.9019 -12.8517 -12.8378 -12.8253
   -12.7841 -12.7701 -12.6466 -12.5301 -12.4551 -12.4083 -12.3117 -12.2691
   -11.9646 -11.9221 -11.9195 -11.8920 -11.8552 -11.8207 -11.8095 -11.7668
   -11.7630 -11.7181 -11.6565 -11.6428 -11.6286  -2.7323  -2.6724  -2.5222
    -2.4503  -2.1690  -2.0828  -1.9581  -1.8205  -1.7846  -1.7633  -1.6854
    -1.6540  -1.5716  -1.5362  -1.4590  -1.4187  -1.3807  -1.3534  -1.2949
    -1.2580  -1.2112  -1.1760  -1.1425  -1.1081  -0.9988  -0.9538  -0.9187
    -0.9173  -0.8311  -0.7989  -0.7764  -0.7253  -0.6426  -0.5656  -0.4859
    -0.4588  -0.3439  -0.2991  -0.1687  -0.1332  -0.1035  -0.0428   0.0898
     0.1340   0.2523   0.3211   0.3279   0.4564   0.5081   0.6204   0.7370
     0.8453   0.8749   0.9148   0.9190   0.9606   0.9746   1.0101   1.0295
     1.0377   1.1497   1.2125   1.2361   1.2604   1.5242   1.5604   1.5847
     1.6820   1.7063   1.7339   1.7493   1.7733   1.7942   1.8083   1.8331
     1.8622   1.8941   1.9255   1.9279   1.9598   2.0130   2.0971   2.1308
     2.3107   2.4621   2.4730   2.4924   2.5184   2.5293   2.5392   2.5856
     2.6034   2.6408   2.6557   2.6605   2.6793   2.6931   2.7631   2.7777
     2.8380   2.8572   2.8686   2.8711   2.8902   2.8979   2.9029   2.9048
     2.9106   2.9315   2.9387   2.9475   3.0032   3.0103   3.0257   3.0781
     3.9945   4.0437   4.0792   4.1247   4.6003   4.7715   4.9455   5.0263
     5.3252   5.3895   5.5245   5.6041   5.8861   5.9191   6.2276   6.5819
     6.8203   6.9150   7.1699   7.3299   7.5365   7.5895   7.6777   7.6918
     7.8095   7.9979   8.0833   8.1399   8.2446   8.3660   8.3829   8.5546
     8.7218   8.7664

     occupation numbers 
     1.0000   1.0000   1.0000   1.0000   1.0000   1.0000   1.0000   1.0000
     1.0000   1.0000   1.0000   1.0000   1.0000   1.0000   1.0000   1.0000
     1.0000   1.0000   1.0000   1.0000   1.0000   1.0000   1.0000   1.0000
     1.0000   1.0000   1.0000   1.0000   1.0000   1.0000   1.0000   1.0000
     1.0000   1.0000   1.0000   1.0000   1.0000   1.0000   1.0000   1.0000
     1.0000   1.0000   1.0000   1.0000   1.0000   1.0000   1.0000   1.0000
     1.0000   1.0000   1.0000   1.0000   1.0000   1.0000   1.0000   1.0000
     1.0000   1.0000   1.0000   1.0000   1.0000   1.0000   1.0000   1.0000
     1.0000   1.0000   1.0000   1.0000   1.0000   1.0000   1.0000   1.0000
     1.0000   1.0000   1.0000   1.0000   1.0000   1.0000   1.0000   1.0000
     1.0000   1.0000   1.0000   1.0000   1.0000   1.0000   1.0000   1.0000
     1.0000   1.0000   1.0000   1.0000   1.0000   1.0000   1.0000   1.0000
     1.0000   1.0000   1.0000   1.0000   1.0000   1.0000   1.0000   1.0000
     1.0000   1.0000   1.0000   1.0000   1.0000   1.0000   1.0000   1.0000
     1.0000   1.0000   1.0000   1.0000   1.0000   1.0000   1.0000   1.0000
     1.0000   1.0000   1.0000   1.0000   1.0000   1.0000   1.0000   1.0000
     1.0000   1.0000   1.0000   1.0000   1.0000   1.0000   1.0000   1.0000
     1.0000   1.0000   1.0000   1.0000   1.0000   1.0000   1.0000   1.0000
     1.0000   1.0000   1.0000   1.0000   1.0000   1.0000   1.0000   1.0000
     1.0000   1.0000   1.0000   1.0000   1.0000   1.0000   0.9999   0.9999
     0.9997   0.9997   0.9996   0.9996   0.9995   0.9995   0.9994   0.9993
     0.9993   0.9987   0.9983   0.9981   0.9979   0.9932   0.9921   0.9913
     0.9872   0.9860   0.9844   0.9835   0.9820   0.9806   0.9796   0.9777
     0.9753   0.9724   0.9693   0.9691   0.9656   0.9592   0.9470   0.9414
     0.9031   0.8586   0.8550   0.8483   0.8391   0.8351   0.8314   0.8135
     0.8063   0.7907   0.7843   0.7822   0.7739   0.7677   0.7348   0.7277
     0.6971   0.6871   0.6811   0.6798   0.6696   0.6654   0.6627   0.6617
     0.6585   0.6470   0.6430   0.6382   0.6067   0.6027   0.5939   0.5634
     0.1148   0.1013   0.0923   0.0816   0.0178   0.0093   0.0045   0.0031
     0.0007   0.0005   0.0003   0.0002   0.0000   0.0000   0.0000   0.0000
     0.0000   0.0000   0.0000   0.0000   0.0000   0.0000   0.0000   0.0000
     0.0000   0.0000   0.0000   0.0000   0.0000   0.0000   0.0000   0.0000
     0.0000   0.0000

          k = 0.2500 0.2500 0.0000 ( 65198 PWs)   bands (ev):

   -92.8433 -92.7887 -92.6967 -92.6437 -92.5919 -92.5495 -92.5320 -92.4106
   -56.1968 -56.1752 -56.0538 -56.0436 -56.0315 -56.0305 -55.9931 -55.9658
   -55.9508 -55.9493 -55.9394 -55.8991 -55.8784 -55.8427 -55.8232 -55.7921
   -55.7746 -55.7373 -55.7357 -55.7345 -55.7260 -55.6857 -55.6621 -55.5774
   -31.4066 -31.3898 -31.2471 -31.2220 -31.1604 -31.1335 -30.9472 -30.8222
   -29.9878 -29.9461 -29.9208 -29.8121 -15.1547 -15.1148 -15.0432 -14.9260
   -14.8067 -14.6800 -14.6096 -14.4028 -14.2466 -14.2324 -14.1972 -14.1682
   -14.1456 -14.1165 -14.0863 -14.0582 -13.9796 -13.9629 -13.8002 -13.7862
   -13.7586 -13.7359 -13.6920 -13.6471 -13.5764 -13.5602 -13.4230 -13.3980
   -13.3597 -13.2733 -13.2332 -13.1876 -13.1669 -13.1492 -13.1149 -13.0785
   -13.0686 -13.0479 -12.9915 -12.9504 -12.8968 -12.8758 -12.8628 -12.8452
   -12.8023 -12.7672 -12.6174 -12.5842 -12.5127 -12.4090 -12.2343 -12.1956
   -11.9645 -11.9402 -11.9086 -11.8976 -11.8909 -11.8279 -11.7933 -11.7866
   -11.7511 -11.7436 -11.6511 -11.6105 -11.5929  -2.8084  -2.5996  -2.4817
    -2.3872  -2.2668  -2.2016  -2.0034  -1.8598  -1.8405  -1.8110  -1.7161
    -1.6821  -1.5878  -1.5596  -1.5095  -1.3788  -1.3305  -1.2582  -1.2133
    -1.1688  -1.1456  -1.1211  -1.0786  -1.0632  -0.9724  -0.9222  -0.8571
    -0.8070  -0.7756  -0.7277  -0.7113  -0.6490  -0.6013  -0.5460  -0.5088
    -0.4241  -0.3692  -0.3408  -0.3034  -0.2476  -0.1639  -0.1323  -0.1089
    -0.0256   0.0044   0.2699   0.4174   0.4530   0.5138   0.5558   0.6188
     0.6760   0.7304   0.7648   1.0352   1.1003   1.1744   1.2003   1.2484
     1.2802   1.3145   1.3522   1.3693   1.3965   1.4431   1.4504   1.4648
     1.5089   1.5513   1.5882   1.6539   1.6942   1.6968   1.7419   1.7694
     1.8224   1.8554   1.9711   2.0366   2.0711   2.0945   2.1615   2.2325
     2.2566   2.2916   2.3181   2.3311   2.4411   2.4767   2.5646   2.6439
     2.6544   2.6961   2.7394   2.7541   2.7612   2.7760   2.7907   2.8035
     2.8180   2.8254   2.8370   2.8464   2.8596   2.8777   2.8834   2.8966
     2.9185   2.9303   2.9383   2.9700   3.2704   3.3674   3.4088   3.4785
     3.5484   3.7165   3.8146   4.1736   4.4061   4.5928   4.8438   5.1533
     5.5339   5.5889   5.6257   5.7001   5.7609   6.0609   6.1248   6.1852
     6.8596   7.0434   7.1244   7.3465   7.4845   7.5143   7.6241   7.7886
     7.8675   7.9486   8.2034   8.2360   8.3357   8.3576   8.4121   8.4482
     8.5638   8.6354

     occupation numbers 
     1.0000   1.0000   1.0000   1.0000   1.0000   1.0000   1.0000   1.0000
     1.0000   1.0000   1.0000   1.0000   1.0000   1.0000   1.0000   1.0000
     1.0000   1.0000   1.0000   1.0000   1.0000   1.0000   1.0000   1.0000
     1.0000   1.0000   1.0000   1.0000   1.0000   1.0000   1.0000   1.0000
     1.0000   1.0000   1.0000   1.0000   1.0000   1.0000   1.0000   1.0000
     1.0000   1.0000   1.0000   1.0000   1.0000   1.0000   1.0000   1.0000
     1.0000   1.0000   1.0000   1.0000   1.0000   1.0000   1.0000   1.0000
     1.0000   1.0000   1.0000   1.0000   1.0000   1.0000   1.0000   1.0000
     1.0000   1.0000   1.0000   1.0000   1.0000   1.0000   1.0000   1.0000
     1.0000   1.0000   1.0000   1.0000   1.0000   1.0000   1.0000   1.0000
     1.0000   1.0000   1.0000   1.0000   1.0000   1.0000   1.0000   1.0000
     1.0000   1.0000   1.0000   1.0000   1.0000   1.0000   1.0000   1.0000
     1.0000   1.0000   1.0000   1.0000   1.0000   1.0000   1.0000   1.0000
     1.0000   1.0000   1.0000   1.0000   1.0000   1.0000   1.0000   1.0000
     1.0000   1.0000   1.0000   1.0000   1.0000   1.0000   1.0000   1.0000
     1.0000   1.0000   1.0000   1.0000   1.0000   1.0000   1.0000   1.0000
     1.0000   1.0000   1.0000   1.0000   1.0000   1.0000   1.0000   1.0000
     1.0000   1.0000   1.0000   1.0000   1.0000   1.0000   1.0000   1.0000
     1.0000   1.0000   1.0000   1.0000   1.0000   1.0000   1.0000   1.0000
     1.0000   1.0000   1.0000   1.0000   1.0000   1.0000   1.0000   0.9999
     0.9999   0.9999   0.9998   0.9993   0.9990   0.9986   0.9984   0.9980
     0.9977   0.9973   0.9968   0.9965   0.9961   0.9952   0.9950   0.9947
     0.9936   0.9924   0.9912   0.9885   0.9866   0.9865   0.9840   0.9823
     0.9785   0.9759   0.9643   0.9560   0.9510   0.9474   0.9358   0.9215
     0.9161   0.9078   0.9012   0.8978   0.8655   0.8538   0.8218   0.7894
     0.7849   0.7663   0.7462   0.7391   0.7357   0.7285   0.7212   0.7148
     0.7074   0.7036   0.6976   0.6928   0.6858   0.6763   0.6732   0.6661
     0.6542   0.6477   0.6433   0.6256   0.4499   0.3936   0.3701   0.3318
     0.2950   0.2153   0.1752   0.0712   0.0350   0.0183   0.0069   0.0017
     0.0002   0.0002   0.0001   0.0001   0.0001   0.0000   0.0000   0.0000
     0.0000   0.0000   0.0000   0.0000   0.0000   0.0000   0.0000   0.0000
     0.0000   0.0000   0.0000   0.0000   0.0000   0.0000   0.0000   0.0000
     0.0000   0.0000

          k = 0.2500-0.5000 0.0000 ( 65138 PWs)   bands (ev):

   -92.8433 -92.7887 -92.6967 -92.6437 -92.5919 -92.5495 -92.5320 -92.4106
   -56.1968 -56.1752 -56.0538 -56.0436 -56.0315 -56.0305 -55.9931 -55.9658
   -55.9508 -55.9493 -55.9394 -55.8991 -55.8784 -55.8427 -55.8232 -55.7921
   -55.7746 -55.7373 -55.7357 -55.7345 -55.7260 -55.6857 -55.6621 -55.5774
   -31.4064 -31.3897 -31.2473 -31.2217 -31.1605 -31.1338 -30.9469 -30.8224
   -29.9872 -29.9458 -29.9214 -29.8125 -15.1177 -15.0726 -15.0029 -14.8892
   -14.8580 -14.7382 -14.6471 -14.5174 -14.2113 -14.1585 -14.1323 -14.1092
   -14.0940 -14.0801 -14.0447 -14.0286 -13.9955 -13.9551 -13.9336 -13.8914
   -13.8028 -13.7530 -13.7088 -13.6744 -13.6039 -13.5872 -13.4786 -13.4542
   -13.3378 -13.2730 -13.2532 -13.1708 -13.1440 -13.1251 -13.1119 -13.0865
   -13.0722 -13.0433 -12.9581 -12.9405 -12.9040 -12.8717 -12.8358 -12.7896
   -12.7760 -12.7538 -12.6531 -12.5084 -12.4525 -12.3818 -12.3022 -12.2728
   -11.9646 -11.9159 -11.9038 -11.8928 -11.8658 -11.8343 -11.8060 -11.7645
   -11.7370 -11.7147 -11.6694 -11.6440 -11.6327  -2.5905  -2.5239  -2.3959
    -2.3189  -2.1893  -2.1032  -1.9824  -1.8320  -1.7786  -1.7559  -1.6930
    -1.6804  -1.5825  -1.5157  -1.4309  -1.3807  -1.3711  -1.3088  -1.2654
    -1.2310  -1.1843  -1.1468  -1.1120  -1.0722  -1.0606  -1.0152  -0.9855
    -0.9444  -0.9129  -0.8459  -0.7454  -0.7017  -0.6252  -0.5594  -0.5117
    -0.4676  -0.4466  -0.3934  -0.2293  -0.2166  -0.1212  -0.0806  -0.0718
    -0.0302   0.0036   0.0473   0.0712   0.1358   0.4117   0.5095   0.5867
     0.6452   0.8965   0.9242   1.0091   1.0352   1.1975   1.2315   1.2748
     1.2962   1.3113   1.3318   1.3939   1.4405   1.4761   1.5588   1.6536
     1.6951   1.7107   1.7212   1.7588   1.7712   1.7797   1.8232   1.8323
     1.8604   1.8835   1.9026   1.9198   1.9552   2.0123   2.0515   2.1321
     2.2710   2.4148   2.4316   2.4502   2.4773   2.5021   2.5231   2.5506
     2.5558   2.5797   2.6430   2.6540   2.6865   2.7191   2.7478   2.7557
     2.7601   2.7728   2.7935   2.8066   2.8267   2.8334   2.8666   2.8779
     2.8915   2.9015   2.9097   2.9217   3.4548   3.4657   3.6027   3.6538
     4.0197   4.0520   4.0926   4.1813   4.6199   4.7924   4.9639   4.9957
     5.1776   5.3334   5.5290   5.5535   5.6648   5.7003   6.3069   6.3708
     6.4679   6.6923   7.2096   7.6167   7.6799   7.6908   7.7478   7.8125
     7.8609   7.9597   8.1572   8.3202   8.4057   8.4423   8.5795   8.6065
     8.6235   8.6670

     occupation numbers 
     1.0000   1.0000   1.0000   1.0000   1.0000   1.0000   1.0000   1.0000
     1.0000   1.0000   1.0000   1.0000   1.0000   1.0000   1.0000   1.0000
     1.0000   1.0000   1.0000   1.0000   1.0000   1.0000   1.0000   1.0000
     1.0000   1.0000   1.0000   1.0000   1.0000   1.0000   1.0000   1.0000
     1.0000   1.0000   1.0000   1.0000   1.0000   1.0000   1.0000   1.0000
     1.0000   1.0000   1.0000   1.0000   1.0000   1.0000   1.0000   1.0000
     1.0000   1.0000   1.0000   1.0000   1.0000   1.0000   1.0000   1.0000
     1.0000   1.0000   1.0000   1.0000   1.0000   1.0000   1.0000   1.0000
     1.0000   1.0000   1.0000   1.0000   1.0000   1.0000   1.0000   1.0000
     1.0000   1.0000   1.0000   1.0000   1.0000   1.0000   1.0000   1.0000
     1.0000   1.0000   1.0000   1.0000   1.0000   1.0000   1.0000   1.0000
     1.0000   1.0000   1.0000   1.0000   1.0000   1.0000   1.0000   1.0000
     1.0000   1.0000   1.0000   1.0000   1.0000   1.0000   1.0000   1.0000
     1.0000   1.0000   1.0000   1.0000   1.0000   1.0000   1.0000   1.0000
     1.0000   1.0000   1.0000   1.0000   1.0000   1.0000   1.0000   1.0000
     1.0000   1.0000   1.0000   1.0000   1.0000   1.0000   1.0000   1.0000
     1.0000   1.0000   1.0000   1.0000   1.0000   1.0000   1.0000   1.0000
     1.0000   1.0000   1.0000   1.0000   1.0000   1.0000   1.0000   1.0000
     1.0000   1.0000   1.0000   1.0000   1.0000   1.0000   1.0000   1.0000
     1.0000   1.0000   1.0000   1.0000   1.0000   1.0000   1.0000   0.9999
     0.9999   0.9997   0.9996   0.9994   0.9993   0.9984   0.9981   0.9977
     0.9975   0.9973   0.9970   0.9961   0.9952   0.9944   0.9921   0.9885
     0.9866   0.9857   0.9852   0.9829   0.9821   0.9816   0.9785   0.9778
     0.9755   0.9734   0.9716   0.9699   0.9661   0.9593   0.9539   0.9411
     0.9128   0.8738   0.8686   0.8626   0.8535   0.8449   0.8374   0.8271
     0.8252   0.8159   0.7898   0.7850   0.7707   0.7557   0.7422   0.7384
     0.7363   0.7301   0.7198   0.7132   0.7029   0.6995   0.6821   0.6761
     0.6688   0.6634   0.6590   0.6524   0.3447   0.3388   0.2678   0.2435
     0.1077   0.0991   0.0890   0.0696   0.0166   0.0085   0.0041   0.0036
     0.0015   0.0007   0.0003   0.0002   0.0001   0.0001   0.0000   0.0000
     0.0000   0.0000   0.0000   0.0000   0.0000   0.0000   0.0000   0.0000
     0.0000   0.0000   0.0000   0.0000   0.0000   0.0000   0.0000   0.0000
     0.0000   0.0000

          k =-0.5000-0.5000 0.0000 ( 65132 PWs)   bands (ev):

   -92.8433 -92.7887 -92.6967 -92.6437 -92.5919 -92.5495 -92.5320 -92.4106
   -56.1968 -56.1752 -56.0538 -56.0436 -56.0315 -56.0305 -55.9931 -55.9658
   -55.9508 -55.9493 -55.9394 -55.8991 -55.8784 -55.8427 -55.8232 -55.7921
   -55.7746 -55.7373 -55.7357 -55.7345 -55.7260 -55.6857 -55.6621 -55.5774
   -31.4044 -31.3917 -31.2469 -31.2216 -31.1609 -31.1337 -30.9470 -30.8225
   -29.9862 -29.9468 -29.9210 -29.8129 -15.0707 -15.0456 -14.9282 -14.9152
   -14.8218 -14.7851 -14.7516 -14.6177 -14.1232 -14.1093 -14.0767 -14.0576
   -14.0382 -14.0269 -13.9984 -13.9875 -13.9736 -13.9641 -13.9489 -13.8708
   -13.8602 -13.8344 -13.7973 -13.7967 -13.6907 -13.6519 -13.5083 -13.5033
   -13.2879 -13.2514 -13.1818 -13.1572 -13.1290 -13.1244 -13.1155 -13.1061
   -13.0889 -13.0647 -12.9511 -12.9325 -12.9043 -12.8991 -12.8456 -12.7869
   -12.7358 -12.7285 -12.6693 -12.4883 -12.4488 -12.3533 -12.2937 -12.2781
   -11.9645 -11.9123 -11.9003 -11.8823 -11.8654 -11.8305 -11.8122 -11.7785
   -11.7171 -11.6974 -11.6917 -11.6418 -11.6384  -2.3666  -2.2906  -2.2776
    -2.2081  -2.1698  -2.0913  -2.0236  -1.8984  -1.7823  -1.7510  -1.7137
    -1.6557  -1.5841  -1.5690  -1.4986  -1.4560  -1.3387  -1.3087  -1.2614
    -1.2328  -1.1687  -1.1216  -1.1032  -1.0899  -1.0378  -0.9931  -0.9778
    -0.8648  -0.8068  -0.7602  -0.7103  -0.6832  -0.6732  -0.6364  -0.5908
    -0.5582  -0.5477  -0.4612  -0.3941  -0.3502  -0.3222  -0.2501  -0.1924
    -0.1657  -0.1180  -0.0990  -0.0826  -0.0688   0.3821   0.4338   0.5342
     0.5676   0.9306   0.9419   0.9748   1.0125   1.2835   1.3034   1.3101
     1.3476   1.4768   1.5724   1.5998   1.6361   1.6599   1.6829   1.6902
     1.7215   1.7363   1.7578   1.7605   1.8074   1.8111   1.8394   1.8726
     1.8821   1.8965   1.9335   1.9550   1.9670   1.9982   2.0260   2.0923
     2.1596   2.4216   2.4566   2.4749   2.4969   2.4996   2.5366   2.5397
     2.5563   2.5690   2.5860   2.6061   2.6199   2.6450   2.6509   2.6867
     2.6894   2.7003   2.7152   2.7391   2.7545   2.7624   2.7702   2.7720
     2.8747   2.8807   2.9060   2.9160   3.8702   3.8984   3.9436   4.0161
     4.1783   4.2521   4.2776   4.5186   4.6404   4.7233   4.8571   4.9586
     4.9662   5.0655   5.2179   5.2592   5.8331   5.8703   5.9250   6.0212
     6.4553   6.8644   6.9201   7.4181   7.8739   7.8837   7.9630   8.0857
     8.1055   8.1865   8.2041   8.2574   8.3268   8.4883   8.5117   8.5301
     8.5634   8.6210

     occupation numbers 
     1.0000   1.0000   1.0000   1.0000   1.0000   1.0000   1.0000   1.0000
     1.0000   1.0000   1.0000   1.0000   1.0000   1.0000   1.0000   1.0000
     1.0000   1.0000   1.0000   1.0000   1.0000   1.0000   1.0000   1.0000
     1.0000   1.0000   1.0000   1.0000   1.0000   1.0000   1.0000   1.0000
     1.0000   1.0000   1.0000   1.0000   1.0000   1.0000   1.0000   1.0000
     1.0000   1.0000   1.0000   1.0000   1.0000   1.0000   1.0000   1.0000
     1.0000   1.0000   1.0000   1.0000   1.0000   1.0000   1.0000   1.0000
     1.0000   1.0000   1.0000   1.0000   1.0000   1.0000   1.0000   1.0000
     1.0000   1.0000   1.0000   1.0000   1.0000   1.0000   1.0000   1.0000
     1.0000   1.0000   1.0000   1.0000   1.0000   1.0000   1.0000   1.0000
     1.0000   1.0000   1.0000   1.0000   1.0000   1.0000   1.0000   1.0000
     1.0000   1.0000   1.0000   1.0000   1.0000   1.0000   1.0000   1.0000
     1.0000   1.0000   1.0000   1.0000   1.0000   1.0000   1.0000   1.0000
     1.0000   1.0000   1.0000   1.0000   1.0000   1.0000   1.0000   1.0000
     1.0000   1.0000   1.0000   1.0000   1.0000   1.0000   1.0000   1.0000
     1.0000   1.0000   1.0000   1.0000   1.0000   1.0000   1.0000   1.0000
     1.0000   1.0000   1.0000   1.0000   1.0000   1.0000   1.0000   1.0000
     1.0000   1.0000   1.0000   1.0000   1.0000   1.0000   1.0000   1.0000
     1.0000   1.0000   1.0000   1.0000   1.0000   1.0000   1.0000   1.0000
     1.0000   1.0000   1.0000   1.0000   1.0000   1.0000   1.0000   1.0000
     0.9999   0.9996   0.9996   0.9995   0.9994   0.9976   0.9974   0.9973
     0.9968   0.9944   0.9917   0.9907   0.9893   0.9883   0.9872   0.9868
     0.9852   0.9843   0.9830   0.9828   0.9796   0.9794   0.9772   0.9744
     0.9735   0.9722   0.9685   0.9662   0.9648   0.9611   0.9575   0.9478
     0.9362   0.8717   0.8605   0.8544   0.8468   0.8458   0.8324   0.8312
     0.8250   0.8201   0.8133   0.8052   0.7996   0.7889   0.7864   0.7706
     0.7694   0.7644   0.7576   0.7463   0.7390   0.7351   0.7313   0.7305
     0.6778   0.6746   0.6610   0.6556   0.1547   0.1449   0.1302   0.1087
     0.0702   0.0566   0.0525   0.0239   0.0154   0.0112   0.0065   0.0042
     0.0041   0.0026   0.0013   0.0010   0.0000   0.0000   0.0000   0.0000
     0.0000   0.0000   0.0000   0.0000   0.0000   0.0000   0.0000   0.0000
     0.0000   0.0000   0.0000   0.0000   0.0000   0.0000   0.0000   0.0000
     0.0000   0.0000

          k = 0.2500 0.0000 0.0000 ( 65257 PWs)   bands (ev):

   -92.8433 -92.7887 -92.6967 -92.6437 -92.5919 -92.5495 -92.5320 -92.4106
   -56.1968 -56.1752 -56.0538 -56.0436 -56.0315 -56.0305 -55.9931 -55.9658
   -55.9508 -55.9493 -55.9394 -55.8991 -55.8784 -55.8427 -55.8232 -55.7921
   -55.7746 -55.7373 -55.7357 -55.7345 -55.7260 -55.6857 -55.6621 -55.5774
   -31.4068 -31.3899 -31.2469 -31.2223 -31.1602 -31.1332 -30.9474 -30.8219
   -29.9884 -29.9464 -29.9201 -29.8118 -15.1870 -15.1453 -15.0769 -14.9290
   -14.8234 -14.6255 -14.4954 -14.3158 -14.2970 -14.2673 -14.2356 -14.2117
   -14.1765 -14.1607 -14.1404 -14.0983 -13.9806 -13.9486 -13.7959 -13.7320
   -13.7202 -13.6608 -13.6305 -13.6165 -13.5567 -13.4797 -13.4418 -13.3507
   -13.2972 -13.2882 -13.2135 -13.1914 -13.1743 -13.1575 -13.1422 -13.1061
   -13.0727 -13.0582 -13.0226 -13.0095 -12.9518 -12.9035 -12.8873 -12.7794
   -12.7694 -12.7563 -12.7068 -12.6548 -12.5379 -12.3809 -12.2025 -12.1461
   -11.9673 -11.9643 -11.9156 -11.8982 -11.8845 -11.8579 -11.8076 -11.7841
   -11.7761 -11.7258 -11.6360 -11.5805 -11.5745  -2.9462  -2.7245  -2.5946
    -2.4219  -2.3582  -2.1882  -1.9800  -1.9042  -1.8600  -1.8246  -1.7240
[...]
     0.6320   0.6210   0.6184   0.6139   0.6103   0.6046   0.5993   0.5166
     0.3459   0.3188   0.2043   0.0775   0.0410   0.0202   0.0050   0.0032
     0.0002   0.0001   0.0000   0.0000   0.0000   0.0000   0.0000   0.0000
     0.0000   0.0000   0.0000   0.0000   0.0000   0.0000   0.0000   0.0000
     0.0000   0.0000   0.0000   0.0000   0.0000   0.0000   0.0000   0.0000
     0.0000   0.0000

          k =-0.5000 0.0000 0.0000 ( 65180 PWs)   bands (ev):

   -92.8433 -92.7887 -92.6967 -92.6437 -92.5919 -92.5495 -92.5320 -92.4106
   -56.1968 -56.1752 -56.0538 -56.0436 -56.0315 -56.0305 -55.9931 -55.9658
   -55.9508 -55.9493 -55.9394 -55.8991 -55.8784 -55.8427 -55.8232 -55.7921
   -55.7746 -55.7373 -55.7357 -55.7345 -55.7260 -55.6857 -55.6621 -55.5774
   -31.4048 -31.3920 -31.2465 -31.2222 -31.1606 -31.1331 -30.9475 -30.8220
   -29.9874 -29.9475 -29.9198 -29.8122 -15.1534 -15.1013 -15.0398 -14.9329
   -14.8266 -14.6842 -14.5340 -14.3980 -14.2704 -14.2618 -14.2464 -14.1828
   -14.1267 -14.0955 -14.0463 -14.0435 -14.0262 -13.9746 -13.9614 -13.8491
   -13.6918 -13.6709 -13.6321 -13.6255 -13.5561 -13.5004 -13.4344 -13.3975
   -13.3738 -13.3624 -13.2042 -13.1854 -13.1724 -13.1494 -13.1398 -13.0970
   -13.0770 -13.0575 -13.0234 -13.0111 -12.8808 -12.7748 -12.7717 -12.7617
   -12.7526 -12.7466 -12.6726 -12.5906 -12.4689 -12.4588 -12.2899 -12.2516
   -11.9646 -11.9197 -11.8980 -11.8912 -11.8761 -11.8581 -11.8166 -11.7545
   -11.7371 -11.7043 -11.6585 -11.6494 -11.6338  -2.7219  -2.6836  -2.5199
    -2.4809  -2.1664  -2.0925  -1.9429  -1.8267  -1.7868  -1.7426  -1.6936
    -1.6690  -1.5452  -1.5012  -1.4856  -1.4033  -1.3682  -1.3526  -1.3212
    -1.2624  -1.1950  -1.1655  -1.1367  -1.0408  -0.9944  -0.9453  -0.9119
    -0.8909  -0.8619  -0.8126  -0.7884  -0.7475  -0.6528  -0.5754  -0.5137
    -0.4506  -0.2734  -0.2466  -0.1943  -0.1634  -0.0870  -0.0846   0.0605
     0.0866   0.1315   0.3013   0.4004   0.4476   0.5314   0.6175   0.7237
     0.7372   0.8738   0.8927   0.9457   0.9722   1.0121   1.0253   1.0678
     1.0931   1.1615   1.2099   1.2573   1.2632   1.5682   1.5735   1.5933
     1.6199   1.7206   1.7341   1.7508   1.7619   1.7862   1.7950   1.8350
     1.8588   1.8901   1.9379   1.9556   2.0024   2.0252   2.0822   2.1912
     2.2995   2.3594   2.3778   2.4481   2.4857   2.5141   2.5829   2.5884
     2.5980   2.6263   2.6447   2.6509   2.6836   2.7194   2.7491   2.7861
     2.8290   2.8606   2.8640   2.8660   2.8790   2.8919   2.9030   2.9179
     2.9227   2.9465   2.9536   2.9700   2.9885   2.9940   3.1248   3.1461
     3.9314   3.9899   4.0568   4.2464   4.6564   4.7364   4.9115   4.9696
     5.4042   5.4421   5.5171   5.5391   5.8896   5.9027   6.2056   6.6098
     6.7639   6.9679   7.2301   7.2813   7.5745   7.5952   7.6580   7.6965
     7.7937   7.8826   8.0838   8.1425   8.2299   8.4043   8.5086   8.5216
     8.6695   8.7614

     occupation numbers 
     1.0000   1.0000   1.0000   1.0000   1.0000   1.0000   1.0000   1.0000
     1.0000   1.0000   1.0000   1.0000   1.0000   1.0000   1.0000   1.0000
     1.0000   1.0000   1.0000   1.0000   1.0000   1.0000   1.0000   1.0000
     1.0000   1.0000   1.0000   1.0000   1.0000   1.0000   1.0000   1.0000
     1.0000   1.0000   1.0000   1.0000   1.0000   1.0000   1.0000   1.0000
     1.0000   1.0000   1.0000   1.0000   1.0000   1.0000   1.0000   1.0000
     1.0000   1.0000   1.0000   1.0000   1.0000   1.0000   1.0000   1.0000
     1.0000   1.0000   1.0000   1.0000   1.0000   1.0000   1.0000   1.0000
     1.0000   1.0000   1.0000   1.0000   1.0000   1.0000   1.0000   1.0000
     1.0000   1.0000   1.0000   1.0000   1.0000   1.0000   1.0000   1.0000
     1.0000   1.0000   1.0000   1.0000   1.0000   1.0000   1.0000   1.0000
     1.0000   1.0000   1.0000   1.0000   1.0000   1.0000   1.0000   1.0000
     1.0000   1.0000   1.0000   1.0000   1.0000   1.0000   1.0000   1.0000
     1.0000   1.0000   1.0000   1.0000   1.0000   1.0000   1.0000   1.0000
     1.0000   1.0000   1.0000   1.0000   1.0000   1.0000   1.0000   1.0000
     1.0000   1.0000   1.0000   1.0000   1.0000   1.0000   1.0000   1.0000
     1.0000   1.0000   1.0000   1.0000   1.0000   1.0000   1.0000   1.0000
     1.0000   1.0000   1.0000   1.0000   1.0000   1.0000   1.0000   1.0000
     1.0000   1.0000   1.0000   1.0000   1.0000   1.0000   1.0000   1.0000
     1.0000   1.0000   1.0000   1.0000   1.0000   1.0000   0.9999   0.9999
     0.9999   0.9997   0.9997   0.9996   0.9995   0.9994   0.9993   0.9992
     0.9991   0.9987   0.9983   0.9979   0.9978   0.9918   0.9917   0.9910
     0.9900   0.9852   0.9844   0.9834   0.9827   0.9811   0.9805   0.9775
     0.9756   0.9728   0.9680   0.9661   0.9605   0.9576   0.9493   0.9301
     0.9059   0.8901   0.8848   0.8633   0.8506   0.8406   0.8146   0.8124
     0.8085   0.7969   0.7891   0.7864   0.7720   0.7556   0.7416   0.7235
     0.7018   0.6853   0.6835   0.6824   0.6755   0.6686   0.6626   0.6545
     0.6519   0.6387   0.6348   0.6256   0.6151   0.6120   0.5359   0.5234
     0.1341   0.1162   0.0979   0.0576   0.0145   0.0106   0.0052   0.0040
     0.0005   0.0004   0.0003   0.0002   0.0000   0.0000   0.0000   0.0000
     0.0000   0.0000   0.0000   0.0000   0.0000   0.0000   0.0000   0.0000
     0.0000   0.0000   0.0000   0.0000   0.0000   0.0000   0.0000   0.0000
     0.0000   0.0000

          k =-0.2500 0.2500 0.0000 ( 65198 PWs)   bands (ev):

   -92.8433 -92.7887 -92.6967 -92.6437 -92.5919 -92.5495 -92.5320 -92.4106
   -56.1968 -56.1752 -56.0538 -56.0436 -56.0315 -56.0305 -55.9931 -55.9658
   -55.9508 -55.9493 -55.9394 -55.8991 -55.8784 -55.8427 -55.8232 -55.7921
   -55.7746 -55.7373 -55.7357 -55.7345 -55.7260 -55.6857 -55.6621 -55.5774
   -31.4066 -31.3898 -31.2471 -31.2220 -31.1604 -31.1335 -30.9472 -30.8222
   -29.9878 -29.9461 -29.9208 -29.8121 -15.1560 -15.1137 -15.0418 -14.9243
   -14.8129 -14.6847 -14.6015 -14.3937 -14.2536 -14.2230 -14.2100 -14.1633
   -14.1394 -14.1188 -14.1017 -14.0594 -13.9755 -13.9635 -13.8075 -13.7839
   -13.7558 -13.7331 -13.6944 -13.6342 -13.5707 -13.5675 -13.4274 -13.4007
   -13.3542 -13.2772 -13.2351 -13.1732 -13.1638 -13.1405 -13.1191 -13.0857
   -13.0582 -13.0527 -13.0140 -12.9570 -12.9114 -12.9013 -12.8444 -12.8241
   -12.7930 -12.7682 -12.5953 -12.5739 -12.5369 -12.4148 -12.2385 -12.1899
   -11.9645 -11.9394 -11.9180 -11.8906 -11.8787 -11.8375 -11.8031 -11.7797
   -11.7586 -11.7357 -11.6509 -11.6057 -11.5964  -2.8068  -2.5985  -2.4776
    -2.3888  -2.2711  -2.2044  -2.0010  -1.8566  -1.8382  -1.8090  -1.7166
    -1.6810  -1.5875  -1.5532  -1.5270  -1.3845  -1.3289  -1.2610  -1.2324
    -1.1722  -1.1512  -1.1111  -1.0821  -1.0421  -0.9787  -0.9309  -0.8687
    -0.7985  -0.7713  -0.7212  -0.6919  -0.6466  -0.5913  -0.5487  -0.5037
    -0.4049  -0.3718  -0.3577  -0.3170  -0.2489  -0.1689  -0.1275  -0.1006
    -0.0243   0.0029   0.2514   0.4191   0.4615   0.5018   0.5633   0.6212
     0.6774   0.7365   0.7632   1.0432   1.1508   1.1914   1.2242   1.2294
     1.2729   1.2903   1.3336   1.3648   1.3791   1.4047   1.4506   1.4668
     1.5088   1.5252   1.5716   1.6672   1.6857   1.6967   1.7458   1.7658
     1.8035   1.8641   1.9610   2.0667   2.0931   2.1403   2.1604   2.2297
     2.2679   2.2943   2.3199   2.3404   2.4417   2.4756   2.5650   2.6435
     2.6544   2.6956   2.7443   2.7546   2.7659   2.7757   2.7869   2.8007
     2.8071   2.8255   2.8364   2.8490   2.8570   2.8691   2.8790   2.8863
     2.9195   2.9304   2.9374   2.9720   3.2635   3.3468   3.4145   3.4973
     3.5416   3.7009   3.8231   4.1725   4.4057   4.5936   4.8535   5.1535
     5.5353   5.5850   5.6287   5.6971   5.7620   6.0640   6.1339   6.1717
     6.8603   7.0780   7.0854   7.3525   7.4945   7.5203   7.5979   7.7999
     7.8610   7.9509   8.2248   8.2375   8.3080   8.3582   8.4311   8.4419
     8.5441   8.6496

     occupation numbers 
     1.0000   1.0000   1.0000   1.0000   1.0000   1.0000   1.0000   1.0000
     1.0000   1.0000   1.0000   1.0000   1.0000   1.0000   1.0000   1.0000
     1.0000   1.0000   1.0000   1.0000   1.0000   1.0000   1.0000   1.0000
     1.0000   1.0000   1.0000   1.0000   1.0000   1.0000   1.0000   1.0000
     1.0000   1.0000   1.0000   1.0000   1.0000   1.0000   1.0000   1.0000
     1.0000   1.0000   1.0000   1.0000   1.0000   1.0000   1.0000   1.0000
     1.0000   1.0000   1.0000   1.0000   1.0000   1.0000   1.0000   1.0000
     1.0000   1.0000   1.0000   1.0000   1.0000   1.0000   1.0000   1.0000
     1.0000   1.0000   1.0000   1.0000   1.0000   1.0000   1.0000   1.0000
     1.0000   1.0000   1.0000   1.0000   1.0000   1.0000   1.0000   1.0000
     1.0000   1.0000   1.0000   1.0000   1.0000   1.0000   1.0000   1.0000
     1.0000   1.0000   1.0000   1.0000   1.0000   1.0000   1.0000   1.0000
     1.0000   1.0000   1.0000   1.0000   1.0000   1.0000   1.0000   1.0000
     1.0000   1.0000   1.0000   1.0000   1.0000   1.0000   1.0000   1.0000
     1.0000   1.0000   1.0000   1.0000   1.0000   1.0000   1.0000   1.0000
     1.0000   1.0000   1.0000   1.0000   1.0000   1.0000   1.0000   1.0000
     1.0000   1.0000   1.0000   1.0000   1.0000   1.0000   1.0000   1.0000
     1.0000   1.0000   1.0000   1.0000   1.0000   1.0000   1.0000   1.0000
     1.0000   1.0000   1.0000   1.0000   1.0000   1.0000   1.0000   1.0000
     1.0000   1.0000   1.0000   1.0000   1.0000   1.0000   1.0000   0.9999
     0.9999   0.9999   0.9998   0.9993   0.9987   0.9985   0.9982   0.9982
     0.9977   0.9976   0.9970   0.9966   0.9963   0.9959   0.9950   0.9946
     0.9936   0.9932   0.9917   0.9879   0.9870   0.9865   0.9837   0.9825
     0.9799   0.9751   0.9655   0.9517   0.9476   0.9397   0.9360   0.9221
     0.9135   0.9072   0.9007   0.8953   0.8653   0.8541   0.8216   0.7896
     0.7849   0.7666   0.7439   0.7389   0.7334   0.7286   0.7231   0.7162
     0.7129   0.7036   0.6979   0.6914   0.6872   0.6808   0.6756   0.6716
     0.6536   0.6476   0.6438   0.6244   0.4539   0.4054   0.3670   0.3217
     0.2986   0.2221   0.1719   0.0714   0.0350   0.0183   0.0066   0.0017
     0.0002   0.0002   0.0001   0.0001   0.0001   0.0000   0.0000   0.0000
     0.0000   0.0000   0.0000   0.0000   0.0000   0.0000   0.0000   0.0000
     0.0000   0.0000   0.0000   0.0000   0.0000   0.0000   0.0000   0.0000
     0.0000   0.0000

          k =-0.5000 0.2500 0.0000 ( 65138 PWs)   bands (ev):

   -92.8433 -92.7887 -92.6967 -92.6437 -92.5919 -92.5495 -92.5320 -92.4106
   -56.1968 -56.1752 -56.0538 -56.0436 -56.0315 -56.0305 -55.9931 -55.9658
   -55.9508 -55.9493 -55.9394 -55.8991 -55.8784 -55.8427 -55.8232 -55.7921
   -55.7746 -55.7373 -55.7357 -55.7345 -55.7260 -55.6857 -55.6621 -55.5774
   -31.4046 -31.3918 -31.2467 -31.2219 -31.1607 -31.1334 -30.9473 -30.8223
   -29.9868 -29.9471 -29.9204 -29.8125 -15.1204 -15.0751 -14.9966 -14.8988
   -14.8563 -14.7308 -14.6398 -14.5137 -14.2047 -14.1734 -14.1614 -14.1141
   -14.0943 -14.0685 -14.0333 -14.0295 -14.0042 -13.9654 -13.9547 -13.8437
   -13.7731 -13.7277 -13.7240 -13.7104 -13.6066 -13.6008 -13.4719 -13.4361
   -13.3304 -13.2963 -13.2000 -13.1651 -13.1549 -13.1468 -13.1200 -13.0879
   -13.0717 -13.0554 -13.0277 -12.9636 -12.8908 -12.8245 -12.8035 -12.7719
   -12.7533 -12.7446 -12.6707 -12.5320 -12.4543 -12.4119 -12.2874 -12.2636
   -11.9646 -11.9123 -11.8994 -11.8853 -11.8734 -11.8517 -11.8214 -11.7415
   -11.7327 -11.7097 -11.6730 -11.6452 -11.6364  -2.5795  -2.5377  -2.3895
    -2.3473  -2.1855  -2.1111  -1.9673  -1.8328  -1.7761  -1.7493  -1.7097
    -1.6715  -1.5907  -1.4753  -1.4178  -1.3949  -1.3699  -1.2922  -1.2645
    -1.2249  -1.2085  -1.1475  -1.1185  -1.0795  -1.0442  -1.0153  -0.9574
    -0.9300  -0.8883  -0.8536  -0.7500  -0.7207  -0.6354  -0.5700  -0.5392
    -0.4858  -0.3978  -0.3615  -0.2657  -0.2168  -0.1659  -0.1097  -0.0918
    -0.0174   0.0091   0.0419   0.0923   0.1312   0.4431   0.5122   0.5803
     0.6099   0.8836   0.9337   1.0098   1.0349   1.2106   1.2485   1.2852
     1.2963   1.3147   1.3325   1.4029   1.4446   1.4905   1.5137   1.6493
     1.6782   1.7064   1.7189   1.7681   1.7820   1.7970   1.8121   1.8308
     1.8531   1.9045   1.9136   1.9490   1.9695   2.0025   2.0604   2.1813
     2.2841   2.3079   2.3761   2.4123   2.4636   2.5118   2.5167   2.5539
     2.5883   2.6098   2.6457   2.6470   2.6894   2.7202   2.7440   2.7547
     2.7599   2.7823   2.8039   2.8140   2.8297   2.8416   2.8639   2.8754
     2.8860   2.8933   2.9039   2.9146   3.4442   3.5175   3.6335   3.6631
     3.9382   4.0167   4.0687   4.3066   4.6494   4.7492   4.9102   4.9813
     5.2691   5.3051   5.5266   5.5851   5.6507   5.6675   6.2902   6.3637
     6.4756   6.7250   7.1901   7.6348   7.6877   7.7023   7.7440   7.7813
     7.8737   7.9411   8.1352   8.3207   8.4031   8.4549   8.5367   8.5950
     8.6666   8.7252

     occupation numbers 
     1.0000   1.0000   1.0000   1.0000   1.0000   1.0000   1.0000   1.0000
     1.0000   1.0000   1.0000   1.0000   1.0000   1.0000   1.0000   1.0000
     1.0000   1.0000   1.0000   1.0000   1.0000   1.0000   1.0000   1.0000
     1.0000   1.0000   1.0000   1.0000   1.0000   1.0000   1.0000   1.0000
     1.0000   1.0000   1.0000   1.0000   1.0000   1.0000   1.0000   1.0000
     1.0000   1.0000   1.0000   1.0000   1.0000   1.0000   1.0000   1.0000
     1.0000   1.0000   1.0000   1.0000   1.0000   1.0000   1.0000   1.0000
     1.0000   1.0000   1.0000   1.0000   1.0000   1.0000   1.0000   1.0000
     1.0000   1.0000   1.0000   1.0000   1.0000   1.0000   1.0000   1.0000
     1.0000   1.0000   1.0000   1.0000   1.0000   1.0000   1.0000   1.0000
     1.0000   1.0000   1.0000   1.0000   1.0000   1.0000   1.0000   1.0000
     1.0000   1.0000   1.0000   1.0000   1.0000   1.0000   1.0000   1.0000
     1.0000   1.0000   1.0000   1.0000   1.0000   1.0000   1.0000   1.0000
     1.0000   1.0000   1.0000   1.0000   1.0000   1.0000   1.0000   1.0000
     1.0000   1.0000   1.0000   1.0000   1.0000   1.0000   1.0000   1.0000
     1.0000   1.0000   1.0000   1.0000   1.0000   1.0000   1.0000   1.0000
     1.0000   1.0000   1.0000   1.0000   1.0000   1.0000   1.0000   1.0000
     1.0000   1.0000   1.0000   1.0000   1.0000   1.0000   1.0000   1.0000
     1.0000   1.0000   1.0000   1.0000   1.0000   1.0000   1.0000   1.0000
     1.0000   1.0000   1.0000   1.0000   1.0000   1.0000   1.0000   0.9999
     0.9999   0.9997   0.9996   0.9994   0.9993   0.9983   0.9980   0.9976
     0.9975   0.9973   0.9970   0.9959   0.9951   0.9941   0.9935   0.9887
     0.9874   0.9860   0.9853   0.9823   0.9814   0.9804   0.9793   0.9779
     0.9761   0.9714   0.9705   0.9668   0.9645   0.9605   0.9526   0.9321
     0.9097   0.9038   0.8853   0.8746   0.8582   0.8415   0.8397   0.8259
     0.8124   0.8037   0.7886   0.7881   0.7694   0.7552   0.7440   0.7388
     0.7363   0.7254   0.7146   0.7094   0.7014   0.6953   0.6835   0.6775
     0.6718   0.6679   0.6622   0.6563   0.3505   0.3110   0.2530   0.2392
     0.1319   0.1086   0.0949   0.0480   0.0149   0.0101   0.0052   0.0038
     0.0010   0.0008   0.0003   0.0002   0.0001   0.0001   0.0000   0.0000
     0.0000   0.0000   0.0000   0.0000   0.0000   0.0000   0.0000   0.0000
     0.0000   0.0000   0.0000   0.0000   0.0000   0.0000   0.0000   0.0000
     0.0000   0.0000

     the Fermi energy is     3.1856 ev

!    total energy              =   -4440.28949074 Ry
     estimated scf accuracy    <          5.5E-09 Ry
     smearing contrib. (-TS)   =      -1.20552093 Ry
     internal energy E=F+TS    =   -4439.08396982 Ry

     The total energy is F=E-TS. E is the sum of the following terms:
     one-electron contribution =  -20891.34491469 Ry
     hartree contribution      =   10575.21760230 Ry
     xc contribution           =    -693.24336455 Ry
     ewald contribution        =    6846.47910122 Ry
     one-center paw contrib.   =    -276.19239410 Ry
      -> PAW hartree energy AE =      25.15956688 Ry
      -> PAW hartree energy PS =     -25.04349285 Ry
      -> PAW xc energy AE      =     -16.51703633 Ry
      -> PAW xc energy PS      =       6.87647172 Ry
      -> total E_H with PAW    =   10575.33367632 Ry
      -> total E_XC with PAW   =    -702.88392916 Ry

     convergence has been achieved in  48 iterations

     Writing all to output data dir /bsuhome/zayahcortright/scratch/pwscf.save/
 
     init_run     :      8.16s CPU      8.68s WALL (       1 calls)
     electrons    :    678.30s CPU    711.12s WALL (       1 calls)

     Called by init_run:
     wfcinit      :      6.40s CPU      6.64s WALL (       1 calls)
     wfcinit:atom :      0.04s CPU      0.06s WALL (       5 calls)
     wfcinit:wfcr :      6.08s CPU      6.23s WALL (       5 calls)
     potinit      :      0.21s CPU      0.24s WALL (       1 calls)
     hinit0       :      0.62s CPU      0.65s WALL (       1 calls)

     Called by electrons:
     c_bands      :    538.35s CPU    545.09s WALL (      48 calls)
     sum_band     :    105.07s CPU    119.44s WALL (      48 calls)
     v_of_rho     :      5.13s CPU      5.51s WALL (      49 calls)
     v_h          :      0.41s CPU      0.42s WALL (      49 calls)
     v_xc         :      4.72s CPU      5.09s WALL (      49 calls)
     newd         :     16.04s CPU     27.00s WALL (      49 calls)
     PAW_pot      :      1.57s CPU      1.61s WALL (      49 calls)
     mix_rho      :     11.90s CPU     12.26s WALL (      48 calls)

     Called by c_bands:
     init_us_2    :      6.83s CPU      6.90s WALL (     485 calls)
     init_us_2:cp :      6.82s CPU      6.90s WALL (     485 calls)
     cegterg      :    507.19s CPU    513.62s WALL (     240 calls)

     Called by sum_band:
     sum_band:wei :      0.35s CPU      0.35s WALL (      48 calls)
     sum_band:loo :     87.58s CPU     88.33s WALL (      48 calls)
     sum_band:buf :      1.38s CPU      1.46s WALL (     240 calls)
     sum_band:ini :      3.21s CPU      3.22s WALL (     240 calls)
     sum_band:cal :     19.27s CPU     19.34s WALL (     240 calls)
     sum_band:bec :      0.53s CPU      0.53s WALL (     240 calls)
     addusdens    :     15.52s CPU     29.09s WALL (      48 calls)
                                        0.00s GPU  (      48 calls)
     addusd:skk   :      0.28s CPU      0.96s WALL (     144 calls)
                                        0.00s GPU  (     144 calls)

     Called by *egterg:
     cdiaghg      :     49.68s CPU     49.93s WALL (    1158 calls)
     cegterg:over :     36.60s CPU     36.79s WALL (     918 calls)
     cegterg:upda :     26.80s CPU     27.29s WALL (     918 calls)
     cegterg:last :     58.04s CPU     58.36s WALL (     438 calls)
     cdiaghg:chol :      2.85s CPU      2.87s WALL (    1158 calls)
     cdiaghg:inve :      2.54s CPU      2.56s WALL (    1158 calls)
     cdiaghg:para :      6.54s CPU      6.59s WALL (    2316 calls)
     h_psi        :    283.16s CPU    286.15s WALL (    1163 calls)
     s_psi        :     38.18s CPU     38.31s WALL (    1163 calls)
     g_psi        :      1.03s CPU      1.03s WALL (     918 calls)

     Called by h_psi:
     h_psi:calbec :     43.19s CPU     43.43s WALL (    1163 calls)
     vloc_psi     :    199.12s CPU    200.98s WALL (    1163 calls)
     add_vuspsi   :     38.03s CPU     38.25s WALL (    1163 calls)

     General routines
     calbec       :     62.45s CPU     62.77s WALL (    1403 calls)
     fft          :      3.73s CPU      3.78s WALL (     635 calls)
     ffts         :      4.40s CPU      4.44s WALL (    5090 calls)
     fftw         :    170.65s CPU    172.03s WALL (  322012 calls)
     interpolate  :      0.40s CPU      0.41s WALL (      49 calls)
 
     Parallel routines

     PAW routines
     PAW_pot      :      1.57s CPU      1.61s WALL (      49 calls)
 
     PWSCF        :  11m29.46s CPU  12m 5.86s WALL

 
   This run was terminated on:  19:33:30  21Jun2024            

=------------------------------------------------------------------------------=
   JOB DONE.
=------------------------------------------------------------------------------=
