
     Program PWSCF v.7.2 starts on 21Jun2024 at 23:53:26 

     This program is part of the open-source Quantum ESPRESSO suite
     for quantum simulation of materials; please cite
         "P. Giannozzi et al., J. Phys.:Condens. Matter 21 395502 (2009);
         "P. Giannozzi et al., J. Phys.:Condens. Matter 29 465901 (2017);
         "P. Giannozzi et al., J. Chem. Phys. 152 154105 (2020);
          URL http://www.quantum-espresso.org", 
     in publications or presentations arising from this work. More details at
     http://www.quantum-espresso.org/quote

     Parallel version (MPI & OpenMP), running on      48 processor cores
     Number of MPI processes:                48
     Threads/MPI process:                     1

     MPI processes distributed on     1 nodes
     180140 MiB available memory on the printing compute node when the environment starts
 
     Reading input from espresso.pwi
Warning: card &CELL ignored
Warning: card / ignored
Warning: card &FCP ignored
Warning: card / ignored
Warning: card &RISM ignored
Warning: card / ignored

     Current dimensions of program PWSCF are:
     Max number of different atomic species (ntypx) = 10
     Max number of k-points (npk) =  40000
     Max angular momentum in pseudopotentials (lmaxx) =  4
     file O.pbe-n-kjpaw_psl.0.1.UPF: wavefunction(s)  2P renormalized
     signal trapping enabled: kill the code with -SIGUSR1 to stop cleanly the simulation 
 
     K-points division:     npool     =       2
     R & G space division:  proc/nbgrp/npool/nimage =      24
     Subspace diagonalization in iterative solution of the eigenvalue problem:
     one sub-group per band group will be used
     scalapack distributed-memory algorithm (size of sub-group:  3*  3 procs)

 
     Parallelization info
     --------------------
     sticks:   dense  smooth     PW     G-vecs:    dense   smooth      PW
     Min         350     175     47                61430    21716    3036
     Max         351     177     48                61449    21727    3041
     Sum        8421    4205   1137              1474595   521381   72913
 
     Using Slab Decomposition
 


     bravais-lattice index     =            0
     lattice parameter (alat)  =      14.8599  a.u.
     unit-cell volume          =    8305.1283 (a.u.)^3
     number of atoms/cell      =           49
     number of atomic types    =            4
     number of electrons       =       425.00
     number of Kohn-Sham states=          256
     kinetic-energy cutoff     =      60.0000  Ry
     charge density cutoff     =     480.0000  Ry
     scf convergence threshold =      1.0E-08
     mixing beta               =       0.1500
     number of iterations used =            8  local-TF  mixing
     Exchange-correlation= PBE
                           (   1   4   3   4   0   0   0)

     celldm(1)=  14.859904  celldm(2)=   0.000000  celldm(3)=   0.000000
     celldm(4)=   0.000000  celldm(5)=   0.000000  celldm(6)=   0.000000

     crystal axes: (cart. coord. in units of alat)
               a(1) = (   1.000000   0.000000   0.000000 )  
               a(2) = (   0.000000   1.000000   0.000000 )  
               a(3) = (   0.000000   0.000000   2.531036 )  

     reciprocal axes: (cart. coord. in units 2 pi/alat)
               b(1) = (  1.000000  0.000000  0.000000 )  
               b(2) = (  0.000000  1.000000  0.000000 )  
               b(3) = (  0.000000  0.000000  0.395095 )  


     PseudoPot. # 1 for Sr read from file:
     /bsuhome/zayahcortright/q-e/pseudo/Sr_pbe_v1.uspp.F.UPF
     MD5 check sum: 6b418c05fbe9db5448babca5e47b7a5b
     Pseudo is Ultrasoft + core correction, Zval = 10.0
     Generated by new atomic code, or converted to UPF format
     Using radial grid of  883 points,  6 beta functions with: 
                l(1) =   0
                l(2) =   0
                l(3) =   1
                l(4) =   1
                l(5) =   2
                l(6) =   2
     Q(r) pseudized with  6 coefficients,  rinner =    1.400   1.400   1.400
                                                       1.400   1.400

     PseudoPot. # 2 for O  read from file:
     /bsuhome/zayahcortright/q-e/pseudo/O.pbe-n-kjpaw_psl.0.1.UPF
     MD5 check sum: 0234752ac141de4415c5fc33072bef88
     Pseudo is Projector augmented-wave + core cor, Zval =  6.0
     Generated using "atomic" code by A. Dal Corso  v.5.0.99 svn rev. 10869
     Shape of augmentation charge: BESSEL
     Using radial grid of 1095 points,  4 beta functions with: 
                l(1) =   0
                l(2) =   0
                l(3) =   1
                l(4) =   1
     Q(r) pseudized with 0 coefficients 


     PseudoPot. # 3 for Co read from file:
     /bsuhome/zayahcortright/q-e/pseudo/Co_pbe_v1.2.uspp.F.UPF
     MD5 check sum: 5f91765df6ddd3222702df6e7b74a16d
     Pseudo is Ultrasoft + core correction, Zval = 17.0
     Generated by new atomic code, or converted to UPF format
     Using radial grid of  863 points,  6 beta functions with: 
                l(1) =   0
                l(2) =   0
                l(3) =   1
                l(4) =   1
                l(5) =   2
                l(6) =   2
     Q(r) pseudized with  8 coefficients,  rinner =    1.200   1.200   1.200
                                                       1.200   1.200

     PseudoPot. # 4 for H  read from file:
     /bsuhome/zayahcortright/q-e/pseudo/H.pbe-rrkjus_psl.1.0.0.UPF
     MD5 check sum: f52b6d4d1c606e5624b1dc7b2218f220
     Pseudo is Ultrasoft, Zval =  1.0
     Generated using "atomic" code by A. Dal Corso  v.5.1
     Using radial grid of  929 points,  2 beta functions with: 
                l(1) =   0
                l(2) =   0
     Q(r) pseudized with 0 coefficients 


     atomic species   valence    mass     pseudopotential
        Sr            10.00    87.62000     Sr( 1.00)
        O              6.00    15.99900     O ( 1.00)
        Co            17.00    58.93319     Co( 1.00)
        H              1.00     1.00800     H ( 1.00)

     No symmetry found


                                    s                        frac. trans.

      isym =  1     identity                                     

 cryst.   s( 1) = (     1          0          0      )
                  (     0          1          0      )
                  (     0          0          1      )

 cart.    s( 1) = (  1.0000000  0.0000000  0.0000000 )
                  (  0.0000000  1.0000000  0.0000000 )
                  (  0.0000000  0.0000000  1.0000000 )


   Cartesian axes

     site n.     atom                  positions (alat units)
         1           Sr  tau(   1) = (   0.2508693   0.7491307   1.7574407  )
         2           O   tau(   2) = (   0.4985141   0.5014859   1.7715967  )
         3           Sr  tau(   3) = (   0.7482398   0.7454518   1.7648669  )
         4           Sr  tau(   4) = (   0.7441748   0.2558252   1.7667843  )
         5           Sr  tau(   5) = (   0.2508693   0.7491307   1.2696799  )
         6           Sr  tau(   6) = (   0.2508693   0.7491307   0.7632319  )
         7           Co  tau(   7) = (   0.4998914   0.5001086   1.0164559  )
         8           Co  tau(   8) = (   0.4936915   0.5063085   1.5135603  )
         9           O   tau(   9) = (   0.4988895   0.7610401   1.0164559  )
        10           O   tau(  10) = (   0.2389599   0.5011105   1.0164559  )
        11           O   tau(  11) = (   0.0070918   0.7374880   1.0164559  )
        12           O   tau(  12) = (   0.0088340   0.7405089   1.5135603  )
        13           O   tau(  13) = (   0.5066944   0.7415376   1.5135603  )
        14           O   tau(  14) = (   0.2584624   0.4933056   1.5135603  )
        15           O   tau(  15) = (   0.4985141   0.5014859   0.7773880  )
        16           O   tau(  16) = (   0.4985141   0.5014859   1.2555238  )
        17           Sr  tau(  17) = (   0.7482398   0.7454518   0.7706582  )
        18           Sr  tau(  18) = (   0.7482398   0.7454518   1.2622536  )
        19           Sr  tau(  19) = (   0.7441748   0.2558252   0.7725755  )
        20           Sr  tau(  20) = (   0.7441748   0.2558252   1.2603363  )
        21           O   tau(  21) = (   0.7322655   0.0078049   1.5135603  )
        22           O   tau(  22) = (   0.7558175   0.4996027   1.5135603  )
        23           O   tau(  23) = (   0.5003973   0.2441825   1.5135603  )
        24           O   tau(  24) = (   0.7527966   0.4978604   1.0164559  )
        25           O   tau(  25) = (   0.5021396   0.2472034   1.0164559  )
        26           O   tau(  26) = (   0.7517679   0.0000000   1.0164559  )
        27           O   tau(  27) = (   0.0114961   0.4948124   1.7455321  )
        28           O   tau(  28) = (   0.0048226   0.0077944   1.7715967  )
        29           Sr  tau(  29) = (   0.2545482   0.2517602   1.7648669  )
        30           O   tau(  30) = (   0.5048017   0.0015068   1.7786929  )
        31           Co  tau(  31) = (   0.0056869   0.5006215   1.0164559  )
        32           Co  tau(  32) = (   0.0065315   0.4997770   1.5135603  )
        33           Co  tau(  33) = (   0.0061999   0.0064171   1.0164559  )
        34           Co  tau(  34) = (   0.0000000   0.0126169   1.5135603  )
        35           O   tau(  35) = (   0.0114961   0.4948124   1.2815885  )
        36           O   tau(  36) = (   0.0114961   0.4948124   0.7513233  )
        37           O   tau(  37) = (   0.0051979   0.2673486   1.0164559  )
        38           O   tau(  38) = (   0.0130029   0.2478461   1.5135603  )
        39           O   tau(  39) = (   0.0048226   0.0077944   0.7773880  )
        40           O   tau(  40) = (   0.0048226   0.0077944   1.2555238  )
        41           Sr  tau(  41) = (   0.2545482   0.2517602   0.7706582  )
        42           Sr  tau(  42) = (   0.2545482   0.2517602   1.2622536  )
        43           Co  tau(  43) = (   0.4989925   0.0073160   1.5135603  )
        44           Co  tau(  44) = (   0.4998370   0.0064714   1.0164559  )
        45           O   tau(  45) = (   0.5048017   0.0015068   0.7844841  )
        46           O   tau(  46) = (   0.5048017   0.0015068   1.2484277  )
        47           O   tau(  47) = (   0.2621260   0.0059111   1.5135603  )
        48           O   tau(  48) = (   0.2591051   0.0041689   1.0164559  )
        49           H   tau(  49) = (   0.9951520   0.4264937   2.1602013  )

   Crystallographic axes

     site n.     atom                  positions (cryst. coord.)
         1           Sr  tau(   1) = (  0.2508693  0.7491307  0.6943562  )
         2           O   tau(   2) = (  0.4985141  0.5014859  0.6999492  )
         3           Sr  tau(   3) = (  0.7482398  0.7454518  0.6972903  )
         4           Sr  tau(   4) = (  0.7441748  0.2558252  0.6980478  )
         5           Sr  tau(   5) = (  0.2508693  0.7491307  0.5016443  )
         6           Sr  tau(   6) = (  0.2508693  0.7491307  0.3015492  )
         7           Co  tau(   7) = (  0.4998914  0.5001086  0.4015968  )
         8           Co  tau(   8) = (  0.4936915  0.5063085  0.5980003  )
         9           O   tau(   9) = (  0.4988895  0.7610401  0.4015968  )
        10           O   tau(  10) = (  0.2389599  0.5011105  0.4015968  )
        11           O   tau(  11) = (  0.0070918  0.7374880  0.4015968  )
        12           O   tau(  12) = (  0.0088340  0.7405089  0.5980003  )
        13           O   tau(  13) = (  0.5066944  0.7415376  0.5980003  )
        14           O   tau(  14) = (  0.2584624  0.4933056  0.5980003  )
        15           O   tau(  15) = (  0.4985141  0.5014859  0.3071422  )
        16           O   tau(  16) = (  0.4985141  0.5014859  0.4960513  )
        17           Sr  tau(  17) = (  0.7482398  0.7454518  0.3044833  )
        18           Sr  tau(  18) = (  0.7482398  0.7454518  0.4987103  )
        19           Sr  tau(  19) = (  0.7441748  0.2558252  0.3052408  )
        20           Sr  tau(  20) = (  0.7441748  0.2558252  0.4979527  )
        21           O   tau(  21) = (  0.7322655  0.0078049  0.5980003  )
        22           O   tau(  22) = (  0.7558175  0.4996027  0.5980003  )
        23           O   tau(  23) = (  0.5003973  0.2441825  0.5980003  )
        24           O   tau(  24) = (  0.7527966  0.4978604  0.4015968  )
        25           O   tau(  25) = (  0.5021396  0.2472034  0.4015968  )
        26           O   tau(  26) = (  0.7517679  0.0000000  0.4015968  )
        27           O   tau(  27) = (  0.0114961  0.4948124  0.6896512  )
        28           O   tau(  28) = (  0.0048226  0.0077944  0.6999492  )
        29           Sr  tau(  29) = (  0.2545482  0.2517602  0.6972903  )
        30           O   tau(  30) = (  0.5048017  0.0015068  0.7027529  )
        31           Co  tau(  31) = (  0.0056869  0.5006215  0.4015968  )
        32           Co  tau(  32) = (  0.0065315  0.4997770  0.5980003  )
        33           Co  tau(  33) = (  0.0061999  0.0064171  0.4015968  )
        34           Co  tau(  34) = (  0.0000000  0.0126169  0.5980003  )
        35           O   tau(  35) = (  0.0114961  0.4948124  0.5063494  )
        36           O   tau(  36) = (  0.0114961  0.4948124  0.2968442  )
        37           O   tau(  37) = (  0.0051979  0.2673486  0.4015968  )
        38           O   tau(  38) = (  0.0130029  0.2478461  0.5980003  )
        39           O   tau(  39) = (  0.0048226  0.0077944  0.3071422  )
        40           O   tau(  40) = (  0.0048226  0.0077944  0.4960513  )
        41           Sr  tau(  41) = (  0.2545482  0.2517602  0.3044833  )
        42           Sr  tau(  42) = (  0.2545482  0.2517602  0.4987103  )
        43           Co  tau(  43) = (  0.4989925  0.0073160  0.5980003  )
        44           Co  tau(  44) = (  0.4998370  0.0064714  0.4015968  )
        45           O   tau(  45) = (  0.5048017  0.0015068  0.3099459  )
        46           O   tau(  46) = (  0.5048017  0.0015068  0.4932477  )
        47           O   tau(  47) = (  0.2621260  0.0059111  0.5980003  )
        48           O   tau(  48) = (  0.2591051  0.0041689  0.4015968  )
        49           H   tau(  49) = (  0.9951520  0.4264937  0.8534850  )

     number of k points=    10  Gaussian smearing, width (Ry)=  0.0700
                       cart. coord. in units 2pi/alat
        k(    1) = (   0.0000000   0.0000000   0.0000000), wk =   0.1250000
        k(    2) = (   0.0000000   0.2500000   0.0000000), wk =   0.2500000
        k(    3) = (   0.0000000  -0.5000000   0.0000000), wk =   0.1250000
        k(    4) = (   0.2500000   0.2500000   0.0000000), wk =   0.2500000
        k(    5) = (   0.2500000  -0.5000000   0.0000000), wk =   0.2500000
        k(    6) = (  -0.5000000  -0.5000000   0.0000000), wk =   0.1250000
        k(    7) = (   0.2500000   0.0000000   0.0000000), wk =   0.2500000
        k(    8) = (  -0.5000000   0.0000000   0.0000000), wk =   0.1250000
        k(    9) = (  -0.2500000   0.2500000   0.0000000), wk =   0.2500000
        k(   10) = (  -0.5000000   0.2500000   0.0000000), wk =   0.2500000

                       cryst. coord.
        k(    1) = (   0.0000000   0.0000000   0.0000000), wk =   0.1250000
        k(    2) = (   0.0000000   0.2500000   0.0000000), wk =   0.2500000
        k(    3) = (   0.0000000  -0.5000000   0.0000000), wk =   0.1250000
        k(    4) = (   0.2500000   0.2500000   0.0000000), wk =   0.2500000
        k(    5) = (   0.2500000  -0.5000000   0.0000000), wk =   0.2500000
        k(    6) = (  -0.5000000  -0.5000000   0.0000000), wk =   0.1250000
        k(    7) = (   0.2500000   0.0000000   0.0000000), wk =   0.2500000
        k(    8) = (  -0.5000000   0.0000000   0.0000000), wk =   0.1250000
        k(    9) = (  -0.2500000   0.2500000   0.0000000), wk =   0.2500000
        k(   10) = (  -0.5000000   0.2500000   0.0000000), wk =   0.2500000

     Dense  grid:  1474595 G-vectors     FFT dimensions: ( 108, 108, 270)

     Smooth grid:   521381 G-vectors     FFT dimensions: (  75,  75, 192)

     Dynamical RAM for                 wfc:      10.61 MB

     Dynamical RAM for     wfc (w. buffer):      63.63 MB

     Dynamical RAM for           str. fact:       3.75 MB

     Dynamical RAM for           local pot:       0.00 MB

     Dynamical RAM for          nlocal pot:      24.28 MB

     Dynamical RAM for                qrad:       7.03 MB

     Dynamical RAM for          rho,v,vnew:       6.02 MB

     Dynamical RAM for               rhoin:       2.01 MB

     Dynamical RAM for            rho*nmix:      15.00 MB

     Dynamical RAM for           G-vectors:       3.68 MB

     Dynamical RAM for          h,s,v(r/c):       1.32 MB

     Dynamical RAM for          <psi|beta>:       2.29 MB

     Dynamical RAM for                 psi:      21.21 MB

     Dynamical RAM for                hpsi:      21.21 MB

     Dynamical RAM for                spsi:      21.21 MB

     Dynamical RAM for      wfcinit/wfcrot:      34.09 MB

     Dynamical RAM for           addusdens:     100.79 MB

     Estimated static dynamical RAM per process >     120.42 MB

     Estimated max dynamical RAM per process >     236.21 MB

     Estimated total dynamical RAM >      10.72 GB

     Check: negative core charge=   -0.000004

     Initial potential from superposition of free atoms

     starting charge     416.5961, renormalised to     425.0000

     negative rho (up, down):  7.827E-01 0.000E+00
     Starting wfcs are  373 randomized atomic wfcs
     Checking if some PAW data can be deallocated... 
       PAW data deallocated on   20 nodes for type:  2

     total cpu time spent up to now is        8.8 secs

     Self-consistent Calculation

     iteration #  1     ecut=    60.00 Ry     beta= 0.15
     Davidson diagonalization with overlap

---- Real-time Memory Report at c_bands before calling an iterative solver
             0 MiB given to the printing process from OS
             0 MiB allocation reported by mallinfo(arena+hblkhd)
        170484 MiB available memory on the node where the printing process lives
------------------
     ethr =  1.00E-02,  avg # of iterations =  2.0

     negative rho (up, down):  7.714E-01 0.000E+00

     total cpu time spent up to now is       23.1 secs

     total energy              =   -4404.63959374 Ry
     estimated scf accuracy    <      42.20545576 Ry

     iteration #  2     ecut=    60.00 Ry     beta= 0.15
     Davidson diagonalization with overlap

---- Real-time Memory Report at c_bands before calling an iterative solver
             0 MiB given to the printing process from OS
             0 MiB allocation reported by mallinfo(arena+hblkhd)
        170712 MiB available memory on the node where the printing process lives
------------------
     ethr =  9.93E-03,  avg # of iterations =  1.0

     negative rho (up, down):  7.533E-01 0.000E+00

     total cpu time spent up to now is       35.3 secs

     total energy              =   -4400.06760028 Ry
     estimated scf accuracy    <      26.23056167 Ry

     iteration #  3     ecut=    60.00 Ry     beta= 0.15
     Davidson diagonalization with overlap

---- Real-time Memory Report at c_bands before calling an iterative solver
             0 MiB given to the printing process from OS
             0 MiB allocation reported by mallinfo(arena+hblkhd)
        169950 MiB available memory on the node where the printing process lives
------------------
     ethr =  6.17E-03,  avg # of iterations =  2.0

     negative rho (up, down):  7.545E-01 0.000E+00

     total cpu time spent up to now is       48.7 secs

     total energy              =   -4402.37238143 Ry
     estimated scf accuracy    <      48.47043644 Ry

     iteration #  4     ecut=    60.00 Ry     beta= 0.15
     Davidson diagonalization with overlap

---- Real-time Memory Report at c_bands before calling an iterative solver
             0 MiB given to the printing process from OS
             0 MiB allocation reported by mallinfo(arena+hblkhd)
        169828 MiB available memory on the node where the printing process lives
------------------
     ethr =  6.17E-03,  avg # of iterations =  1.0

     negative rho (up, down):  7.414E-01 0.000E+00

     total cpu time spent up to now is       60.6 secs

     total energy              =   -4401.62212215 Ry
     estimated scf accuracy    <      29.20099578 Ry

     iteration #  5     ecut=    60.00 Ry     beta= 0.15
     Davidson diagonalization with overlap

---- Real-time Memory Report at c_bands before calling an iterative solver
             0 MiB given to the printing process from OS
             0 MiB allocation reported by mallinfo(arena+hblkhd)
        169808 MiB available memory on the node where the printing process lives
------------------
     ethr =  6.17E-03,  avg # of iterations =  1.0

     negative rho (up, down):  7.475E-01 0.000E+00

     total cpu time spent up to now is       72.4 secs

     total energy              =   -4399.86240948 Ry
     estimated scf accuracy    <      43.41325541 Ry

     iteration #  6     ecut=    60.00 Ry     beta= 0.15
     Davidson diagonalization with overlap

---- Real-time Memory Report at c_bands before calling an iterative solver
             0 MiB given to the printing process from OS
             0 MiB allocation reported by mallinfo(arena+hblkhd)
        169784 MiB available memory on the node where the printing process lives
------------------
     ethr =  6.17E-03,  avg # of iterations =  1.0

     negative rho (up, down):  7.427E-01 0.000E+00

     total cpu time spent up to now is       84.3 secs

     total energy              =   -4400.63513134 Ry
     estimated scf accuracy    <      11.68574450 Ry

     iteration #  7     ecut=    60.00 Ry     beta= 0.15
     Davidson diagonalization with overlap

---- Real-time Memory Report at c_bands before calling an iterative solver
             0 MiB given to the printing process from OS
             0 MiB allocation reported by mallinfo(arena+hblkhd)
        169767 MiB available memory on the node where the printing process lives
------------------
     ethr =  2.75E-03,  avg # of iterations =  1.1

     negative rho (up, down):  7.448E-01 0.000E+00

     total cpu time spent up to now is       96.5 secs

     total energy              =   -4400.81115921 Ry
     estimated scf accuracy    <       4.11563666 Ry

     iteration #  8     ecut=    60.00 Ry     beta= 0.15
     Davidson diagonalization with overlap

---- Real-time Memory Report at c_bands before calling an iterative solver
             0 MiB given to the printing process from OS
             0 MiB allocation reported by mallinfo(arena+hblkhd)
        169745 MiB available memory on the node where the printing process lives
------------------
     ethr =  9.68E-04,  avg # of iterations =  1.6

     negative rho (up, down):  7.547E-01 0.000E+00

     total cpu time spent up to now is      109.1 secs

     total energy              =   -4400.36950785 Ry
     estimated scf accuracy    <       3.68147436 Ry

     iteration #  9     ecut=    60.00 Ry     beta= 0.15
     Davidson diagonalization with overlap

---- Real-time Memory Report at c_bands before calling an iterative solver
             0 MiB given to the printing process from OS
             0 MiB allocation reported by mallinfo(arena+hblkhd)
        169731 MiB available memory on the node where the printing process lives
------------------
     ethr =  8.66E-04,  avg # of iterations =  3.0

     negative rho (up, down):  7.755E-01 0.000E+00

     total cpu time spent up to now is      123.1 secs

     total energy              =   -4399.81428099 Ry
     estimated scf accuracy    <      49.31713887 Ry

     iteration # 10     ecut=    60.00 Ry     beta= 0.15
     Davidson diagonalization with overlap

---- Real-time Memory Report at c_bands before calling an iterative solver
             0 MiB given to the printing process from OS
             0 MiB allocation reported by mallinfo(arena+hblkhd)
        169681 MiB available memory on the node where the printing process lives
------------------
     ethr =  8.66E-04,  avg # of iterations =  9.5

     negative rho (up, down):  7.794E-01 0.000E+00

     total cpu time spent up to now is      140.7 secs

     total energy              =   -4399.73414364 Ry
     estimated scf accuracy    <      11.44518024 Ry

     iteration # 11     ecut=    60.00 Ry     beta= 0.15
     Davidson diagonalization with overlap

---- Real-time Memory Report at c_bands before calling an iterative solver
             0 MiB given to the printing process from OS
             0 MiB allocation reported by mallinfo(arena+hblkhd)
        169320 MiB available memory on the node where the printing process lives
------------------
     ethr =  8.66E-04,  avg # of iterations =  1.0

     negative rho (up, down):  7.823E-01 0.000E+00

     total cpu time spent up to now is      152.7 secs

     total energy              =   -4400.12465742 Ry
     estimated scf accuracy    <       1.09258404 Ry

     iteration # 12     ecut=    60.00 Ry     beta= 0.15
     Davidson diagonalization with overlap

---- Real-time Memory Report at c_bands before calling an iterative solver
             0 MiB given to the printing process from OS
             0 MiB allocation reported by mallinfo(arena+hblkhd)
        169310 MiB available memory on the node where the printing process lives
------------------
     ethr =  2.57E-04,  avg # of iterations =  2.6

     negative rho (up, down):  7.926E-01 0.000E+00

     total cpu time spent up to now is      166.1 secs

     total energy              =   -4400.11180800 Ry
     estimated scf accuracy    <       1.26954701 Ry

     iteration # 13     ecut=    60.00 Ry     beta= 0.15
     Davidson diagonalization with overlap

---- Real-time Memory Report at c_bands before calling an iterative solver
             0 MiB given to the printing process from OS
             0 MiB allocation reported by mallinfo(arena+hblkhd)
        169318 MiB available memory on the node where the printing process lives
------------------
     ethr =  2.57E-04,  avg # of iterations =  1.3

     negative rho (up, down):  7.961E-01 0.000E+00

     total cpu time spent up to now is      178.5 secs

     total energy              =   -4400.07936450 Ry
     estimated scf accuracy    <       2.63407666 Ry

     iteration # 14     ecut=    60.00 Ry     beta= 0.15
     Davidson diagonalization with overlap

---- Real-time Memory Report at c_bands before calling an iterative solver
             0 MiB given to the printing process from OS
             0 MiB allocation reported by mallinfo(arena+hblkhd)
        169322 MiB available memory on the node where the printing process lives
------------------
     ethr =  2.57E-04,  avg # of iterations =  5.4

     negative rho (up, down):  8.071E-01 0.000E+00

     total cpu time spent up to now is      193.3 secs

     total energy              =   -4400.01733288 Ry
     estimated scf accuracy    <       1.19424506 Ry

     iteration # 15     ecut=    60.00 Ry     beta= 0.15
     Davidson diagonalization with overlap

---- Real-time Memory Report at c_bands before calling an iterative solver
             0 MiB given to the printing process from OS
             0 MiB allocation reported by mallinfo(arena+hblkhd)
        169304 MiB available memory on the node where the printing process lives
------------------
     ethr =  2.57E-04,  avg # of iterations =  6.6

     negative rho (up, down):  8.109E-01 0.000E+00

     total cpu time spent up to now is      208.5 secs

     total energy              =   -4400.04275135 Ry
     estimated scf accuracy    <       0.37540807 Ry

     iteration # 16     ecut=    60.00 Ry     beta= 0.15
     Davidson diagonalization with overlap

---- Real-time Memory Report at c_bands before calling an iterative solver
             0 MiB given to the printing process from OS
             0 MiB allocation reported by mallinfo(arena+hblkhd)
        169299 MiB available memory on the node where the printing process lives
------------------
     c_bands:  1 eigenvalues not converged
     ethr =  8.83E-05,  avg # of iterations =  9.0

     negative rho (up, down):  8.173E-01 0.000E+00

     total cpu time spent up to now is      224.7 secs

     total energy              =   -4400.00290293 Ry
     estimated scf accuracy    <       0.33335900 Ry

     iteration # 17     ecut=    60.00 Ry     beta= 0.15
     Davidson diagonalization with overlap

---- Real-time Memory Report at c_bands before calling an iterative solver
             0 MiB given to the printing process from OS
             0 MiB allocation reported by mallinfo(arena+hblkhd)
        169230 MiB available memory on the node where the printing process lives
------------------
     ethr =  7.84E-05,  avg # of iterations = 10.8

     negative rho (up, down):  8.184E-01 0.000E+00

     total cpu time spent up to now is      241.6 secs

     total energy              =   -4399.95710042 Ry
     estimated scf accuracy    <       0.25439810 Ry

     iteration # 18     ecut=    60.00 Ry     beta= 0.15
     Davidson diagonalization with overlap

---- Real-time Memory Report at c_bands before calling an iterative solver
             0 MiB given to the printing process from OS
             0 MiB allocation reported by mallinfo(arena+hblkhd)
        169272 MiB available memory on the node where the printing process lives
------------------
     ethr =  5.99E-05,  avg # of iterations =  7.5

     negative rho (up, down):  8.155E-01 0.000E+00

     total cpu time spent up to now is      258.1 secs

     total energy              =   -4399.95734865 Ry
     estimated scf accuracy    <       0.15071376 Ry

     iteration # 19     ecut=    60.00 Ry     beta= 0.15
     Davidson diagonalization with overlap

---- Real-time Memory Report at c_bands before calling an iterative solver
             0 MiB given to the printing process from OS
             0 MiB allocation reported by mallinfo(arena+hblkhd)
        169257 MiB available memory on the node where the printing process lives
------------------
     c_bands:  1 eigenvalues not converged
     ethr =  3.55E-05,  avg # of iterations =  4.7

     negative rho (up, down):  8.141E-01 0.000E+00

     total cpu time spent up to now is      273.0 secs

     total energy              =   -4399.94063574 Ry
     estimated scf accuracy    <       0.11963731 Ry

     iteration # 20     ecut=    60.00 Ry     beta= 0.15
     Davidson diagonalization with overlap

---- Real-time Memory Report at c_bands before calling an iterative solver
             0 MiB given to the printing process from OS
             0 MiB allocation reported by mallinfo(arena+hblkhd)
        169241 MiB available memory on the node where the printing process lives
------------------
     c_bands:  1 eigenvalues not converged
     ethr =  2.81E-05,  avg # of iterations =  9.4

     negative rho (up, down):  8.215E-01 0.000E+00

     total cpu time spent up to now is      290.0 secs

     total energy              =   -4399.93004492 Ry
     estimated scf accuracy    <       0.08380848 Ry

     iteration # 21     ecut=    60.00 Ry     beta= 0.15
     Davidson diagonalization with overlap

---- Real-time Memory Report at c_bands before calling an iterative solver
             0 MiB given to the printing process from OS
             0 MiB allocation reported by mallinfo(arena+hblkhd)
        169204 MiB available memory on the node where the printing process lives
------------------
     ethr =  1.97E-05,  avg # of iterations =  7.0

     negative rho (up, down):  8.239E-01 0.000E+00

     total cpu time spent up to now is      305.9 secs

     total energy              =   -4399.92845967 Ry
     estimated scf accuracy    <       0.05798530 Ry

     iteration # 22     ecut=    60.00 Ry     beta= 0.15
     Davidson diagonalization with overlap

---- Real-time Memory Report at c_bands before calling an iterative solver
             0 MiB given to the printing process from OS
             0 MiB allocation reported by mallinfo(arena+hblkhd)
        169206 MiB available memory on the node where the printing process lives
------------------
     c_bands:  1 eigenvalues not converged
     ethr =  1.36E-05,  avg # of iterations =  7.0

     negative rho (up, down):  8.091E-01 0.000E+00

     total cpu time spent up to now is      321.7 secs

     total energy              =   -4399.92453970 Ry
     estimated scf accuracy    <       0.04504963 Ry

     iteration # 23     ecut=    60.00 Ry     beta= 0.15
     Davidson diagonalization with overlap

---- Real-time Memory Report at c_bands before calling an iterative solver
             0 MiB given to the printing process from OS
             0 MiB allocation reported by mallinfo(arena+hblkhd)
        169194 MiB available memory on the node where the printing process lives
------------------
     c_bands:  1 eigenvalues not converged
     ethr =  1.06E-05,  avg # of iterations =  7.8

     negative rho (up, down):  7.985E-01 0.000E+00

     total cpu time spent up to now is      337.6 secs

     total energy              =   -4399.91736132 Ry
     estimated scf accuracy    <       0.03334144 Ry

     iteration # 24     ecut=    60.00 Ry     beta= 0.15
     Davidson diagonalization with overlap

---- Real-time Memory Report at c_bands before calling an iterative solver
             0 MiB given to the printing process from OS
             0 MiB allocation reported by mallinfo(arena+hblkhd)
        169201 MiB available memory on the node where the printing process lives
------------------
     ethr =  7.85E-06,  avg # of iterations = 13.4

     negative rho (up, down):  7.995E-01 0.000E+00

     total cpu time spent up to now is      357.0 secs

     total energy              =   -4399.91837353 Ry
     estimated scf accuracy    <       0.01190275 Ry

     iteration # 25     ecut=    60.00 Ry     beta= 0.15
     Davidson diagonalization with overlap

---- Real-time Memory Report at c_bands before calling an iterative solver
             0 MiB given to the printing process from OS
             0 MiB allocation reported by mallinfo(arena+hblkhd)
        169123 MiB available memory on the node where the printing process lives
------------------
     ethr =  2.80E-06,  avg # of iterations = 10.5

     negative rho (up, down):  7.955E-01 0.000E+00

     total cpu time spent up to now is      373.8 secs

     total energy              =   -4399.91816894 Ry
     estimated scf accuracy    <       0.00828299 Ry

     iteration # 26     ecut=    60.00 Ry     beta= 0.15
     Davidson diagonalization with overlap

---- Real-time Memory Report at c_bands before calling an iterative solver
             0 MiB given to the printing process from OS
             0 MiB allocation reported by mallinfo(arena+hblkhd)
        169076 MiB available memory on the node where the printing process lives
------------------
     ethr =  1.95E-06,  avg # of iterations =  2.9

     negative rho (up, down):  7.883E-01 0.000E+00

     total cpu time spent up to now is      387.6 secs

     total energy              =   -4399.91730781 Ry
     estimated scf accuracy    <       0.00620706 Ry

     iteration # 27     ecut=    60.00 Ry     beta= 0.15
     Davidson diagonalization with overlap

---- Real-time Memory Report at c_bands before calling an iterative solver
             0 MiB given to the printing process from OS
             0 MiB allocation reported by mallinfo(arena+hblkhd)
        169101 MiB available memory on the node where the printing process lives
------------------
     c_bands:  1 eigenvalues not converged
     ethr =  1.46E-06,  avg # of iterations =  9.6

     negative rho (up, down):  7.902E-01 0.000E+00

     total cpu time spent up to now is      404.8 secs

     total energy              =   -4399.91690215 Ry
     estimated scf accuracy    <       0.00386819 Ry

     iteration # 28     ecut=    60.00 Ry     beta= 0.15
     Davidson diagonalization with overlap

---- Real-time Memory Report at c_bands before calling an iterative solver
             0 MiB given to the printing process from OS
             0 MiB allocation reported by mallinfo(arena+hblkhd)
        169098 MiB available memory on the node where the printing process lives
------------------
     ethr =  9.10E-07,  avg # of iterations = 12.4

     negative rho (up, down):  7.937E-01 0.000E+00

     total cpu time spent up to now is      423.8 secs

     total energy              =   -4399.91704945 Ry
     estimated scf accuracy    <       0.00142304 Ry

     iteration # 29     ecut=    60.00 Ry     beta= 0.15
     Davidson diagonalization with overlap

---- Real-time Memory Report at c_bands before calling an iterative solver
             0 MiB given to the printing process from OS
             0 MiB allocation reported by mallinfo(arena+hblkhd)
        169043 MiB available memory on the node where the printing process lives
------------------
     c_bands:  1 eigenvalues not converged
     c_bands:  1 eigenvalues not converged
     ethr =  3.35E-07,  avg # of iterations = 12.1

     negative rho (up, down):  7.947E-01 0.000E+00

     total cpu time spent up to now is      442.5 secs

     total energy              =   -4399.91713218 Ry
     estimated scf accuracy    <       0.00055843 Ry

     iteration # 30     ecut=    60.00 Ry     beta= 0.15
     Davidson diagonalization with overlap

---- Real-time Memory Report at c_bands before calling an iterative solver
             0 MiB given to the printing process from OS
             0 MiB allocation reported by mallinfo(arena+hblkhd)
        169071 MiB available memory on the node where the printing process lives
------------------
     ethr =  1.31E-07,  avg # of iterations =  2.0

     negative rho (up, down):  7.944E-01 0.000E+00

     total cpu time spent up to now is      456.1 secs

     total energy              =   -4399.91714613 Ry
     estimated scf accuracy    <       0.00033026 Ry

     iteration # 31     ecut=    60.00 Ry     beta= 0.15
     Davidson diagonalization with overlap

---- Real-time Memory Report at c_bands before calling an iterative solver
             0 MiB given to the printing process from OS
             0 MiB allocation reported by mallinfo(arena+hblkhd)
        169096 MiB available memory on the node where the printing process lives
------------------
     ethr =  7.77E-08,  avg # of iterations =  2.0

     negative rho (up, down):  7.928E-01 0.000E+00

     total cpu time spent up to now is      469.5 secs

     total energy              =   -4399.91716053 Ry
     estimated scf accuracy    <       0.00018007 Ry

     iteration # 32     ecut=    60.00 Ry     beta= 0.15
     Davidson diagonalization with overlap

---- Real-time Memory Report at c_bands before calling an iterative solver
             0 MiB given to the printing process from OS
             0 MiB allocation reported by mallinfo(arena+hblkhd)
        169119 MiB available memory on the node where the printing process lives
------------------
     ethr =  4.24E-08,  avg # of iterations =  2.0

     negative rho (up, down):  7.922E-01 0.000E+00

     total cpu time spent up to now is      483.0 secs

     total energy              =   -4399.91718083 Ry
     estimated scf accuracy    <       0.00009102 Ry

     iteration # 33     ecut=    60.00 Ry     beta= 0.15
     Davidson diagonalization with overlap

---- Real-time Memory Report at c_bands before calling an iterative solver
             0 MiB given to the printing process from OS
             0 MiB allocation reported by mallinfo(arena+hblkhd)
        169132 MiB available memory on the node where the printing process lives
------------------
     ethr =  2.14E-08,  avg # of iterations =  2.1

     negative rho (up, down):  7.924E-01 0.000E+00

     total cpu time spent up to now is      497.0 secs

     total energy              =   -4399.91718464 Ry
     estimated scf accuracy    <       0.00003384 Ry

     iteration # 34     ecut=    60.00 Ry     beta= 0.15
     Davidson diagonalization with overlap

---- Real-time Memory Report at c_bands before calling an iterative solver
             0 MiB given to the printing process from OS
             0 MiB allocation reported by mallinfo(arena+hblkhd)
        169133 MiB available memory on the node where the printing process lives
------------------
     ethr =  7.96E-09,  avg # of iterations =  2.1

     negative rho (up, down):  7.923E-01 0.000E+00

     total cpu time spent up to now is      511.0 secs

     total energy              =   -4399.91718584 Ry
     estimated scf accuracy    <       0.00002237 Ry

     iteration # 35     ecut=    60.00 Ry     beta= 0.15
     Davidson diagonalization with overlap

---- Real-time Memory Report at c_bands before calling an iterative solver
             0 MiB given to the printing process from OS
             0 MiB allocation reported by mallinfo(arena+hblkhd)
        169131 MiB available memory on the node where the printing process lives
------------------
     ethr =  5.26E-09,  avg # of iterations =  2.2

     negative rho (up, down):  7.924E-01 0.000E+00

     total cpu time spent up to now is      525.2 secs

     total energy              =   -4399.91718255 Ry
     estimated scf accuracy    <       0.00001701 Ry

     iteration # 36     ecut=    60.00 Ry     beta= 0.15
     Davidson diagonalization with overlap

---- Real-time Memory Report at c_bands before calling an iterative solver
             0 MiB given to the printing process from OS
             0 MiB allocation reported by mallinfo(arena+hblkhd)
        169151 MiB available memory on the node where the printing process lives
------------------
     ethr =  4.00E-09,  avg # of iterations =  2.9

     negative rho (up, down):  7.924E-01 0.000E+00

     total cpu time spent up to now is      539.4 secs

     total energy              =   -4399.91718036 Ry
     estimated scf accuracy    <       0.00000639 Ry

     iteration # 37     ecut=    60.00 Ry     beta= 0.15
     Davidson diagonalization with overlap

---- Real-time Memory Report at c_bands before calling an iterative solver
             0 MiB given to the printing process from OS
             0 MiB allocation reported by mallinfo(arena+hblkhd)
        169141 MiB available memory on the node where the printing process lives
------------------
     ethr =  1.50E-09,  avg # of iterations =  3.3

     negative rho (up, down):  7.923E-01 0.000E+00

     total cpu time spent up to now is      553.8 secs

     total energy              =   -4399.91717997 Ry
     estimated scf accuracy    <       0.00000441 Ry

     iteration # 38     ecut=    60.00 Ry     beta= 0.15
     Davidson diagonalization with overlap

---- Real-time Memory Report at c_bands before calling an iterative solver
             0 MiB given to the printing process from OS
             0 MiB allocation reported by mallinfo(arena+hblkhd)
        169148 MiB available memory on the node where the printing process lives
------------------
     ethr =  1.04E-09,  avg # of iterations =  2.1

     negative rho (up, down):  7.923E-01 0.000E+00

     total cpu time spent up to now is      567.7 secs

     total energy              =   -4399.91718232 Ry
     estimated scf accuracy    <       0.00000359 Ry

     iteration # 39     ecut=    60.00 Ry     beta= 0.15
     Davidson diagonalization with overlap

---- Real-time Memory Report at c_bands before calling an iterative solver
             0 MiB given to the printing process from OS
             0 MiB allocation reported by mallinfo(arena+hblkhd)
        169156 MiB available memory on the node where the printing process lives
------------------
     ethr =  8.46E-10,  avg # of iterations =  2.8

     negative rho (up, down):  7.925E-01 0.000E+00

     total cpu time spent up to now is      581.9 secs

     total energy              =   -4399.91718428 Ry
     estimated scf accuracy    <       0.00000157 Ry

     iteration # 40     ecut=    60.00 Ry     beta= 0.15
     Davidson diagonalization with overlap

---- Real-time Memory Report at c_bands before calling an iterative solver
             0 MiB given to the printing process from OS
             0 MiB allocation reported by mallinfo(arena+hblkhd)
        169159 MiB available memory on the node where the printing process lives
------------------
     ethr =  3.68E-10,  avg # of iterations =  4.6

     negative rho (up, down):  7.925E-01 0.000E+00

     total cpu time spent up to now is      597.1 secs

     total energy              =   -4399.91718422 Ry
     estimated scf accuracy    <       0.00000055 Ry

     iteration # 41     ecut=    60.00 Ry     beta= 0.15
     Davidson diagonalization with overlap

---- Real-time Memory Report at c_bands before calling an iterative solver
             0 MiB given to the printing process from OS
             0 MiB allocation reported by mallinfo(arena+hblkhd)
        169087 MiB available memory on the node where the printing process lives
------------------
     ethr =  1.30E-10,  avg # of iterations =  3.3

     negative rho (up, down):  7.925E-01 0.000E+00

     total cpu time spent up to now is      611.2 secs

     total energy              =   -4399.91718423 Ry
     estimated scf accuracy    <       0.00000032 Ry

     iteration # 42     ecut=    60.00 Ry     beta= 0.15
     Davidson diagonalization with overlap

---- Real-time Memory Report at c_bands before calling an iterative solver
             0 MiB given to the printing process from OS
             0 MiB allocation reported by mallinfo(arena+hblkhd)
        169088 MiB available memory on the node where the printing process lives
------------------
     ethr =  7.61E-11,  avg # of iterations =  1.6

     negative rho (up, down):  7.925E-01 0.000E+00

     total cpu time spent up to now is      624.3 secs

     total energy              =   -4399.91718431 Ry
     estimated scf accuracy    <       0.00000024 Ry

     iteration # 43     ecut=    60.00 Ry     beta= 0.15
     Davidson diagonalization with overlap

---- Real-time Memory Report at c_bands before calling an iterative solver
             0 MiB given to the printing process from OS
             0 MiB allocation reported by mallinfo(arena+hblkhd)
        169108 MiB available memory on the node where the printing process lives
------------------
     ethr =  5.55E-11,  avg # of iterations =  1.9

     negative rho (up, down):  7.925E-01 0.000E+00

     total cpu time spent up to now is      638.1 secs

     total energy              =   -4399.91718439 Ry
     estimated scf accuracy    <       0.00000020 Ry

     iteration # 44     ecut=    60.00 Ry     beta= 0.15
     Davidson diagonalization with overlap

---- Real-time Memory Report at c_bands before calling an iterative solver
             0 MiB given to the printing process from OS
             0 MiB allocation reported by mallinfo(arena+hblkhd)
        169126 MiB available memory on the node where the printing process lives
------------------
     ethr =  4.67E-11,  avg # of iterations =  2.1

     negative rho (up, down):  7.924E-01 0.000E+00

     total cpu time spent up to now is      652.0 secs

     total energy              =   -4399.91718445 Ry
     estimated scf accuracy    <       0.00000015 Ry

     iteration # 45     ecut=    60.00 Ry     beta= 0.15
     Davidson diagonalization with overlap

---- Real-time Memory Report at c_bands before calling an iterative solver
             0 MiB given to the printing process from OS
             0 MiB allocation reported by mallinfo(arena+hblkhd)
        169143 MiB available memory on the node where the printing process lives
------------------
     ethr =  3.43E-11,  avg # of iterations =  2.5

     negative rho (up, down):  7.924E-01 0.000E+00

     total cpu time spent up to now is      666.0 secs

     total energy              =   -4399.91718451 Ry
     estimated scf accuracy    <       0.00000008 Ry

     iteration # 46     ecut=    60.00 Ry     beta= 0.15
     Davidson diagonalization with overlap

---- Real-time Memory Report at c_bands before calling an iterative solver
             0 MiB given to the printing process from OS
             0 MiB allocation reported by mallinfo(arena+hblkhd)
        169144 MiB available memory on the node where the printing process lives
------------------
     ethr =  1.96E-11,  avg # of iterations =  3.2

     negative rho (up, down):  7.924E-01 0.000E+00

     total cpu time spent up to now is      680.4 secs

     total energy              =   -4399.91718453 Ry
     estimated scf accuracy    <       0.00000005 Ry

     iteration # 47     ecut=    60.00 Ry     beta= 0.15
     Davidson diagonalization with overlap

---- Real-time Memory Report at c_bands before calling an iterative solver
             0 MiB given to the printing process from OS
             0 MiB allocation reported by mallinfo(arena+hblkhd)
        169156 MiB available memory on the node where the printing process lives
------------------
     ethr =  1.13E-11,  avg # of iterations =  3.1

     negative rho (up, down):  7.924E-01 0.000E+00

     total cpu time spent up to now is      694.7 secs

     total energy              =   -4399.91718454 Ry
     estimated scf accuracy    <       0.00000002 Ry

     iteration # 48     ecut=    60.00 Ry     beta= 0.15
     Davidson diagonalization with overlap

---- Real-time Memory Report at c_bands before calling an iterative solver
             0 MiB given to the printing process from OS
             0 MiB allocation reported by mallinfo(arena+hblkhd)
        169155 MiB available memory on the node where the printing process lives
------------------
     ethr =  4.03E-12,  avg # of iterations =  2.6

     negative rho (up, down):  7.924E-01 0.000E+00

     total cpu time spent up to now is      709.0 secs

     total energy              =   -4399.91718454 Ry
     estimated scf accuracy    <       0.00000001 Ry

     iteration # 49     ecut=    60.00 Ry     beta= 0.15
     Davidson diagonalization with overlap

---- Real-time Memory Report at c_bands before calling an iterative solver
             0 MiB given to the printing process from OS
             0 MiB allocation reported by mallinfo(arena+hblkhd)
        169148 MiB available memory on the node where the printing process lives
------------------
     ethr =  2.48E-12,  avg # of iterations =  2.2

     negative rho (up, down):  7.924E-01 0.000E+00

     total cpu time spent up to now is      722.9 secs

     End of self-consistent calculation

          k = 0.0000 0.0000 0.0000 ( 65197 PWs)   bands (ev):

   -92.7347 -92.6805 -92.5897 -92.5402 -92.4833 -92.4414 -92.4239 -92.3021
   -56.0882 -56.0648 -55.9466 -55.9355 -55.9284 -55.9223 -55.8852 -55.8586
   -55.8425 -55.8409 -55.8329 -55.7906 -55.7711 -55.7344 -55.7164 -55.6834
   -55.6755 -55.6296 -55.6295 -55.6266 -55.6181 -55.5770 -55.5542 -55.4672
   -31.3104 -31.2910 -31.1490 -31.1370 -31.0621 -30.9725 -30.9488 -30.7652
   -29.8832 -29.8399 -29.8138 -29.7054 -15.1153 -15.0732 -14.9909 -14.8615
   -14.6674 -14.5482 -14.2534 -14.2347 -14.2050 -14.1600 -14.1152 -14.0996
   -14.0930 -14.0744 -14.0581 -14.0174 -13.9657 -13.8138 -13.6304 -13.6023
   -13.5709 -13.5349 -13.5207 -13.4709 -13.4368 -13.3547 -13.2828 -13.1774
   -13.1433 -13.1415 -13.1208 -13.1080 -13.0894 -13.0464 -13.0355 -13.0237
   -12.9883 -12.9568 -12.9468 -12.9355 -12.9180 -12.8707 -12.8600 -12.8238
   -12.8136 -12.7122 -12.6894 -12.6767 -12.3752 -12.2289 -12.0761 -12.0037
   -11.8966 -11.8225 -11.8112 -11.7887 -11.7710 -11.7072 -11.6899 -11.6554
   -11.6263 -11.5144 -11.4345 -11.4311  -2.9759  -2.7437  -2.5143  -2.3661
    -2.3043  -2.1617  -1.8540  -1.8392  -1.8202  -1.7330  -1.7169  -1.6485
    -1.6325  -1.5915  -1.5470  -1.3665  -1.1400  -1.1101  -0.9649  -0.9506
    -0.9051  -0.8855  -0.8402  -0.8248  -0.7685  -0.7413  -0.6698  -0.6588
    -0.5812  -0.4499  -0.4370  -0.4076  -0.3271  -0.3056  -0.2726  -0.2332
    -0.1630  -0.1270  -0.0661  -0.0448   0.0153   0.0939   0.1452   0.1673
     0.1764   0.4353   0.4515   0.6229   0.6885   0.7506   0.7974   0.8878
     0.9000   0.9164   0.9871   1.0148   1.0481   1.1064   1.2392   1.2941
     1.3166   1.3417   1.3517   1.4134   1.4871   1.5928   1.6095   1.6619
     1.6775   1.7206   1.7416   1.7510   1.8036   1.8586   1.8674   1.9003
     1.9281   1.9895   2.1214   2.2050   2.2500   2.2636   2.4115   2.4258
     2.4751   2.4787   2.5873   2.6219   2.6482   2.6687   2.6864   2.7614
     2.7766   2.8729   2.9094   2.9170   2.9236   2.9916   3.0037   3.0196
     3.0270   3.0351   3.0458   3.0554   3.0686   3.0753   3.0859   3.0945
     3.1017   3.1225   3.1435   3.1487   3.1608   3.1816   3.3015   3.4112
     4.0734   4.3911   4.7370   4.8582   5.0023   5.8578   5.9401   5.9702
     6.0488   6.2815   6.3273   6.4669   6.4764   6.7462   6.9901   7.0833
     7.1447   7.2066   7.2851   7.5867   7.6368   7.6562   7.7345   7.8809
     7.9981   8.0937   8.1389   8.1923   8.4220   8.6689   8.7220   8.8641

     occupation numbers 
     1.0000   1.0000   1.0000   1.0000   1.0000   1.0000   1.0000   1.0000
     1.0000   1.0000   1.0000   1.0000   1.0000   1.0000   1.0000   1.0000
     1.0000   1.0000   1.0000   1.0000   1.0000   1.0000   1.0000   1.0000
     1.0000   1.0000   1.0000   1.0000   1.0000   1.0000   1.0000   1.0000
     1.0000   1.0000   1.0000   1.0000   1.0000   1.0000   1.0000   1.0000
     1.0000   1.0000   1.0000   1.0000   1.0000   1.0000   1.0000   1.0000
     1.0000   1.0000   1.0000   1.0000   1.0000   1.0000   1.0000   1.0000
     1.0000   1.0000   1.0000   1.0000   1.0000   1.0000   1.0000   1.0000
     1.0000   1.0000   1.0000   1.0000   1.0000   1.0000   1.0000   1.0000
     1.0000   1.0000   1.0000   1.0000   1.0000   1.0000   1.0000   1.0000
     1.0000   1.0000   1.0000   1.0000   1.0000   1.0000   1.0000   1.0000
     1.0000   1.0000   1.0000   1.0000   1.0000   1.0000   1.0000   1.0000
     1.0000   1.0000   1.0000   1.0000   1.0000   1.0000   1.0000   1.0000
     1.0000   1.0000   1.0000   1.0000   1.0000   1.0000   1.0000   1.0000
     1.0000   1.0000   1.0000   1.0000   1.0000   1.0000   1.0000   1.0000
     1.0000   1.0000   1.0000   1.0000   1.0000   1.0000   1.0000   1.0000
     1.0000   1.0000   1.0000   1.0000   1.0000   1.0000   1.0000   1.0000
     1.0000   1.0000   1.0000   1.0000   1.0000   1.0000   1.0000   1.0000
     1.0000   1.0000   1.0000   1.0000   1.0000   1.0000   1.0000   1.0000
     1.0000   1.0000   1.0000   1.0000   0.9999   0.9999   0.9999   0.9998
     0.9998   0.9998   0.9997   0.9996   0.9996   0.9994   0.9989   0.9985
     0.9983   0.9981   0.9980   0.9974   0.9963   0.9942   0.9938   0.9923
     0.9918   0.9902   0.9894   0.9890   0.9865   0.9834   0.9829   0.9807
     0.9786   0.9735   0.9590   0.9469   0.9392   0.9368   0.9047   0.9010
     0.8877   0.8866   0.8526   0.8404   0.8308   0.8230   0.8161   0.7849
     0.7783   0.7335   0.7154   0.7116   0.7082   0.6726   0.6661   0.6575
     0.6534   0.6490   0.6431   0.6378   0.6304   0.6266   0.6206   0.6158
     0.6117   0.5998   0.5877   0.5847   0.5777   0.5656   0.4948   0.4302
     0.1232   0.0515   0.0160   0.0101   0.0056   0.0001   0.0000   0.0000
     0.0000   0.0000   0.0000   0.0000   0.0000   0.0000   0.0000   0.0000
     0.0000   0.0000   0.0000   0.0000   0.0000   0.0000   0.0000   0.0000
     0.0000   0.0000   0.0000   0.0000   0.0000   0.0000   0.0000   0.0000

          k = 0.0000 0.2500 0.0000 ( 65257 PWs)   bands (ev):

   -92.7347 -92.6805 -92.5897 -92.5402 -92.4833 -92.4414 -92.4239 -92.3021
   -56.0882 -56.0648 -55.9466 -55.9355 -55.9284 -55.9223 -55.8852 -55.8586
   -55.8425 -55.8409 -55.8329 -55.7906 -55.7711 -55.7344 -55.7164 -55.6834
   -55.6755 -55.6296 -55.6295 -55.6266 -55.6181 -55.5770 -55.5542 -55.4672
   -31.3102 -31.2908 -31.1492 -31.1368 -31.0623 -30.9727 -30.9486 -30.7654
   -29.8826 -29.8396 -29.8144 -29.7057 -15.0786 -15.0467 -14.9662 -14.8319
   -14.7099 -14.5369 -14.3993 -14.2193 -14.1853 -14.1650 -14.1355 -14.0784
   -14.0707 -14.0554 -14.0378 -13.9920 -13.8846 -13.8449 -13.6809 -13.6572
   -13.6125 -13.5749 -13.5225 -13.4883 -13.4471 -13.3762 -13.3407 -13.2915
   -13.2254 -13.1804 -13.1424 -13.1321 -13.1033 -13.0208 -12.9959 -12.9678
   -12.9546 -12.9339 -12.9084 -12.8998 -12.8734 -12.8475 -12.8290 -12.7640
   -12.7433 -12.7072 -12.6142 -12.5503 -12.4365 -12.2800 -12.1325 -12.0693
   -11.8621 -11.8193 -11.7914 -11.7630 -11.7464 -11.6992 -11.6878 -11.6652
   -11.6314 -11.5286 -11.4762 -11.4656  -2.8405  -2.6194  -2.4817  -2.2991
    -2.2557  -2.0923  -1.8709  -1.7883  -1.7752  -1.7128  -1.6145  -1.5997
    -1.5652  -1.5384  -1.4946  -1.2976  -1.1677  -1.1565  -1.0787  -1.0699
    -0.9660  -0.9357  -0.8780  -0.8520  -0.8120  -0.7474  -0.7217  -0.6887
    -0.6600  -0.6425  -0.6092  -0.5355  -0.4841  -0.4091  -0.3047  -0.2748
    -0.2378  -0.1283  -0.0928  -0.0300   0.0205   0.0758   0.0942   0.1237
     0.1808   0.4820   0.5707   0.6047   0.6878   0.7338   0.7532   0.8733
     0.8918   0.9871   1.0133   1.0414   1.1560   1.2502   1.2707   1.2965
     1.3168   1.3395   1.3997   1.4269   1.4548   1.5021   1.5360   1.5671
     1.6528   1.6885   1.7134   1.7731   1.8233   1.8562   1.8861   1.9166
     1.9348   2.0262   2.1595   2.2288   2.2473   2.3247   2.3686   2.4083
     2.4134   2.4803   2.5204   2.6030   2.6449   2.6644   2.7708   2.8324
     2.8586   2.8877   2.9100   2.9247   2.9337   2.9398   2.9487   2.9793
     2.9825   2.9998   3.0096   3.0135   3.0344   3.0445   3.0545   3.0736
     3.0844   3.0904   3.1248   3.1412   3.2007   3.5631   3.6173   3.8495
     4.2595   4.3859   4.6848   5.0076   5.0307   5.6167   5.7814   5.9317
     6.0302   6.0675   6.0941   6.1549   6.5832   6.8967   6.9532   7.0975
     7.2460   7.3111   7.4585   7.4764   7.6229   7.7662   7.8814   7.9483
     8.0336   8.1105   8.1800   8.2685   8.3842   8.5206   8.7658   8.8956

     occupation numbers 
     1.0000   1.0000   1.0000   1.0000   1.0000   1.0000   1.0000   1.0000
     1.0000   1.0000   1.0000   1.0000   1.0000   1.0000   1.0000   1.0000
     1.0000   1.0000   1.0000   1.0000   1.0000   1.0000   1.0000   1.0000
     1.0000   1.0000   1.0000   1.0000   1.0000   1.0000   1.0000   1.0000
     1.0000   1.0000   1.0000   1.0000   1.0000   1.0000   1.0000   1.0000
     1.0000   1.0000   1.0000   1.0000   1.0000   1.0000   1.0000   1.0000
     1.0000   1.0000   1.0000   1.0000   1.0000   1.0000   1.0000   1.0000
     1.0000   1.0000   1.0000   1.0000   1.0000   1.0000   1.0000   1.0000
     1.0000   1.0000   1.0000   1.0000   1.0000   1.0000   1.0000   1.0000
     1.0000   1.0000   1.0000   1.0000   1.0000   1.0000   1.0000   1.0000
     1.0000   1.0000   1.0000   1.0000   1.0000   1.0000   1.0000   1.0000
     1.0000   1.0000   1.0000   1.0000   1.0000   1.0000   1.0000   1.0000
     1.0000   1.0000   1.0000   1.0000   1.0000   1.0000   1.0000   1.0000
     1.0000   1.0000   1.0000   1.0000   1.0000   1.0000   1.0000   1.0000
     1.0000   1.0000   1.0000   1.0000   1.0000   1.0000   1.0000   1.0000
     1.0000   1.0000   1.0000   1.0000   1.0000   1.0000   1.0000   1.0000
     1.0000   1.0000   1.0000   1.0000   1.0000   1.0000   1.0000   1.0000
     1.0000   1.0000   1.0000   1.0000   1.0000   1.0000   1.0000   1.0000
     1.0000   1.0000   1.0000   1.0000   1.0000   1.0000   1.0000   1.0000
     1.0000   1.0000   1.0000   1.0000   0.9999   0.9999   0.9999   0.9998
     0.9998   0.9997   0.9996   0.9996   0.9992   0.9988   0.9987   0.9985
     0.9983   0.9981   0.9975   0.9972   0.9968   0.9961   0.9955   0.9948
     0.9926   0.9914   0.9905   0.9880   0.9854   0.9835   0.9816   0.9795
     0.9781   0.9700   0.9538   0.9429   0.9397   0.9247   0.9150   0.9055
     0.9042   0.8862   0.8743   0.8471   0.8320   0.8246   0.7808   0.7529
     0.7404   0.7263   0.7151   0.7077   0.7030   0.6999   0.6953   0.6792
     0.6775   0.6682   0.6629   0.6608   0.6494   0.6438   0.6382   0.6276
     0.6215   0.6181   0.5985   0.5891   0.5544   0.3441   0.3149   0.2042
     0.0756   0.0523   0.0194   0.0054   0.0049   0.0003   0.0001   0.0000
     0.0000   0.0000   0.0000   0.0000   0.0000   0.0000   0.0000   0.0000
     0.0000   0.0000   0.0000   0.0000   0.0000   0.0000   0.0000   0.0000
     0.0000   0.0000   0.0000   0.0000   0.0000   0.0000   0.0000   0.0000

          k = 0.0000-0.5000 0.0000 ( 65180 PWs)   bands (ev):

   -92.7347 -92.6805 -92.5897 -92.5402 -92.4833 -92.4414 -92.4239 -92.3021
   -56.0882 -56.0648 -55.9466 -55.9355 -55.9284 -55.9223 -55.8852 -55.8586
   -55.8425 -55.8409 -55.8329 -55.7906 -55.7711 -55.7344 -55.7164 -55.6834
   -55.6755 -55.6296 -55.6295 -55.6266 -55.6181 -55.5770 -55.5542 -55.4672
   -31.3101 -31.2907 -31.1494 -31.1366 -31.0624 -30.9729 -30.9485 -30.7655
   -29.8819 -29.8393 -29.8151 -29.7060 -15.0437 -14.9957 -14.9417 -14.8164
   -14.7289 -14.5942 -14.4365 -14.3209 -14.1910 -14.1227 -14.0773 -14.0715
   -14.0207 -14.0053 -13.9563 -13.9305 -13.9122 -13.8768 -13.8412 -13.8017
   -13.6170 -13.5579 -13.5256 -13.4900 -13.4445 -13.3917 -13.3625 -13.3165
   -13.3157 -13.2502 -13.1437 -13.1331 -13.0923 -13.0087 -12.9990 -12.9845
   -12.9612 -12.9154 -12.9046 -12.8716 -12.8400 -12.7449 -12.7385 -12.7309
   -12.7082 -12.6845 -12.5474 -12.4783 -12.3550 -12.3496 -12.2340 -12.1893
   -11.8163 -11.8137 -11.7864 -11.7487 -11.7143 -11.7034 -11.6612 -11.6573
   -11.6131 -11.5501 -11.5367 -11.5227  -2.6251  -2.5674  -2.4161  -2.3442
    -2.0600  -1.9792  -1.8508  -1.7146  -1.6705  -1.6573  -1.5791  -1.5482
    -1.4653  -1.4307  -1.3517  -1.3128  -1.2749  -1.2476  -1.1876  -1.1524
    -1.1056  -1.0692  -1.0363  -1.0038  -0.8922  -0.8481  -0.8124  -0.8087
    -0.7239  -0.6928  -0.6718  -0.6248  -0.5330  -0.4668  -0.3763  -0.3364
    -0.2456  -0.2120  -0.0641  -0.0144   0.0030   0.0486   0.1624   0.2280
     0.3577   0.4258   0.4351   0.5615   0.6156   0.7007   0.8408   0.9443
     0.9774   1.0174   1.0282   1.0597   1.0784   1.1127   1.1285   1.1422
     1.2507   1.3111   1.3465   1.3710   1.6410   1.6574   1.6789   1.7659
     1.7966   1.8316   1.8457   1.8752   1.8892   1.8916   1.9223   1.9693
     1.9956   2.0234   2.0335   2.0617   2.1155   2.2031   2.2323   2.4014
     2.5678   2.5712   2.5946   2.6316   2.6412   2.6479   2.6952   2.7106
     2.7646   2.7782   2.7948   2.8634   2.8858   2.9495   2.9511   2.9791
     2.9816   2.9960   2.9988   3.0048   3.0105   3.0177   3.0307   3.0438
     3.0497   3.1100   3.1146   3.1308   3.1886   4.0869   4.1002   4.1456
     4.2405   4.6991   4.8718   4.9983   5.1554   5.3939   5.4415   5.5568
     5.7265   6.0002   6.0114   6.0933   6.7639   6.8339   6.9402   7.2012
     7.2947   7.3929   7.4344   7.4663   7.6652   7.7248   7.8598   7.8835
     8.1490   8.1771   8.3566   8.4645   8.6375   8.7413   8.7875   8.8071

     occupation numbers 
     1.0000   1.0000   1.0000   1.0000   1.0000   1.0000   1.0000   1.0000
     1.0000   1.0000   1.0000   1.0000   1.0000   1.0000   1.0000   1.0000
     1.0000   1.0000   1.0000   1.0000   1.0000   1.0000   1.0000   1.0000
     1.0000   1.0000   1.0000   1.0000   1.0000   1.0000   1.0000   1.0000
     1.0000   1.0000   1.0000   1.0000   1.0000   1.0000   1.0000   1.0000
     1.0000   1.0000   1.0000   1.0000   1.0000   1.0000   1.0000   1.0000
     1.0000   1.0000   1.0000   1.0000   1.0000   1.0000   1.0000   1.0000
     1.0000   1.0000   1.0000   1.0000   1.0000   1.0000   1.0000   1.0000
     1.0000   1.0000   1.0000   1.0000   1.0000   1.0000   1.0000   1.0000
     1.0000   1.0000   1.0000   1.0000   1.0000   1.0000   1.0000   1.0000
     1.0000   1.0000   1.0000   1.0000   1.0000   1.0000   1.0000   1.0000
     1.0000   1.0000   1.0000   1.0000   1.0000   1.0000   1.0000   1.0000
     1.0000   1.0000   1.0000   1.0000   1.0000   1.0000   1.0000   1.0000
     1.0000   1.0000   1.0000   1.0000   1.0000   1.0000   1.0000   1.0000
     1.0000   1.0000   1.0000   1.0000   1.0000   1.0000   1.0000   1.0000
     1.0000   1.0000   1.0000   1.0000   1.0000   1.0000   1.0000   1.0000
     1.0000   1.0000   1.0000   1.0000   1.0000   1.0000   1.0000   1.0000
     1.0000   1.0000   1.0000   1.0000   1.0000   1.0000   1.0000   1.0000
     1.0000   1.0000   1.0000   1.0000   1.0000   1.0000   1.0000   1.0000
     1.0000   1.0000   1.0000   1.0000   1.0000   0.9999   0.9999   0.9998
     0.9997   0.9996   0.9996   0.9995   0.9995   0.9994   0.9993   0.9993
     0.9988   0.9984   0.9981   0.9978   0.9929   0.9924   0.9917   0.9883
     0.9868   0.9850   0.9842   0.9824   0.9814   0.9813   0.9791   0.9753
     0.9730   0.9703   0.9693   0.9662   0.9598   0.9472   0.9423   0.9072
     0.8591   0.8580   0.8501   0.8369   0.8334   0.8308   0.8125   0.8063
     0.7836   0.7776   0.7702   0.7382   0.7272   0.6949   0.6940   0.6793
     0.6780   0.6703   0.6688   0.6655   0.6625   0.6585   0.6514   0.6442
     0.6409   0.6070   0.6043   0.5950   0.5615   0.1192   0.1153   0.1027
     0.0797   0.0184   0.0095   0.0057   0.0028   0.0009   0.0007   0.0004
     0.0002   0.0000   0.0000   0.0000   0.0000   0.0000   0.0000   0.0000
     0.0000   0.0000   0.0000   0.0000   0.0000   0.0000   0.0000   0.0000
     0.0000   0.0000   0.0000   0.0000   0.0000   0.0000   0.0000   0.0000

          k = 0.2500 0.2500 0.0000 ( 65198 PWs)   bands (ev):

   -92.7347 -92.6805 -92.5897 -92.5402 -92.4833 -92.4414 -92.4239 -92.3021
   -56.0882 -56.0648 -55.9466 -55.9355 -55.9284 -55.9223 -55.8852 -55.8586
   -55.8425 -55.8409 -55.8329 -55.7906 -55.7711 -55.7344 -55.7164 -55.6834
   -55.6755 -55.6296 -55.6295 -55.6266 -55.6181 -55.5770 -55.5542 -55.4672
   -31.3086 -31.2925 -31.1488 -31.1366 -31.0626 -30.9726 -30.9488 -30.7655
   -29.8816 -29.8406 -29.8140 -29.7061 -15.0500 -15.0115 -14.9382 -14.8218
   -14.7015 -14.5783 -14.5049 -14.2994 -14.1422 -14.1301 -14.0945 -14.0655
   -14.0423 -14.0128 -13.9838 -13.9534 -13.8753 -13.8586 -13.6968 -13.6835
   -13.6527 -13.6340 -13.5699 -13.5439 -13.4830 -13.4590 -13.3516 -13.3140
   -13.2622 -13.1756 -13.1351 -13.0911 -13.0686 -13.0510 -13.0090 -12.9796
   -12.9587 -12.9460 -12.9006 -12.8629 -12.8379 -12.8059 -12.7767 -12.7467
   -12.7320 -12.7038 -12.5557 -12.4850 -12.4379 -12.3090 -12.1636 -12.1183
   -11.8343 -11.8028 -11.7918 -11.7846 -11.7223 -11.6871 -11.6807 -11.6454
   -11.6375 -11.5453 -11.5045 -11.4870  -2.7022  -2.4936  -2.3760  -2.2802
    -2.1606  -2.0956  -1.8956  -1.7531  -1.7337  -1.7006  -1.6089  -1.5755
    -1.4821  -1.4541  -1.4039  -1.2733  -1.2252  -1.1506  -1.1072  -1.0613
    -1.0386  -1.0146  -0.9723  -0.9570  -0.8663  -0.8168  -0.7479  -0.7013
    -0.6731  -0.6225  -0.6104  -0.5460  -0.4948  -0.4316  -0.4032  -0.3124
    -0.2662  -0.2348  -0.1978  -0.1426  -0.0734  -0.0319  -0.0054   0.0624
     0.1018   0.3744   0.5244   0.5576   0.6146   0.6544   0.7095   0.7581
     0.8277   0.8668   1.1398   1.2054   1.2797   1.3039   1.3557   1.3835
     1.4202   1.4574   1.4741   1.5024   1.5458   1.5560   1.5717   1.6175
     1.6526   1.6933   1.7454   1.7802   1.7986   1.8221   1.8623   1.9150
     1.9388   2.0663   2.1385   2.1757   2.2006   2.2628   2.3285   2.3596
     2.3969   2.4210   2.4310   2.5451   2.5860   2.6770   2.7813   2.8424
     2.8606   2.8653   2.8845   2.8999   2.9124   2.9229   2.9283   2.9405
     2.9546   2.9673   2.9838   2.9919   3.0020   3.0252   3.0358   3.0449
     3.0760   3.3771   3.4684   3.5234   3.5785   3.5953   3.8366   3.9200
     4.2656   4.4750   4.6919   4.9414   5.1588   5.6160   5.6747   5.7519
     5.8064   5.8660   6.1051   6.1402   6.2095   6.7446   6.8832   7.0781
     7.2377   7.5303   7.5800   7.6513   7.6870   7.8458   7.9417   8.1078
     8.1629   8.2083   8.2971   8.3110   8.4151   8.4505   8.5902   8.8468

     occupation numbers 
     1.0000   1.0000   1.0000   1.0000   1.0000   1.0000   1.0000   1.0000
     1.0000   1.0000   1.0000   1.0000   1.0000   1.0000   1.0000   1.0000
     1.0000   1.0000   1.0000   1.0000   1.0000   1.0000   1.0000   1.0000
     1.0000   1.0000   1.0000   1.0000   1.0000   1.0000   1.0000   1.0000
     1.0000   1.0000   1.0000   1.0000   1.0000   1.0000   1.0000   1.0000
     1.0000   1.0000   1.0000   1.0000   1.0000   1.0000   1.0000   1.0000
     1.0000   1.0000   1.0000   1.0000   1.0000   1.0000   1.0000   1.0000
     1.0000   1.0000   1.0000   1.0000   1.0000   1.0000   1.0000   1.0000
     1.0000   1.0000   1.0000   1.0000   1.0000   1.0000   1.0000   1.0000
     1.0000   1.0000   1.0000   1.0000   1.0000   1.0000   1.0000   1.0000
     1.0000   1.0000   1.0000   1.0000   1.0000   1.0000   1.0000   1.0000
     1.0000   1.0000   1.0000   1.0000   1.0000   1.0000   1.0000   1.0000
     1.0000   1.0000   1.0000   1.0000   1.0000   1.0000   1.0000   1.0000
     1.0000   1.0000   1.0000   1.0000   1.0000   1.0000   1.0000   1.0000
     1.0000   1.0000   1.0000   1.0000   1.0000   1.0000   1.0000   1.0000
     1.0000   1.0000   1.0000   1.0000   1.0000   1.0000   1.0000   1.0000
     1.0000   1.0000   1.0000   1.0000   1.0000   1.0000   1.0000   1.0000
     1.0000   1.0000   1.0000   1.0000   1.0000   1.0000   1.0000   1.0000
     1.0000   1.0000   1.0000   1.0000   1.0000   1.0000   1.0000   1.0000
     1.0000   1.0000   1.0000   1.0000   1.0000   1.0000   0.9999   0.9999
     0.9999   0.9998   0.9993   0.9990   0.9986   0.9984   0.9980   0.9977
     0.9973   0.9968   0.9965   0.9961   0.9953   0.9950   0.9947   0.9936
     0.9926   0.9912   0.9892   0.9876   0.9867   0.9855   0.9832   0.9796
     0.9778   0.9657   0.9567   0.9514   0.9476   0.9369   0.9239   0.9171
     0.9083   0.9023   0.8997   0.8665   0.8530   0.8197   0.7762   0.7482
     0.7395   0.7372   0.7279   0.7202   0.7139   0.7086   0.7058   0.6996
     0.6922   0.6856   0.6768   0.6725   0.6670   0.6544   0.6486   0.6436
     0.6262   0.4502   0.3971   0.3660   0.3357   0.3267   0.2097   0.1758
     0.0743   0.0396   0.0189   0.0072   0.0028   0.0003   0.0002   0.0001
     0.0001   0.0001   0.0000   0.0000   0.0000   0.0000   0.0000   0.0000
     0.0000   0.0000   0.0000   0.0000   0.0000   0.0000   0.0000   0.0000
     0.0000   0.0000   0.0000   0.0000   0.0000   0.0000   0.0000   0.0000

          k = 0.2500-0.5000 0.0000 ( 65138 PWs)   bands (ev):

   -92.7347 -92.6805 -92.5897 -92.5402 -92.4833 -92.4414 -92.4239 -92.3021
   -56.0882 -56.0648 -55.9466 -55.9355 -55.9284 -55.9223 -55.8852 -55.8586
   -55.8425 -55.8409 -55.8329 -55.7906 -55.7711 -55.7344 -55.7164 -55.6834
   -55.6755 -55.6296 -55.6295 -55.6266 -55.6181 -55.5770 -55.5542 -55.4672
   -31.3084 -31.2924 -31.1490 -31.1365 -31.0628 -30.9727 -30.9486 -30.7657
   -29.8810 -29.8403 -29.8147 -29.7065 -15.0130 -14.9688 -14.8986 -14.7866
   -14.7518 -14.6344 -14.5411 -14.4168 -14.1071 -14.0553 -14.0286 -14.0053
   -13.9907 -13.9768 -13.9403 -13.9185 -13.8929 -13.8531 -13.8313 -13.7897
   -13.6992 -13.6511 -13.5866 -13.5714 -13.5044 -13.4924 -13.4068 -13.3724
   -13.2397 -13.1747 -13.1557 -13.0743 -13.0529 -13.0229 -13.0081 -12.9769
   -12.9553 -12.9444 -12.9090 -12.8568 -12.8477 -12.7755 -12.7616 -12.7143
   -12.6877 -12.6564 -12.5540 -12.4472 -12.3524 -12.3146 -12.2259 -12.1969
   -11.8100 -11.7979 -11.7870 -11.7597 -11.7285 -11.6997 -11.6589 -11.6311
   -11.6092 -11.5633 -11.5378 -11.5268  -2.4829  -2.4194  -2.2899  -2.2130
    -2.0807  -1.9990  -1.8753  -1.7253  -1.6679  -1.6480  -1.5871  -1.5740
    -1.4760  -1.4100  -1.3249  -1.2740  -1.2651  -1.2023  -1.1586  -1.1256
    -1.0773  -1.0402  -1.0059  -0.9664  -0.9535  -0.9097  -0.8807  -0.8367
    -0.8076  -0.7395  -0.6352  -0.6011  -0.5193  -0.4542  -0.4010  -0.3619
    -0.3446  -0.2848  -0.1303  -0.1225  -0.0037   0.0175   0.0267   0.0721
     0.1057   0.1380   0.1714   0.2415   0.5191   0.6108   0.6665   0.7237
     1.0045   1.0182   1.1113   1.1380   1.3032   1.3405   1.3777   1.4017
     1.4158   1.4377   1.5013   1.5524   1.5848   1.6564   1.7526   1.7855
     1.8058   1.8181   1.8509   1.8703   1.8726   1.9165   1.9290   1.9486
     1.9834   1.9972   2.0249   2.0558   2.1146   2.1579   2.2336   2.3699
     2.5207   2.5366   2.5545   2.5827   2.6056   2.6351   2.6574   2.6677
     2.6913   2.7830   2.8007   2.8448   2.8645   2.8742   2.8810   2.8995
     2.9130   2.9336   2.9402   2.9783   2.9872   2.9987   3.0060   3.0159
     3.0255   3.5376   3.5736   3.7087   3.7611   4.0876   4.1492   4.1534
     4.2920   4.7195   4.8924   5.0321   5.1172   5.2719   5.4113   5.5815
     5.6545   5.7386   5.7613   6.2073   6.3793   6.4775   6.6331   7.1012
     7.4420   7.5392   7.6154   7.6801   7.7899   7.8524   8.0149   8.2102
     8.2926   8.3568   8.4488   8.5104   8.5286   8.5966   8.6857   8.7439

     occupation numbers 
     1.0000   1.0000   1.0000   1.0000   1.0000   1.0000   1.0000   1.0000
     1.0000   1.0000   1.0000   1.0000   1.0000   1.0000   1.0000   1.0000
     1.0000   1.0000   1.0000   1.0000   1.0000   1.0000   1.0000   1.0000
     1.0000   1.0000   1.0000   1.0000   1.0000   1.0000   1.0000   1.0000
     1.0000   1.0000   1.0000   1.0000   1.0000   1.0000   1.0000   1.0000
     1.0000   1.0000   1.0000   1.0000   1.0000   1.0000   1.0000   1.0000
     1.0000   1.0000   1.0000   1.0000   1.0000   1.0000   1.0000   1.0000
     1.0000   1.0000   1.0000   1.0000   1.0000   1.0000   1.0000   1.0000
     1.0000   1.0000   1.0000   1.0000   1.0000   1.0000   1.0000   1.0000
     1.0000   1.0000   1.0000   1.0000   1.0000   1.0000   1.0000   1.0000
     1.0000   1.0000   1.0000   1.0000   1.0000   1.0000   1.0000   1.0000
     1.0000   1.0000   1.0000   1.0000   1.0000   1.0000   1.0000   1.0000
     1.0000   1.0000   1.0000   1.0000   1.0000   1.0000   1.0000   1.0000
     1.0000   1.0000   1.0000   1.0000   1.0000   1.0000   1.0000   1.0000
     1.0000   1.0000   1.0000   1.0000   1.0000   1.0000   1.0000   1.0000
     1.0000   1.0000   1.0000   1.0000   1.0000   1.0000   1.0000   1.0000
     1.0000   1.0000   1.0000   1.0000   1.0000   1.0000   1.0000   1.0000
     1.0000   1.0000   1.0000   1.0000   1.0000   1.0000   1.0000   1.0000
     1.0000   1.0000   1.0000   1.0000   1.0000   1.0000   1.0000   1.0000
     1.0000   1.0000   1.0000   1.0000   1.0000   1.0000   1.0000   0.9999
     0.9997   0.9996   0.9994   0.9993   0.9984   0.9981   0.9978   0.9975
     0.9973   0.9971   0.9961   0.9951   0.9944   0.9924   0.9889   0.9874
     0.9864   0.9857   0.9839   0.9827   0.9825   0.9795   0.9786   0.9770
     0.9741   0.9728   0.9701   0.9669   0.9599   0.9540   0.9421   0.9147
     0.8742   0.8693   0.8635   0.8542   0.8462   0.8356   0.8273   0.8233
     0.8141   0.7755   0.7675   0.7470   0.7376   0.7329   0.7296   0.7204
     0.7136   0.7031   0.6997   0.6797   0.6750   0.6689   0.6649   0.6595
     0.6543   0.3581   0.3383   0.2684   0.2434   0.1190   0.1018   0.1006
     0.0689   0.0171   0.0088   0.0049   0.0034   0.0016   0.0008   0.0003
     0.0002   0.0001   0.0001   0.0000   0.0000   0.0000   0.0000   0.0000
     0.0000   0.0000   0.0000   0.0000   0.0000   0.0000   0.0000   0.0000
     0.0000   0.0000   0.0000   0.0000   0.0000   0.0000   0.0000   0.0000

          k =-0.5000-0.5000 0.0000 ( 65132 PWs)   bands (ev):

   -92.7347 -92.6805 -92.5897 -92.5402 -92.4833 -92.4414 -92.4239 -92.3021
   -56.0882 -56.0648 -55.9466 -55.9355 -55.9284 -55.9223 -55.8852 -55.8586
   -55.8425 -55.8409 -55.8329 -55.7906 -55.7711 -55.7344 -55.7164 -55.6834
   -55.6755 -55.6296 -55.6295 -55.6266 -55.6181 -55.5770 -55.5542 -55.4672
   -31.3062 -31.2946 -31.1486 -31.1363 -31.0632 -30.9726 -30.9488 -30.7659
   -29.8800 -29.8414 -29.8143 -29.7069 -14.9663 -14.9414 -14.8248 -14.8109
   -14.7156 -14.6814 -14.6474 -14.5155 -14.0186 -14.0075 -13.9731 -13.9540
   -13.9358 -13.9150 -13.8943 -13.8841 -13.8664 -13.8609 -13.8450 -13.7671
   -13.7605 -13.7284 -13.6967 -13.6748 -13.5907 -13.5630 -13.4495 -13.4185
   -13.1908 -13.1529 -13.0823 -13.0583 -13.0334 -13.0222 -13.0166 -13.0074
   -12.9886 -12.9141 -12.8898 -12.8602 -12.8477 -12.8168 -12.7830 -12.7257
   -12.6377 -12.6299 -12.5704 -12.4198 -12.3488 -12.2762 -12.2184 -12.2097
   -11.8064 -11.7942 -11.7763 -11.7595 -11.7247 -11.7072 -11.6719 -11.6113
   -11.5914 -11.5858 -11.5357 -11.5326  -2.2573  -2.1834  -2.1761  -2.1023
    -2.0635  -1.9853  -1.9174  -1.7908  -1.6752  -1.6461  -1.6023  -1.5495
    -1.4774  -1.4626  -1.3924  -1.3497  -1.2322  -1.2020  -1.1544  -1.1262
    -1.0619  -1.0154  -0.9977  -0.9855  -0.9296  -0.8866  -0.8693  -0.7586
    -0.7016  -0.6546  -0.6058  -0.5771  -0.5604  -0.5295  -0.4908  -0.4493
    -0.4433  -0.3568  -0.2907  -0.2445  -0.2194  -0.1454  -0.0870  -0.0817
    -0.0196   0.0126   0.0206   0.0345   0.4920   0.5300   0.6126   0.6314
     1.0290   1.0429   1.0802   1.1182   1.3896   1.4072   1.4144   1.4580
     1.5833   1.6770   1.7046   1.7404   1.7634   1.7804   1.7916   1.8235
     1.8340   1.8467   1.8572   1.9113   1.9157   1.9422   1.9512   1.9739
     1.9886   2.0278   2.0541   2.0675   2.0992   2.1293   2.1977   2.2645
     2.5329   2.5625   2.5764   2.6034   2.6113   2.6357   2.6473   2.6661
     2.6752   2.6942   2.7142   2.7273   2.7908   2.7948   2.8049   2.8192
     2.8312   2.8493   2.8666   2.8710   2.8934   2.9847   2.9907   3.0103
     3.0223   3.9675   4.0070   4.0141   4.0475   4.2849   4.3572   4.3848
     4.6250   4.7470   4.8299   4.9594   5.0479   5.0557   5.1759   5.2673
     5.4392   5.8401   5.8730   5.9345   6.0352   6.4923   6.5369   6.6170
     7.5946   7.8899   7.8960   7.9275   7.9352   7.9521   7.9911   8.0626
     8.2431   8.3393   8.5153   8.5567   8.5717   8.5939   8.6345   8.6820

     occupation numbers 
     1.0000   1.0000   1.0000   1.0000   1.0000   1.0000   1.0000   1.0000
     1.0000   1.0000   1.0000   1.0000   1.0000   1.0000   1.0000   1.0000
     1.0000   1.0000   1.0000   1.0000   1.0000   1.0000   1.0000   1.0000
     1.0000   1.0000   1.0000   1.0000   1.0000   1.0000   1.0000   1.0000
     1.0000   1.0000   1.0000   1.0000   1.0000   1.0000   1.0000   1.0000
     1.0000   1.0000   1.0000   1.0000   1.0000   1.0000   1.0000   1.0000
     1.0000   1.0000   1.0000   1.0000   1.0000   1.0000   1.0000   1.0000
     1.0000   1.0000   1.0000   1.0000   1.0000   1.0000   1.0000   1.0000
     1.0000   1.0000   1.0000   1.0000   1.0000   1.0000   1.0000   1.0000
     1.0000   1.0000   1.0000   1.0000   1.0000   1.0000   1.0000   1.0000
     1.0000   1.0000   1.0000   1.0000   1.0000   1.0000   1.0000   1.0000
     1.0000   1.0000   1.0000   1.0000   1.0000   1.0000   1.0000   1.0000
     1.0000   1.0000   1.0000   1.0000   1.0000   1.0000   1.0000   1.0000
     1.0000   1.0000   1.0000   1.0000   1.0000   1.0000   1.0000   1.0000
     1.0000   1.0000   1.0000   1.0000   1.0000   1.0000   1.0000   1.0000
     1.0000   1.0000   1.0000   1.0000   1.0000   1.0000   1.0000   1.0000
     1.0000   1.0000   1.0000   1.0000   1.0000   1.0000   1.0000   1.0000
     1.0000   1.0000   1.0000   1.0000   1.0000   1.0000   1.0000   1.0000
     1.0000   1.0000   1.0000   1.0000   1.0000   1.0000   1.0000   1.0000
     1.0000   1.0000   1.0000   1.0000   1.0000   1.0000   1.0000   1.0000
     0.9996   0.9996   0.9995   0.9994   0.9976   0.9974   0.9974   0.9968
     0.9944   0.9918   0.9908   0.9894   0.9884   0.9876   0.9871   0.9854
     0.9849   0.9841   0.9835   0.9799   0.9796   0.9775   0.9768   0.9749
     0.9736   0.9698   0.9671   0.9656   0.9618   0.9580   0.9480   0.9366
     0.8704   0.8609   0.8563   0.8470   0.8442   0.8354   0.8311   0.8240
     0.8204   0.8130   0.8049   0.7995   0.7720   0.7702   0.7656   0.7590
     0.7534   0.7449   0.7366   0.7345   0.7234   0.6764   0.6731   0.6626
     0.6560   0.1582   0.1445   0.1421   0.1312   0.0703   0.0570   0.0525
     0.0240   0.0154   0.0112   0.0067   0.0046   0.0044   0.0026   0.0017
     0.0007   0.0001   0.0001   0.0000   0.0000   0.0000   0.0000   0.0000
     0.0000   0.0000   0.0000   0.0000   0.0000   0.0000   0.0000   0.0000
     0.0000   0.0000   0.0000   0.0000   0.0000   0.0000   0.0000   0.0000

          k = 0.2500 0.0000 0.0000 ( 65257 PWs)   bands (ev):

   -92.7347 -92.6805 -92.5897 -92.5402 -92.4833 -92.4414 -92.4239 -92.3021
[...]
     0.7446   0.7306   0.7152   0.7140   0.7035   0.6989   0.6909   0.6797
     0.6773   0.6629   0.6570   0.6538   0.6465   0.6351   0.6217   0.6194
     0.6152   0.6104   0.6054   0.5993   0.5282   0.3574   0.3179   0.2033
     0.0798   0.0464   0.0217   0.0056   0.0047   0.0003   0.0001   0.0000
     0.0000   0.0000   0.0000   0.0000   0.0000   0.0000   0.0000   0.0000
     0.0000   0.0000   0.0000   0.0000   0.0000   0.0000   0.0000   0.0000
     0.0000   0.0000   0.0000   0.0000   0.0000   0.0000   0.0000   0.0000

          k =-0.5000 0.0000 0.0000 ( 65180 PWs)   bands (ev):

   -92.7347 -92.6805 -92.5897 -92.5402 -92.4833 -92.4414 -92.4239 -92.3021
   -56.0882 -56.0648 -55.9466 -55.9355 -55.9284 -55.9223 -55.8852 -55.8586
   -55.8425 -55.8409 -55.8329 -55.7906 -55.7711 -55.7344 -55.7164 -55.6834
   -55.6755 -55.6296 -55.6295 -55.6266 -55.6181 -55.5770 -55.5542 -55.4672
   -31.3066 -31.2948 -31.1482 -31.1367 -31.0629 -30.9722 -30.9491 -30.7655
   -29.8812 -29.8420 -29.8130 -29.7062 -15.0491 -14.9971 -14.9363 -14.8264
   -14.7235 -14.5788 -14.4360 -14.2892 -14.1663 -14.1563 -14.1419 -14.0861
   -14.0262 -13.9942 -13.9441 -13.9341 -13.9199 -13.8709 -13.8533 -13.7567
   -13.5888 -13.5503 -13.5274 -13.5201 -13.4626 -13.3974 -13.3614 -13.3004
   -13.2767 -13.2754 -13.1078 -13.0869 -13.0731 -13.0489 -13.0391 -13.0143
   -12.9765 -12.9571 -12.9064 -12.8851 -12.8359 -12.7303 -12.7178 -12.7099
   -12.6731 -12.6637 -12.5735 -12.4880 -12.3604 -12.3576 -12.2283 -12.1888
   -11.8133 -11.7919 -11.7852 -11.7706 -11.7526 -11.7114 -11.6481 -11.6303
   -11.5978 -11.5529 -11.5439 -11.5280  -2.6158  -2.5773  -2.4136  -2.3746
    -2.0603  -1.9831  -1.8382  -1.7203  -1.6797  -1.6329  -1.5868  -1.5624
    -1.4394  -1.3952  -1.3791  -1.2969  -1.2621  -1.2460  -1.2148  -1.1564
    -1.0884  -1.0596  -1.0283  -0.9366  -0.8888  -0.8392  -0.8069  -0.7862
    -0.7532  -0.7067  -0.6829  -0.6451  -0.5391  -0.4776  -0.3999  -0.3413
    -0.1904  -0.1450  -0.0911  -0.0459   0.0005   0.0220   0.1556   0.1899
     0.2316   0.4058   0.5051   0.5518   0.6372   0.6932   0.8230   0.8344
     0.9672   0.9963   1.0511   1.0843   1.1151   1.1267   1.1742   1.1973
     1.2645   1.3127   1.3591   1.3718   1.6633   1.6713   1.6873   1.7176
     1.8204   1.8351   1.8419   1.8513   1.8870   1.8975   1.9314   1.9602
     1.9790   2.0433   2.0529   2.1092   2.1259   2.1870   2.2915   2.3884
     2.4667   2.4816   2.5638   2.5924   2.6094   2.6851   2.6980   2.7066
     2.7338   2.7861   2.8087   2.8571   2.9013   2.9197   2.9672   2.9711
     2.9799   2.9835   2.9989   3.0104   3.0234   3.0315   3.0494   3.0548
     3.0750   3.0952   3.0999   3.2272   3.2386   4.0291   4.1003   4.1620
     4.2739   4.7587   4.8298   5.0158   5.0399   5.4688   5.4846   5.5877
     5.6209   5.9999   6.0183   6.1031   6.7141   6.7792   6.9912   7.2602
     7.2952   7.3611   7.4227   7.5814   7.6272   7.7483   7.8589   7.8756
     8.1162   8.1997   8.3413   8.4857   8.6006   8.7258   8.7370   8.8299

     occupation numbers 
     1.0000   1.0000   1.0000   1.0000   1.0000   1.0000   1.0000   1.0000
     1.0000   1.0000   1.0000   1.0000   1.0000   1.0000   1.0000   1.0000
     1.0000   1.0000   1.0000   1.0000   1.0000   1.0000   1.0000   1.0000
     1.0000   1.0000   1.0000   1.0000   1.0000   1.0000   1.0000   1.0000
     1.0000   1.0000   1.0000   1.0000   1.0000   1.0000   1.0000   1.0000
     1.0000   1.0000   1.0000   1.0000   1.0000   1.0000   1.0000   1.0000
     1.0000   1.0000   1.0000   1.0000   1.0000   1.0000   1.0000   1.0000
     1.0000   1.0000   1.0000   1.0000   1.0000   1.0000   1.0000   1.0000
     1.0000   1.0000   1.0000   1.0000   1.0000   1.0000   1.0000   1.0000
     1.0000   1.0000   1.0000   1.0000   1.0000   1.0000   1.0000   1.0000
     1.0000   1.0000   1.0000   1.0000   1.0000   1.0000   1.0000   1.0000
     1.0000   1.0000   1.0000   1.0000   1.0000   1.0000   1.0000   1.0000
     1.0000   1.0000   1.0000   1.0000   1.0000   1.0000   1.0000   1.0000
     1.0000   1.0000   1.0000   1.0000   1.0000   1.0000   1.0000   1.0000
     1.0000   1.0000   1.0000   1.0000   1.0000   1.0000   1.0000   1.0000
     1.0000   1.0000   1.0000   1.0000   1.0000   1.0000   1.0000   1.0000
     1.0000   1.0000   1.0000   1.0000   1.0000   1.0000   1.0000   1.0000
     1.0000   1.0000   1.0000   1.0000   1.0000   1.0000   1.0000   1.0000
     1.0000   1.0000   1.0000   1.0000   1.0000   1.0000   1.0000   1.0000
     1.0000   1.0000   1.0000   1.0000   1.0000   0.9999   0.9999   0.9999
     0.9997   0.9997   0.9996   0.9995   0.9994   0.9994   0.9992   0.9991
     0.9987   0.9984   0.9980   0.9978   0.9922   0.9920   0.9914   0.9903
     0.9856   0.9848   0.9844   0.9838   0.9816   0.9809   0.9784   0.9761
     0.9745   0.9682   0.9672   0.9606   0.9584   0.9497   0.9315   0.9104
     0.8900   0.8858   0.8605   0.8508   0.8449   0.8166   0.8115   0.8080
     0.7968   0.7741   0.7639   0.7412   0.7195   0.7102   0.6856   0.6836
     0.6789   0.6770   0.6687   0.6625   0.6554   0.6510   0.6411   0.6381
     0.6268   0.6154   0.6127   0.5388   0.5321   0.1371   0.1153   0.0984
     0.0726   0.0147   0.0112   0.0053   0.0047   0.0006   0.0006   0.0003
     0.0003   0.0000   0.0000   0.0000   0.0000   0.0000   0.0000   0.0000
     0.0000   0.0000   0.0000   0.0000   0.0000   0.0000   0.0000   0.0000
     0.0000   0.0000   0.0000   0.0000   0.0000   0.0000   0.0000   0.0000

          k =-0.2500 0.2500 0.0000 ( 65198 PWs)   bands (ev):

   -92.7347 -92.6805 -92.5897 -92.5402 -92.4833 -92.4414 -92.4239 -92.3021
   -56.0882 -56.0648 -55.9466 -55.9355 -55.9284 -55.9223 -55.8852 -55.8586
   -55.8425 -55.8409 -55.8329 -55.7906 -55.7711 -55.7344 -55.7164 -55.6834
   -55.6755 -55.6296 -55.6295 -55.6266 -55.6181 -55.5770 -55.5542 -55.4672
   -31.3086 -31.2925 -31.1488 -31.1366 -31.0626 -30.9726 -30.9488 -30.7655
   -29.8816 -29.8406 -29.8140 -29.7061 -15.0514 -15.0103 -14.9370 -14.8199
   -14.7075 -14.5837 -14.4965 -14.2901 -14.1495 -14.1205 -14.1069 -14.0607
   -14.0360 -14.0144 -13.9970 -13.9584 -13.8710 -13.8592 -13.7058 -13.6797
   -13.6499 -13.6295 -13.5724 -13.5311 -13.4758 -13.4675 -13.3590 -13.3132
   -13.2561 -13.1796 -13.1372 -13.0772 -13.0686 -13.0379 -13.0180 -12.9809
   -12.9602 -12.9431 -12.9222 -12.8668 -12.8444 -12.8060 -12.8008 -12.7266
   -12.7153 -12.7095 -12.5290 -12.4747 -12.4619 -12.3147 -12.1676 -12.1134
   -11.8336 -11.8121 -11.7849 -11.7726 -11.7319 -11.6969 -11.6741 -11.6523
   -11.6299 -11.5451 -11.4998 -11.4904  -2.7005  -2.4926  -2.3718  -2.2818
    -2.1650  -2.0983  -1.8931  -1.7501  -1.7312  -1.6986  -1.6095  -1.5744
    -1.4820  -1.4474  -1.4213  -1.2790  -1.2235  -1.1535  -1.1262  -1.0648
    -1.0452  -1.0044  -0.9758  -0.9356  -0.8729  -0.8253  -0.7587  -0.6932
    -0.6695  -0.6177  -0.5895  -0.5437  -0.4841  -0.4342  -0.3986  -0.2942
    -0.2670  -0.2529  -0.2083  -0.1457  -0.0759  -0.0328   0.0038   0.0659
     0.0998   0.3551   0.5273   0.5656   0.6045   0.6610   0.7078   0.7627
     0.8332   0.8650   1.1477   1.2561   1.2956   1.3308   1.3368   1.3773
     1.3936   1.4388   1.4705   1.4840   1.5102   1.5557   1.5708   1.6118
     1.6342   1.6771   1.7562   1.7744   1.7973   1.8257   1.8605   1.8970
     1.9443   2.0563   2.1682   2.1976   2.2448   2.2631   2.3266   2.3712
     2.3987   2.4211   2.4430   2.5457   2.5850   2.6764   2.7818   2.8499
     2.8577   2.8739   2.8812   2.8932   2.9087   2.9150   2.9310   2.9401
     2.9535   2.9640   2.9755   2.9848   2.9948   3.0267   3.0361   3.0442
     3.0779   3.3704   3.4511   3.5230   3.5869   3.6026   3.8209   3.9283
     4.2649   4.4720   4.6934   4.9517   5.1589   5.6173   5.6720   5.7562
     5.8019   5.8665   6.0999   6.1534   6.1959   6.7695   6.8823   7.0733
     7.2178   7.5434   7.5879   7.6478   7.6502   7.8602   7.9252   8.1226
     8.1763   8.2319   8.2827   8.3343   8.4045   8.4371   8.5865   8.8493

     occupation numbers 
     1.0000   1.0000   1.0000   1.0000   1.0000   1.0000   1.0000   1.0000
     1.0000   1.0000   1.0000   1.0000   1.0000   1.0000   1.0000   1.0000
     1.0000   1.0000   1.0000   1.0000   1.0000   1.0000   1.0000   1.0000
     1.0000   1.0000   1.0000   1.0000   1.0000   1.0000   1.0000   1.0000
     1.0000   1.0000   1.0000   1.0000   1.0000   1.0000   1.0000   1.0000
     1.0000   1.0000   1.0000   1.0000   1.0000   1.0000   1.0000   1.0000
     1.0000   1.0000   1.0000   1.0000   1.0000   1.0000   1.0000   1.0000
     1.0000   1.0000   1.0000   1.0000   1.0000   1.0000   1.0000   1.0000
     1.0000   1.0000   1.0000   1.0000   1.0000   1.0000   1.0000   1.0000
     1.0000   1.0000   1.0000   1.0000   1.0000   1.0000   1.0000   1.0000
     1.0000   1.0000   1.0000   1.0000   1.0000   1.0000   1.0000   1.0000
     1.0000   1.0000   1.0000   1.0000   1.0000   1.0000   1.0000   1.0000
     1.0000   1.0000   1.0000   1.0000   1.0000   1.0000   1.0000   1.0000
     1.0000   1.0000   1.0000   1.0000   1.0000   1.0000   1.0000   1.0000
     1.0000   1.0000   1.0000   1.0000   1.0000   1.0000   1.0000   1.0000
     1.0000   1.0000   1.0000   1.0000   1.0000   1.0000   1.0000   1.0000
     1.0000   1.0000   1.0000   1.0000   1.0000   1.0000   1.0000   1.0000
     1.0000   1.0000   1.0000   1.0000   1.0000   1.0000   1.0000   1.0000
     1.0000   1.0000   1.0000   1.0000   1.0000   1.0000   1.0000   1.0000
     1.0000   1.0000   1.0000   1.0000   1.0000   1.0000   0.9999   0.9999
     0.9999   0.9998   0.9993   0.9988   0.9985   0.9982   0.9982   0.9978
     0.9976   0.9970   0.9966   0.9964   0.9959   0.9951   0.9947   0.9937
     0.9931   0.9918   0.9887   0.9879   0.9868   0.9853   0.9833   0.9809
     0.9774   0.9668   0.9525   0.9480   0.9402   0.9369   0.9243   0.9144
     0.9078   0.9022   0.8965   0.8664   0.8534   0.8200   0.7760   0.7446
     0.7409   0.7331   0.7295   0.7235   0.7158   0.7126   0.7044   0.6997
     0.6928   0.6873   0.6812   0.6763   0.6709   0.6536   0.6485   0.6440
     0.6251   0.4541   0.4071   0.3662   0.3311   0.3227   0.2165   0.1727
     0.0744   0.0400   0.0188   0.0069   0.0028   0.0003   0.0002   0.0001
     0.0001   0.0001   0.0000   0.0000   0.0000   0.0000   0.0000   0.0000
     0.0000   0.0000   0.0000   0.0000   0.0000   0.0000   0.0000   0.0000
     0.0000   0.0000   0.0000   0.0000   0.0000   0.0000   0.0000   0.0000

          k =-0.5000 0.2500 0.0000 ( 65138 PWs)   bands (ev):

   -92.7347 -92.6805 -92.5897 -92.5402 -92.4833 -92.4414 -92.4239 -92.3021
   -56.0882 -56.0648 -55.9466 -55.9355 -55.9284 -55.9223 -55.8852 -55.8586
   -55.8425 -55.8409 -55.8329 -55.7906 -55.7711 -55.7344 -55.7164 -55.6834
   -55.6755 -55.6296 -55.6295 -55.6266 -55.6181 -55.5770 -55.5542 -55.4672
   -31.3064 -31.2947 -31.1484 -31.1365 -31.0630 -30.9724 -30.9490 -30.7657
   -29.8806 -29.8417 -29.8136 -29.7066 -15.0162 -14.9706 -14.8933 -14.7932
   -14.7514 -14.6260 -14.5397 -14.4082 -14.1000 -14.0701 -14.0583 -14.0136
   -13.9918 -13.9662 -13.9301 -13.9193 -13.8991 -13.8586 -13.8500 -13.7471
   -13.6711 -13.6217 -13.6152 -13.5968 -13.5144 -13.5011 -13.4028 -13.3521
   -13.2330 -13.1974 -13.1021 -13.0680 -13.0550 -13.0477 -13.0155 -12.9836
   -12.9722 -12.9600 -12.9157 -12.8596 -12.8461 -12.7735 -12.7508 -12.7128
   -12.6549 -12.6471 -12.5717 -12.4513 -12.3541 -12.3195 -12.2222 -12.1969
   -11.8062 -11.7935 -11.7794 -11.7674 -11.7462 -11.7162 -11.6351 -11.6266
   -11.6034 -11.5673 -11.5395 -11.5304  -2.4732  -2.4314  -2.2833  -2.2414
    -2.0801  -2.0020  -1.8623  -1.7261  -1.6675  -1.6409  -1.6028  -1.5652
    -1.4844  -1.3691  -1.3119  -1.2889  -1.2624  -1.1858  -1.1579  -1.1196
    -1.1022  -1.0416  -1.0106  -0.9733  -0.9385  -0.9096  -0.8511  -0.8245
    -0.7833  -0.7470  -0.6423  -0.6182  -0.5215  -0.4692  -0.4335  -0.3720
    -0.2956  -0.2631  -0.1597  -0.1263  -0.0625  -0.0190   0.0222   0.0843
     0.1112   0.1435   0.1977   0.2353   0.5542   0.6065   0.6628   0.6813
     0.9780   1.0416   1.1138   1.1425   1.3170   1.3519   1.3894   1.4013
     1.4191   1.4367   1.5065   1.5526   1.5911   1.6255   1.7324   1.7789
     1.8093   1.8186   1.8481   1.8820   1.8967   1.9061   1.9268   1.9523
     1.9927   2.0165   2.0487   2.0742   2.1030   2.1638   2.2822   2.3826
     2.4127   2.4797   2.5189   2.5804   2.6082   2.6232   2.6650   2.6938
     2.7187   2.7855   2.8069   2.8563   2.8595   2.8664   2.8875   2.9089
     2.9194   2.9362   2.9482   2.9702   2.9847   2.9925   3.0009   3.0092
     3.0215   3.5583   3.5840   3.7427   3.7604   4.0353   4.1092   4.1748
     4.3634   4.7532   4.8473   5.0184   5.0520   5.3819   5.4011   5.5619
     5.6322   5.7160   5.7752   6.2128   6.3746   6.4852   6.6186   7.0958
     7.4529   7.5404   7.6625   7.6942   7.7733   7.8639   7.9986   8.1503
     8.3311   8.3954   8.4273   8.4983   8.5495   8.5889   8.6403   8.7261

     occupation numbers 
     1.0000   1.0000   1.0000   1.0000   1.0000   1.0000   1.0000   1.0000
     1.0000   1.0000   1.0000   1.0000   1.0000   1.0000   1.0000   1.0000
     1.0000   1.0000   1.0000   1.0000   1.0000   1.0000   1.0000   1.0000
     1.0000   1.0000   1.0000   1.0000   1.0000   1.0000   1.0000   1.0000
     1.0000   1.0000   1.0000   1.0000   1.0000   1.0000   1.0000   1.0000
     1.0000   1.0000   1.0000   1.0000   1.0000   1.0000   1.0000   1.0000
     1.0000   1.0000   1.0000   1.0000   1.0000   1.0000   1.0000   1.0000
     1.0000   1.0000   1.0000   1.0000   1.0000   1.0000   1.0000   1.0000
     1.0000   1.0000   1.0000   1.0000   1.0000   1.0000   1.0000   1.0000
     1.0000   1.0000   1.0000   1.0000   1.0000   1.0000   1.0000   1.0000
     1.0000   1.0000   1.0000   1.0000   1.0000   1.0000   1.0000   1.0000
     1.0000   1.0000   1.0000   1.0000   1.0000   1.0000   1.0000   1.0000
     1.0000   1.0000   1.0000   1.0000   1.0000   1.0000   1.0000   1.0000
     1.0000   1.0000   1.0000   1.0000   1.0000   1.0000   1.0000   1.0000
     1.0000   1.0000   1.0000   1.0000   1.0000   1.0000   1.0000   1.0000
     1.0000   1.0000   1.0000   1.0000   1.0000   1.0000   1.0000   1.0000
     1.0000   1.0000   1.0000   1.0000   1.0000   1.0000   1.0000   1.0000
     1.0000   1.0000   1.0000   1.0000   1.0000   1.0000   1.0000   1.0000
     1.0000   1.0000   1.0000   1.0000   1.0000   1.0000   1.0000   1.0000
     1.0000   1.0000   1.0000   1.0000   1.0000   1.0000   1.0000   0.9999
     0.9997   0.9996   0.9994   0.9993   0.9983   0.9980   0.9976   0.9975
     0.9973   0.9971   0.9960   0.9951   0.9942   0.9934   0.9897   0.9877
     0.9862   0.9857   0.9840   0.9819   0.9809   0.9803   0.9787   0.9767
     0.9732   0.9710   0.9677   0.9648   0.9614   0.9532   0.9333   0.9117
     0.9044   0.8864   0.8748   0.8549   0.8453   0.8400   0.8244   0.8131
     0.8030   0.7743   0.7647   0.7416   0.7400   0.7367   0.7263   0.7157
     0.7104   0.7017   0.6956   0.6840   0.6764   0.6722   0.6676   0.6632
     0.6565   0.3467   0.3327   0.2520   0.2437   0.1351   0.1127   0.0952
     0.0559   0.0151   0.0105   0.0052   0.0045   0.0010   0.0009   0.0004
     0.0003   0.0002   0.0001   0.0000   0.0000   0.0000   0.0000   0.0000
     0.0000   0.0000   0.0000   0.0000   0.0000   0.0000   0.0000   0.0000
     0.0000   0.0000   0.0000   0.0000   0.0000   0.0000   0.0000   0.0000

     the Fermi energy is     3.2928 ev

!    total energy              =   -4399.91718453 Ry
     estimated scf accuracy    <          7.3E-09 Ry
     smearing contrib. (-TS)   =      -1.14682139 Ry
     internal energy E=F+TS    =   -4398.77036314 Ry

     The total energy is F=E-TS. E is the sum of the following terms:
     one-electron contribution =  -21252.21490190 Ry
     hartree contribution      =   10753.70878633 Ry
     xc contribution           =    -686.72494818 Ry
     ewald contribution        =    7053.10594292 Ry
     one-center paw contrib.   =    -266.64524233 Ry
      -> PAW hartree energy AE =      25.16869537 Ry
      -> PAW hartree energy PS =     -25.05253426 Ry
      -> PAW xc energy AE      =     -16.51831004 Ry
      -> PAW xc energy PS      =       6.87781574 Ry
      -> total E_H with PAW    =   10753.82494745 Ry
      -> total E_XC with PAW   =    -696.36544248 Ry

     convergence has been achieved in  49 iterations

     Writing all to output data dir /bsuhome/zayahcortright/scratch/pwscf.save/
 
     init_run     :      7.65s CPU      8.23s WALL (       1 calls)
     electrons    :    702.00s CPU    714.31s WALL (       1 calls)

     Called by init_run:
     wfcinit      :      6.16s CPU      6.31s WALL (       1 calls)
     wfcinit:atom :      0.04s CPU      0.05s WALL (       5 calls)
     wfcinit:wfcr :      5.84s CPU      5.93s WALL (       5 calls)
     potinit      :      0.16s CPU      0.18s WALL (       1 calls)
     hinit0       :      0.46s CPU      0.79s WALL (       1 calls)

     Called by electrons:
     c_bands      :    554.41s CPU    559.14s WALL (      49 calls)
     sum_band     :    110.88s CPU    115.26s WALL (      49 calls)
     v_of_rho     :      5.38s CPU      5.66s WALL (      50 calls)
     v_h          :      0.41s CPU      0.41s WALL (      50 calls)
     v_xc         :      4.97s CPU      5.25s WALL (      50 calls)
     newd         :     16.75s CPU     19.26s WALL (      50 calls)
     PAW_pot      :      1.56s CPU      1.60s WALL (      50 calls)
     mix_rho      :     12.68s CPU     12.93s WALL (      49 calls)

     Called by c_bands:
     init_us_2    :      6.73s CPU      6.77s WALL (     495 calls)
     init_us_2:cp :      6.72s CPU      6.77s WALL (     495 calls)
     cegterg      :    525.78s CPU    530.31s WALL (     245 calls)

     Called by sum_band:
     sum_band:wei :      0.34s CPU      0.35s WALL (      49 calls)
     sum_band:loo :     91.26s CPU     91.92s WALL (      49 calls)
     sum_band:buf :      1.32s CPU      1.34s WALL (     245 calls)
     sum_band:ini :      3.05s CPU      3.06s WALL (     245 calls)
     sum_band:cal :     18.36s CPU     18.41s WALL (     245 calls)
     sum_band:bec :      0.54s CPU      0.55s WALL (     245 calls)
     addusdens    :     18.24s CPU     21.91s WALL (      49 calls)
                                        0.00s GPU  (      49 calls)
     addusd:skk   :      0.32s CPU      0.68s WALL (     196 calls)
                                        0.00s GPU  (     196 calls)

     Called by *egterg:
     cdiaghg      :     57.46s CPU     57.70s WALL (    1362 calls)
     cegterg:over :     38.25s CPU     38.39s WALL (    1117 calls)
     cegterg:upda :     28.14s CPU     28.47s WALL (    1117 calls)
     cegterg:last :     56.99s CPU     57.17s WALL (     445 calls)
     cdiaghg:chol :      3.12s CPU      3.14s WALL (    1362 calls)
     cdiaghg:inve :      3.43s CPU      3.45s WALL (    1362 calls)
     cdiaghg:para :      7.11s CPU      7.16s WALL (    2724 calls)
     h_psi        :    291.51s CPU    294.16s WALL (    1367 calls)
     s_psi        :     38.43s CPU     38.54s WALL (    1367 calls)
     g_psi        :      1.11s CPU      1.12s WALL (    1117 calls)

     Called by h_psi:
     h_psi:calbec :     42.52s CPU     42.66s WALL (    1367 calls)
     vloc_psi     :    207.58s CPU    209.56s WALL (    1367 calls)
     add_vuspsi   :     38.35s CPU     38.48s WALL (    1367 calls)

     General routines
     calbec       :     60.87s CPU     61.05s WALL (    1612 calls)
     fft          :      3.66s CPU      3.71s WALL (     648 calls)
     ffts         :      4.70s CPU      4.73s WALL (    5197 calls)
     fftw         :    176.83s CPU    178.28s WALL (  326788 calls)
     interpolate  :      0.42s CPU      0.42s WALL (      50 calls)
 
     Parallel routines

     PAW routines
     PAW_pot      :      1.56s CPU      1.60s WALL (      50 calls)
 
     PWSCF        :  11m51.35s CPU  12m 7.13s WALL

 
   This run was terminated on:   0: 5:33  22Jun2024            

=------------------------------------------------------------------------------=
   JOB DONE.
=------------------------------------------------------------------------------=
