
     Program PWSCF v.7.2 starts on 20Jun2024 at 18:28: 1 

     This program is part of the open-source Quantum ESPRESSO suite
     for quantum simulation of materials; please cite
         "P. Giannozzi et al., J. Phys.:Condens. Matter 21 395502 (2009);
         "P. Giannozzi et al., J. Phys.:Condens. Matter 29 465901 (2017);
         "P. Giannozzi et al., J. Chem. Phys. 152 154105 (2020);
          URL http://www.quantum-espresso.org", 
     in publications or presentations arising from this work. More details at
     http://www.quantum-espresso.org/quote

     Parallel version (MPI & OpenMP), running on      48 processor cores
     Number of MPI processes:                48
     Threads/MPI process:                     1

     MPI processes distributed on     1 nodes
     41857 MiB available memory on the printing compute node when the environment starts
 
     Reading input from espresso.pwi
Warning: card &CELL ignored
Warning: card / ignored
Warning: card &FCP ignored
Warning: card / ignored
Warning: card &RISM ignored
Warning: card / ignored

     Current dimensions of program PWSCF are:
     Max number of different atomic species (ntypx) = 10
     Max number of k-points (npk) =  40000
     Max angular momentum in pseudopotentials (lmaxx) =  4
     file O.pbe-n-kjpaw_psl.0.1.UPF: wavefunction(s)  2P renormalized
     signal trapping enabled: kill the code with -SIGUSR1 to stop cleanly the simulation 
 
     K-points division:     npool     =       2
     R & G space division:  proc/nbgrp/npool/nimage =      24
     Subspace diagonalization in iterative solution of the eigenvalue problem:
     one sub-group per band group will be used
     scalapack distributed-memory algorithm (size of sub-group:  3*  3 procs)

 
     Parallelization info
     --------------------
     sticks:   dense  smooth     PW     G-vecs:    dense   smooth      PW
     Min         350     175     47                61430    21716    3036
     Max         351     177     48                61449    21727    3041
     Sum        8421    4205   1137              1474595   521381   72913
 
     Using Slab Decomposition
 


     bravais-lattice index     =            0
     lattice parameter (alat)  =      14.8599  a.u.
     unit-cell volume          =    8305.1283 (a.u.)^3
     number of atoms/cell      =           51
     number of atomic types    =            4
     number of electrons       =       437.00
     number of Kohn-Sham states=          263
     kinetic-energy cutoff     =      60.0000  Ry
     charge density cutoff     =     480.0000  Ry
     scf convergence threshold =      1.0E-08
     mixing beta               =       0.1500
     number of iterations used =            8  local-TF  mixing
     Exchange-correlation= PBE
                           (   1   4   3   4   0   0   0)

     celldm(1)=  14.859904  celldm(2)=   0.000000  celldm(3)=   0.000000
     celldm(4)=   0.000000  celldm(5)=   0.000000  celldm(6)=   0.000000

     crystal axes: (cart. coord. in units of alat)
               a(1) = (   1.000000   0.000000   0.000000 )  
               a(2) = (   0.000000   1.000000   0.000000 )  
               a(3) = (   0.000000   0.000000   2.531036 )  

     reciprocal axes: (cart. coord. in units 2 pi/alat)
               b(1) = (  1.000000  0.000000  0.000000 )  
               b(2) = (  0.000000  1.000000  0.000000 )  
               b(3) = (  0.000000  0.000000  0.395095 )  


     PseudoPot. # 1 for Sr read from file:
     /bsuhome/zayahcortright/q-e/pseudo/Sr_pbe_v1.uspp.F.UPF
     MD5 check sum: 6b418c05fbe9db5448babca5e47b7a5b
     Pseudo is Ultrasoft + core correction, Zval = 10.0
     Generated by new atomic code, or converted to UPF format
     Using radial grid of  883 points,  6 beta functions with: 
                l(1) =   0
                l(2) =   0
                l(3) =   1
                l(4) =   1
                l(5) =   2
                l(6) =   2
     Q(r) pseudized with  6 coefficients,  rinner =    1.400   1.400   1.400
                                                       1.400   1.400

     PseudoPot. # 2 for O  read from file:
     /bsuhome/zayahcortright/q-e/pseudo/O.pbe-n-kjpaw_psl.0.1.UPF
     MD5 check sum: 0234752ac141de4415c5fc33072bef88
     Pseudo is Projector augmented-wave + core cor, Zval =  6.0
     Generated using "atomic" code by A. Dal Corso  v.5.0.99 svn rev. 10869
     Shape of augmentation charge: BESSEL
     Using radial grid of 1095 points,  4 beta functions with: 
                l(1) =   0
                l(2) =   0
                l(3) =   1
                l(4) =   1
     Q(r) pseudized with 0 coefficients 


     PseudoPot. # 3 for Co read from file:
     /bsuhome/zayahcortright/q-e/pseudo/Co_pbe_v1.2.uspp.F.UPF
     MD5 check sum: 5f91765df6ddd3222702df6e7b74a16d
     Pseudo is Ultrasoft + core correction, Zval = 17.0
     Generated by new atomic code, or converted to UPF format
     Using radial grid of  863 points,  6 beta functions with: 
                l(1) =   0
                l(2) =   0
                l(3) =   1
                l(4) =   1
                l(5) =   2
                l(6) =   2
     Q(r) pseudized with  8 coefficients,  rinner =    1.200   1.200   1.200
                                                       1.200   1.200

     PseudoPot. # 4 for H  read from file:
     /bsuhome/zayahcortright/q-e/pseudo/H.pbe-rrkjus_psl.1.0.0.UPF
     MD5 check sum: f52b6d4d1c606e5624b1dc7b2218f220
     Pseudo is Ultrasoft, Zval =  1.0
     Generated using "atomic" code by A. Dal Corso  v.5.1
     Using radial grid of  929 points,  2 beta functions with: 
                l(1) =   0
                l(2) =   0
     Q(r) pseudized with 0 coefficients 


     atomic species   valence    mass     pseudopotential
        Sr            10.00    87.62000     Sr( 1.00)
        O              6.00    15.99900     O ( 1.00)
        Co            17.00    58.93319     Co( 1.00)
        H              1.00     1.00800     H ( 1.00)

     No symmetry found


                                    s                        frac. trans.

      isym =  1     identity                                     

 cryst.   s( 1) = (     1          0          0      )
                  (     0          1          0      )
                  (     0          0          1      )

 cart.    s( 1) = (  1.0000000  0.0000000  0.0000000 )
                  (  0.0000000  1.0000000  0.0000000 )
                  (  0.0000000  0.0000000  1.0000000 )


   Cartesian axes

     site n.     atom                  positions (alat units)
         1           Sr  tau(   1) = (   0.2508693   0.7491307   1.7574407  )
         2           O   tau(   2) = (   0.4985141   0.5014859   1.7715967  )
         3           Sr  tau(   3) = (   0.7482398   0.7454518   1.7648669  )
         4           Sr  tau(   4) = (   0.7441748   0.2558252   1.7667843  )
         5           Sr  tau(   5) = (   0.2508693   0.7491307   1.2696799  )
         6           Sr  tau(   6) = (   0.2508693   0.7491307   0.7632319  )
         7           Co  tau(   7) = (   0.4998914   0.5001086   1.0164559  )
         8           Co  tau(   8) = (   0.4936915   0.5063085   1.5135603  )
         9           O   tau(   9) = (   0.4988895   0.7610401   1.0164559  )
        10           O   tau(  10) = (   0.2389599   0.5011105   1.0164559  )
        11           O   tau(  11) = (   0.0070918   0.7374880   1.0164559  )
        12           O   tau(  12) = (   0.0088340   0.7405089   1.5135603  )
        13           O   tau(  13) = (   0.5066944   0.7415376   1.5135603  )
        14           O   tau(  14) = (   0.2584624   0.4933056   1.5135603  )
        15           O   tau(  15) = (   0.4985141   0.5014859   0.7773880  )
        16           O   tau(  16) = (   0.4985141   0.5014859   1.2555238  )
        17           Sr  tau(  17) = (   0.7482398   0.7454518   0.7706582  )
        18           Sr  tau(  18) = (   0.7482398   0.7454518   1.2622536  )
        19           Sr  tau(  19) = (   0.7441748   0.2558252   0.7725755  )
        20           Sr  tau(  20) = (   0.7441748   0.2558252   1.2603363  )
        21           O   tau(  21) = (   0.7322655   0.0078049   1.5135603  )
        22           O   tau(  22) = (   0.7558175   0.4996027   1.5135603  )
        23           O   tau(  23) = (   0.5003973   0.2441825   1.5135603  )
        24           O   tau(  24) = (   0.7527966   0.4978604   1.0164559  )
        25           O   tau(  25) = (   0.5021396   0.2472034   1.0164559  )
        26           O   tau(  26) = (   0.7517679   0.0000000   1.0164559  )
        27           O   tau(  27) = (   0.0114961   0.4948124   1.7455321  )
        28           O   tau(  28) = (   0.0048226   0.0077944   1.7715967  )
        29           Sr  tau(  29) = (   0.2545482   0.2517602   1.7648669  )
        30           O   tau(  30) = (   0.5048017   0.0015068   1.7786929  )
        31           Co  tau(  31) = (   0.0056869   0.5006215   1.0164559  )
        32           Co  tau(  32) = (   0.0065315   0.4997770   1.5135603  )
        33           Co  tau(  33) = (   0.0061999   0.0064171   1.0164559  )
        34           Co  tau(  34) = (   0.0000000   0.0126169   1.5135603  )
        35           O   tau(  35) = (   0.0114961   0.4948124   1.2815885  )
        36           O   tau(  36) = (   0.0114961   0.4948124   0.7513233  )
        37           O   tau(  37) = (   0.0051979   0.2673486   1.0164559  )
        38           O   tau(  38) = (   0.0130029   0.2478461   1.5135603  )
        39           O   tau(  39) = (   0.0048226   0.0077944   0.7773880  )
        40           O   tau(  40) = (   0.0048226   0.0077944   1.2555238  )
        41           Sr  tau(  41) = (   0.2545482   0.2517602   0.7706582  )
        42           Sr  tau(  42) = (   0.2545482   0.2517602   1.2622536  )
        43           Co  tau(  43) = (   0.4989925   0.0073160   1.5135603  )
        44           Co  tau(  44) = (   0.4998370   0.0064714   1.0164559  )
        45           O   tau(  45) = (   0.5048017   0.0015068   0.7844841  )
        46           O   tau(  46) = (   0.5048017   0.0015068   1.2484277  )
        47           O   tau(  47) = (   0.2621260   0.0059111   1.5135603  )
        48           O   tau(  48) = (   0.2591051   0.0041689   1.0164559  )
        49           O   tau(  49) = (   0.8529874   0.7108228   2.1602013  )
        50           O   tau(  50) = (   0.8529874   0.7108228   2.3186489  )
        51           H   tau(  51) = (   0.8529874   0.7108228   2.4431567  )

   Crystallographic axes

     site n.     atom                  positions (cryst. coord.)
         1           Sr  tau(   1) = (  0.2508693  0.7491307  0.6943562  )
         2           O   tau(   2) = (  0.4985141  0.5014859  0.6999492  )
         3           Sr  tau(   3) = (  0.7482398  0.7454518  0.6972903  )
         4           Sr  tau(   4) = (  0.7441748  0.2558252  0.6980478  )
         5           Sr  tau(   5) = (  0.2508693  0.7491307  0.5016443  )
         6           Sr  tau(   6) = (  0.2508693  0.7491307  0.3015492  )
         7           Co  tau(   7) = (  0.4998914  0.5001086  0.4015968  )
         8           Co  tau(   8) = (  0.4936915  0.5063085  0.5980003  )
         9           O   tau(   9) = (  0.4988895  0.7610401  0.4015968  )
        10           O   tau(  10) = (  0.2389599  0.5011105  0.4015968  )
        11           O   tau(  11) = (  0.0070918  0.7374880  0.4015968  )
        12           O   tau(  12) = (  0.0088340  0.7405089  0.5980003  )
        13           O   tau(  13) = (  0.5066944  0.7415376  0.5980003  )
        14           O   tau(  14) = (  0.2584624  0.4933056  0.5980003  )
        15           O   tau(  15) = (  0.4985141  0.5014859  0.3071422  )
        16           O   tau(  16) = (  0.4985141  0.5014859  0.4960513  )
        17           Sr  tau(  17) = (  0.7482398  0.7454518  0.3044833  )
        18           Sr  tau(  18) = (  0.7482398  0.7454518  0.4987103  )
        19           Sr  tau(  19) = (  0.7441748  0.2558252  0.3052408  )
        20           Sr  tau(  20) = (  0.7441748  0.2558252  0.4979527  )
        21           O   tau(  21) = (  0.7322655  0.0078049  0.5980003  )
        22           O   tau(  22) = (  0.7558175  0.4996027  0.5980003  )
        23           O   tau(  23) = (  0.5003973  0.2441825  0.5980003  )
        24           O   tau(  24) = (  0.7527966  0.4978604  0.4015968  )
        25           O   tau(  25) = (  0.5021396  0.2472034  0.4015968  )
        26           O   tau(  26) = (  0.7517679  0.0000000  0.4015968  )
        27           O   tau(  27) = (  0.0114961  0.4948124  0.6896512  )
        28           O   tau(  28) = (  0.0048226  0.0077944  0.6999492  )
        29           Sr  tau(  29) = (  0.2545482  0.2517602  0.6972903  )
        30           O   tau(  30) = (  0.5048017  0.0015068  0.7027529  )
        31           Co  tau(  31) = (  0.0056869  0.5006215  0.4015968  )
        32           Co  tau(  32) = (  0.0065315  0.4997770  0.5980003  )
        33           Co  tau(  33) = (  0.0061999  0.0064171  0.4015968  )
        34           Co  tau(  34) = (  0.0000000  0.0126169  0.5980003  )
        35           O   tau(  35) = (  0.0114961  0.4948124  0.5063494  )
        36           O   tau(  36) = (  0.0114961  0.4948124  0.2968442  )
        37           O   tau(  37) = (  0.0051979  0.2673486  0.4015968  )
        38           O   tau(  38) = (  0.0130029  0.2478461  0.5980003  )
        39           O   tau(  39) = (  0.0048226  0.0077944  0.3071422  )
        40           O   tau(  40) = (  0.0048226  0.0077944  0.4960513  )
        41           Sr  tau(  41) = (  0.2545482  0.2517602  0.3044833  )
        42           Sr  tau(  42) = (  0.2545482  0.2517602  0.4987103  )
        43           Co  tau(  43) = (  0.4989925  0.0073160  0.5980003  )
        44           Co  tau(  44) = (  0.4998370  0.0064714  0.4015968  )
        45           O   tau(  45) = (  0.5048017  0.0015068  0.3099459  )
        46           O   tau(  46) = (  0.5048017  0.0015068  0.4932477  )
        47           O   tau(  47) = (  0.2621260  0.0059111  0.5980003  )
        48           O   tau(  48) = (  0.2591051  0.0041689  0.4015968  )
        49           O   tau(  49) = (  0.8529874  0.7108228  0.8534850  )
        50           O   tau(  50) = (  0.8529874  0.7108228  0.9160869  )
        51           H   tau(  51) = (  0.8529874  0.7108228  0.9652793  )

     number of k points=    10  Gaussian smearing, width (Ry)=  0.0700
                       cart. coord. in units 2pi/alat
        k(    1) = (   0.0000000   0.0000000   0.0000000), wk =   0.1250000
        k(    2) = (   0.0000000   0.2500000   0.0000000), wk =   0.2500000
        k(    3) = (   0.0000000  -0.5000000   0.0000000), wk =   0.1250000
        k(    4) = (   0.2500000   0.2500000   0.0000000), wk =   0.2500000
        k(    5) = (   0.2500000  -0.5000000   0.0000000), wk =   0.2500000
        k(    6) = (  -0.5000000  -0.5000000   0.0000000), wk =   0.1250000
        k(    7) = (   0.2500000   0.0000000   0.0000000), wk =   0.2500000
        k(    8) = (  -0.5000000   0.0000000   0.0000000), wk =   0.1250000
        k(    9) = (  -0.2500000   0.2500000   0.0000000), wk =   0.2500000
        k(   10) = (  -0.5000000   0.2500000   0.0000000), wk =   0.2500000

                       cryst. coord.
        k(    1) = (   0.0000000   0.0000000   0.0000000), wk =   0.1250000
        k(    2) = (   0.0000000   0.2500000   0.0000000), wk =   0.2500000
        k(    3) = (   0.0000000  -0.5000000   0.0000000), wk =   0.1250000
        k(    4) = (   0.2500000   0.2500000   0.0000000), wk =   0.2500000
        k(    5) = (   0.2500000  -0.5000000   0.0000000), wk =   0.2500000
        k(    6) = (  -0.5000000  -0.5000000   0.0000000), wk =   0.1250000
        k(    7) = (   0.2500000   0.0000000   0.0000000), wk =   0.2500000
        k(    8) = (  -0.5000000   0.0000000   0.0000000), wk =   0.1250000
        k(    9) = (  -0.2500000   0.2500000   0.0000000), wk =   0.2500000
        k(   10) = (  -0.5000000   0.2500000   0.0000000), wk =   0.2500000

     Dense  grid:  1474595 G-vectors     FFT dimensions: ( 108, 108, 270)

     Smooth grid:   521381 G-vectors     FFT dimensions: (  75,  75, 192)

     Dynamical RAM for                 wfc:      10.90 MB

     Dynamical RAM for     wfc (w. buffer):      65.37 MB

     Dynamical RAM for           str. fact:       3.75 MB

     Dynamical RAM for           local pot:       0.00 MB

     Dynamical RAM for          nlocal pot:      24.94 MB

     Dynamical RAM for                qrad:       7.03 MB

     Dynamical RAM for          rho,v,vnew:       6.02 MB

     Dynamical RAM for               rhoin:       2.01 MB

     Dynamical RAM for            rho*nmix:      15.00 MB

     Dynamical RAM for           G-vectors:       3.68 MB

     Dynamical RAM for          h,s,v(r/c):       1.40 MB

     Dynamical RAM for          <psi|beta>:       2.42 MB

     Dynamical RAM for                 psi:      21.79 MB

     Dynamical RAM for                hpsi:      21.79 MB

     Dynamical RAM for                spsi:      21.79 MB

     Dynamical RAM for      wfcinit/wfcrot:      34.89 MB

     Dynamical RAM for           addusdens:     101.73 MB

     Estimated static dynamical RAM per process >     122.82 MB

     Estimated max dynamical RAM per process >     239.55 MB

     Estimated total dynamical RAM >      10.88 GB

     Check: negative core charge=   -0.000004

     Initial potential from superposition of free atoms

     starting charge     428.5961, renormalised to     437.0000

     negative rho (up, down):  7.813E-01 0.000E+00
     Starting wfcs are  381 randomized atomic wfcs
     Checking if some PAW data can be deallocated... 
       PAW data deallocated on   18 nodes for type:  2

     total cpu time spent up to now is        9.9 secs

     Self-consistent Calculation

     iteration #  1     ecut=    60.00 Ry     beta= 0.15
     Davidson diagonalization with overlap

---- Real-time Memory Report at c_bands before calling an iterative solver
             0 MiB given to the printing process from OS
             0 MiB allocation reported by mallinfo(arena+hblkhd)
         32102 MiB available memory on the node where the printing process lives
------------------
     ethr =  1.00E-02,  avg # of iterations =  2.0

     negative rho (up, down):  7.715E-01 0.000E+00

     total cpu time spent up to now is       25.7 secs

     total energy              =   -4489.27834492 Ry
     estimated scf accuracy    <      49.72596487 Ry

     iteration #  2     ecut=    60.00 Ry     beta= 0.15
     Davidson diagonalization with overlap

---- Real-time Memory Report at c_bands before calling an iterative solver
             0 MiB given to the printing process from OS
             0 MiB allocation reported by mallinfo(arena+hblkhd)
         32471 MiB available memory on the node where the printing process lives
------------------
     ethr =  1.00E-02,  avg # of iterations =  1.0

     negative rho (up, down):  7.613E-01 0.000E+00

     total cpu time spent up to now is       38.6 secs

     total energy              =   -4486.80889355 Ry
     estimated scf accuracy    <      35.25753983 Ry

     iteration #  3     ecut=    60.00 Ry     beta= 0.15
     Davidson diagonalization with overlap

---- Real-time Memory Report at c_bands before calling an iterative solver
             0 MiB given to the printing process from OS
             0 MiB allocation reported by mallinfo(arena+hblkhd)
         31705 MiB available memory on the node where the printing process lives
------------------
     ethr =  8.07E-03,  avg # of iterations =  1.0

     negative rho (up, down):  7.562E-01 0.000E+00

     total cpu time spent up to now is       51.6 secs

     total energy              =   -4486.75794274 Ry
     estimated scf accuracy    <      35.12970300 Ry

     iteration #  4     ecut=    60.00 Ry     beta= 0.15
     Davidson diagonalization with overlap

---- Real-time Memory Report at c_bands before calling an iterative solver
             0 MiB given to the printing process from OS
             0 MiB allocation reported by mallinfo(arena+hblkhd)
         31687 MiB available memory on the node where the printing process lives
------------------
     ethr =  8.04E-03,  avg # of iterations =  1.0

     negative rho (up, down):  7.573E-01 0.000E+00

     total cpu time spent up to now is       64.7 secs

     total energy              =   -4486.64257767 Ry
     estimated scf accuracy    <      34.27810847 Ry

     iteration #  5     ecut=    60.00 Ry     beta= 0.15
     Davidson diagonalization with overlap

---- Real-time Memory Report at c_bands before calling an iterative solver
             0 MiB given to the printing process from OS
             0 MiB allocation reported by mallinfo(arena+hblkhd)
         31669 MiB available memory on the node where the printing process lives
------------------
     ethr =  7.84E-03,  avg # of iterations =  1.0

     negative rho (up, down):  7.339E-01 0.000E+00

     total cpu time spent up to now is       77.6 secs

     total energy              =   -4482.79504740 Ry
     estimated scf accuracy    <      23.38210841 Ry

     iteration #  6     ecut=    60.00 Ry     beta= 0.15
     Davidson diagonalization with overlap

---- Real-time Memory Report at c_bands before calling an iterative solver
             0 MiB given to the printing process from OS
             0 MiB allocation reported by mallinfo(arena+hblkhd)
         31653 MiB available memory on the node where the printing process lives
------------------
     ethr =  5.35E-03,  avg # of iterations =  2.0

     negative rho (up, down):  7.478E-01 0.000E+00

     total cpu time spent up to now is       91.9 secs

     total energy              =   -4483.99704626 Ry
     estimated scf accuracy    <      41.33815809 Ry

     iteration #  7     ecut=    60.00 Ry     beta= 0.15
     Davidson diagonalization with overlap

---- Real-time Memory Report at c_bands before calling an iterative solver
             0 MiB given to the printing process from OS
             0 MiB allocation reported by mallinfo(arena+hblkhd)
         31628 MiB available memory on the node where the printing process lives
------------------
     ethr =  5.35E-03,  avg # of iterations =  1.0

     negative rho (up, down):  7.531E-01 0.000E+00

     total cpu time spent up to now is      104.7 secs

     total energy              =   -4483.47761380 Ry
     estimated scf accuracy    <      41.27273192 Ry

     iteration #  8     ecut=    60.00 Ry     beta= 0.15
     Davidson diagonalization with overlap

---- Real-time Memory Report at c_bands before calling an iterative solver
             0 MiB given to the printing process from OS
             0 MiB allocation reported by mallinfo(arena+hblkhd)
         31607 MiB available memory on the node where the printing process lives
------------------
     ethr =  5.35E-03,  avg # of iterations =  1.0

     negative rho (up, down):  7.505E-01 0.000E+00

     total cpu time spent up to now is      117.6 secs

     total energy              =   -4483.83953833 Ry
     estimated scf accuracy    <       5.93722948 Ry

     iteration #  9     ecut=    60.00 Ry     beta= 0.15
     Davidson diagonalization with overlap

---- Real-time Memory Report at c_bands before calling an iterative solver
             0 MiB given to the printing process from OS
             0 MiB allocation reported by mallinfo(arena+hblkhd)
         31583 MiB available memory on the node where the printing process lives
------------------
     ethr =  1.36E-03,  avg # of iterations =  4.6

     negative rho (up, down):  7.643E-01 0.000E+00

     total cpu time spent up to now is      133.3 secs

     total energy              =   -4483.70481366 Ry
     estimated scf accuracy    <       3.51888603 Ry

     iteration # 10     ecut=    60.00 Ry     beta= 0.15
     Davidson diagonalization with overlap

---- Real-time Memory Report at c_bands before calling an iterative solver
             0 MiB given to the printing process from OS
             0 MiB allocation reported by mallinfo(arena+hblkhd)
         31540 MiB available memory on the node where the printing process lives
------------------
     ethr =  8.05E-04,  avg # of iterations = 10.2

     negative rho (up, down):  7.823E-01 0.000E+00

     total cpu time spent up to now is      152.2 secs

     total energy              =   -4483.52823298 Ry
     estimated scf accuracy    <       4.36545204 Ry

     iteration # 11     ecut=    60.00 Ry     beta= 0.15
     Davidson diagonalization with overlap

---- Real-time Memory Report at c_bands before calling an iterative solver
             0 MiB given to the printing process from OS
             0 MiB allocation reported by mallinfo(arena+hblkhd)
         31195 MiB available memory on the node where the printing process lives
------------------
     ethr =  8.05E-04,  avg # of iterations =  5.9

     negative rho (up, down):  7.884E-01 0.000E+00

     total cpu time spent up to now is      168.3 secs

     total energy              =   -4483.28434242 Ry
     estimated scf accuracy    <       4.20337297 Ry

     iteration # 12     ecut=    60.00 Ry     beta= 0.15
     Davidson diagonalization with overlap

---- Real-time Memory Report at c_bands before calling an iterative solver
             0 MiB given to the printing process from OS
             0 MiB allocation reported by mallinfo(arena+hblkhd)
         31025 MiB available memory on the node where the printing process lives
------------------
     ethr =  8.05E-04,  avg # of iterations =  7.6

     negative rho (up, down):  7.999E-01 0.000E+00

     total cpu time spent up to now is      185.4 secs

     total energy              =   -4483.20708974 Ry
     estimated scf accuracy    <       2.11489629 Ry

     iteration # 13     ecut=    60.00 Ry     beta= 0.15
     Davidson diagonalization with overlap

---- Real-time Memory Report at c_bands before calling an iterative solver
             0 MiB given to the printing process from OS
             0 MiB allocation reported by mallinfo(arena+hblkhd)
         30998 MiB available memory on the node where the printing process lives
------------------
     ethr =  4.84E-04,  avg # of iterations =  2.5

     negative rho (up, down):  7.992E-01 0.000E+00

     total cpu time spent up to now is      200.1 secs

     total energy              =   -4483.28201756 Ry
     estimated scf accuracy    <       1.40649268 Ry

     iteration # 14     ecut=    60.00 Ry     beta= 0.15
     Davidson diagonalization with overlap

---- Real-time Memory Report at c_bands before calling an iterative solver
             0 MiB given to the printing process from OS
             0 MiB allocation reported by mallinfo(arena+hblkhd)
         31003 MiB available memory on the node where the printing process lives
------------------
     ethr =  3.22E-04,  avg # of iterations =  7.9

     negative rho (up, down):  8.105E-01 0.000E+00

     total cpu time spent up to now is      217.3 secs

     total energy              =   -4483.15660689 Ry
     estimated scf accuracy    <       0.86240417 Ry

     iteration # 15     ecut=    60.00 Ry     beta= 0.15
     Davidson diagonalization with overlap

---- Real-time Memory Report at c_bands before calling an iterative solver
             0 MiB given to the printing process from OS
             0 MiB allocation reported by mallinfo(arena+hblkhd)
         30984 MiB available memory on the node where the printing process lives
------------------
     ethr =  1.97E-04,  avg # of iterations =  7.0

     negative rho (up, down):  8.165E-01 0.000E+00

     total cpu time spent up to now is      234.3 secs

     total energy              =   -4483.15224188 Ry
     estimated scf accuracy    <       1.93341075 Ry

     iteration # 16     ecut=    60.00 Ry     beta= 0.15
     Davidson diagonalization with overlap

---- Real-time Memory Report at c_bands before calling an iterative solver
             0 MiB given to the printing process from OS
             0 MiB allocation reported by mallinfo(arena+hblkhd)
         30983 MiB available memory on the node where the printing process lives
------------------
     ethr =  1.97E-04,  avg # of iterations =  3.2

     negative rho (up, down):  8.136E-01 0.000E+00

     total cpu time spent up to now is      249.5 secs

     total energy              =   -4483.12217297 Ry
     estimated scf accuracy    <       1.27824251 Ry

     iteration # 17     ecut=    60.00 Ry     beta= 0.15
     Davidson diagonalization with overlap

---- Real-time Memory Report at c_bands before calling an iterative solver
             0 MiB given to the printing process from OS
             0 MiB allocation reported by mallinfo(arena+hblkhd)
         30994 MiB available memory on the node where the printing process lives
------------------
     ethr =  1.97E-04,  avg # of iterations =  1.6

     negative rho (up, down):  8.174E-01 0.000E+00

     total cpu time spent up to now is      263.4 secs

     total energy              =   -4483.09282490 Ry
     estimated scf accuracy    <       0.44470432 Ry

     iteration # 18     ecut=    60.00 Ry     beta= 0.15
     Davidson diagonalization with overlap

---- Real-time Memory Report at c_bands before calling an iterative solver
             0 MiB given to the printing process from OS
             0 MiB allocation reported by mallinfo(arena+hblkhd)
         30998 MiB available memory on the node where the printing process lives
------------------
     ethr =  1.02E-04,  avg # of iterations = 10.2

     negative rho (up, down):  8.192E-01 0.000E+00

     total cpu time spent up to now is      281.9 secs

     total energy              =   -4483.05389405 Ry
     estimated scf accuracy    <       0.52417228 Ry

     iteration # 19     ecut=    60.00 Ry     beta= 0.15
     Davidson diagonalization with overlap

---- Real-time Memory Report at c_bands before calling an iterative solver
             0 MiB given to the printing process from OS
             0 MiB allocation reported by mallinfo(arena+hblkhd)
         30997 MiB available memory on the node where the printing process lives
------------------
     ethr =  1.02E-04,  avg # of iterations = 11.1

     negative rho (up, down):  8.226E-01 0.000E+00

     total cpu time spent up to now is      300.5 secs

     total energy              =   -4483.03835396 Ry
     estimated scf accuracy    <       0.37132544 Ry

     iteration # 20     ecut=    60.00 Ry     beta= 0.15
     Davidson diagonalization with overlap

---- Real-time Memory Report at c_bands before calling an iterative solver
             0 MiB given to the printing process from OS
             0 MiB allocation reported by mallinfo(arena+hblkhd)
         30835 MiB available memory on the node where the printing process lives
------------------
     ethr =  8.50E-05,  avg # of iterations =  3.3

     negative rho (up, down):  8.273E-01 0.000E+00

     total cpu time spent up to now is      315.5 secs

     total energy              =   -4483.01269282 Ry
     estimated scf accuracy    <       0.31494865 Ry

     iteration # 21     ecut=    60.00 Ry     beta= 0.15
     Davidson diagonalization with overlap

---- Real-time Memory Report at c_bands before calling an iterative solver
             0 MiB given to the printing process from OS
             0 MiB allocation reported by mallinfo(arena+hblkhd)
         30766 MiB available memory on the node where the printing process lives
------------------
     ethr =  7.21E-05,  avg # of iterations = 10.0

     negative rho (up, down):  8.323E-01 0.000E+00

     total cpu time spent up to now is      333.7 secs

     total energy              =   -4482.98031508 Ry
     estimated scf accuracy    <       0.34336776 Ry

     iteration # 22     ecut=    60.00 Ry     beta= 0.15
     Davidson diagonalization with overlap

---- Real-time Memory Report at c_bands before calling an iterative solver
             0 MiB given to the printing process from OS
             0 MiB allocation reported by mallinfo(arena+hblkhd)
         30735 MiB available memory on the node where the printing process lives
------------------
     ethr =  7.21E-05,  avg # of iterations =  7.6

     negative rho (up, down):  8.423E-01 0.000E+00

     total cpu time spent up to now is      350.8 secs

     total energy              =   -4482.98812595 Ry
     estimated scf accuracy    <       0.06884483 Ry

     iteration # 23     ecut=    60.00 Ry     beta= 0.15
     Davidson diagonalization with overlap

---- Real-time Memory Report at c_bands before calling an iterative solver
             0 MiB given to the printing process from OS
             0 MiB allocation reported by mallinfo(arena+hblkhd)
         30731 MiB available memory on the node where the printing process lives
------------------
     ethr =  1.58E-05,  avg # of iterations = 11.4

     negative rho (up, down):  8.369E-01 0.000E+00

     total cpu time spent up to now is      370.4 secs

     total energy              =   -4482.98209131 Ry
     estimated scf accuracy    <       0.03997235 Ry

     iteration # 24     ecut=    60.00 Ry     beta= 0.15
     Davidson diagonalization with overlap

---- Real-time Memory Report at c_bands before calling an iterative solver
             0 MiB given to the printing process from OS
             0 MiB allocation reported by mallinfo(arena+hblkhd)
         30481 MiB available memory on the node where the printing process lives
------------------
     ethr =  9.15E-06,  avg # of iterations =  8.7

     negative rho (up, down):  8.333E-01 0.000E+00

     total cpu time spent up to now is      388.0 secs

     total energy              =   -4482.98245102 Ry
     estimated scf accuracy    <       0.02096565 Ry

     iteration # 25     ecut=    60.00 Ry     beta= 0.15
     Davidson diagonalization with overlap

---- Real-time Memory Report at c_bands before calling an iterative solver
             0 MiB given to the printing process from OS
             0 MiB allocation reported by mallinfo(arena+hblkhd)
         30458 MiB available memory on the node where the printing process lives
------------------
     ethr =  4.80E-06,  avg # of iterations =  7.7

     negative rho (up, down):  8.239E-01 0.000E+00

     total cpu time spent up to now is      406.1 secs

     total energy              =   -4482.98186952 Ry
     estimated scf accuracy    <       0.01011387 Ry

     iteration # 26     ecut=    60.00 Ry     beta= 0.15
     Davidson diagonalization with overlap

---- Real-time Memory Report at c_bands before calling an iterative solver
             0 MiB given to the printing process from OS
             0 MiB allocation reported by mallinfo(arena+hblkhd)
         30433 MiB available memory on the node where the printing process lives
------------------
     ethr =  2.31E-06,  avg # of iterations =  9.7

     negative rho (up, down):  8.075E-01 0.000E+00

     total cpu time spent up to now is      424.5 secs

     total energy              =   -4482.98097693 Ry
     estimated scf accuracy    <       0.00740456 Ry

     iteration # 27     ecut=    60.00 Ry     beta= 0.15
     Davidson diagonalization with overlap

---- Real-time Memory Report at c_bands before calling an iterative solver
             0 MiB given to the printing process from OS
             0 MiB allocation reported by mallinfo(arena+hblkhd)
         30441 MiB available memory on the node where the printing process lives
------------------
     ethr =  1.69E-06,  avg # of iterations =  7.4

     negative rho (up, down):  7.984E-01 0.000E+00

     total cpu time spent up to now is      441.8 secs

     total energy              =   -4482.98023631 Ry
     estimated scf accuracy    <       0.00563355 Ry

     iteration # 28     ecut=    60.00 Ry     beta= 0.15
     Davidson diagonalization with overlap

---- Real-time Memory Report at c_bands before calling an iterative solver
             0 MiB given to the printing process from OS
             0 MiB allocation reported by mallinfo(arena+hblkhd)
         30414 MiB available memory on the node where the printing process lives
------------------
     ethr =  1.29E-06,  avg # of iterations =  7.0

     negative rho (up, down):  7.930E-01 0.000E+00

     total cpu time spent up to now is      458.9 secs

     total energy              =   -4482.97995288 Ry
     estimated scf accuracy    <       0.00266982 Ry

     iteration # 29     ecut=    60.00 Ry     beta= 0.15
     Davidson diagonalization with overlap

---- Real-time Memory Report at c_bands before calling an iterative solver
             0 MiB given to the printing process from OS
             0 MiB allocation reported by mallinfo(arena+hblkhd)
         30423 MiB available memory on the node where the printing process lives
------------------
     ethr =  6.11E-07,  avg # of iterations = 11.2

     negative rho (up, down):  7.929E-01 0.000E+00

     total cpu time spent up to now is      478.1 secs

     total energy              =   -4482.97996827 Ry
     estimated scf accuracy    <       0.00116783 Ry

     iteration # 30     ecut=    60.00 Ry     beta= 0.15
     Davidson diagonalization with overlap

---- Real-time Memory Report at c_bands before calling an iterative solver
             0 MiB given to the printing process from OS
             0 MiB allocation reported by mallinfo(arena+hblkhd)
         30372 MiB available memory on the node where the printing process lives
------------------
     ethr =  2.67E-07,  avg # of iterations =  2.8

     negative rho (up, down):  7.926E-01 0.000E+00

     total cpu time spent up to now is      493.1 secs

     total energy              =   -4482.97994124 Ry
     estimated scf accuracy    <       0.00058287 Ry

     iteration # 31     ecut=    60.00 Ry     beta= 0.15
     Davidson diagonalization with overlap

---- Real-time Memory Report at c_bands before calling an iterative solver
             0 MiB given to the printing process from OS
             0 MiB allocation reported by mallinfo(arena+hblkhd)
         30381 MiB available memory on the node where the printing process lives
------------------
     c_bands:  1 eigenvalues not converged
     ethr =  1.33E-07,  avg # of iterations =  6.0

     negative rho (up, down):  7.923E-01 0.000E+00

     total cpu time spent up to now is      509.1 secs

     total energy              =   -4482.97992583 Ry
     estimated scf accuracy    <       0.00028429 Ry

     iteration # 32     ecut=    60.00 Ry     beta= 0.15
     Davidson diagonalization with overlap

---- Real-time Memory Report at c_bands before calling an iterative solver
             0 MiB given to the printing process from OS
             0 MiB allocation reported by mallinfo(arena+hblkhd)
         30462 MiB available memory on the node where the printing process lives
------------------
     ethr =  6.51E-08,  avg # of iterations =  3.3

     negative rho (up, down):  7.924E-01 0.000E+00

     total cpu time spent up to now is      524.1 secs

     total energy              =   -4482.97993129 Ry
     estimated scf accuracy    <       0.00011160 Ry

     iteration # 33     ecut=    60.00 Ry     beta= 0.15
     Davidson diagonalization with overlap

---- Real-time Memory Report at c_bands before calling an iterative solver
             0 MiB given to the printing process from OS
             0 MiB allocation reported by mallinfo(arena+hblkhd)
         30479 MiB available memory on the node where the printing process lives
------------------
     ethr =  2.55E-08,  avg # of iterations =  4.2

     negative rho (up, down):  7.925E-01 0.000E+00

     total cpu time spent up to now is      539.5 secs

     total energy              =   -4482.97991727 Ry
     estimated scf accuracy    <       0.00008058 Ry

     iteration # 34     ecut=    60.00 Ry     beta= 0.15
     Davidson diagonalization with overlap

---- Real-time Memory Report at c_bands before calling an iterative solver
             0 MiB given to the printing process from OS
             0 MiB allocation reported by mallinfo(arena+hblkhd)
         30509 MiB available memory on the node where the printing process lives
------------------
     ethr =  1.84E-08,  avg # of iterations =  4.0

     negative rho (up, down):  7.924E-01 0.000E+00

     total cpu time spent up to now is      554.7 secs

     total energy              =   -4482.97991760 Ry
     estimated scf accuracy    <       0.00004180 Ry

     iteration # 35     ecut=    60.00 Ry     beta= 0.15
     Davidson diagonalization with overlap

---- Real-time Memory Report at c_bands before calling an iterative solver
             0 MiB given to the printing process from OS
             0 MiB allocation reported by mallinfo(arena+hblkhd)
         30518 MiB available memory on the node where the printing process lives
------------------
     ethr =  9.56E-09,  avg # of iterations =  3.9

     negative rho (up, down):  7.924E-01 0.000E+00

     total cpu time spent up to now is      570.1 secs

     total energy              =   -4482.97992570 Ry
     estimated scf accuracy    <       0.00002324 Ry

     iteration # 36     ecut=    60.00 Ry     beta= 0.15
     Davidson diagonalization with overlap

---- Real-time Memory Report at c_bands before calling an iterative solver
             0 MiB given to the printing process from OS
             0 MiB allocation reported by mallinfo(arena+hblkhd)
         30503 MiB available memory on the node where the printing process lives
------------------
     ethr =  5.32E-09,  avg # of iterations =  2.2

     negative rho (up, down):  7.923E-01 0.000E+00

     total cpu time spent up to now is      584.6 secs

     total energy              =   -4482.97993344 Ry
     estimated scf accuracy    <       0.00001854 Ry

     iteration # 37     ecut=    60.00 Ry     beta= 0.15
     Davidson diagonalization with overlap

---- Real-time Memory Report at c_bands before calling an iterative solver
             0 MiB given to the printing process from OS
             0 MiB allocation reported by mallinfo(arena+hblkhd)
         30507 MiB available memory on the node where the printing process lives
------------------
     ethr =  4.24E-09,  avg # of iterations =  3.6

     negative rho (up, down):  7.923E-01 0.000E+00

     total cpu time spent up to now is      599.7 secs

     total energy              =   -4482.97993808 Ry
     estimated scf accuracy    <       0.00000928 Ry

     iteration # 38     ecut=    60.00 Ry     beta= 0.15
     Davidson diagonalization with overlap

---- Real-time Memory Report at c_bands before calling an iterative solver
             0 MiB given to the printing process from OS
             0 MiB allocation reported by mallinfo(arena+hblkhd)
         30544 MiB available memory on the node where the printing process lives
------------------
     ethr =  2.12E-09,  avg # of iterations =  3.5

     negative rho (up, down):  7.923E-01 0.000E+00

     total cpu time spent up to now is      615.2 secs

     total energy              =   -4482.97993932 Ry
     estimated scf accuracy    <       0.00000611 Ry

     iteration # 39     ecut=    60.00 Ry     beta= 0.15
     Davidson diagonalization with overlap

---- Real-time Memory Report at c_bands before calling an iterative solver
             0 MiB given to the printing process from OS
             0 MiB allocation reported by mallinfo(arena+hblkhd)
         30548 MiB available memory on the node where the printing process lives
------------------
     ethr =  1.40E-09,  avg # of iterations =  4.2

     negative rho (up, down):  7.923E-01 0.000E+00

     total cpu time spent up to now is      630.7 secs

     total energy              =   -4482.97993990 Ry
     estimated scf accuracy    <       0.00000409 Ry

     iteration # 40     ecut=    60.00 Ry     beta= 0.15
     Davidson diagonalization with overlap

---- Real-time Memory Report at c_bands before calling an iterative solver
             0 MiB given to the printing process from OS
             0 MiB allocation reported by mallinfo(arena+hblkhd)
         30549 MiB available memory on the node where the printing process lives
------------------
     ethr =  9.37E-10,  avg # of iterations =  4.7

     negative rho (up, down):  7.923E-01 0.000E+00

     total cpu time spent up to now is      646.6 secs

     total energy              =   -4482.97993948 Ry
     estimated scf accuracy    <       0.00000264 Ry

     iteration # 41     ecut=    60.00 Ry     beta= 0.15
     Davidson diagonalization with overlap

---- Real-time Memory Report at c_bands before calling an iterative solver
             0 MiB given to the printing process from OS
             0 MiB allocation reported by mallinfo(arena+hblkhd)
         30536 MiB available memory on the node where the printing process lives
------------------
     ethr =  6.04E-10,  avg # of iterations =  3.0

     negative rho (up, down):  7.923E-01 0.000E+00

     total cpu time spent up to now is      661.8 secs

     total energy              =   -4482.97993935 Ry
     estimated scf accuracy    <       0.00000170 Ry

     iteration # 42     ecut=    60.00 Ry     beta= 0.15
     Davidson diagonalization with overlap

---- Real-time Memory Report at c_bands before calling an iterative solver
             0 MiB given to the printing process from OS
             0 MiB allocation reported by mallinfo(arena+hblkhd)
         30533 MiB available memory on the node where the printing process lives
------------------
     ethr =  3.90E-10,  avg # of iterations =  3.9

     negative rho (up, down):  7.923E-01 0.000E+00

     total cpu time spent up to now is      677.2 secs

     total energy              =   -4482.97993963 Ry
     estimated scf accuracy    <       0.00000143 Ry

     iteration # 43     ecut=    60.00 Ry     beta= 0.15
     Davidson diagonalization with overlap

---- Real-time Memory Report at c_bands before calling an iterative solver
             0 MiB given to the printing process from OS
             0 MiB allocation reported by mallinfo(arena+hblkhd)
         30538 MiB available memory on the node where the printing process lives
------------------
     ethr =  3.28E-10,  avg # of iterations =  2.6

     negative rho (up, down):  7.923E-01 0.000E+00

     total cpu time spent up to now is      691.9 secs

     total energy              =   -4482.97993972 Ry
     estimated scf accuracy    <       0.00000076 Ry

     iteration # 44     ecut=    60.00 Ry     beta= 0.15
     Davidson diagonalization with overlap

---- Real-time Memory Report at c_bands before calling an iterative solver
             0 MiB given to the printing process from OS
             0 MiB allocation reported by mallinfo(arena+hblkhd)
         30541 MiB available memory on the node where the printing process lives
------------------
     ethr =  1.75E-10,  avg # of iterations =  1.9

     negative rho (up, down):  7.923E-01 0.000E+00

     total cpu time spent up to now is      706.3 secs

     total energy              =   -4482.97993965 Ry
     estimated scf accuracy    <       0.00000075 Ry

     iteration # 45     ecut=    60.00 Ry     beta= 0.15
     Davidson diagonalization with overlap

---- Real-time Memory Report at c_bands before calling an iterative solver
             0 MiB given to the printing process from OS
             0 MiB allocation reported by mallinfo(arena+hblkhd)
         30549 MiB available memory on the node where the printing process lives
------------------
     ethr =  1.71E-10,  avg # of iterations =  2.1

     negative rho (up, down):  7.923E-01 0.000E+00

     total cpu time spent up to now is      721.1 secs

     total energy              =   -4482.97993967 Ry
     estimated scf accuracy    <       0.00000064 Ry

     iteration # 46     ecut=    60.00 Ry     beta= 0.15
     Davidson diagonalization with overlap

---- Real-time Memory Report at c_bands before calling an iterative solver
             0 MiB given to the printing process from OS
             0 MiB allocation reported by mallinfo(arena+hblkhd)
         30537 MiB available memory on the node where the printing process lives
------------------
     ethr =  1.47E-10,  avg # of iterations =  1.9

     negative rho (up, down):  7.923E-01 0.000E+00

     total cpu time spent up to now is      735.7 secs

     total energy              =   -4482.97993967 Ry
     estimated scf accuracy    <       0.00000069 Ry

     iteration # 47     ecut=    60.00 Ry     beta= 0.15
     Davidson diagonalization with overlap

---- Real-time Memory Report at c_bands before calling an iterative solver
             0 MiB given to the printing process from OS
             0 MiB allocation reported by mallinfo(arena+hblkhd)
         30554 MiB available memory on the node where the printing process lives
------------------
     ethr =  1.47E-10,  avg # of iterations =  1.9

     negative rho (up, down):  7.923E-01 0.000E+00

     total cpu time spent up to now is      750.5 secs

     total energy              =   -4482.97993975 Ry
     estimated scf accuracy    <       0.00000063 Ry

     iteration # 48     ecut=    60.00 Ry     beta= 0.15
     Davidson diagonalization with overlap

---- Real-time Memory Report at c_bands before calling an iterative solver
             0 MiB given to the printing process from OS
             0 MiB allocation reported by mallinfo(arena+hblkhd)
         30556 MiB available memory on the node where the printing process lives
------------------
     ethr =  1.43E-10,  avg # of iterations =  5.1

     negative rho (up, down):  7.923E-01 0.000E+00

     total cpu time spent up to now is      766.8 secs

     total energy              =   -4482.97993978 Ry
     estimated scf accuracy    <       0.00000020 Ry

     iteration # 49     ecut=    60.00 Ry     beta= 0.15
     Davidson diagonalization with overlap

---- Real-time Memory Report at c_bands before calling an iterative solver
             0 MiB given to the printing process from OS
             0 MiB allocation reported by mallinfo(arena+hblkhd)
         30564 MiB available memory on the node where the printing process lives
------------------
     ethr =  4.64E-11,  avg # of iterations =  4.8

     negative rho (up, down):  7.923E-01 0.000E+00

     total cpu time spent up to now is      783.0 secs

     total energy              =   -4482.97993973 Ry
     estimated scf accuracy    <       0.00000012 Ry

     iteration # 50     ecut=    60.00 Ry     beta= 0.15
     Davidson diagonalization with overlap

---- Real-time Memory Report at c_bands before calling an iterative solver
             0 MiB given to the printing process from OS
             0 MiB allocation reported by mallinfo(arena+hblkhd)
         30564 MiB available memory on the node where the printing process lives
------------------
     ethr =  2.66E-11,  avg # of iterations =  4.0

     negative rho (up, down):  7.923E-01 0.000E+00

     total cpu time spent up to now is      798.4 secs

     total energy              =   -4482.97993976 Ry
     estimated scf accuracy    <       0.00000008 Ry

     iteration # 51     ecut=    60.00 Ry     beta= 0.15
     Davidson diagonalization with overlap

---- Real-time Memory Report at c_bands before calling an iterative solver
             0 MiB given to the printing process from OS
             0 MiB allocation reported by mallinfo(arena+hblkhd)
         30580 MiB available memory on the node where the printing process lives
------------------
     ethr =  1.92E-11,  avg # of iterations =  3.8

     negative rho (up, down):  7.923E-01 0.000E+00

     total cpu time spent up to now is      813.6 secs

     total energy              =   -4482.97993983 Ry
     estimated scf accuracy    <       0.00000006 Ry

     iteration # 52     ecut=    60.00 Ry     beta= 0.15
     Davidson diagonalization with overlap

---- Real-time Memory Report at c_bands before calling an iterative solver
             0 MiB given to the printing process from OS
             0 MiB allocation reported by mallinfo(arena+hblkhd)
         30572 MiB available memory on the node where the printing process lives
------------------
     ethr =  1.44E-11,  avg # of iterations =  4.9

     negative rho (up, down):  7.923E-01 0.000E+00

     total cpu time spent up to now is      829.4 secs

     total energy              =   -4482.97993986 Ry
     estimated scf accuracy    <       0.00000004 Ry

     iteration # 53     ecut=    60.00 Ry     beta= 0.15
     Davidson diagonalization with overlap

---- Real-time Memory Report at c_bands before calling an iterative solver
             0 MiB given to the printing process from OS
             0 MiB allocation reported by mallinfo(arena+hblkhd)
         30574 MiB available memory on the node where the printing process lives
------------------
     ethr =  9.76E-12,  avg # of iterations =  4.6

     negative rho (up, down):  7.923E-01 0.000E+00

     total cpu time spent up to now is      845.0 secs

     total energy              =   -4482.97993988 Ry
     estimated scf accuracy    <       0.00000003 Ry

     iteration # 54     ecut=    60.00 Ry     beta= 0.15
     Davidson diagonalization with overlap

---- Real-time Memory Report at c_bands before calling an iterative solver
             0 MiB given to the printing process from OS
             0 MiB allocation reported by mallinfo(arena+hblkhd)
         30564 MiB available memory on the node where the printing process lives
------------------
     ethr =  7.02E-12,  avg # of iterations =  5.2

     negative rho (up, down):  7.923E-01 0.000E+00

     total cpu time spent up to now is      860.8 secs

     total energy              =   -4482.97993988 Ry
     estimated scf accuracy    <       0.00000002 Ry

     iteration # 55     ecut=    60.00 Ry     beta= 0.15
     Davidson diagonalization with overlap

---- Real-time Memory Report at c_bands before calling an iterative solver
             0 MiB given to the printing process from OS
             0 MiB allocation reported by mallinfo(arena+hblkhd)
         30569 MiB available memory on the node where the printing process lives
------------------
     ethr =  3.66E-12,  avg # of iterations =  5.7

     negative rho (up, down):  7.923E-01 0.000E+00

     total cpu time spent up to now is      877.4 secs

     End of self-consistent calculation

          k = 0.0000 0.0000 0.0000 ( 65197 PWs)   bands (ev):

   -92.3543 -92.3016 -92.2083 -92.1591 -92.1017 -92.0606 -92.0433 -91.9201
   -55.7074 -55.6881 -55.5661 -55.5554 -55.5477 -55.5421 -55.5061 -55.4778
   -55.4614 -55.4596 -55.4524 -55.4101 -55.3900 -55.3531 -55.3343 -55.3013
   -55.2945 -55.2495 -55.2471 -55.2464 -55.2378 -55.1947 -55.1740 -55.0868
   -30.9409 -30.9219 -30.7808 -30.7296 -30.6944 -30.6123 -30.5961 -30.5327
   -29.5049 -29.4613 -29.4357 -29.3283 -22.2615 -14.7392 -14.7018 -14.6163
   -14.4867 -14.3003 -14.1793 -13.8791 -13.8579 -13.8288 -13.7915 -13.7836
   -13.7455 -13.7378 -13.7213 -13.7016 -13.6803 -13.6426 -13.5876 -13.4392
   -13.2655 -13.2280 -13.1971 -13.1657 -13.1503 -13.1047 -13.0661 -12.9879
   -12.9150 -12.8122 -12.7740 -12.7629 -12.7531 -12.7374 -12.7202 -12.6761
   -12.6644 -12.6561 -12.6218 -12.5888 -12.5721 -12.5585 -12.5442 -12.5237
   -12.4900 -12.4622 -12.4477 -12.4359 -12.4095 -12.3943 -12.0061 -11.8614
   -11.7376 -11.6639 -11.5188 -11.4441 -11.4330 -11.4109 -11.3931 -11.3294
   -11.3123 -11.2771 -11.2481 -11.1380 -11.0569 -11.0534  -5.9822  -3.1629
    -3.1601  -2.5992  -2.3660  -2.1366  -1.9900  -1.9264  -1.7836  -1.4771
    -1.4627  -1.4419  -1.3589  -1.3407  -1.2731  -1.2568  -1.2152  -1.1704
    -0.9897  -0.7658  -0.7362  -0.5873  -0.5734  -0.5290  -0.5104  -0.4665
    -0.4508  -0.3905  -0.3643  -0.2954  -0.2840  -0.2033  -0.0776  -0.0627
    -0.0322   0.0494   0.0610   0.0709   0.1337   0.2138   0.2405   0.3085
     0.3277   0.3839   0.4656   0.5214   0.5415   0.5495   0.8084   0.8211
     0.9930   1.0614   1.1236   1.1622   1.2622   1.2743   1.2904   1.3604
     1.3893   1.4232   1.4821   1.6172   1.6696   1.6919   1.7090   1.7210
     1.7898   1.8662   1.9641   1.9769   2.0305   2.0526   2.0912   2.1126
     2.1204   2.1749   2.2299   2.2376   2.2682   2.2939   2.3646   2.4945
     2.5746   2.6234   2.6360   2.7847   2.7994   2.8484   2.8581   2.9561
     2.9978   3.0153   3.0253   3.0394   3.0465   3.0651   3.1386   3.2481
     3.2826   3.2953   3.3023   3.3689   3.3734   3.3975   3.4057   3.4138
     3.4245   3.4325   3.4451   3.4510   3.4637   3.4725   3.4802   3.5009
     3.5224   3.5272   3.5392   3.5568   3.6801   3.7329   4.4082   4.7426
     4.7809   5.1267   5.3744   5.4567   5.7538   6.2687   6.3093   6.3370
     6.6126   6.6209   6.6594   6.7068   7.0340   7.1285   7.1954   7.3534
     7.6366   7.7455   7.8785   7.9101   7.9251   7.9314   7.9763   8.0495
     8.3145   8.3706   8.4002   8.4417   8.5267   8.5740   8.6385

     occupation numbers 
     1.0000   1.0000   1.0000   1.0000   1.0000   1.0000   1.0000   1.0000
     1.0000   1.0000   1.0000   1.0000   1.0000   1.0000   1.0000   1.0000
     1.0000   1.0000   1.0000   1.0000   1.0000   1.0000   1.0000   1.0000
     1.0000   1.0000   1.0000   1.0000   1.0000   1.0000   1.0000   1.0000
     1.0000   1.0000   1.0000   1.0000   1.0000   1.0000   1.0000   1.0000
     1.0000   1.0000   1.0000   1.0000   1.0000   1.0000   1.0000   1.0000
     1.0000   1.0000   1.0000   1.0000   1.0000   1.0000   1.0000   1.0000
     1.0000   1.0000   1.0000   1.0000   1.0000   1.0000   1.0000   1.0000
     1.0000   1.0000   1.0000   1.0000   1.0000   1.0000   1.0000   1.0000
     1.0000   1.0000   1.0000   1.0000   1.0000   1.0000   1.0000   1.0000
     1.0000   1.0000   1.0000   1.0000   1.0000   1.0000   1.0000   1.0000
     1.0000   1.0000   1.0000   1.0000   1.0000   1.0000   1.0000   1.0000
     1.0000   1.0000   1.0000   1.0000   1.0000   1.0000   1.0000   1.0000
     1.0000   1.0000   1.0000   1.0000   1.0000   1.0000   1.0000   1.0000
     1.0000   1.0000   1.0000   1.0000   1.0000   1.0000   1.0000   1.0000
     1.0000   1.0000   1.0000   1.0000   1.0000   1.0000   1.0000   1.0000
     1.0000   1.0000   1.0000   1.0000   1.0000   1.0000   1.0000   1.0000
     1.0000   1.0000   1.0000   1.0000   1.0000   1.0000   1.0000   1.0000
     1.0000   1.0000   1.0000   1.0000   1.0000   1.0000   1.0000   1.0000
     1.0000   1.0000   1.0000   1.0000   1.0000   1.0000   1.0000   1.0000
     1.0000   0.9999   0.9999   0.9999   0.9998   0.9998   0.9998   0.9997
     0.9997   0.9996   0.9994   0.9989   0.9985   0.9984   0.9982   0.9981
     0.9974   0.9963   0.9944   0.9941   0.9926   0.9919   0.9906   0.9897
     0.9894   0.9869   0.9839   0.9834   0.9815   0.9796   0.9739   0.9598
     0.9484   0.9403   0.9380   0.9062   0.9025   0.8894   0.8866   0.8562
     0.8417   0.8353   0.8316   0.8263   0.8236   0.8163   0.7859   0.7355
     0.7185   0.7121   0.7086   0.6737   0.6713   0.6583   0.6538   0.6493
     0.6434   0.6390   0.6320   0.6287   0.6215   0.6166   0.6122   0.6003
     0.5880   0.5852   0.5783   0.5680   0.4953   0.4640   0.1372   0.0560
     0.0498   0.0154   0.0057   0.0040   0.0010   0.0001   0.0000   0.0000
     0.0000   0.0000   0.0000   0.0000   0.0000   0.0000   0.0000   0.0000
     0.0000   0.0000   0.0000   0.0000   0.0000   0.0000   0.0000   0.0000
     0.0000   0.0000   0.0000   0.0000   0.0000   0.0000   0.0000

          k = 0.0000 0.2500 0.0000 ( 65257 PWs)   bands (ev):

   -92.3543 -92.3016 -92.2083 -92.1591 -92.1017 -92.0606 -92.0433 -91.9201
   -55.7074 -55.6881 -55.5661 -55.5554 -55.5477 -55.5421 -55.5061 -55.4778
   -55.4614 -55.4596 -55.4524 -55.4101 -55.3900 -55.3531 -55.3343 -55.3013
   -55.2945 -55.2495 -55.2471 -55.2464 -55.2378 -55.1947 -55.1740 -55.0868
   -30.9407 -30.9218 -30.7811 -30.7293 -30.6946 -30.6124 -30.5958 -30.5332
   -29.5043 -29.4610 -29.4363 -29.3287 -22.2615 -14.7022 -14.6759 -14.5916
   -14.4570 -14.3398 -14.1678 -14.0244 -13.8446 -13.8134 -13.7954 -13.7827
   -13.7619 -13.7045 -13.7002 -13.6859 -13.6648 -13.6237 -13.5078 -13.4695
   -13.3090 -13.2902 -13.2380 -13.2040 -13.1573 -13.1192 -13.0822 -13.0058
   -12.9732 -12.9255 -12.8584 -12.8114 -12.7717 -12.7549 -12.7314 -12.6515
   -12.6314 -12.6064 -12.5945 -12.5647 -12.5310 -12.5116 -12.4982 -12.4840
   -12.4635 -12.4511 -12.4422 -12.4142 -12.2959 -12.2099 -12.0675 -11.9127
   -11.7953 -11.7327 -11.4843 -11.4409 -11.4135 -11.3850 -11.3684 -11.3212
   -11.3099 -11.2872 -11.2529 -11.1523 -11.0987 -11.0881  -5.9822  -3.1629
    -3.1603  -2.4640  -2.2417  -2.1045  -1.9221  -1.8787  -1.7144  -1.4963
    -1.4100  -1.3969  -1.3395  -1.2379  -1.2226  -1.1887  -1.1627  -1.1191
    -0.9209  -0.7919  -0.7804  -0.7041  -0.6934  -0.5884  -0.5583  -0.5028
    -0.4773  -0.4349  -0.3722  -0.3468  -0.3131  -0.2840  -0.2676  -0.2330
    -0.1617  -0.1078  -0.0442   0.0635   0.0861   0.1255   0.2443   0.2784
     0.3384   0.3918   0.4461   0.4655   0.4993   0.5547   0.8535   0.9432
     0.9743   1.0587   1.1008   1.1185   1.2488   1.2668   1.3622   1.3870
     1.4178   1.5322   1.6196   1.6462   1.6699   1.6861   1.7151   1.7765
     1.8029   1.8297   1.8785   1.9082   1.9400   2.0206   2.0501   2.0826
     2.1415   2.1917   2.2249   2.2511   2.2852   2.3074   2.4009   2.5323
     2.6012   2.6199   2.7015   2.7440   2.7824   2.7872   2.8555   2.8980
     2.9747   3.0091   3.0170   3.0400   3.0460   3.2093   3.2304   3.2628
     3.2849   3.3017   3.3112   3.3182   3.3259   3.3563   3.3585   3.3757
     3.3805   3.3918   3.4099   3.4189   3.4297   3.4520   3.4625   3.4676
     3.5028   3.5198   3.5796   3.9317   3.9618   4.2209   4.5930   4.7343
     4.8959   5.0737   5.3965   5.5024   5.8681   5.9191   6.1509   6.2943
     6.3254   6.4419   6.5116   6.7327   6.9492   7.0896   7.2358   7.5373
     7.6016   7.7007   7.7847   7.8836   7.9505   7.9722   8.1127   8.2344
     8.3387   8.4152   8.5089   8.5873   8.6366   8.6724   8.9231

     occupation numbers 
     1.0000   1.0000   1.0000   1.0000   1.0000   1.0000   1.0000   1.0000
     1.0000   1.0000   1.0000   1.0000   1.0000   1.0000   1.0000   1.0000
     1.0000   1.0000   1.0000   1.0000   1.0000   1.0000   1.0000   1.0000
     1.0000   1.0000   1.0000   1.0000   1.0000   1.0000   1.0000   1.0000
     1.0000   1.0000   1.0000   1.0000   1.0000   1.0000   1.0000   1.0000
     1.0000   1.0000   1.0000   1.0000   1.0000   1.0000   1.0000   1.0000
     1.0000   1.0000   1.0000   1.0000   1.0000   1.0000   1.0000   1.0000
     1.0000   1.0000   1.0000   1.0000   1.0000   1.0000   1.0000   1.0000
     1.0000   1.0000   1.0000   1.0000   1.0000   1.0000   1.0000   1.0000
     1.0000   1.0000   1.0000   1.0000   1.0000   1.0000   1.0000   1.0000
     1.0000   1.0000   1.0000   1.0000   1.0000   1.0000   1.0000   1.0000
     1.0000   1.0000   1.0000   1.0000   1.0000   1.0000   1.0000   1.0000
     1.0000   1.0000   1.0000   1.0000   1.0000   1.0000   1.0000   1.0000
     1.0000   1.0000   1.0000   1.0000   1.0000   1.0000   1.0000   1.0000
     1.0000   1.0000   1.0000   1.0000   1.0000   1.0000   1.0000   1.0000
     1.0000   1.0000   1.0000   1.0000   1.0000   1.0000   1.0000   1.0000
     1.0000   1.0000   1.0000   1.0000   1.0000   1.0000   1.0000   1.0000
     1.0000   1.0000   1.0000   1.0000   1.0000   1.0000   1.0000   1.0000
     1.0000   1.0000   1.0000   1.0000   1.0000   1.0000   1.0000   1.0000
     1.0000   1.0000   1.0000   1.0000   1.0000   1.0000   1.0000   1.0000
     1.0000   0.9999   0.9999   0.9999   0.9998   0.9998   0.9997   0.9997
     0.9996   0.9993   0.9988   0.9987   0.9985   0.9984   0.9982   0.9976
     0.9972   0.9969   0.9961   0.9956   0.9949   0.9929   0.9920   0.9909
     0.9885   0.9860   0.9842   0.9826   0.9803   0.9786   0.9705   0.9547
     0.9441   0.9409   0.9252   0.9159   0.9068   0.9056   0.8874   0.8748
     0.8498   0.8376   0.8347   0.8261   0.8237   0.7540   0.7441   0.7284
     0.7173   0.7088   0.7040   0.7004   0.6964   0.6804   0.6793   0.6701
     0.6675   0.6614   0.6515   0.6466   0.6406   0.6281   0.6222   0.6193
     0.5992   0.5895   0.5547   0.3499   0.3335   0.2076   0.0857   0.0574
     0.0346   0.0187   0.0052   0.0033   0.0006   0.0004   0.0001   0.0000
     0.0000   0.0000   0.0000   0.0000   0.0000   0.0000   0.0000   0.0000
     0.0000   0.0000   0.0000   0.0000   0.0000   0.0000   0.0000   0.0000
     0.0000   0.0000   0.0000   0.0000   0.0000   0.0000   0.0000

          k = 0.0000-0.5000 0.0000 ( 65180 PWs)   bands (ev):

   -92.3543 -92.3016 -92.2083 -92.1591 -92.1017 -92.0606 -92.0433 -91.9201
   -55.7074 -55.6881 -55.5661 -55.5554 -55.5477 -55.5421 -55.5061 -55.4778
   -55.4614 -55.4596 -55.4524 -55.4101 -55.3900 -55.3531 -55.3343 -55.3013
   -55.2945 -55.2495 -55.2471 -55.2464 -55.2378 -55.1947 -55.1740 -55.0868
   -30.9405 -30.9216 -30.7813 -30.7291 -30.6947 -30.6125 -30.5955 -30.5336
   -29.5036 -29.4607 -29.4370 -29.3290 -22.2615 -14.6698 -14.6208 -14.5704
   -14.4412 -14.3563 -14.2165 -14.0740 -13.9432 -13.8155 -13.7915 -13.7480
   -13.7031 -13.6956 -13.6491 -13.6305 -13.5862 -13.5636 -13.5398 -13.5025
   -13.4663 -13.4421 -13.2423 -13.1844 -13.1648 -13.1161 -13.0871 -13.0194
   -12.9979 -12.9478 -12.9401 -12.8825 -12.7725 -12.7538 -12.7200 -12.6577
   -12.6360 -12.6199 -12.5930 -12.5448 -12.5152 -12.4894 -12.4770 -12.4440
   -12.4418 -12.4158 -12.3684 -12.3151 -12.1786 -12.1389 -11.9881 -11.9730
   -11.9092 -11.8724 -11.4378 -11.4359 -11.4087 -11.3709 -11.3366 -11.3254
   -11.2825 -11.2787 -11.2345 -11.1740 -11.1598 -11.1454  -5.9822  -3.1629
    -3.1604  -2.2492  -2.1900  -2.0387  -1.9660  -1.6851  -1.6029  -1.4744
    -1.3361  -1.2989  -1.2803  -1.2015  -1.1690  -1.0895  -1.0533  -0.9767
    -0.9361  -0.8964  -0.8696  -0.8143  -0.7760  -0.7293  -0.6914  -0.6602
    -0.6254  -0.5154  -0.4704  -0.4379  -0.4353  -0.3496  -0.3173  -0.2945
    -0.2489  -0.1613  -0.0945  -0.0083   0.0201   0.1206   0.1596   0.3126
     0.3468   0.3755   0.4183   0.5332   0.5940   0.7348   0.8022   0.8088
     0.9373   0.9804   1.0661   1.2144   1.3196   1.3528   1.3887   1.3958
     1.4304   1.4513   1.4888   1.5066   1.5172   1.6245   1.6827   1.7132
     1.7395   2.0024   2.0280   2.0516   2.1361   2.1621   2.2017   2.2133
     2.2512   2.2593   2.2654   2.2954   2.3443   2.3662   2.3939   2.4081
     2.4371   2.4912   2.5732   2.6008   2.7754   2.9468   2.9566   2.9686
     3.0041   3.0088   3.0169   3.0281   3.0453   3.0760   3.0883   3.1429
     3.1628   3.2407   3.2527   3.3231   3.3268   3.3546   3.3566   3.3741
     3.3767   3.3804   3.3874   3.3893   3.4020   3.4224   3.4231   3.4880
     3.4936   3.5094   3.5637   4.4592   4.4618   4.5133   4.5761   4.9744
     5.0909   5.2254   5.3392   5.5283   5.6717   5.7871   5.8814   6.0291
     6.2359   6.3666   6.3836   6.4964   7.0027   7.1073   7.1299   7.3931
     7.5951   7.6567   7.7601   8.0504   8.0581   8.1753   8.2062   8.3566
     8.5120   8.5676   8.6464   8.7544   8.7837   8.8571   8.9600

     occupation numbers 
     1.0000   1.0000   1.0000   1.0000   1.0000   1.0000   1.0000   1.0000
     1.0000   1.0000   1.0000   1.0000   1.0000   1.0000   1.0000   1.0000
     1.0000   1.0000   1.0000   1.0000   1.0000   1.0000   1.0000   1.0000
     1.0000   1.0000   1.0000   1.0000   1.0000   1.0000   1.0000   1.0000
     1.0000   1.0000   1.0000   1.0000   1.0000   1.0000   1.0000   1.0000
     1.0000   1.0000   1.0000   1.0000   1.0000   1.0000   1.0000   1.0000
     1.0000   1.0000   1.0000   1.0000   1.0000   1.0000   1.0000   1.0000
     1.0000   1.0000   1.0000   1.0000   1.0000   1.0000   1.0000   1.0000
     1.0000   1.0000   1.0000   1.0000   1.0000   1.0000   1.0000   1.0000
     1.0000   1.0000   1.0000   1.0000   1.0000   1.0000   1.0000   1.0000
     1.0000   1.0000   1.0000   1.0000   1.0000   1.0000   1.0000   1.0000
     1.0000   1.0000   1.0000   1.0000   1.0000   1.0000   1.0000   1.0000
     1.0000   1.0000   1.0000   1.0000   1.0000   1.0000   1.0000   1.0000
     1.0000   1.0000   1.0000   1.0000   1.0000   1.0000   1.0000   1.0000
     1.0000   1.0000   1.0000   1.0000   1.0000   1.0000   1.0000   1.0000
     1.0000   1.0000   1.0000   1.0000   1.0000   1.0000   1.0000   1.0000
     1.0000   1.0000   1.0000   1.0000   1.0000   1.0000   1.0000   1.0000
     1.0000   1.0000   1.0000   1.0000   1.0000   1.0000   1.0000   1.0000
     1.0000   1.0000   1.0000   1.0000   1.0000   1.0000   1.0000   1.0000
     1.0000   1.0000   1.0000   1.0000   1.0000   1.0000   1.0000   1.0000
     1.0000   1.0000   0.9999   0.9999   0.9998   0.9997   0.9997   0.9996
     0.9996   0.9995   0.9994   0.9993   0.9993   0.9988   0.9984   0.9982
     0.9979   0.9934   0.9927   0.9919   0.9887   0.9875   0.9855   0.9849
     0.9826   0.9820   0.9816   0.9795   0.9757   0.9738   0.9712   0.9697
     0.9667   0.9602   0.9486   0.9442   0.9085   0.8593   0.8560   0.8519
     0.8394   0.8377   0.8347   0.8305   0.8240   0.8120   0.8070   0.7840
     0.7753   0.7391   0.7333   0.6978   0.6959   0.6814   0.6803   0.6710
     0.6695   0.6675   0.6638   0.6627   0.6558   0.6446   0.6442   0.6077
     0.6045   0.5955   0.5639   0.1213   0.1205   0.1058   0.0898   0.0266
     0.0176   0.0105   0.0067   0.0029   0.0015   0.0008   0.0005   0.0002
     0.0001   0.0000   0.0000   0.0000   0.0000   0.0000   0.0000   0.0000
     0.0000   0.0000   0.0000   0.0000   0.0000   0.0000   0.0000   0.0000
     0.0000   0.0000   0.0000   0.0000   0.0000   0.0000   0.0000

          k = 0.2500 0.2500 0.0000 ( 65198 PWs)   bands (ev):

   -92.3543 -92.3016 -92.2083 -92.1591 -92.1017 -92.0606 -92.0433 -91.9201
   -55.7074 -55.6881 -55.5661 -55.5554 -55.5477 -55.5421 -55.5061 -55.4778
   -55.4614 -55.4596 -55.4524 -55.4101 -55.3900 -55.3531 -55.3343 -55.3013
   -55.2945 -55.2495 -55.2471 -55.2464 -55.2378 -55.1947 -55.1740 -55.0868
   -30.9389 -30.9235 -30.7807 -30.7292 -30.6950 -30.6104 -30.5979 -30.5333
   -29.5033 -29.4620 -29.4360 -29.3291 -22.2615 -14.6741 -14.6407 -14.5638
   -14.4464 -14.3313 -14.2076 -14.1292 -13.9261 -13.7917 -13.7671 -13.7545
   -13.7215 -13.6891 -13.6709 -13.6482 -13.6116 -13.5823 -13.4999 -13.4839
   -13.3248 -13.3108 -13.2802 -13.2610 -13.2100 -13.1724 -13.1244 -13.0888
   -12.9874 -12.9459 -12.8942 -12.8058 -12.7651 -12.7137 -12.6919 -12.6809
   -12.6373 -12.6121 -12.5968 -12.5811 -12.5356 -12.5148 -12.4829 -12.4594
   -12.4297 -12.4068 -12.3980 -12.3773 -12.2368 -12.1159 -12.0927 -11.9419
   -11.8233 -11.7880 -11.4564 -11.4245 -11.4140 -11.4066 -11.3442 -11.3091
   -11.3027 -11.2676 -11.2593 -11.1689 -11.1269 -11.1096  -5.9822  -3.1631
    -3.1603  -2.3258  -2.1160  -1.9987  -1.9046  -1.7831  -1.7178  -1.5213
    -1.3752  -1.3551  -1.3265  -1.2324  -1.1985  -1.1049  -1.0786  -1.0285
    -0.8958  -0.8488  -0.7762  -0.7307  -0.6861  -0.6616  -0.6370  -0.5954
    -0.5794  -0.4897  -0.4398  -0.3762  -0.3268  -0.2981  -0.2462  -0.2360
    -0.1715  -0.1203  -0.0638  -0.0311   0.0546   0.1061   0.1356   0.1761
     0.2303   0.2950   0.3387   0.3642   0.4303   0.4685   0.7480   0.8948
     0.9331   0.9845   1.0271   1.0729   1.1304   1.1952   1.2365   1.5093
     1.5804   1.6537   1.6797   1.7259   1.7598   1.7952   1.8318   1.8494
     1.8780   1.9162   1.9270   1.9449   1.9867   2.0252   2.0667   2.1141
     2.1474   2.1647   2.1905   2.2313   2.2824   2.3073   2.4410   2.5105
     2.5511   2.5782   2.6353   2.7032   2.7357   2.7734   2.7953   2.8076
     2.9198   2.9583   3.0133   3.0342   3.0571   3.2198   3.2381   3.2438
     3.2592   3.2740   3.2868   3.2993   3.3065   3.3168   3.3305   3.3427
     3.3613   3.3675   3.3796   3.4003   3.4134   3.4235   3.4539   3.7557
     3.8461   3.8859   3.9514   3.9602   4.1932   4.2973   4.6279   4.7871
     4.9698   5.1187   5.3144   5.5430   5.9224   5.9878   6.0127   6.1125
     6.1855   6.2341   6.3518   6.3867   6.9601   7.0285   7.1239   7.2334
     7.7014   7.7931   7.8699   7.9373   8.0110   8.1359   8.2621   8.3214
     8.4294   8.4611   8.6014   8.6820   8.6981   8.7617   8.8218

     occupation numbers 
     1.0000   1.0000   1.0000   1.0000   1.0000   1.0000   1.0000   1.0000
     1.0000   1.0000   1.0000   1.0000   1.0000   1.0000   1.0000   1.0000
     1.0000   1.0000   1.0000   1.0000   1.0000   1.0000   1.0000   1.0000
     1.0000   1.0000   1.0000   1.0000   1.0000   1.0000   1.0000   1.0000
     1.0000   1.0000   1.0000   1.0000   1.0000   1.0000   1.0000   1.0000
     1.0000   1.0000   1.0000   1.0000   1.0000   1.0000   1.0000   1.0000
     1.0000   1.0000   1.0000   1.0000   1.0000   1.0000   1.0000   1.0000
     1.0000   1.0000   1.0000   1.0000   1.0000   1.0000   1.0000   1.0000
     1.0000   1.0000   1.0000   1.0000   1.0000   1.0000   1.0000   1.0000
     1.0000   1.0000   1.0000   1.0000   1.0000   1.0000   1.0000   1.0000
     1.0000   1.0000   1.0000   1.0000   1.0000   1.0000   1.0000   1.0000
     1.0000   1.0000   1.0000   1.0000   1.0000   1.0000   1.0000   1.0000
     1.0000   1.0000   1.0000   1.0000   1.0000   1.0000   1.0000   1.0000
     1.0000   1.0000   1.0000   1.0000   1.0000   1.0000   1.0000   1.0000
     1.0000   1.0000   1.0000   1.0000   1.0000   1.0000   1.0000   1.0000
     1.0000   1.0000   1.0000   1.0000   1.0000   1.0000   1.0000   1.0000
     1.0000   1.0000   1.0000   1.0000   1.0000   1.0000   1.0000   1.0000
     1.0000   1.0000   1.0000   1.0000   1.0000   1.0000   1.0000   1.0000
     1.0000   1.0000   1.0000   1.0000   1.0000   1.0000   1.0000   1.0000
     1.0000   1.0000   1.0000   1.0000   1.0000   1.0000   1.0000   1.0000
     1.0000   1.0000   1.0000   0.9999   0.9999   0.9999   0.9999   0.9993
     0.9991   0.9986   0.9985   0.9981   0.9977   0.9973   0.9969   0.9966
     0.9961   0.9954   0.9952   0.9948   0.9938   0.9928   0.9914   0.9897
     0.9882   0.9874   0.9861   0.9838   0.9805   0.9787   0.9662   0.9577
     0.9520   0.9478   0.9382   0.9249   0.9178   0.9090   0.9035   0.9004
     0.8680   0.8554   0.8360   0.8283   0.8195   0.7491   0.7404   0.7376
     0.7301   0.7228   0.7164   0.7101   0.7064   0.7011   0.6940   0.6876
     0.6778   0.6745   0.6680   0.6567   0.6496   0.6440   0.6271   0.4506
     0.3981   0.3754   0.3392   0.3344   0.2195   0.1766   0.0779   0.0489
     0.0270   0.0159   0.0074   0.0027   0.0004   0.0003   0.0003   0.0001
     0.0001   0.0001   0.0000   0.0000   0.0000   0.0000   0.0000   0.0000
     0.0000   0.0000   0.0000   0.0000   0.0000   0.0000   0.0000   0.0000
     0.0000   0.0000   0.0000   0.0000   0.0000   0.0000   0.0000

          k = 0.2500-0.5000 0.0000 ( 65138 PWs)   bands (ev):

   -92.3543 -92.3016 -92.2083 -92.1591 -92.1017 -92.0606 -92.0433 -91.9201
   -55.7074 -55.6881 -55.5661 -55.5554 -55.5477 -55.5421 -55.5061 -55.4778
   -55.4614 -55.4596 -55.4524 -55.4101 -55.3900 -55.3531 -55.3343 -55.3013
   -55.2945 -55.2495 -55.2471 -55.2464 -55.2378 -55.1947 -55.1740 -55.0868
   -30.9387 -30.9234 -30.7809 -30.7289 -30.6951 -30.6105 -30.5975 -30.5338
   -29.5027 -29.4616 -29.4366 -29.3294 -22.2615 -14.6397 -14.5939 -14.5275
   -14.4099 -14.3799 -14.2574 -14.1737 -14.0407 -13.7906 -13.7314 -13.6822
   -13.6523 -13.6349 -13.6145 -13.6032 -13.5709 -13.5516 -13.5170 -13.4800
   -13.4533 -13.4305 -13.3258 -13.2774 -13.2284 -13.1987 -13.1418 -13.1279
   -13.0389 -13.0072 -12.8704 -12.8061 -12.7820 -12.6958 -12.6939 -12.6530
   -12.6346 -12.6084 -12.5966 -12.5750 -12.5273 -12.5057 -12.4948 -12.4593
   -12.4306 -12.4126 -12.3190 -12.2876 -12.1852 -12.1233 -11.9857 -11.9589
   -11.8953 -11.8692 -11.4319 -11.4200 -11.4091 -11.3819 -11.3501 -11.3220
   -11.2802 -11.2533 -11.2307 -11.1871 -11.1608 -11.1495  -5.9822  -3.1631
    -3.1604  -2.1075  -2.0423  -1.9127  -1.8350  -1.7058  -1.6231  -1.4990
    -1.3475  -1.2941  -1.2720  -1.2091  -1.1958  -1.1001  -1.0318  -0.9467
    -0.8987  -0.8890  -0.8247  -0.7842  -0.7484  -0.7006  -0.6634  -0.6290
    -0.5887  -0.5783  -0.5321  -0.5040  -0.4612  -0.4319  -0.3639  -0.2625
    -0.2265  -0.1469  -0.0821  -0.0341   0.0080   0.0296   0.0819   0.2418
     0.2486   0.3592   0.3900   0.4017   0.4460   0.4755   0.5120   0.5437
     0.6174   0.8850   0.9729   1.0317   1.0950   1.3690   1.3900   1.4829
     1.5060   1.6770   1.7105   1.7511   1.7771   1.7922   1.8131   1.8738
     1.9207   1.9567   2.0289   2.1174   2.1535   2.1768   2.1898   2.2233
     2.2399   2.2463   2.2857   2.3035   2.3206   2.3525   2.3700   2.4002
     2.4290   2.4894   2.5290   2.6050   2.7448   2.8994   2.9133   2.9330
     2.9593   2.9859   3.0085   3.0171   3.0324   3.0391   3.0510   3.0717
     3.1691   3.2188   3.2385   3.2421   3.2569   3.2770   3.2911   3.3098
     3.3180   3.3501   3.3606   3.3758   3.3838   3.3921   3.4040   3.9134
     3.9312   4.0871   4.1371   4.4618   4.5159   4.5214   4.6430   5.0346
     5.1208   5.2550   5.3756   5.4900   5.6396   5.7190   5.8375   5.9231
     6.0680   6.1123   6.3340   6.5166   6.6139   6.6370   7.1900   7.2801
     7.5615   7.7056   7.9430   8.0640   8.1705   8.2191   8.3440   8.4814
     8.5338   8.6169   8.6993   8.8159   8.8450   8.9007   8.9440

     occupation numbers 
     1.0000   1.0000   1.0000   1.0000   1.0000   1.0000   1.0000   1.0000
     1.0000   1.0000   1.0000   1.0000   1.0000   1.0000   1.0000   1.0000
     1.0000   1.0000   1.0000   1.0000   1.0000   1.0000   1.0000   1.0000
     1.0000   1.0000   1.0000   1.0000   1.0000   1.0000   1.0000   1.0000
     1.0000   1.0000   1.0000   1.0000   1.0000   1.0000   1.0000   1.0000
     1.0000   1.0000   1.0000   1.0000   1.0000   1.0000   1.0000   1.0000
     1.0000   1.0000   1.0000   1.0000   1.0000   1.0000   1.0000   1.0000
     1.0000   1.0000   1.0000   1.0000   1.0000   1.0000   1.0000   1.0000
     1.0000   1.0000   1.0000   1.0000   1.0000   1.0000   1.0000   1.0000
     1.0000   1.0000   1.0000   1.0000   1.0000   1.0000   1.0000   1.0000
     1.0000   1.0000   1.0000   1.0000   1.0000   1.0000   1.0000   1.0000
     1.0000   1.0000   1.0000   1.0000   1.0000   1.0000   1.0000   1.0000
     1.0000   1.0000   1.0000   1.0000   1.0000   1.0000   1.0000   1.0000
     1.0000   1.0000   1.0000   1.0000   1.0000   1.0000   1.0000   1.0000
     1.0000   1.0000   1.0000   1.0000   1.0000   1.0000   1.0000   1.0000
     1.0000   1.0000   1.0000   1.0000   1.0000   1.0000   1.0000   1.0000
     1.0000   1.0000   1.0000   1.0000   1.0000   1.0000   1.0000   1.0000
     1.0000   1.0000   1.0000   1.0000   1.0000   1.0000   1.0000   1.0000
     1.0000   1.0000   1.0000   1.0000   1.0000   1.0000   1.0000   1.0000
     1.0000   1.0000   1.0000   1.0000   1.0000   1.0000   1.0000   1.0000
     1.0000   1.0000   1.0000   1.0000   0.9999   0.9997   0.9996   0.9994
     0.9994   0.9985   0.9982   0.9978   0.9976   0.9974   0.9971   0.9962
     0.9953   0.9946   0.9927   0.9895   0.9879   0.9868   0.9861   0.9843
     0.9833   0.9829   0.9802   0.9789   0.9776   0.9750   0.9734   0.9705
     0.9675   0.9605   0.9552   0.9435   0.9157   0.8744   0.8701   0.8638
     0.8551   0.8459   0.8378   0.8346   0.8289   0.8264   0.8218   0.8137
     0.7724   0.7496   0.7402   0.7384   0.7312   0.7213   0.7142   0.7047
     0.7005   0.6837   0.6781   0.6700   0.6657   0.6612   0.6547   0.3601
     0.3503   0.2689   0.2450   0.1205   0.1051   0.1036   0.0747   0.0215
     0.0157   0.0094   0.0057   0.0035   0.0017   0.0012   0.0007   0.0004
     0.0002   0.0001   0.0000   0.0000   0.0000   0.0000   0.0000   0.0000
     0.0000   0.0000   0.0000   0.0000   0.0000   0.0000   0.0000   0.0000
     0.0000   0.0000   0.0000   0.0000   0.0000   0.0000   0.0000

          k =-0.5000-0.5000 0.0000 ( 65132 PWs)   bands (ev):

   -92.3543 -92.3016 -92.2083 -92.1591 -92.1017 -92.0606 -92.0433 -91.9201
   -55.7074 -55.6881 -55.5661 -55.5554 -55.5477 -55.5421 -55.5061 -55.4778
   -55.4614 -55.4596 -55.4524 -55.4101 -55.3900 -55.3531 -55.3343 -55.3013
   -55.2945 -55.2495 -55.2471 -55.2464 -55.2378 -55.1947 -55.1740 -55.0868
[...]
     0.0000   0.0000   0.0000   0.0000   0.0000   0.0000   0.0000   0.0000
     0.0000   0.0000   0.0000   0.0000   0.0000   0.0000   0.0000

          k =-0.5000 0.0000 0.0000 ( 65180 PWs)   bands (ev):

   -92.3543 -92.3016 -92.2083 -92.1591 -92.1017 -92.0606 -92.0433 -91.9201
   -55.7074 -55.6881 -55.5661 -55.5554 -55.5477 -55.5421 -55.5061 -55.4778
   -55.4614 -55.4596 -55.4524 -55.4101 -55.3900 -55.3531 -55.3343 -55.3013
   -55.2945 -55.2495 -55.2471 -55.2464 -55.2378 -55.1947 -55.1740 -55.0868
   -30.9369 -30.9259 -30.7801 -30.7292 -30.6952 -30.6069 -30.6016 -30.5330
   -29.5029 -29.4633 -29.4349 -29.3292 -22.2615 -14.6737 -14.6253 -14.5626
   -14.4531 -14.3490 -14.2041 -14.0675 -13.9179 -13.7966 -13.7895 -13.7771
   -13.7658 -13.7098 -13.6541 -13.6216 -13.5730 -13.5646 -13.5505 -13.4986
   -13.4798 -13.3925 -13.2141 -13.1889 -13.1543 -13.1453 -13.0956 -13.0253
   -13.0038 -12.9329 -12.9096 -12.9078 -12.7297 -12.7175 -12.7040 -12.6773
   -12.6680 -12.6670 -12.6101 -12.5885 -12.5125 -12.5012 -12.4766 -12.4609
   -12.4207 -12.3853 -12.3034 -12.2945 -12.2046 -12.1527 -11.9974 -11.9917
   -11.8993 -11.8640 -11.4352 -11.4142 -11.4071 -11.3925 -11.3743 -11.3330
   -11.2702 -11.2524 -11.2195 -11.1763 -11.1668 -11.1508  -5.9822  -3.1633
    -3.1601  -2.2392  -2.2003  -2.0361  -1.9968  -1.6849  -1.6092  -1.4613
    -1.3424  -1.3037  -1.2577  -1.2101  -1.1841  -1.0626  -1.0170  -1.0032
    -0.9202  -0.8839  -0.8709  -0.8374  -0.7807  -0.7120  -0.6822  -0.6544
    -0.5590  -0.5116  -0.4629  -0.4313  -0.4095  -0.3789  -0.3314  -0.3062
    -0.2697  -0.1718  -0.1032  -0.0361   0.0256   0.1784   0.2221   0.2852
     0.3144   0.3677   0.3953   0.5261   0.5630   0.5994   0.7827   0.8813
     0.9287   1.0026   1.0601   1.1951   1.2076   1.3383   1.3704   1.4239
     1.4488   1.4902   1.5012   1.5509   1.5723   1.6370   1.6838   1.7305
     1.7412   2.0320   2.0453   2.0549   2.0777   2.1932   2.2015   2.2104
     2.2255   2.2561   2.2696   2.3033   2.3352   2.3526   2.4204   2.4254
     2.4836   2.4963   2.5613   2.6626   2.7614   2.8430   2.8579   2.9403
     2.9712   2.9935   3.0140   3.0367   3.0716   3.0752   3.0844   3.1121
     3.1781   3.2235   3.2711   3.2970   3.3440   3.3483   3.3489   3.3610
     3.3751   3.3879   3.4021   3.4054   3.4250   3.4307   3.4544   3.4740
     3.4785   3.6050   3.6120   4.3999   4.4523   4.5183   4.6322   4.9892
     5.1523   5.1617   5.3216   5.4456   5.6903   5.8590   5.9249   5.9824
     6.2567   6.3653   6.3751   6.4420   6.9698   7.1122   7.1503   7.4452
     7.5191   7.6628   7.8065   8.0750   8.1322   8.1642   8.2095   8.3355
     8.4578   8.6009   8.6480   8.7351   8.7730   8.8563   8.9410

     occupation numbers 
     1.0000   1.0000   1.0000   1.0000   1.0000   1.0000   1.0000   1.0000
     1.0000   1.0000   1.0000   1.0000   1.0000   1.0000   1.0000   1.0000
     1.0000   1.0000   1.0000   1.0000   1.0000   1.0000   1.0000   1.0000
     1.0000   1.0000   1.0000   1.0000   1.0000   1.0000   1.0000   1.0000
     1.0000   1.0000   1.0000   1.0000   1.0000   1.0000   1.0000   1.0000
     1.0000   1.0000   1.0000   1.0000   1.0000   1.0000   1.0000   1.0000
     1.0000   1.0000   1.0000   1.0000   1.0000   1.0000   1.0000   1.0000
     1.0000   1.0000   1.0000   1.0000   1.0000   1.0000   1.0000   1.0000
     1.0000   1.0000   1.0000   1.0000   1.0000   1.0000   1.0000   1.0000
     1.0000   1.0000   1.0000   1.0000   1.0000   1.0000   1.0000   1.0000
     1.0000   1.0000   1.0000   1.0000   1.0000   1.0000   1.0000   1.0000
     1.0000   1.0000   1.0000   1.0000   1.0000   1.0000   1.0000   1.0000
     1.0000   1.0000   1.0000   1.0000   1.0000   1.0000   1.0000   1.0000
     1.0000   1.0000   1.0000   1.0000   1.0000   1.0000   1.0000   1.0000
     1.0000   1.0000   1.0000   1.0000   1.0000   1.0000   1.0000   1.0000
     1.0000   1.0000   1.0000   1.0000   1.0000   1.0000   1.0000   1.0000
     1.0000   1.0000   1.0000   1.0000   1.0000   1.0000   1.0000   1.0000
     1.0000   1.0000   1.0000   1.0000   1.0000   1.0000   1.0000   1.0000
     1.0000   1.0000   1.0000   1.0000   1.0000   1.0000   1.0000   1.0000
     1.0000   1.0000   1.0000   1.0000   1.0000   1.0000   1.0000   1.0000
     1.0000   1.0000   0.9999   0.9999   0.9999   0.9997   0.9997   0.9996
     0.9995   0.9994   0.9994   0.9992   0.9991   0.9987   0.9984   0.9980
     0.9979   0.9926   0.9921   0.9918   0.9910   0.9860   0.9855   0.9850
     0.9841   0.9823   0.9814   0.9790   0.9764   0.9750   0.9685   0.9679
     0.9612   0.9596   0.9505   0.9331   0.9119   0.8909   0.8867   0.8614
     0.8510   0.8432   0.8358   0.8273   0.8137   0.8123   0.8086   0.7972
     0.7684   0.7473   0.7242   0.7112   0.6870   0.6847   0.6844   0.6780
     0.6704   0.6635   0.6558   0.6540   0.6432   0.6400   0.6268   0.6157
     0.6131   0.5397   0.5356   0.1399   0.1233   0.1045   0.0770   0.0253
     0.0140   0.0135   0.0072   0.0042   0.0014   0.0006   0.0004   0.0003
     0.0001   0.0000   0.0000   0.0000   0.0000   0.0000   0.0000   0.0000
     0.0000   0.0000   0.0000   0.0000   0.0000   0.0000   0.0000   0.0000
     0.0000   0.0000   0.0000   0.0000   0.0000   0.0000   0.0000

          k =-0.2500 0.2500 0.0000 ( 65198 PWs)   bands (ev):

   -92.3543 -92.3016 -92.2083 -92.1591 -92.1017 -92.0606 -92.0433 -91.9201
   -55.7074 -55.6881 -55.5661 -55.5554 -55.5477 -55.5421 -55.5061 -55.4778
   -55.4614 -55.4596 -55.4524 -55.4101 -55.3900 -55.3531 -55.3343 -55.3013
   -55.2945 -55.2495 -55.2471 -55.2464 -55.2378 -55.1947 -55.1740 -55.0868
   -30.9389 -30.9235 -30.7807 -30.7292 -30.6950 -30.6104 -30.5979 -30.5333
   -29.5033 -29.4619 -29.4360 -29.3291 -22.2615 -14.6756 -14.6396 -14.5620
   -14.4449 -14.3372 -14.2127 -14.1211 -13.9170 -13.7914 -13.7746 -13.7455
   -13.7315 -13.6874 -13.6592 -13.6484 -13.6324 -13.5836 -13.4960 -13.4836
   -13.3342 -13.3057 -13.2785 -13.2578 -13.2170 -13.1572 -13.1110 -13.0980
   -12.9914 -12.9562 -12.8877 -12.8099 -12.7662 -12.7078 -12.6941 -12.6695
   -12.6465 -12.6115 -12.5933 -12.5857 -12.5513 -12.5138 -12.4787 -12.4457
   -12.4340 -12.4228 -12.4088 -12.3552 -12.2032 -12.1304 -12.1057 -11.9477
   -11.8338 -11.7736 -11.4557 -11.4339 -11.4070 -11.3946 -11.3537 -11.3188
   -11.2959 -11.2744 -11.2520 -11.1686 -11.1223 -11.1130  -5.9822  -3.1631
    -3.1603  -2.3242  -2.1150  -1.9946  -1.9063  -1.7873  -1.7204  -1.5189
    -1.3720  -1.3528  -1.3244  -1.2331  -1.1975  -1.1050  -1.0720  -1.0456
    -0.9022  -0.8462  -0.7785  -0.7504  -0.6905  -0.6673  -0.6272  -0.5983
    -0.5585  -0.4956  -0.4491  -0.3857  -0.3193  -0.2946  -0.2421  -0.2131
    -0.1689  -0.1106  -0.0667  -0.0258   0.0730   0.1070   0.1148   0.1640
     0.2270   0.2947   0.3390   0.3704   0.4342   0.4665   0.7290   0.8983
     0.9411   0.9773   1.0311   1.0707   1.1336   1.2056   1.2316   1.5162
     1.6329   1.6701   1.7027   1.7097   1.7512   1.7689   1.8145   1.8448
     1.8600   1.8870   1.9275   1.9401   1.9862   2.0034   2.0474   2.1219
     2.1420   2.1652   2.1948   2.2283   2.2652   2.3123   2.4296   2.5406
     2.5744   2.6173   2.6384   2.7022   2.7473   2.7752   2.7962   2.8186
     2.9201   2.9572   3.0142   3.0365   3.0544   3.2267   3.2352   3.2494
     3.2592   3.2696   3.2831   3.2903   3.3080   3.3157   3.3315   3.3412
     3.3535   3.3626   3.3686   3.4017   3.4134   3.4221   3.4558   3.7487
     3.8291   3.8889   3.9479   3.9755   4.1779   4.3059   4.6261   4.7876
     4.9642   5.1257   5.3227   5.5448   5.9031   6.0004   6.0146   6.1179
     6.1830   6.2295   6.3419   6.4057   6.9596   7.0046   7.1224   7.2632
     7.7172   7.8037   7.8474   7.9235   7.9676   8.1660   8.2554   8.3178
     8.4622   8.4793   8.5579   8.6961   8.7143   8.7585   8.8164

     occupation numbers 
     1.0000   1.0000   1.0000   1.0000   1.0000   1.0000   1.0000   1.0000
     1.0000   1.0000   1.0000   1.0000   1.0000   1.0000   1.0000   1.0000
     1.0000   1.0000   1.0000   1.0000   1.0000   1.0000   1.0000   1.0000
     1.0000   1.0000   1.0000   1.0000   1.0000   1.0000   1.0000   1.0000
     1.0000   1.0000   1.0000   1.0000   1.0000   1.0000   1.0000   1.0000
     1.0000   1.0000   1.0000   1.0000   1.0000   1.0000   1.0000   1.0000
     1.0000   1.0000   1.0000   1.0000   1.0000   1.0000   1.0000   1.0000
     1.0000   1.0000   1.0000   1.0000   1.0000   1.0000   1.0000   1.0000
     1.0000   1.0000   1.0000   1.0000   1.0000   1.0000   1.0000   1.0000
     1.0000   1.0000   1.0000   1.0000   1.0000   1.0000   1.0000   1.0000
     1.0000   1.0000   1.0000   1.0000   1.0000   1.0000   1.0000   1.0000
     1.0000   1.0000   1.0000   1.0000   1.0000   1.0000   1.0000   1.0000
     1.0000   1.0000   1.0000   1.0000   1.0000   1.0000   1.0000   1.0000
     1.0000   1.0000   1.0000   1.0000   1.0000   1.0000   1.0000   1.0000
     1.0000   1.0000   1.0000   1.0000   1.0000   1.0000   1.0000   1.0000
     1.0000   1.0000   1.0000   1.0000   1.0000   1.0000   1.0000   1.0000
     1.0000   1.0000   1.0000   1.0000   1.0000   1.0000   1.0000   1.0000
     1.0000   1.0000   1.0000   1.0000   1.0000   1.0000   1.0000   1.0000
     1.0000   1.0000   1.0000   1.0000   1.0000   1.0000   1.0000   1.0000
     1.0000   1.0000   1.0000   1.0000   1.0000   1.0000   1.0000   1.0000
     1.0000   1.0000   1.0000   0.9999   0.9999   0.9999   0.9999   0.9993
     0.9988   0.9985   0.9983   0.9982   0.9978   0.9976   0.9971   0.9967
     0.9964   0.9960   0.9952   0.9949   0.9939   0.9934   0.9921   0.9893
     0.9885   0.9874   0.9859   0.9840   0.9816   0.9783   0.9675   0.9535
     0.9485   0.9414   0.9376   0.9251   0.9152   0.9085   0.9033   0.8975
     0.8679   0.8558   0.8357   0.8274   0.8205   0.7458   0.7418   0.7349
     0.7301   0.7250   0.7182   0.7146   0.7056   0.7017   0.6935   0.6884
     0.6819   0.6771   0.6739   0.6560   0.6496   0.6448   0.6260   0.4547
     0.4078   0.3738   0.3411   0.3262   0.2263   0.1733   0.0783   0.0488
     0.0275   0.0154   0.0071   0.0027   0.0005   0.0003   0.0003   0.0001
     0.0001   0.0001   0.0000   0.0000   0.0000   0.0000   0.0000   0.0000
     0.0000   0.0000   0.0000   0.0000   0.0000   0.0000   0.0000   0.0000
     0.0000   0.0000   0.0000   0.0000   0.0000   0.0000   0.0000

          k =-0.5000 0.2500 0.0000 ( 65138 PWs)   bands (ev):

   -92.3543 -92.3016 -92.2083 -92.1591 -92.1017 -92.0606 -92.0433 -91.9201
   -55.7074 -55.6881 -55.5661 -55.5554 -55.5477 -55.5421 -55.5061 -55.4778
   -55.4614 -55.4596 -55.4524 -55.4101 -55.3900 -55.3531 -55.3343 -55.3013
   -55.2945 -55.2495 -55.2471 -55.2464 -55.2378 -55.1947 -55.1740 -55.0868
   -30.9367 -30.9258 -30.7803 -30.7290 -30.6954 -30.6071 -30.6011 -30.5335
   -29.5023 -29.4630 -29.4355 -29.3295 -22.2615 -14.6415 -14.5985 -14.5199
   -14.4191 -14.3778 -14.2508 -14.1687 -14.0346 -13.7907 -13.7248 -13.6943
   -13.6832 -13.6417 -13.6186 -13.5940 -13.5580 -13.5486 -13.5297 -13.4863
   -13.4747 -13.3796 -13.2981 -13.2509 -13.2463 -13.2346 -13.1497 -13.1316
   -13.0436 -12.9863 -12.8644 -12.8269 -12.7317 -12.6946 -12.6843 -12.6779
   -12.6450 -12.6163 -12.6121 -12.6017 -12.5264 -12.5010 -12.4888 -12.4675
   -12.4226 -12.4037 -12.2857 -12.2782 -12.2029 -12.1293 -11.9874 -11.9714
   -11.8891 -11.8654 -11.4282 -11.4156 -11.4013 -11.3894 -11.3681 -11.3377
   -11.2571 -11.2489 -11.2249 -11.1908 -11.1624 -11.1532  -5.9822  -3.1633
    -3.1602  -2.0971  -2.0549  -1.9059  -1.8638  -1.7044  -1.6281  -1.4854
    -1.3486  -1.2921  -1.2649  -1.2261  -1.1869  -1.1070  -0.9918  -0.9353
    -0.9116  -0.8857  -0.8111  -0.7805  -0.7440  -0.7248  -0.6646  -0.6359
    -0.5961  -0.5609  -0.5323  -0.4749  -0.4485  -0.4066  -0.3725  -0.2682
    -0.2432  -0.1546  -0.0952  -0.0628  -0.0049   0.0786   0.1097   0.2151
     0.2436   0.3060   0.3503   0.3815   0.4581   0.4849   0.5153   0.5735
     0.6122   0.9211   0.9707   1.0341   1.0439   1.3485   1.4076   1.4842
     1.5091   1.6893   1.7246   1.7627   1.7776   1.7953   1.8130   1.8813
     1.9258   1.9613   1.9924   2.1010   2.1458   2.1772   2.1884   2.2188
     2.2510   2.2667   2.2792   2.2993   2.3249   2.3668   2.3922   2.4227
     2.4465   2.4732   2.5384   2.6563   2.7579   2.7874   2.8572   2.8980
     2.9561   2.9919   3.0014   3.0148   3.0367   3.0437   3.0725   3.0981
     3.1780   3.2213   3.2350   3.2414   3.2629   3.2848   3.2975   3.3120
     3.3256   3.3455   3.3586   3.3697   3.3773   3.3861   3.3984   3.9221
     3.9570   4.1183   4.1386   4.4090   4.4755   4.5291   4.7275   5.0477
     5.1507   5.1986   5.3343   5.4517   5.7059   5.7617   5.8103   5.9252
     6.0371   6.1253   6.3646   6.4909   6.5684   6.6441   7.1798   7.3392
     7.5416   7.7127   7.9570   8.0491   8.1759   8.2340   8.3120   8.4788
     8.5435   8.6391   8.7350   8.7799   8.8579   8.8744   8.9331

     occupation numbers 
     1.0000   1.0000   1.0000   1.0000   1.0000   1.0000   1.0000   1.0000
     1.0000   1.0000   1.0000   1.0000   1.0000   1.0000   1.0000   1.0000
     1.0000   1.0000   1.0000   1.0000   1.0000   1.0000   1.0000   1.0000
     1.0000   1.0000   1.0000   1.0000   1.0000   1.0000   1.0000   1.0000
     1.0000   1.0000   1.0000   1.0000   1.0000   1.0000   1.0000   1.0000
     1.0000   1.0000   1.0000   1.0000   1.0000   1.0000   1.0000   1.0000
     1.0000   1.0000   1.0000   1.0000   1.0000   1.0000   1.0000   1.0000
     1.0000   1.0000   1.0000   1.0000   1.0000   1.0000   1.0000   1.0000
     1.0000   1.0000   1.0000   1.0000   1.0000   1.0000   1.0000   1.0000
     1.0000   1.0000   1.0000   1.0000   1.0000   1.0000   1.0000   1.0000
     1.0000   1.0000   1.0000   1.0000   1.0000   1.0000   1.0000   1.0000
     1.0000   1.0000   1.0000   1.0000   1.0000   1.0000   1.0000   1.0000
     1.0000   1.0000   1.0000   1.0000   1.0000   1.0000   1.0000   1.0000
     1.0000   1.0000   1.0000   1.0000   1.0000   1.0000   1.0000   1.0000
     1.0000   1.0000   1.0000   1.0000   1.0000   1.0000   1.0000   1.0000
     1.0000   1.0000   1.0000   1.0000   1.0000   1.0000   1.0000   1.0000
     1.0000   1.0000   1.0000   1.0000   1.0000   1.0000   1.0000   1.0000
     1.0000   1.0000   1.0000   1.0000   1.0000   1.0000   1.0000   1.0000
     1.0000   1.0000   1.0000   1.0000   1.0000   1.0000   1.0000   1.0000
     1.0000   1.0000   1.0000   1.0000   1.0000   1.0000   1.0000   1.0000
     1.0000   1.0000   1.0000   1.0000   1.0000   0.9997   0.9996   0.9994
     0.9993   0.9984   0.9981   0.9977   0.9975   0.9973   0.9971   0.9961
     0.9952   0.9945   0.9937   0.9902   0.9883   0.9868   0.9862   0.9845
     0.9826   0.9815   0.9807   0.9792   0.9773   0.9737   0.9713   0.9682
     0.9656   0.9625   0.9539   0.9343   0.9127   0.9055   0.8869   0.8748
     0.8562   0.8438   0.8404   0.8355   0.8273   0.8246   0.8133   0.8030
     0.7684   0.7484   0.7418   0.7388   0.7283   0.7174   0.7110   0.7036
     0.6965   0.6862   0.6792   0.6733   0.6692   0.6645   0.6578   0.3553
     0.3362   0.2538   0.2442   0.1370   0.1164   0.1016   0.0585   0.0205
     0.0141   0.0117   0.0068   0.0041   0.0013   0.0010   0.0007   0.0004
     0.0002   0.0001   0.0000   0.0000   0.0000   0.0000   0.0000   0.0000
     0.0000   0.0000   0.0000   0.0000   0.0000   0.0000   0.0000   0.0000
     0.0000   0.0000   0.0000   0.0000   0.0000   0.0000   0.0000

     the Fermi energy is     3.6721 ev

!    total energy              =   -4482.97993989 Ry
     estimated scf accuracy    <          4.0E-09 Ry
     smearing contrib. (-TS)   =      -1.17193129 Ry
     internal energy E=F+TS    =   -4481.80800859 Ry

     The total energy is F=E-TS. E is the sum of the following terms:
     one-electron contribution =  -20251.31150838 Ry
     hartree contribution      =   10265.09371884 Ry
     xc contribution           =    -701.59024323 Ry
     ewald contribution        =    6491.65300676 Ry
     one-center paw contrib.   =    -285.65298259 Ry
      -> PAW hartree energy AE =      25.17678207 Ry
      -> PAW hartree energy PS =     -25.06055653 Ry
      -> PAW xc energy AE      =     -16.51941787 Ry
      -> PAW xc energy PS      =       6.87899103 Ry
      -> total E_H with PAW    =   10265.20994439 Ry
      -> total E_XC with PAW   =    -711.23067006 Ry

     convergence has been achieved in  55 iterations

     Writing all to output data dir /bsuhome/zayahcortright/scratch/pwscf.save/
 
     init_run     :      9.00s CPU      9.35s WALL (       1 calls)
     electrons    :    853.90s CPU    867.65s WALL (       1 calls)

     Called by init_run:
     wfcinit      :      6.54s CPU      6.70s WALL (       1 calls)
     wfcinit:atom :      0.05s CPU      0.06s WALL (       5 calls)
     wfcinit:wfcr :      6.19s CPU      6.30s WALL (       5 calls)
     potinit      :      0.18s CPU      0.21s WALL (       1 calls)
     hinit0       :      1.14s CPU      1.24s WALL (       1 calls)

     Called by electrons:
     c_bands      :    676.19s CPU    681.66s WALL (      55 calls)
     sum_band     :    131.45s CPU    136.20s WALL (      55 calls)
     v_of_rho     :      6.10s CPU      6.40s WALL (      56 calls)
     v_h          :      0.51s CPU      0.52s WALL (      56 calls)
     v_xc         :      5.59s CPU      5.88s WALL (      56 calls)
     newd         :     23.78s CPU     26.58s WALL (      56 calls)
     PAW_pot      :      1.78s CPU      1.80s WALL (      56 calls)
     mix_rho      :     14.25s CPU     14.54s WALL (      55 calls)

     Called by c_bands:
     init_us_2    :      8.27s CPU      8.33s WALL (     555 calls)
     init_us_2:cp :      8.26s CPU      8.33s WALL (     555 calls)
     cegterg      :    635.93s CPU    641.19s WALL (     275 calls)

     Called by sum_band:
     sum_band:wei :      0.38s CPU      0.39s WALL (      55 calls)
     sum_band:loo :    106.68s CPU    107.48s WALL (      55 calls)
     sum_band:buf :      1.91s CPU      1.94s WALL (     275 calls)
     sum_band:ini :      3.85s CPU      3.87s WALL (     275 calls)
     sum_band:cal :     22.71s CPU     22.81s WALL (     275 calls)
     sum_band:bec :      0.69s CPU      0.70s WALL (     275 calls)
     addusdens    :     20.27s CPU     24.17s WALL (      55 calls)
                                        0.00s GPU  (      55 calls)
     addusd:skk   :      0.44s CPU      0.84s WALL (     220 calls)
                                        0.00s GPU  (     220 calls)

     Called by *egterg:
     cdiaghg      :     66.80s CPU     67.04s WALL (    1562 calls)
     cegterg:over :     48.59s CPU     48.79s WALL (    1287 calls)
     cegterg:upda :     34.89s CPU     35.25s WALL (    1287 calls)
     cegterg:last :     73.43s CPU     73.63s WALL (     516 calls)
     cdiaghg:chol :      3.92s CPU      3.95s WALL (    1562 calls)
     cdiaghg:inve :      4.11s CPU      4.13s WALL (    1562 calls)
     cdiaghg:para :      8.54s CPU      8.58s WALL (    3124 calls)
     h_psi        :    344.30s CPU    347.34s WALL (    1567 calls)
     s_psi        :     46.96s CPU     47.08s WALL (    1567 calls)
     g_psi        :      1.29s CPU      1.30s WALL (    1287 calls)

     Called by h_psi:
     h_psi:calbec :     52.91s CPU     53.09s WALL (    1567 calls)
     vloc_psi     :    240.63s CPU    242.89s WALL (    1567 calls)
     add_vuspsi   :     47.24s CPU     47.39s WALL (    1567 calls)

     General routines
     calbec       :     75.60s CPU     75.88s WALL (    1842 calls)
     fft          :      7.02s CPU      7.08s WALL (     726 calls)
     ffts         :      5.29s CPU      5.33s WALL (    5851 calls)
     fftw         :    199.61s CPU    201.22s WALL (  377635 calls)
     interpolate  :      0.45s CPU      0.45s WALL (      56 calls)
 
     Parallel routines

     PAW routines
     PAW_pot      :      1.78s CPU      1.80s WALL (      56 calls)
 
     PWSCF        :  14m24.64s CPU  14m42.21s WALL

 
   This run was terminated on:  18:42:44  20Jun2024            

=------------------------------------------------------------------------------=
   JOB DONE.
=------------------------------------------------------------------------------=
