
     Program PWSCF v.7.2 starts on 21Jun2024 at 19:38:45 

     This program is part of the open-source Quantum ESPRESSO suite
     for quantum simulation of materials; please cite
         "P. Giannozzi et al., J. Phys.:Condens. Matter 21 395502 (2009);
         "P. Giannozzi et al., J. Phys.:Condens. Matter 29 465901 (2017);
         "P. Giannozzi et al., J. Chem. Phys. 152 154105 (2020);
          URL http://www.quantum-espresso.org", 
     in publications or presentations arising from this work. More details at
     http://www.quantum-espresso.org/quote

     Parallel version (MPI & OpenMP), running on      48 processor cores
     Number of MPI processes:                48
     Threads/MPI process:                     1

     MPI processes distributed on     1 nodes
     180149 MiB available memory on the printing compute node when the environment starts
 
     Reading input from espresso.pwi
Warning: card &CELL ignored
Warning: card / ignored
Warning: card &FCP ignored
Warning: card / ignored
Warning: card &RISM ignored
Warning: card / ignored

     Current dimensions of program PWSCF are:
     Max number of different atomic species (ntypx) = 10
     Max number of k-points (npk) =  40000
     Max angular momentum in pseudopotentials (lmaxx) =  4
     file O.pbe-n-kjpaw_psl.0.1.UPF: wavefunction(s)  2P renormalized
     signal trapping enabled: kill the code with -SIGUSR1 to stop cleanly the simulation 
 
     K-points division:     npool     =       2
     R & G space division:  proc/nbgrp/npool/nimage =      24
     Subspace diagonalization in iterative solution of the eigenvalue problem:
     one sub-group per band group will be used
     scalapack distributed-memory algorithm (size of sub-group:  3*  3 procs)

 
     Parallelization info
     --------------------
     sticks:   dense  smooth     PW     G-vecs:    dense   smooth      PW
     Min         350     175     47                61430    21716    3036
     Max         351     177     48                61449    21727    3041
     Sum        8421    4205   1137              1474595   521381   72913
 
     Using Slab Decomposition
 


     bravais-lattice index     =            0
     lattice parameter (alat)  =      14.8599  a.u.
     unit-cell volume          =    8305.1283 (a.u.)^3
     number of atoms/cell      =           49
     number of atomic types    =            4
     number of electrons       =       425.00
     number of Kohn-Sham states=          256
     kinetic-energy cutoff     =      60.0000  Ry
     charge density cutoff     =     480.0000  Ry
     scf convergence threshold =      1.0E-08
     mixing beta               =       0.1500
     number of iterations used =            8  local-TF  mixing
     Exchange-correlation= PBE
                           (   1   4   3   4   0   0   0)

     celldm(1)=  14.859904  celldm(2)=   0.000000  celldm(3)=   0.000000
     celldm(4)=   0.000000  celldm(5)=   0.000000  celldm(6)=   0.000000

     crystal axes: (cart. coord. in units of alat)
               a(1) = (   1.000000   0.000000   0.000000 )  
               a(2) = (   0.000000   1.000000   0.000000 )  
               a(3) = (   0.000000   0.000000   2.531036 )  

     reciprocal axes: (cart. coord. in units 2 pi/alat)
               b(1) = (  1.000000  0.000000  0.000000 )  
               b(2) = (  0.000000  1.000000  0.000000 )  
               b(3) = (  0.000000  0.000000  0.395095 )  


     PseudoPot. # 1 for Sr read from file:
     /bsuhome/zayahcortright/q-e/pseudo/Sr_pbe_v1.uspp.F.UPF
     MD5 check sum: 6b418c05fbe9db5448babca5e47b7a5b
     Pseudo is Ultrasoft + core correction, Zval = 10.0
     Generated by new atomic code, or converted to UPF format
     Using radial grid of  883 points,  6 beta functions with: 
                l(1) =   0
                l(2) =   0
                l(3) =   1
                l(4) =   1
                l(5) =   2
                l(6) =   2
     Q(r) pseudized with  6 coefficients,  rinner =    1.400   1.400   1.400
                                                       1.400   1.400

     PseudoPot. # 2 for O  read from file:
     /bsuhome/zayahcortright/q-e/pseudo/O.pbe-n-kjpaw_psl.0.1.UPF
     MD5 check sum: 0234752ac141de4415c5fc33072bef88
     Pseudo is Projector augmented-wave + core cor, Zval =  6.0
     Generated using "atomic" code by A. Dal Corso  v.5.0.99 svn rev. 10869
     Shape of augmentation charge: BESSEL
     Using radial grid of 1095 points,  4 beta functions with: 
                l(1) =   0
                l(2) =   0
                l(3) =   1
                l(4) =   1
     Q(r) pseudized with 0 coefficients 


     PseudoPot. # 3 for Co read from file:
     /bsuhome/zayahcortright/q-e/pseudo/Co_pbe_v1.2.uspp.F.UPF
     MD5 check sum: 5f91765df6ddd3222702df6e7b74a16d
     Pseudo is Ultrasoft + core correction, Zval = 17.0
     Generated by new atomic code, or converted to UPF format
     Using radial grid of  863 points,  6 beta functions with: 
                l(1) =   0
                l(2) =   0
                l(3) =   1
                l(4) =   1
                l(5) =   2
                l(6) =   2
     Q(r) pseudized with  8 coefficients,  rinner =    1.200   1.200   1.200
                                                       1.200   1.200

     PseudoPot. # 4 for H  read from file:
     /bsuhome/zayahcortright/q-e/pseudo/H.pbe-rrkjus_psl.1.0.0.UPF
     MD5 check sum: f52b6d4d1c606e5624b1dc7b2218f220
     Pseudo is Ultrasoft, Zval =  1.0
     Generated using "atomic" code by A. Dal Corso  v.5.1
     Using radial grid of  929 points,  2 beta functions with: 
                l(1) =   0
                l(2) =   0
     Q(r) pseudized with 0 coefficients 


     atomic species   valence    mass     pseudopotential
        Sr            10.00    87.62000     Sr( 1.00)
        O              6.00    15.99900     O ( 1.00)
        Co            17.00    58.93319     Co( 1.00)
        H              1.00     1.00800     H ( 1.00)

     No symmetry found


                                    s                        frac. trans.

      isym =  1     identity                                     

 cryst.   s( 1) = (     1          0          0      )
                  (     0          1          0      )
                  (     0          0          1      )

 cart.    s( 1) = (  1.0000000  0.0000000  0.0000000 )
                  (  0.0000000  1.0000000  0.0000000 )
                  (  0.0000000  0.0000000  1.0000000 )


   Cartesian axes

     site n.     atom                  positions (alat units)
         1           Sr  tau(   1) = (   0.2508693   0.7491307   1.7574407  )
         2           O   tau(   2) = (   0.4985141   0.5014859   1.7715967  )
         3           Sr  tau(   3) = (   0.7482398   0.7454518   1.7648669  )
         4           Sr  tau(   4) = (   0.7441748   0.2558252   1.7667843  )
         5           Sr  tau(   5) = (   0.2508693   0.7491307   1.2696799  )
         6           Sr  tau(   6) = (   0.2508693   0.7491307   0.7632319  )
         7           Co  tau(   7) = (   0.4998914   0.5001086   1.0164559  )
         8           Co  tau(   8) = (   0.4936915   0.5063085   1.5135603  )
         9           O   tau(   9) = (   0.4988895   0.7610401   1.0164559  )
        10           O   tau(  10) = (   0.2389599   0.5011105   1.0164559  )
        11           O   tau(  11) = (   0.0070918   0.7374880   1.0164559  )
        12           O   tau(  12) = (   0.0088340   0.7405089   1.5135603  )
        13           O   tau(  13) = (   0.5066944   0.7415376   1.5135603  )
        14           O   tau(  14) = (   0.2584624   0.4933056   1.5135603  )
        15           O   tau(  15) = (   0.4985141   0.5014859   0.7773880  )
        16           O   tau(  16) = (   0.4985141   0.5014859   1.2555238  )
        17           Sr  tau(  17) = (   0.7482398   0.7454518   0.7706582  )
        18           Sr  tau(  18) = (   0.7482398   0.7454518   1.2622536  )
        19           Sr  tau(  19) = (   0.7441748   0.2558252   0.7725755  )
        20           Sr  tau(  20) = (   0.7441748   0.2558252   1.2603363  )
        21           O   tau(  21) = (   0.7322655   0.0078049   1.5135603  )
        22           O   tau(  22) = (   0.7558175   0.4996027   1.5135603  )
        23           O   tau(  23) = (   0.5003973   0.2441825   1.5135603  )
        24           O   tau(  24) = (   0.7527966   0.4978604   1.0164559  )
        25           O   tau(  25) = (   0.5021396   0.2472034   1.0164559  )
        26           O   tau(  26) = (   0.7517679   0.0000000   1.0164559  )
        27           O   tau(  27) = (   0.0114961   0.4948124   1.7455321  )
        28           O   tau(  28) = (   0.0048226   0.0077944   1.7715967  )
        29           Sr  tau(  29) = (   0.2545482   0.2517602   1.7648669  )
        30           O   tau(  30) = (   0.5048017   0.0015068   1.7786929  )
        31           Co  tau(  31) = (   0.0056869   0.5006215   1.0164559  )
        32           Co  tau(  32) = (   0.0065315   0.4997770   1.5135603  )
        33           Co  tau(  33) = (   0.0061999   0.0064171   1.0164559  )
        34           Co  tau(  34) = (   0.0000000   0.0126169   1.5135603  )
        35           O   tau(  35) = (   0.0114961   0.4948124   1.2815885  )
        36           O   tau(  36) = (   0.0114961   0.4948124   0.7513233  )
        37           O   tau(  37) = (   0.0051979   0.2673486   1.0164559  )
        38           O   tau(  38) = (   0.0130029   0.2478461   1.5135603  )
        39           O   tau(  39) = (   0.0048226   0.0077944   0.7773880  )
        40           O   tau(  40) = (   0.0048226   0.0077944   1.2555238  )
        41           Sr  tau(  41) = (   0.2545482   0.2517602   0.7706582  )
        42           Sr  tau(  42) = (   0.2545482   0.2517602   1.2622536  )
        43           Co  tau(  43) = (   0.4989925   0.0073160   1.5135603  )
        44           Co  tau(  44) = (   0.4998370   0.0064714   1.0164559  )
        45           O   tau(  45) = (   0.5048017   0.0015068   0.7844841  )
        46           O   tau(  46) = (   0.5048017   0.0015068   1.2484277  )
        47           O   tau(  47) = (   0.2621260   0.0059111   1.5135603  )
        48           O   tau(  48) = (   0.2591051   0.0041689   1.0164559  )
        49           H   tau(  49) = (   0.5686583   0.8529874   2.1602013  )

   Crystallographic axes

     site n.     atom                  positions (cryst. coord.)
         1           Sr  tau(   1) = (  0.2508693  0.7491307  0.6943562  )
         2           O   tau(   2) = (  0.4985141  0.5014859  0.6999492  )
         3           Sr  tau(   3) = (  0.7482398  0.7454518  0.6972903  )
         4           Sr  tau(   4) = (  0.7441748  0.2558252  0.6980478  )
         5           Sr  tau(   5) = (  0.2508693  0.7491307  0.5016443  )
         6           Sr  tau(   6) = (  0.2508693  0.7491307  0.3015492  )
         7           Co  tau(   7) = (  0.4998914  0.5001086  0.4015968  )
         8           Co  tau(   8) = (  0.4936915  0.5063085  0.5980003  )
         9           O   tau(   9) = (  0.4988895  0.7610401  0.4015968  )
        10           O   tau(  10) = (  0.2389599  0.5011105  0.4015968  )
        11           O   tau(  11) = (  0.0070918  0.7374880  0.4015968  )
        12           O   tau(  12) = (  0.0088340  0.7405089  0.5980003  )
        13           O   tau(  13) = (  0.5066944  0.7415376  0.5980003  )
        14           O   tau(  14) = (  0.2584624  0.4933056  0.5980003  )
        15           O   tau(  15) = (  0.4985141  0.5014859  0.3071422  )
        16           O   tau(  16) = (  0.4985141  0.5014859  0.4960513  )
        17           Sr  tau(  17) = (  0.7482398  0.7454518  0.3044833  )
        18           Sr  tau(  18) = (  0.7482398  0.7454518  0.4987103  )
        19           Sr  tau(  19) = (  0.7441748  0.2558252  0.3052408  )
        20           Sr  tau(  20) = (  0.7441748  0.2558252  0.4979527  )
        21           O   tau(  21) = (  0.7322655  0.0078049  0.5980003  )
        22           O   tau(  22) = (  0.7558175  0.4996027  0.5980003  )
        23           O   tau(  23) = (  0.5003973  0.2441825  0.5980003  )
        24           O   tau(  24) = (  0.7527966  0.4978604  0.4015968  )
        25           O   tau(  25) = (  0.5021396  0.2472034  0.4015968  )
        26           O   tau(  26) = (  0.7517679  0.0000000  0.4015968  )
        27           O   tau(  27) = (  0.0114961  0.4948124  0.6896512  )
        28           O   tau(  28) = (  0.0048226  0.0077944  0.6999492  )
        29           Sr  tau(  29) = (  0.2545482  0.2517602  0.6972903  )
        30           O   tau(  30) = (  0.5048017  0.0015068  0.7027529  )
        31           Co  tau(  31) = (  0.0056869  0.5006215  0.4015968  )
        32           Co  tau(  32) = (  0.0065315  0.4997770  0.5980003  )
        33           Co  tau(  33) = (  0.0061999  0.0064171  0.4015968  )
        34           Co  tau(  34) = (  0.0000000  0.0126169  0.5980003  )
        35           O   tau(  35) = (  0.0114961  0.4948124  0.5063494  )
        36           O   tau(  36) = (  0.0114961  0.4948124  0.2968442  )
        37           O   tau(  37) = (  0.0051979  0.2673486  0.4015968  )
        38           O   tau(  38) = (  0.0130029  0.2478461  0.5980003  )
        39           O   tau(  39) = (  0.0048226  0.0077944  0.3071422  )
        40           O   tau(  40) = (  0.0048226  0.0077944  0.4960513  )
        41           Sr  tau(  41) = (  0.2545482  0.2517602  0.3044833  )
        42           Sr  tau(  42) = (  0.2545482  0.2517602  0.4987103  )
        43           Co  tau(  43) = (  0.4989925  0.0073160  0.5980003  )
        44           Co  tau(  44) = (  0.4998370  0.0064714  0.4015968  )
        45           O   tau(  45) = (  0.5048017  0.0015068  0.3099459  )
        46           O   tau(  46) = (  0.5048017  0.0015068  0.4932477  )
        47           O   tau(  47) = (  0.2621260  0.0059111  0.5980003  )
        48           O   tau(  48) = (  0.2591051  0.0041689  0.4015968  )
        49           H   tau(  49) = (  0.5686583  0.8529874  0.8534850  )

     number of k points=    10  Gaussian smearing, width (Ry)=  0.0700
                       cart. coord. in units 2pi/alat
        k(    1) = (   0.0000000   0.0000000   0.0000000), wk =   0.1250000
        k(    2) = (   0.0000000   0.2500000   0.0000000), wk =   0.2500000
        k(    3) = (   0.0000000  -0.5000000   0.0000000), wk =   0.1250000
        k(    4) = (   0.2500000   0.2500000   0.0000000), wk =   0.2500000
        k(    5) = (   0.2500000  -0.5000000   0.0000000), wk =   0.2500000
        k(    6) = (  -0.5000000  -0.5000000   0.0000000), wk =   0.1250000
        k(    7) = (   0.2500000   0.0000000   0.0000000), wk =   0.2500000
        k(    8) = (  -0.5000000   0.0000000   0.0000000), wk =   0.1250000
        k(    9) = (  -0.2500000   0.2500000   0.0000000), wk =   0.2500000
        k(   10) = (  -0.5000000   0.2500000   0.0000000), wk =   0.2500000

                       cryst. coord.
        k(    1) = (   0.0000000   0.0000000   0.0000000), wk =   0.1250000
        k(    2) = (   0.0000000   0.2500000   0.0000000), wk =   0.2500000
        k(    3) = (   0.0000000  -0.5000000   0.0000000), wk =   0.1250000
        k(    4) = (   0.2500000   0.2500000   0.0000000), wk =   0.2500000
        k(    5) = (   0.2500000  -0.5000000   0.0000000), wk =   0.2500000
        k(    6) = (  -0.5000000  -0.5000000   0.0000000), wk =   0.1250000
        k(    7) = (   0.2500000   0.0000000   0.0000000), wk =   0.2500000
        k(    8) = (  -0.5000000   0.0000000   0.0000000), wk =   0.1250000
        k(    9) = (  -0.2500000   0.2500000   0.0000000), wk =   0.2500000
        k(   10) = (  -0.5000000   0.2500000   0.0000000), wk =   0.2500000

     Dense  grid:  1474595 G-vectors     FFT dimensions: ( 108, 108, 270)

     Smooth grid:   521381 G-vectors     FFT dimensions: (  75,  75, 192)

     Dynamical RAM for                 wfc:      10.61 MB

     Dynamical RAM for     wfc (w. buffer):      63.63 MB

     Dynamical RAM for           str. fact:       3.75 MB

     Dynamical RAM for           local pot:       0.00 MB

     Dynamical RAM for          nlocal pot:      24.28 MB

     Dynamical RAM for                qrad:       7.03 MB

     Dynamical RAM for          rho,v,vnew:       6.02 MB

     Dynamical RAM for               rhoin:       2.01 MB

     Dynamical RAM for            rho*nmix:      15.00 MB

     Dynamical RAM for           G-vectors:       3.68 MB

     Dynamical RAM for          h,s,v(r/c):       1.32 MB

     Dynamical RAM for          <psi|beta>:       2.29 MB

     Dynamical RAM for                 psi:      21.21 MB

     Dynamical RAM for                hpsi:      21.21 MB

     Dynamical RAM for                spsi:      21.21 MB

     Dynamical RAM for      wfcinit/wfcrot:      34.09 MB

     Dynamical RAM for           addusdens:     100.79 MB

     Estimated static dynamical RAM per process >     120.42 MB

     Estimated max dynamical RAM per process >     236.21 MB

     Estimated total dynamical RAM >      10.72 GB

     Check: negative core charge=   -0.000004

     Initial potential from superposition of free atoms

     starting charge     416.5961, renormalised to     425.0000

     negative rho (up, down):  7.826E-01 0.000E+00
     Starting wfcs are  373 randomized atomic wfcs
     Checking if some PAW data can be deallocated... 
       PAW data deallocated on   20 nodes for type:  2

     total cpu time spent up to now is        8.6 secs

     Self-consistent Calculation

     iteration #  1     ecut=    60.00 Ry     beta= 0.15
     Davidson diagonalization with overlap

---- Real-time Memory Report at c_bands before calling an iterative solver
             0 MiB given to the printing process from OS
             0 MiB allocation reported by mallinfo(arena+hblkhd)
        170476 MiB available memory on the node where the printing process lives
------------------
     ethr =  1.00E-02,  avg # of iterations =  2.0

     negative rho (up, down):  7.718E-01 0.000E+00

     total cpu time spent up to now is       23.0 secs

     total energy              =   -4404.75411804 Ry
     estimated scf accuracy    <      42.17771782 Ry

     iteration #  2     ecut=    60.00 Ry     beta= 0.15
     Davidson diagonalization with overlap

---- Real-time Memory Report at c_bands before calling an iterative solver
             0 MiB given to the printing process from OS
             0 MiB allocation reported by mallinfo(arena+hblkhd)
        170690 MiB available memory on the node where the printing process lives
------------------
     ethr =  9.92E-03,  avg # of iterations =  1.0

     negative rho (up, down):  7.532E-01 0.000E+00

     total cpu time spent up to now is       35.2 secs

     total energy              =   -4400.02822365 Ry
     estimated scf accuracy    <      26.61843220 Ry

     iteration #  3     ecut=    60.00 Ry     beta= 0.15
     Davidson diagonalization with overlap

---- Real-time Memory Report at c_bands before calling an iterative solver
             0 MiB given to the printing process from OS
             0 MiB allocation reported by mallinfo(arena+hblkhd)
        169956 MiB available memory on the node where the printing process lives
------------------
     ethr =  6.26E-03,  avg # of iterations =  2.0

     negative rho (up, down):  7.544E-01 0.000E+00

     total cpu time spent up to now is       48.9 secs

     total energy              =   -4402.39354384 Ry
     estimated scf accuracy    <      49.35811484 Ry

     iteration #  4     ecut=    60.00 Ry     beta= 0.15
     Davidson diagonalization with overlap

---- Real-time Memory Report at c_bands before calling an iterative solver
             0 MiB given to the printing process from OS
             0 MiB allocation reported by mallinfo(arena+hblkhd)
        169836 MiB available memory on the node where the printing process lives
------------------
     ethr =  6.26E-03,  avg # of iterations =  1.0

     negative rho (up, down):  7.410E-01 0.000E+00

     total cpu time spent up to now is       61.1 secs

     total energy              =   -4401.66007974 Ry
     estimated scf accuracy    <      29.53640056 Ry

     iteration #  5     ecut=    60.00 Ry     beta= 0.15
     Davidson diagonalization with overlap

---- Real-time Memory Report at c_bands before calling an iterative solver
             0 MiB given to the printing process from OS
             0 MiB allocation reported by mallinfo(arena+hblkhd)
        169813 MiB available memory on the node where the printing process lives
------------------
     ethr =  6.26E-03,  avg # of iterations =  1.0

     negative rho (up, down):  7.470E-01 0.000E+00

     total cpu time spent up to now is       73.1 secs

     total energy              =   -4399.91077859 Ry
     estimated scf accuracy    <      44.30460718 Ry

     iteration #  6     ecut=    60.00 Ry     beta= 0.15
     Davidson diagonalization with overlap

---- Real-time Memory Report at c_bands before calling an iterative solver
             0 MiB given to the printing process from OS
             0 MiB allocation reported by mallinfo(arena+hblkhd)
        169797 MiB available memory on the node where the printing process lives
------------------
     ethr =  6.26E-03,  avg # of iterations =  1.0

     negative rho (up, down):  7.421E-01 0.000E+00

     total cpu time spent up to now is       85.4 secs

     total energy              =   -4400.65882672 Ry
     estimated scf accuracy    <      11.91063859 Ry

     iteration #  7     ecut=    60.00 Ry     beta= 0.15
     Davidson diagonalization with overlap

---- Real-time Memory Report at c_bands before calling an iterative solver
             0 MiB given to the printing process from OS
             0 MiB allocation reported by mallinfo(arena+hblkhd)
        169770 MiB available memory on the node where the printing process lives
------------------
     ethr =  2.80E-03,  avg # of iterations =  1.1

     negative rho (up, down):  7.444E-01 0.000E+00

     total cpu time spent up to now is       97.7 secs

     total energy              =   -4400.80031865 Ry
     estimated scf accuracy    <       4.26073568 Ry

     iteration #  8     ecut=    60.00 Ry     beta= 0.15
     Davidson diagonalization with overlap

---- Real-time Memory Report at c_bands before calling an iterative solver
             0 MiB given to the printing process from OS
             0 MiB allocation reported by mallinfo(arena+hblkhd)
        169751 MiB available memory on the node where the printing process lives
------------------
     ethr =  1.00E-03,  avg # of iterations =  1.5

     negative rho (up, down):  7.535E-01 0.000E+00

     total cpu time spent up to now is      110.4 secs

     total energy              =   -4400.34120849 Ry
     estimated scf accuracy    <       3.76772286 Ry

     iteration #  9     ecut=    60.00 Ry     beta= 0.15
     Davidson diagonalization with overlap

---- Real-time Memory Report at c_bands before calling an iterative solver
             0 MiB given to the printing process from OS
             0 MiB allocation reported by mallinfo(arena+hblkhd)
        169731 MiB available memory on the node where the printing process lives
------------------
     ethr =  8.87E-04,  avg # of iterations =  4.0

     negative rho (up, down):  7.764E-01 0.000E+00

     total cpu time spent up to now is      125.4 secs

     total energy              =   -4399.92024169 Ry
     estimated scf accuracy    <      39.89995180 Ry

     iteration # 10     ecut=    60.00 Ry     beta= 0.15
     Davidson diagonalization with overlap

---- Real-time Memory Report at c_bands before calling an iterative solver
             0 MiB given to the printing process from OS
             0 MiB allocation reported by mallinfo(arena+hblkhd)
        169654 MiB available memory on the node where the printing process lives
------------------
     ethr =  8.87E-04,  avg # of iterations =  9.5

     negative rho (up, down):  7.788E-01 0.000E+00

     total cpu time spent up to now is      143.3 secs

     total energy              =   -4399.78710520 Ry
     estimated scf accuracy    <      12.56216551 Ry

     iteration # 11     ecut=    60.00 Ry     beta= 0.15
     Davidson diagonalization with overlap

---- Real-time Memory Report at c_bands before calling an iterative solver
             0 MiB given to the printing process from OS
             0 MiB allocation reported by mallinfo(arena+hblkhd)
        169251 MiB available memory on the node where the printing process lives
------------------
     ethr =  8.87E-04,  avg # of iterations =  1.9

     negative rho (up, down):  7.812E-01 0.000E+00

     total cpu time spent up to now is      156.1 secs

     total energy              =   -4400.12388291 Ry
     estimated scf accuracy    <       1.21267304 Ry

     iteration # 12     ecut=    60.00 Ry     beta= 0.15
     Davidson diagonalization with overlap

---- Real-time Memory Report at c_bands before calling an iterative solver
             0 MiB given to the printing process from OS
             0 MiB allocation reported by mallinfo(arena+hblkhd)
        169288 MiB available memory on the node where the printing process lives
------------------
     ethr =  2.85E-04,  avg # of iterations =  3.0

     negative rho (up, down):  7.902E-01 0.000E+00

     total cpu time spent up to now is      170.5 secs

     total energy              =   -4400.08229069 Ry
     estimated scf accuracy    <       0.71466083 Ry

     iteration # 13     ecut=    60.00 Ry     beta= 0.15
     Davidson diagonalization with overlap

---- Real-time Memory Report at c_bands before calling an iterative solver
             0 MiB given to the printing process from OS
             0 MiB allocation reported by mallinfo(arena+hblkhd)
        169262 MiB available memory on the node where the printing process lives
------------------
     ethr =  1.68E-04,  avg # of iterations =  8.4

     negative rho (up, down):  8.007E-01 0.000E+00

     total cpu time spent up to now is      187.6 secs

     total energy              =   -4400.08824819 Ry
     estimated scf accuracy    <       1.04710837 Ry

     iteration # 14     ecut=    60.00 Ry     beta= 0.15
     Davidson diagonalization with overlap

---- Real-time Memory Report at c_bands before calling an iterative solver
             0 MiB given to the printing process from OS
             0 MiB allocation reported by mallinfo(arena+hblkhd)
        169256 MiB available memory on the node where the printing process lives
------------------
     c_bands:  1 eigenvalues not converged
     ethr =  1.68E-04,  avg # of iterations =  6.7

     negative rho (up, down):  8.040E-01 0.000E+00

     total cpu time spent up to now is      203.5 secs

     total energy              =   -4400.03212396 Ry
     estimated scf accuracy    <       1.41546014 Ry

     iteration # 15     ecut=    60.00 Ry     beta= 0.15
     Davidson diagonalization with overlap

---- Real-time Memory Report at c_bands before calling an iterative solver
             0 MiB given to the printing process from OS
             0 MiB allocation reported by mallinfo(arena+hblkhd)
        169219 MiB available memory on the node where the printing process lives
------------------
     ethr =  1.68E-04,  avg # of iterations =  3.1

     negative rho (up, down):  8.059E-01 0.000E+00

     total cpu time spent up to now is      217.6 secs

     total energy              =   -4400.05545354 Ry
     estimated scf accuracy    <       0.39847320 Ry

     iteration # 16     ecut=    60.00 Ry     beta= 0.15
     Davidson diagonalization with overlap

---- Real-time Memory Report at c_bands before calling an iterative solver
             0 MiB given to the printing process from OS
             0 MiB allocation reported by mallinfo(arena+hblkhd)
        169222 MiB available memory on the node where the printing process lives
------------------
     ethr =  9.38E-05,  avg # of iterations =  4.0

     negative rho (up, down):  8.087E-01 0.000E+00

     total cpu time spent up to now is      232.2 secs

     total energy              =   -4400.01705849 Ry
     estimated scf accuracy    <       0.32368977 Ry

     iteration # 17     ecut=    60.00 Ry     beta= 0.15
     Davidson diagonalization with overlap

---- Real-time Memory Report at c_bands before calling an iterative solver
             0 MiB given to the printing process from OS
             0 MiB allocation reported by mallinfo(arena+hblkhd)
        169242 MiB available memory on the node where the printing process lives
------------------
     ethr =  7.62E-05,  avg # of iterations =  4.1

     negative rho (up, down):  8.159E-01 0.000E+00

     total cpu time spent up to now is      247.3 secs

     total energy              =   -4399.95295929 Ry
     estimated scf accuracy    <       0.32651906 Ry

     iteration # 18     ecut=    60.00 Ry     beta= 0.15
     Davidson diagonalization with overlap

---- Real-time Memory Report at c_bands before calling an iterative solver
             0 MiB given to the printing process from OS
             0 MiB allocation reported by mallinfo(arena+hblkhd)
        169223 MiB available memory on the node where the printing process lives
------------------
     ethr =  7.62E-05,  avg # of iterations = 13.9

     negative rho (up, down):  8.251E-01 0.000E+00

     total cpu time spent up to now is      266.9 secs

     total energy              =   -4399.94726258 Ry
     estimated scf accuracy    <       0.12765575 Ry

     iteration # 19     ecut=    60.00 Ry     beta= 0.15
     Davidson diagonalization with overlap

---- Real-time Memory Report at c_bands before calling an iterative solver
             0 MiB given to the printing process from OS
             0 MiB allocation reported by mallinfo(arena+hblkhd)
        169203 MiB available memory on the node where the printing process lives
------------------
     ethr =  3.00E-05,  avg # of iterations =  8.4

     negative rho (up, down):  8.294E-01 0.000E+00

     total cpu time spent up to now is      284.0 secs

     total energy              =   -4399.93530447 Ry
     estimated scf accuracy    <       0.10447000 Ry

     iteration # 20     ecut=    60.00 Ry     beta= 0.15
     Davidson diagonalization with overlap

---- Real-time Memory Report at c_bands before calling an iterative solver
             0 MiB given to the printing process from OS
             0 MiB allocation reported by mallinfo(arena+hblkhd)
        169166 MiB available memory on the node where the printing process lives
------------------
     ethr =  2.46E-05,  avg # of iterations =  7.0

     negative rho (up, down):  8.180E-01 0.000E+00

     total cpu time spent up to now is      300.2 secs

     total energy              =   -4399.92553395 Ry
     estimated scf accuracy    <       0.09140836 Ry

     iteration # 21     ecut=    60.00 Ry     beta= 0.15
     Davidson diagonalization with overlap

---- Real-time Memory Report at c_bands before calling an iterative solver
             0 MiB given to the printing process from OS
             0 MiB allocation reported by mallinfo(arena+hblkhd)
        169165 MiB available memory on the node where the printing process lives
------------------
     ethr =  2.15E-05,  avg # of iterations =  6.3

     negative rho (up, down):  8.109E-01 0.000E+00

     total cpu time spent up to now is      316.7 secs

     total energy              =   -4399.92242437 Ry
     estimated scf accuracy    <       0.05129916 Ry

     iteration # 22     ecut=    60.00 Ry     beta= 0.15
     Davidson diagonalization with overlap

---- Real-time Memory Report at c_bands before calling an iterative solver
             0 MiB given to the printing process from OS
             0 MiB allocation reported by mallinfo(arena+hblkhd)
        169202 MiB available memory on the node where the printing process lives
------------------
     ethr =  1.21E-05,  avg # of iterations =  9.5

     negative rho (up, down):  8.002E-01 0.000E+00

     total cpu time spent up to now is      334.2 secs

     total energy              =   -4399.91733306 Ry
     estimated scf accuracy    <       0.03339296 Ry

     iteration # 23     ecut=    60.00 Ry     beta= 0.15
     Davidson diagonalization with overlap

---- Real-time Memory Report at c_bands before calling an iterative solver
             0 MiB given to the printing process from OS
             0 MiB allocation reported by mallinfo(arena+hblkhd)
        169154 MiB available memory on the node where the printing process lives
------------------
     ethr =  7.86E-06,  avg # of iterations = 11.1

     negative rho (up, down):  8.052E-01 0.000E+00

     total cpu time spent up to now is      352.2 secs

     total energy              =   -4399.91637442 Ry
     estimated scf accuracy    <       0.01843569 Ry

     iteration # 24     ecut=    60.00 Ry     beta= 0.15
     Davidson diagonalization with overlap

---- Real-time Memory Report at c_bands before calling an iterative solver
             0 MiB given to the printing process from OS
             0 MiB allocation reported by mallinfo(arena+hblkhd)
        169087 MiB available memory on the node where the printing process lives
------------------
     ethr =  4.34E-06,  avg # of iterations =  9.7

     negative rho (up, down):  8.022E-01 0.000E+00

     total cpu time spent up to now is      369.3 secs

     total energy              =   -4399.91638548 Ry
     estimated scf accuracy    <       0.01221272 Ry

     iteration # 25     ecut=    60.00 Ry     beta= 0.15
     Davidson diagonalization with overlap

---- Real-time Memory Report at c_bands before calling an iterative solver
             0 MiB given to the printing process from OS
             0 MiB allocation reported by mallinfo(arena+hblkhd)
        169075 MiB available memory on the node where the printing process lives
------------------
     ethr =  2.87E-06,  avg # of iterations =  2.0

     negative rho (up, down):  7.922E-01 0.000E+00

     total cpu time spent up to now is      382.7 secs

     total energy              =   -4399.91511242 Ry
     estimated scf accuracy    <       0.01012986 Ry

     iteration # 26     ecut=    60.00 Ry     beta= 0.15
     Davidson diagonalization with overlap

---- Real-time Memory Report at c_bands before calling an iterative solver
             0 MiB given to the printing process from OS
             0 MiB allocation reported by mallinfo(arena+hblkhd)
        169176 MiB available memory on the node where the printing process lives
------------------
     ethr =  2.38E-06,  avg # of iterations =  5.7

     negative rho (up, down):  7.967E-01 0.000E+00

     total cpu time spent up to now is      397.8 secs

     total energy              =   -4399.91419901 Ry
     estimated scf accuracy    <       0.00594956 Ry

     iteration # 27     ecut=    60.00 Ry     beta= 0.15
     Davidson diagonalization with overlap

---- Real-time Memory Report at c_bands before calling an iterative solver
             0 MiB given to the printing process from OS
             0 MiB allocation reported by mallinfo(arena+hblkhd)
        169161 MiB available memory on the node where the printing process lives
------------------
     ethr =  1.40E-06,  avg # of iterations = 11.6

     negative rho (up, down):  7.997E-01 0.000E+00

     total cpu time spent up to now is      416.8 secs

     total energy              =   -4399.91470405 Ry
     estimated scf accuracy    <       0.00138093 Ry

     iteration # 28     ecut=    60.00 Ry     beta= 0.15
     Davidson diagonalization with overlap

---- Real-time Memory Report at c_bands before calling an iterative solver
             0 MiB given to the printing process from OS
             0 MiB allocation reported by mallinfo(arena+hblkhd)
        169002 MiB available memory on the node where the printing process lives
------------------
     c_bands:  1 eigenvalues not converged
     ethr =  3.25E-07,  avg # of iterations = 11.2

     negative rho (up, down):  7.960E-01 0.000E+00

     total cpu time spent up to now is      434.4 secs

     total energy              =   -4399.91451492 Ry
     estimated scf accuracy    <       0.00075193 Ry

     iteration # 29     ecut=    60.00 Ry     beta= 0.15
     Davidson diagonalization with overlap

---- Real-time Memory Report at c_bands before calling an iterative solver
             0 MiB given to the printing process from OS
             0 MiB allocation reported by mallinfo(arena+hblkhd)
        169035 MiB available memory on the node where the printing process lives
------------------
     ethr =  1.77E-07,  avg # of iterations =  8.4

     negative rho (up, down):  7.957E-01 0.000E+00

     total cpu time spent up to now is      451.0 secs

     total energy              =   -4399.91449192 Ry
     estimated scf accuracy    <       0.00042529 Ry

     iteration # 30     ecut=    60.00 Ry     beta= 0.15
     Davidson diagonalization with overlap

---- Real-time Memory Report at c_bands before calling an iterative solver
             0 MiB given to the printing process from OS
             0 MiB allocation reported by mallinfo(arena+hblkhd)
        169088 MiB available memory on the node where the printing process lives
------------------
     ethr =  1.00E-07,  avg # of iterations =  6.0

     negative rho (up, down):  7.952E-01 0.000E+00

     total cpu time spent up to now is      466.0 secs

     total energy              =   -4399.91446153 Ry
     estimated scf accuracy    <       0.00027073 Ry

     iteration # 31     ecut=    60.00 Ry     beta= 0.15
     Davidson diagonalization with overlap

---- Real-time Memory Report at c_bands before calling an iterative solver
             0 MiB given to the printing process from OS
             0 MiB allocation reported by mallinfo(arena+hblkhd)
        169079 MiB available memory on the node where the printing process lives
------------------
     ethr =  6.37E-08,  avg # of iterations =  2.2

     negative rho (up, down):  7.942E-01 0.000E+00

     total cpu time spent up to now is      480.1 secs

     total energy              =   -4399.91447395 Ry
     estimated scf accuracy    <       0.00010418 Ry

     iteration # 32     ecut=    60.00 Ry     beta= 0.15
     Davidson diagonalization with overlap

---- Real-time Memory Report at c_bands before calling an iterative solver
             0 MiB given to the printing process from OS
             0 MiB allocation reported by mallinfo(arena+hblkhd)
        169111 MiB available memory on the node where the printing process lives
------------------
     ethr =  2.45E-08,  avg # of iterations =  2.1

     negative rho (up, down):  7.927E-01 0.000E+00

     total cpu time spent up to now is      493.8 secs

     total energy              =   -4399.91448475 Ry
     estimated scf accuracy    <       0.00006098 Ry

     iteration # 33     ecut=    60.00 Ry     beta= 0.15
     Davidson diagonalization with overlap

---- Real-time Memory Report at c_bands before calling an iterative solver
             0 MiB given to the printing process from OS
             0 MiB allocation reported by mallinfo(arena+hblkhd)
        169121 MiB available memory on the node where the printing process lives
------------------
     ethr =  1.43E-08,  avg # of iterations =  2.2

     negative rho (up, down):  7.923E-01 0.000E+00

     total cpu time spent up to now is      507.5 secs

     total energy              =   -4399.91449569 Ry
     estimated scf accuracy    <       0.00002382 Ry

     iteration # 34     ecut=    60.00 Ry     beta= 0.15
     Davidson diagonalization with overlap

---- Real-time Memory Report at c_bands before calling an iterative solver
             0 MiB given to the printing process from OS
             0 MiB allocation reported by mallinfo(arena+hblkhd)
        169133 MiB available memory on the node where the printing process lives
------------------
     ethr =  5.60E-09,  avg # of iterations =  2.7

     negative rho (up, down):  7.923E-01 0.000E+00

     total cpu time spent up to now is      521.2 secs

     total energy              =   -4399.91449937 Ry
     estimated scf accuracy    <       0.00001253 Ry

     iteration # 35     ecut=    60.00 Ry     beta= 0.15
     Davidson diagonalization with overlap

---- Real-time Memory Report at c_bands before calling an iterative solver
             0 MiB given to the printing process from OS
             0 MiB allocation reported by mallinfo(arena+hblkhd)
        169137 MiB available memory on the node where the printing process lives
------------------
     ethr =  2.95E-09,  avg # of iterations =  2.2

     negative rho (up, down):  7.924E-01 0.000E+00

     total cpu time spent up to now is      534.8 secs

     total energy              =   -4399.91449992 Ry
     estimated scf accuracy    <       0.00000926 Ry

     iteration # 36     ecut=    60.00 Ry     beta= 0.15
     Davidson diagonalization with overlap

---- Real-time Memory Report at c_bands before calling an iterative solver
             0 MiB given to the printing process from OS
             0 MiB allocation reported by mallinfo(arena+hblkhd)
        169141 MiB available memory on the node where the printing process lives
------------------
     ethr =  2.18E-09,  avg # of iterations =  1.3

     negative rho (up, down):  7.924E-01 0.000E+00

     total cpu time spent up to now is      547.5 secs

     total energy              =   -4399.91449993 Ry
     estimated scf accuracy    <       0.00000738 Ry

     iteration # 37     ecut=    60.00 Ry     beta= 0.15
     Davidson diagonalization with overlap

---- Real-time Memory Report at c_bands before calling an iterative solver
             0 MiB given to the printing process from OS
             0 MiB allocation reported by mallinfo(arena+hblkhd)
        169142 MiB available memory on the node where the printing process lives
------------------
     ethr =  1.74E-09,  avg # of iterations =  2.3

     negative rho (up, down):  7.924E-01 0.000E+00

     total cpu time spent up to now is      561.5 secs

     total energy              =   -4399.91449833 Ry
     estimated scf accuracy    <       0.00000539 Ry

     iteration # 38     ecut=    60.00 Ry     beta= 0.15
     Davidson diagonalization with overlap

---- Real-time Memory Report at c_bands before calling an iterative solver
             0 MiB given to the printing process from OS
             0 MiB allocation reported by mallinfo(arena+hblkhd)
        169144 MiB available memory on the node where the printing process lives
------------------
     ethr =  1.27E-09,  avg # of iterations =  3.2

     negative rho (up, down):  7.924E-01 0.000E+00

     total cpu time spent up to now is      576.1 secs

     total energy              =   -4399.91449833 Ry
     estimated scf accuracy    <       0.00000257 Ry

     iteration # 39     ecut=    60.00 Ry     beta= 0.15
     Davidson diagonalization with overlap

---- Real-time Memory Report at c_bands before calling an iterative solver
             0 MiB given to the printing process from OS
             0 MiB allocation reported by mallinfo(arena+hblkhd)
        169143 MiB available memory on the node where the printing process lives
------------------
     ethr =  6.06E-10,  avg # of iterations =  2.2

     negative rho (up, down):  7.924E-01 0.000E+00

     total cpu time spent up to now is      590.2 secs

     total energy              =   -4399.91449881 Ry
     estimated scf accuracy    <       0.00000190 Ry

     iteration # 40     ecut=    60.00 Ry     beta= 0.15
     Davidson diagonalization with overlap

---- Real-time Memory Report at c_bands before calling an iterative solver
             0 MiB given to the printing process from OS
             0 MiB allocation reported by mallinfo(arena+hblkhd)
        169147 MiB available memory on the node where the printing process lives
------------------
     ethr =  4.47E-10,  avg # of iterations =  2.0

     negative rho (up, down):  7.924E-01 0.000E+00

     total cpu time spent up to now is      604.2 secs

     total energy              =   -4399.91450053 Ry
     estimated scf accuracy    <       0.00000136 Ry

     iteration # 41     ecut=    60.00 Ry     beta= 0.15
     Davidson diagonalization with overlap

---- Real-time Memory Report at c_bands before calling an iterative solver
             0 MiB given to the printing process from OS
             0 MiB allocation reported by mallinfo(arena+hblkhd)
        169147 MiB available memory on the node where the printing process lives
------------------
     ethr =  3.19E-10,  avg # of iterations =  3.7

     negative rho (up, down):  7.925E-01 0.000E+00

     total cpu time spent up to now is      619.1 secs

     total energy              =   -4399.91450063 Ry
     estimated scf accuracy    <       0.00000056 Ry

     iteration # 42     ecut=    60.00 Ry     beta= 0.15
     Davidson diagonalization with overlap

---- Real-time Memory Report at c_bands before calling an iterative solver
             0 MiB given to the printing process from OS
             0 MiB allocation reported by mallinfo(arena+hblkhd)
        169126 MiB available memory on the node where the printing process lives
------------------
     ethr =  1.32E-10,  avg # of iterations =  4.1

     negative rho (up, down):  7.925E-01 0.000E+00

     total cpu time spent up to now is      634.4 secs

     total energy              =   -4399.91450065 Ry
     estimated scf accuracy    <       0.00000015 Ry

     iteration # 43     ecut=    60.00 Ry     beta= 0.15
     Davidson diagonalization with overlap

---- Real-time Memory Report at c_bands before calling an iterative solver
             0 MiB given to the printing process from OS
             0 MiB allocation reported by mallinfo(arena+hblkhd)
        169042 MiB available memory on the node where the printing process lives
------------------
     ethr =  3.58E-11,  avg # of iterations =  2.2

     negative rho (up, down):  7.924E-01 0.000E+00

     total cpu time spent up to now is      648.3 secs

     total energy              =   -4399.91450064 Ry
     estimated scf accuracy    <       0.00000010 Ry

     iteration # 44     ecut=    60.00 Ry     beta= 0.15
     Davidson diagonalization with overlap

---- Real-time Memory Report at c_bands before calling an iterative solver
             0 MiB given to the printing process from OS
             0 MiB allocation reported by mallinfo(arena+hblkhd)
        168992 MiB available memory on the node where the printing process lives
------------------
     ethr =  2.26E-11,  avg # of iterations =  2.2

     negative rho (up, down):  7.924E-01 0.000E+00

     total cpu time spent up to now is      662.0 secs

     total energy              =   -4399.91450067 Ry
     estimated scf accuracy    <       0.00000004 Ry

     iteration # 45     ecut=    60.00 Ry     beta= 0.15
     Davidson diagonalization with overlap

---- Real-time Memory Report at c_bands before calling an iterative solver
             0 MiB given to the printing process from OS
             0 MiB allocation reported by mallinfo(arena+hblkhd)
        168989 MiB available memory on the node where the printing process lives
------------------
     ethr =  9.97E-12,  avg # of iterations =  2.1

     negative rho (up, down):  7.924E-01 0.000E+00

     total cpu time spent up to now is      675.8 secs

     total energy              =   -4399.91450071 Ry
     estimated scf accuracy    <       0.00000002 Ry

     iteration # 46     ecut=    60.00 Ry     beta= 0.15
     Davidson diagonalization with overlap

---- Real-time Memory Report at c_bands before calling an iterative solver
             0 MiB given to the printing process from OS
             0 MiB allocation reported by mallinfo(arena+hblkhd)
        169000 MiB available memory on the node where the printing process lives
------------------
     ethr =  5.34E-12,  avg # of iterations =  2.7

     negative rho (up, down):  7.924E-01 0.000E+00

     total cpu time spent up to now is      689.7 secs

     total energy              =   -4399.91450075 Ry
     estimated scf accuracy    <       0.00000001 Ry

     iteration # 47     ecut=    60.00 Ry     beta= 0.15
     Davidson diagonalization with overlap

---- Real-time Memory Report at c_bands before calling an iterative solver
             0 MiB given to the printing process from OS
             0 MiB allocation reported by mallinfo(arena+hblkhd)
        169016 MiB available memory on the node where the printing process lives
------------------
     ethr =  2.75E-12,  avg # of iterations =  3.2

     negative rho (up, down):  7.924E-01 0.000E+00

     total cpu time spent up to now is      703.4 secs

     End of self-consistent calculation

          k = 0.0000 0.0000 0.0000 ( 65197 PWs)   bands (ev):

   -92.7103 -92.6551 -92.5636 -92.5124 -92.4584 -92.4165 -92.3989 -92.2756
   -56.0638 -56.0415 -55.9211 -55.9109 -55.9003 -55.8977 -55.8598 -55.8330
   -55.8174 -55.8160 -55.8063 -55.7662 -55.7453 -55.7092 -55.6899 -55.6584
   -55.6456 -55.6046 -55.6017 -55.6017 -55.5932 -55.5505 -55.5293 -55.4427
   -31.2862 -31.2669 -31.1256 -31.0546 -31.0391 -30.9552 -30.8948 -30.8508
   -29.8579 -29.8144 -29.7892 -29.6814 -15.0908 -15.0523 -14.9678 -14.8376
   -14.6497 -14.5257 -14.2298 -14.2083 -14.1792 -14.1346 -14.0931 -14.0860
   -14.0708 -14.0524 -14.0266 -13.9911 -13.9395 -13.7897 -13.6182 -13.5778
   -13.5477 -13.5205 -13.5009 -13.4484 -13.4133 -13.3308 -13.2595 -13.1409
   -13.1189 -13.1068 -13.0846 -13.0764 -13.0651 -13.0163 -13.0094 -13.0007
   -12.9649 -12.9327 -12.9131 -12.8857 -12.8791 -12.8554 -12.8226 -12.7926
   -12.7728 -12.7567 -12.7226 -12.7049 -12.3514 -12.2057 -12.0625 -11.9944
   -11.8717 -11.7972 -11.7862 -11.7638 -11.7462 -11.6825 -11.6653 -11.6301
   -11.6010 -11.4907 -11.4100 -11.4065  -2.9522  -2.7193  -2.4897  -2.3435
    -2.2798  -2.1372  -1.8305  -1.8165  -1.7960  -1.7134  -1.6937  -1.6255
    -1.6092  -1.5677  -1.5240  -1.3424  -1.1197  -1.0895  -0.9402  -0.9263
    -0.8818  -0.8636  -0.8179  -0.8018  -0.7437  -0.7173  -0.6456  -0.6342
    -0.5564  -0.4252  -0.4116  -0.3843  -0.3031  -0.3008  -0.2798  -0.2127
    -0.1389  -0.0945  -0.0436  -0.0168   0.0436   0.1178   0.1701   0.1888
     0.2014   0.4588   0.4727   0.6449   0.7124   0.7789   0.8176   0.9117
     0.9255   0.9398   1.0110   1.0379   1.0718   1.1313   1.2637   1.3214
     1.3405   1.3575   1.3721   1.4396   1.5123   1.6149   1.6241   1.6894
     1.7067   1.7468   1.7629   1.7700   1.8277   1.8776   1.8913   1.9293
     1.9662   2.0143   2.1455   2.2308   2.2737   2.2857   2.4441   2.4576
     2.4970   2.5037   2.6090   2.6461   2.6707   2.6908   2.7039   2.7694
     2.7991   2.9077   2.9283   2.9415   2.9504   3.0159   3.0200   3.0441
     3.0516   3.0597   3.0747   3.0807   3.0918   3.0984   3.1105   3.1192
     3.1271   3.1472   3.1688   3.1737   3.1861   3.2369   3.3282   3.4223
     4.0989   4.4248   4.7649   4.8629   5.0280   5.7924   5.9411   5.9931
     6.0008   6.3052   6.3521   6.4807   6.4900   6.7332   7.0042   7.0900
     7.1320   7.2673   7.3063   7.5853   7.6553   7.6735   7.7138   7.9280
     7.9768   8.1082   8.1208   8.1805   8.4791   8.6376   8.7159   8.8654

     occupation numbers 
     1.0000   1.0000   1.0000   1.0000   1.0000   1.0000   1.0000   1.0000
     1.0000   1.0000   1.0000   1.0000   1.0000   1.0000   1.0000   1.0000
     1.0000   1.0000   1.0000   1.0000   1.0000   1.0000   1.0000   1.0000
     1.0000   1.0000   1.0000   1.0000   1.0000   1.0000   1.0000   1.0000
     1.0000   1.0000   1.0000   1.0000   1.0000   1.0000   1.0000   1.0000
     1.0000   1.0000   1.0000   1.0000   1.0000   1.0000   1.0000   1.0000
     1.0000   1.0000   1.0000   1.0000   1.0000   1.0000   1.0000   1.0000
     1.0000   1.0000   1.0000   1.0000   1.0000   1.0000   1.0000   1.0000
     1.0000   1.0000   1.0000   1.0000   1.0000   1.0000   1.0000   1.0000
     1.0000   1.0000   1.0000   1.0000   1.0000   1.0000   1.0000   1.0000
     1.0000   1.0000   1.0000   1.0000   1.0000   1.0000   1.0000   1.0000
     1.0000   1.0000   1.0000   1.0000   1.0000   1.0000   1.0000   1.0000
     1.0000   1.0000   1.0000   1.0000   1.0000   1.0000   1.0000   1.0000
     1.0000   1.0000   1.0000   1.0000   1.0000   1.0000   1.0000   1.0000
     1.0000   1.0000   1.0000   1.0000   1.0000   1.0000   1.0000   1.0000
     1.0000   1.0000   1.0000   1.0000   1.0000   1.0000   1.0000   1.0000
     1.0000   1.0000   1.0000   1.0000   1.0000   1.0000   1.0000   1.0000
     1.0000   1.0000   1.0000   1.0000   1.0000   1.0000   1.0000   1.0000
     1.0000   1.0000   1.0000   1.0000   1.0000   1.0000   1.0000   1.0000
     1.0000   1.0000   1.0000   1.0000   0.9999   0.9999   0.9999   0.9998
     0.9998   0.9998   0.9997   0.9996   0.9996   0.9994   0.9989   0.9985
     0.9983   0.9982   0.9981   0.9974   0.9963   0.9943   0.9940   0.9922
     0.9916   0.9902   0.9895   0.9892   0.9865   0.9838   0.9829   0.9804
     0.9776   0.9735   0.9591   0.9467   0.9395   0.9373   0.9027   0.8992
     0.8885   0.8866   0.8537   0.8407   0.8316   0.8240   0.8190   0.7922
     0.7794   0.7287   0.7184   0.7118   0.7073   0.6729   0.6708   0.6577
     0.6536   0.6491   0.6409   0.6376   0.6313   0.6277   0.6208   0.6159
     0.6114   0.5999   0.5874   0.5847   0.5774   0.5477   0.4938   0.4382
     0.1230   0.0501   0.0158   0.0109   0.0055   0.0001   0.0000   0.0000
     0.0000   0.0000   0.0000   0.0000   0.0000   0.0000   0.0000   0.0000
     0.0000   0.0000   0.0000   0.0000   0.0000   0.0000   0.0000   0.0000
     0.0000   0.0000   0.0000   0.0000   0.0000   0.0000   0.0000   0.0000

          k = 0.0000 0.2500 0.0000 ( 65257 PWs)   bands (ev):

   -92.7103 -92.6551 -92.5636 -92.5124 -92.4584 -92.4165 -92.3989 -92.2756
   -56.0638 -56.0415 -55.9211 -55.9109 -55.9003 -55.8977 -55.8598 -55.8330
   -55.8174 -55.8160 -55.8063 -55.7662 -55.7453 -55.7092 -55.6899 -55.6584
   -55.6456 -55.6046 -55.6017 -55.6017 -55.5932 -55.5505 -55.5293 -55.4427
   -31.2860 -31.2668 -31.1258 -31.0543 -31.0392 -30.9555 -30.8941 -30.8515
   -29.8573 -29.8141 -29.7898 -29.6817 -15.0539 -15.0265 -14.9429 -14.8082
   -14.6895 -14.5159 -14.3756 -14.1952 -14.1619 -14.1377 -14.1115 -14.0544
   -14.0493 -14.0355 -14.0129 -13.9685 -13.8595 -13.8199 -13.6577 -13.6417
   -13.5877 -13.5548 -13.5129 -13.4648 -13.4259 -13.3518 -13.3163 -13.2522
   -13.1959 -13.1563 -13.1170 -13.0982 -13.0586 -12.9967 -12.9736 -12.9461
   -12.9305 -12.9089 -12.8761 -12.8401 -12.8210 -12.8099 -12.8039 -12.7799
   -12.7680 -12.7390 -12.6144 -12.5374 -12.4127 -12.2570 -12.1192 -12.0630
   -11.8372 -11.7940 -11.7664 -11.7383 -11.7216 -11.6743 -11.6629 -11.6403
   -11.6056 -11.5051 -11.4518 -11.4411  -2.8170  -2.5949  -2.4576  -2.2755
    -2.2319  -2.0679  -1.8494  -1.7638  -1.7508  -1.6948  -1.5909  -1.5753
    -1.5421  -1.5151  -1.4715  -1.2736  -1.1450  -1.1333  -1.0579  -1.0465
    -0.9417  -0.9113  -0.8552  -0.8301  -0.7881  -0.7253  -0.6986  -0.6664
    -0.6334  -0.6178  -0.5843  -0.5101  -0.4598  -0.4011  -0.2839  -0.2676
    -0.2222  -0.1010  -0.0667  -0.0066   0.0434   0.0974   0.1186   0.1498
     0.2091   0.5048   0.5933   0.6260   0.7119   0.7562   0.7754   0.8982
     0.9157   1.0122   1.0379   1.0651   1.1793   1.2697   1.2965   1.3185
     1.3345   1.3640   1.4241   1.4508   1.4788   1.5270   1.5607   1.5900
     1.6716   1.7022   1.7418   1.7927   1.8505   1.8962   1.9152   1.9411
     1.9644   2.0482   2.1836   2.2530   2.2695   2.3493   2.3958   2.4362
     2.4449   2.5040   2.5448   2.6260   2.6633   2.6802   2.7808   2.8588
     2.8893   2.9123   2.9333   2.9495   2.9577   2.9653   2.9775   3.0040
     3.0063   3.0251   3.0314   3.0392   3.0589   3.0695   3.0768   3.0990
     3.1089   3.1138   3.1491   3.1667   3.2267   3.6048   3.6454   3.8681
     4.2833   4.4277   4.6977   5.0200   5.0529   5.6289   5.7614   5.9025
     5.9945   6.0831   6.1054   6.1794   6.5972   6.8876   6.9310   7.1095
     7.2674   7.3268   7.4780   7.4929   7.6372   7.7686   7.8414   7.9595
     8.0071   8.1289   8.1767   8.3170   8.4030   8.5883   8.7782   8.8658

     occupation numbers 
     1.0000   1.0000   1.0000   1.0000   1.0000   1.0000   1.0000   1.0000
     1.0000   1.0000   1.0000   1.0000   1.0000   1.0000   1.0000   1.0000
     1.0000   1.0000   1.0000   1.0000   1.0000   1.0000   1.0000   1.0000
     1.0000   1.0000   1.0000   1.0000   1.0000   1.0000   1.0000   1.0000
     1.0000   1.0000   1.0000   1.0000   1.0000   1.0000   1.0000   1.0000
     1.0000   1.0000   1.0000   1.0000   1.0000   1.0000   1.0000   1.0000
     1.0000   1.0000   1.0000   1.0000   1.0000   1.0000   1.0000   1.0000
     1.0000   1.0000   1.0000   1.0000   1.0000   1.0000   1.0000   1.0000
     1.0000   1.0000   1.0000   1.0000   1.0000   1.0000   1.0000   1.0000
     1.0000   1.0000   1.0000   1.0000   1.0000   1.0000   1.0000   1.0000
     1.0000   1.0000   1.0000   1.0000   1.0000   1.0000   1.0000   1.0000
     1.0000   1.0000   1.0000   1.0000   1.0000   1.0000   1.0000   1.0000
     1.0000   1.0000   1.0000   1.0000   1.0000   1.0000   1.0000   1.0000
     1.0000   1.0000   1.0000   1.0000   1.0000   1.0000   1.0000   1.0000
     1.0000   1.0000   1.0000   1.0000   1.0000   1.0000   1.0000   1.0000
     1.0000   1.0000   1.0000   1.0000   1.0000   1.0000   1.0000   1.0000
     1.0000   1.0000   1.0000   1.0000   1.0000   1.0000   1.0000   1.0000
     1.0000   1.0000   1.0000   1.0000   1.0000   1.0000   1.0000   1.0000
     1.0000   1.0000   1.0000   1.0000   1.0000   1.0000   1.0000   1.0000
     1.0000   1.0000   1.0000   1.0000   0.9999   0.9999   0.9999   0.9998
     0.9998   0.9997   0.9996   0.9996   0.9993   0.9988   0.9987   0.9985
     0.9984   0.9981   0.9975   0.9972   0.9968   0.9961   0.9955   0.9948
     0.9927   0.9918   0.9904   0.9882   0.9853   0.9826   0.9814   0.9795
     0.9778   0.9703   0.9539   0.9430   0.9402   0.9248   0.9145   0.9047
     0.9025   0.8865   0.8744   0.8478   0.8344   0.8281   0.7873   0.7522
     0.7377   0.7264   0.7159   0.7077   0.7035   0.6996   0.6933   0.6793
     0.6781   0.6680   0.6646   0.6604   0.6496   0.6437   0.6397   0.6273
     0.6217   0.6189   0.5988   0.5887   0.5537   0.3349   0.3133   0.2069
     0.0758   0.0497   0.0202   0.0057   0.0050   0.0003   0.0001   0.0001
     0.0000   0.0000   0.0000   0.0000   0.0000   0.0000   0.0000   0.0000
     0.0000   0.0000   0.0000   0.0000   0.0000   0.0000   0.0000   0.0000
     0.0000   0.0000   0.0000   0.0000   0.0000   0.0000   0.0000   0.0000

          k = 0.0000-0.5000 0.0000 ( 65180 PWs)   bands (ev):

   -92.7103 -92.6551 -92.5636 -92.5124 -92.4584 -92.4165 -92.3989 -92.2756
   -56.0638 -56.0415 -55.9211 -55.9109 -55.9003 -55.8977 -55.8598 -55.8330
   -55.8174 -55.8160 -55.8063 -55.7662 -55.7453 -55.7092 -55.6899 -55.6584
   -55.6456 -55.6046 -55.6017 -55.6017 -55.5932 -55.5505 -55.5293 -55.4427
   -31.2858 -31.2667 -31.1261 -31.0540 -31.0393 -30.9558 -30.8934 -30.8523
   -29.8566 -29.8138 -29.7905 -29.6820 -15.0214 -14.9719 -14.9213 -14.7913
   -14.7079 -14.5677 -14.4232 -14.2908 -14.1665 -14.0971 -14.0539 -14.0469
   -13.9981 -13.9804 -13.9352 -13.9156 -13.8888 -13.8510 -13.8112 -13.7850
   -13.5926 -13.5362 -13.5211 -13.4659 -13.4220 -13.3679 -13.3331 -13.2916
   -13.2756 -13.2266 -13.1177 -13.0982 -13.0461 -12.9872 -12.9774 -12.9631
   -12.9379 -12.8907 -12.8426 -12.8129 -12.7989 -12.7759 -12.7578 -12.7416
   -12.7140 -12.6604 -12.5238 -12.4653 -12.3322 -12.3051 -12.2347 -12.1957
   -11.7909 -11.7888 -11.7615 -11.7243 -11.6898 -11.6785 -11.6355 -11.6318
   -11.5871 -11.5270 -11.5128 -11.4984  -2.6026  -2.5427  -2.3919  -2.3194
    -2.0393  -1.9542  -1.8282  -1.6894  -1.6552  -1.6332  -1.5551  -1.5223
    -1.4427  -1.4061  -1.3299  -1.2889  -1.2498  -1.2225  -1.1678  -1.1283
    -1.0819  -1.0450  -1.0129  -0.9778  -0.8686  -0.8232  -0.7904  -0.7887
    -0.7025  -0.6697  -0.6462  -0.5988  -0.5154  -0.4404  -0.3617  -0.3345
    -0.2200  -0.1798  -0.0392  -0.0109   0.0249   0.0733   0.1979   0.2549
     0.3825   0.4499   0.4563   0.5860   0.6314   0.7260   0.8650   0.9711
     1.0019   1.0398   1.0447   1.0824   1.1007   1.1389   1.1548   1.1667
     1.2771   1.3359   1.3602   1.3857   1.6486   1.6823   1.7044   1.8018
     1.8224   1.8584   1.8734   1.9018   1.9199   1.9212   1.9559   1.9913
     2.0186   2.0437   2.0556   2.0877   2.1412   2.2230   2.2556   2.4350
     2.5932   2.5997   2.6188   2.6502   2.6581   2.6720   2.7209   2.7343
     2.7884   2.7922   2.8100   2.8969   2.9131   2.9683   2.9846   2.9999
     3.0014   3.0213   3.0272   3.0294   3.0343   3.0382   3.0638   3.0692
     3.0727   3.1342   3.1408   3.1562   3.2102   4.1128   4.1488   4.1954
     4.2486   4.7245   4.8913   5.0235   5.1408   5.4122   5.4561   5.5855
     5.6915   5.9898   6.0369   6.0538   6.7311   6.8539   6.9487   7.2227
     7.3143   7.3346   7.4364   7.4657   7.6525   7.7455   7.8316   7.9026
     8.1062   8.2639   8.4446   8.5307   8.6617   8.7517   8.8063   8.8474

     occupation numbers 
     1.0000   1.0000   1.0000   1.0000   1.0000   1.0000   1.0000   1.0000
     1.0000   1.0000   1.0000   1.0000   1.0000   1.0000   1.0000   1.0000
     1.0000   1.0000   1.0000   1.0000   1.0000   1.0000   1.0000   1.0000
     1.0000   1.0000   1.0000   1.0000   1.0000   1.0000   1.0000   1.0000
     1.0000   1.0000   1.0000   1.0000   1.0000   1.0000   1.0000   1.0000
     1.0000   1.0000   1.0000   1.0000   1.0000   1.0000   1.0000   1.0000
     1.0000   1.0000   1.0000   1.0000   1.0000   1.0000   1.0000   1.0000
     1.0000   1.0000   1.0000   1.0000   1.0000   1.0000   1.0000   1.0000
     1.0000   1.0000   1.0000   1.0000   1.0000   1.0000   1.0000   1.0000
     1.0000   1.0000   1.0000   1.0000   1.0000   1.0000   1.0000   1.0000
     1.0000   1.0000   1.0000   1.0000   1.0000   1.0000   1.0000   1.0000
     1.0000   1.0000   1.0000   1.0000   1.0000   1.0000   1.0000   1.0000
     1.0000   1.0000   1.0000   1.0000   1.0000   1.0000   1.0000   1.0000
     1.0000   1.0000   1.0000   1.0000   1.0000   1.0000   1.0000   1.0000
     1.0000   1.0000   1.0000   1.0000   1.0000   1.0000   1.0000   1.0000
     1.0000   1.0000   1.0000   1.0000   1.0000   1.0000   1.0000   1.0000
     1.0000   1.0000   1.0000   1.0000   1.0000   1.0000   1.0000   1.0000
     1.0000   1.0000   1.0000   1.0000   1.0000   1.0000   1.0000   1.0000
     1.0000   1.0000   1.0000   1.0000   1.0000   1.0000   1.0000   1.0000
     1.0000   1.0000   1.0000   1.0000   1.0000   0.9999   0.9999   0.9998
     0.9997   0.9996   0.9996   0.9995   0.9995   0.9994   0.9993   0.9993
     0.9988   0.9984   0.9982   0.9979   0.9934   0.9924   0.9917   0.9878
     0.9868   0.9849   0.9840   0.9822   0.9810   0.9809   0.9784   0.9756
     0.9731   0.9707   0.9695   0.9661   0.9597   0.9480   0.9426   0.9050
     0.8590   0.8568   0.8503   0.8392   0.8363   0.8312   0.8122   0.8068
     0.7840   0.7824   0.7745   0.7339   0.7260   0.6981   0.6896   0.6815
     0.6807   0.6701   0.6669   0.6657   0.6630   0.6609   0.6469   0.6439
     0.6420   0.6073   0.6036   0.5947   0.5634   0.1189   0.1086   0.0962
     0.0834   0.0184   0.0097   0.0057   0.0034   0.0009   0.0007   0.0004
     0.0002   0.0000   0.0000   0.0000   0.0000   0.0000   0.0000   0.0000
     0.0000   0.0000   0.0000   0.0000   0.0000   0.0000   0.0000   0.0000
     0.0000   0.0000   0.0000   0.0000   0.0000   0.0000   0.0000   0.0000

          k = 0.2500 0.2500 0.0000 ( 65198 PWs)   bands (ev):

   -92.7103 -92.6551 -92.5636 -92.5124 -92.4584 -92.4165 -92.3989 -92.2756
   -56.0638 -56.0415 -55.9211 -55.9109 -55.9003 -55.8977 -55.8598 -55.8330
   -55.8174 -55.8160 -55.8063 -55.7662 -55.7453 -55.7092 -55.6899 -55.6584
   -55.6456 -55.6046 -55.6017 -55.6017 -55.5932 -55.5505 -55.5293 -55.4427
   -31.2842 -31.2685 -31.1255 -31.0541 -31.0396 -30.9550 -30.8946 -30.8517
   -29.8563 -29.8151 -29.7894 -29.6821 -15.0258 -14.9913 -14.9151 -14.7976
   -14.6816 -14.5558 -14.4806 -14.2755 -14.1181 -14.1046 -14.0706 -14.0395
   -14.0205 -13.9971 -13.9589 -13.9295 -13.8510 -13.8345 -13.6730 -13.6599
   -13.6314 -13.6094 -13.5677 -13.5207 -13.4601 -13.4354 -13.3133 -13.2810
   -13.2383 -13.1504 -13.1101 -13.0584 -13.0289 -13.0195 -12.9828 -12.9565
   -12.9297 -12.9163 -12.8726 -12.8411 -12.8060 -12.7832 -12.7531 -12.7479
   -12.7244 -12.7198 -12.5547 -12.4612 -12.4284 -12.2861 -12.1477 -12.1153
   -11.8094 -11.7776 -11.7669 -11.7596 -11.6972 -11.6623 -11.6558 -11.6205
   -11.6123 -11.5217 -11.4801 -11.4626  -2.6788  -2.4692  -2.3517  -2.2579
    -2.1364  -2.0711  -1.8745  -1.7290  -1.7091  -1.6813  -1.5858  -1.5521
    -1.4578  -1.4311  -1.3807  -1.2485  -1.2015  -1.1295  -1.0836  -1.0397
    -1.0152  -0.9903  -0.9483  -0.9327  -0.8426  -0.7923  -0.7293  -0.6789
    -0.6479  -0.5981  -0.5852  -0.5218  -0.4727  -0.4197  -0.3816  -0.2981
    -0.2424  -0.2154  -0.1752  -0.1203  -0.0434  -0.0087   0.0133   0.0898
     0.1229   0.3967   0.5439   0.5814   0.6376   0.6813   0.7292   0.7883
     0.8510   0.8879   1.1596   1.2286   1.3019   1.3289   1.3739   1.4082
     1.4431   1.4804   1.4977   1.5258   1.5684   1.5767   1.5930   1.6344
     1.6756   1.7155   1.7753   1.8122   1.8188   1.8569   1.8900   1.9401
     1.9709   2.0901   2.1635   2.2000   2.2249   2.2842   2.3587   2.3845
     2.4209   2.4457   2.4601   2.5673   2.6052   2.6936   2.8013   2.8720
     2.8854   2.8942   2.9058   2.9247   2.9337   2.9483   2.9541   2.9656
     2.9772   2.9889   3.0079   3.0138   3.0257   3.0484   3.0603   3.0699
     3.1010   3.4019   3.4969   3.5349   3.6047   3.6651   3.8418   3.9452
     4.2913   4.5160   4.7048   4.9690   5.1665   5.6372   5.6778   5.7380
     5.8271   5.8865   6.0158   6.1514   6.2261   6.7164   6.8941   7.0620
     7.1855   7.5477   7.5980   7.7022   7.7177   7.8599   7.9649   8.1236
     8.1473   8.2008   8.2891   8.3138   8.4397   8.4840   8.6818   8.8664

     occupation numbers 
     1.0000   1.0000   1.0000   1.0000   1.0000   1.0000   1.0000   1.0000
     1.0000   1.0000   1.0000   1.0000   1.0000   1.0000   1.0000   1.0000
     1.0000   1.0000   1.0000   1.0000   1.0000   1.0000   1.0000   1.0000
     1.0000   1.0000   1.0000   1.0000   1.0000   1.0000   1.0000   1.0000
     1.0000   1.0000   1.0000   1.0000   1.0000   1.0000   1.0000   1.0000
     1.0000   1.0000   1.0000   1.0000   1.0000   1.0000   1.0000   1.0000
     1.0000   1.0000   1.0000   1.0000   1.0000   1.0000   1.0000   1.0000
     1.0000   1.0000   1.0000   1.0000   1.0000   1.0000   1.0000   1.0000
     1.0000   1.0000   1.0000   1.0000   1.0000   1.0000   1.0000   1.0000
     1.0000   1.0000   1.0000   1.0000   1.0000   1.0000   1.0000   1.0000
     1.0000   1.0000   1.0000   1.0000   1.0000   1.0000   1.0000   1.0000
     1.0000   1.0000   1.0000   1.0000   1.0000   1.0000   1.0000   1.0000
     1.0000   1.0000   1.0000   1.0000   1.0000   1.0000   1.0000   1.0000
     1.0000   1.0000   1.0000   1.0000   1.0000   1.0000   1.0000   1.0000
     1.0000   1.0000   1.0000   1.0000   1.0000   1.0000   1.0000   1.0000
     1.0000   1.0000   1.0000   1.0000   1.0000   1.0000   1.0000   1.0000
     1.0000   1.0000   1.0000   1.0000   1.0000   1.0000   1.0000   1.0000
     1.0000   1.0000   1.0000   1.0000   1.0000   1.0000   1.0000   1.0000
     1.0000   1.0000   1.0000   1.0000   1.0000   1.0000   1.0000   1.0000
     1.0000   1.0000   1.0000   1.0000   1.0000   1.0000   0.9999   0.9999
     0.9999   0.9998   0.9993   0.9990   0.9986   0.9984   0.9981   0.9977
     0.9973   0.9968   0.9966   0.9961   0.9953   0.9951   0.9948   0.9938
     0.9926   0.9913   0.9890   0.9873   0.9870   0.9850   0.9830   0.9796
     0.9772   0.9658   0.9567   0.9515   0.9477   0.9376   0.9228   0.9171
     0.9085   0.9023   0.8986   0.8674   0.8550   0.8229   0.7784   0.7459
     0.7395   0.7352   0.7296   0.7202   0.7157   0.7083   0.7053   0.6994
     0.6934   0.6873   0.6772   0.6741   0.6677   0.6554   0.6488   0.6435
     0.6262   0.4502   0.3951   0.3735   0.3350   0.3029   0.2182   0.1757
     0.0741   0.0376   0.0197   0.0071   0.0030   0.0003   0.0002   0.0002
     0.0001   0.0001   0.0000   0.0000   0.0000   0.0000   0.0000   0.0000
     0.0000   0.0000   0.0000   0.0000   0.0000   0.0000   0.0000   0.0000
     0.0000   0.0000   0.0000   0.0000   0.0000   0.0000   0.0000   0.0000

          k = 0.2500-0.5000 0.0000 ( 65138 PWs)   bands (ev):

   -92.7103 -92.6551 -92.5636 -92.5124 -92.4584 -92.4165 -92.3989 -92.2756
   -56.0638 -56.0415 -55.9211 -55.9109 -55.9003 -55.8977 -55.8598 -55.8330
   -55.8174 -55.8160 -55.8063 -55.7662 -55.7453 -55.7092 -55.6899 -55.6584
   -55.6456 -55.6046 -55.6017 -55.6017 -55.5932 -55.5505 -55.5293 -55.4427
   -31.2841 -31.2684 -31.1257 -31.0538 -31.0397 -30.9553 -30.8939 -30.8524
   -29.8557 -29.8148 -29.7901 -29.6824 -14.9912 -14.9450 -14.8783 -14.7603
   -14.7310 -14.6087 -14.5235 -14.3893 -14.0823 -14.0316 -14.0032 -13.9839
   -13.9648 -13.9532 -13.9205 -13.9039 -13.8672 -13.8284 -13.8032 -13.7717
   -13.6755 -13.6261 -13.5851 -13.5477 -13.4806 -13.4678 -13.3694 -13.3377
   -13.2154 -13.1510 -13.1270 -13.0417 -13.0231 -12.9966 -12.9780 -12.9535
   -12.9309 -12.9203 -12.8525 -12.8271 -12.8197 -12.7818 -12.7553 -12.7413
   -12.6644 -12.6327 -12.5304 -12.4483 -12.3297 -12.2889 -12.2227 -12.1922
   -11.7849 -11.7729 -11.7621 -11.7349 -11.7031 -11.6752 -11.6331 -11.6064
   -11.5836 -11.5400 -11.5139 -11.5025  -2.4610  -2.3946  -2.2659  -2.1882
    -2.0597  -1.9746  -1.8527  -1.7012  -1.6490  -1.6257  -1.5624  -1.5494
    -1.4534  -1.3848  -1.2999  -1.2516  -1.2417  -1.1782  -1.1373  -1.1009
    -1.0539  -1.0166  -0.9819  -0.9418  -0.9315  -0.8849  -0.8561  -0.8148
    -0.7840  -0.7165  -0.6170  -0.5757  -0.4982  -0.4329  -0.3862  -0.3419
    -0.3194  -0.2676  -0.1036  -0.0944   0.0016   0.0443   0.0516   0.0948
     0.1287   0.1682   0.1955   0.2655   0.5358   0.6301   0.6919   0.7543
     1.0200   1.0456   1.1338   1.1580   1.3255   1.3579   1.4011   1.4254
     1.4402   1.4608   1.5214   1.5665   1.6043   1.6809   1.7763   1.8170
     1.8356   1.8416   1.8823   1.8955   1.9022   1.9463   1.9572   1.9781
     2.0012   2.0244   2.0487   2.0810   2.1399   2.1782   2.2573   2.3983
     2.5452   2.5606   2.5810   2.6060   2.6304   2.6564   2.6817   2.6901
     2.7160   2.8052   2.8172   2.8804   2.8855   2.8976   2.9066   2.9249
     2.9373   2.9579   2.9661   2.9967   3.0068   3.0220   3.0312   3.0387
     3.0516   3.5781   3.5881   3.7342   3.7851   4.1306   4.1746   4.2020
     4.3078   4.7441   4.9137   5.0581   5.1166   5.2970   5.4257   5.6005
     5.6085   5.7620   5.7790   6.1306   6.3951   6.4842   6.6203   6.9946
     7.4435   7.5316   7.6950   7.7106   7.8070   7.8724   8.0318   8.1991
     8.3122   8.3770   8.4461   8.5260   8.5408   8.6460   8.7083   8.7648

     occupation numbers 
     1.0000   1.0000   1.0000   1.0000   1.0000   1.0000   1.0000   1.0000
     1.0000   1.0000   1.0000   1.0000   1.0000   1.0000   1.0000   1.0000
     1.0000   1.0000   1.0000   1.0000   1.0000   1.0000   1.0000   1.0000
     1.0000   1.0000   1.0000   1.0000   1.0000   1.0000   1.0000   1.0000
     1.0000   1.0000   1.0000   1.0000   1.0000   1.0000   1.0000   1.0000
     1.0000   1.0000   1.0000   1.0000   1.0000   1.0000   1.0000   1.0000
     1.0000   1.0000   1.0000   1.0000   1.0000   1.0000   1.0000   1.0000
     1.0000   1.0000   1.0000   1.0000   1.0000   1.0000   1.0000   1.0000
     1.0000   1.0000   1.0000   1.0000   1.0000   1.0000   1.0000   1.0000
     1.0000   1.0000   1.0000   1.0000   1.0000   1.0000   1.0000   1.0000
     1.0000   1.0000   1.0000   1.0000   1.0000   1.0000   1.0000   1.0000
     1.0000   1.0000   1.0000   1.0000   1.0000   1.0000   1.0000   1.0000
     1.0000   1.0000   1.0000   1.0000   1.0000   1.0000   1.0000   1.0000
     1.0000   1.0000   1.0000   1.0000   1.0000   1.0000   1.0000   1.0000
     1.0000   1.0000   1.0000   1.0000   1.0000   1.0000   1.0000   1.0000
     1.0000   1.0000   1.0000   1.0000   1.0000   1.0000   1.0000   1.0000
     1.0000   1.0000   1.0000   1.0000   1.0000   1.0000   1.0000   1.0000
     1.0000   1.0000   1.0000   1.0000   1.0000   1.0000   1.0000   1.0000
     1.0000   1.0000   1.0000   1.0000   1.0000   1.0000   1.0000   1.0000
     1.0000   1.0000   1.0000   1.0000   1.0000   1.0000   1.0000   0.9999
     0.9997   0.9996   0.9994   0.9993   0.9985   0.9982   0.9978   0.9975
     0.9973   0.9971   0.9962   0.9953   0.9945   0.9925   0.9890   0.9871
     0.9861   0.9858   0.9835   0.9826   0.9822   0.9791   0.9783   0.9767
     0.9747   0.9726   0.9702   0.9668   0.9598   0.9547   0.9423   0.9139
     0.8743   0.8695   0.8630   0.8547   0.8463   0.8369   0.8275   0.8243
     0.8142   0.7766   0.7713   0.7419   0.7395   0.7336   0.7292   0.7201
     0.7139   0.7034   0.6992   0.6832   0.6778   0.6697   0.6647   0.6606
     0.6536   0.3495   0.3440   0.2681   0.2438   0.1137   0.1016   0.0946
     0.0708   0.0171   0.0089   0.0049   0.0038   0.0016   0.0009   0.0003
     0.0003   0.0001   0.0001   0.0000   0.0000   0.0000   0.0000   0.0000
     0.0000   0.0000   0.0000   0.0000   0.0000   0.0000   0.0000   0.0000
     0.0000   0.0000   0.0000   0.0000   0.0000   0.0000   0.0000   0.0000

          k =-0.5000-0.5000 0.0000 ( 65132 PWs)   bands (ev):

   -92.7103 -92.6551 -92.5636 -92.5124 -92.4584 -92.4165 -92.3989 -92.2756
   -56.0638 -56.0415 -55.9211 -55.9109 -55.9003 -55.8977 -55.8598 -55.8330
   -55.8174 -55.8160 -55.8063 -55.7662 -55.7453 -55.7092 -55.6899 -55.6584
   -55.6456 -55.6046 -55.6017 -55.6017 -55.5932 -55.5505 -55.5293 -55.4427
   -31.2818 -31.2706 -31.1253 -31.0537 -31.0401 -30.9548 -30.8944 -30.8526
   -29.8546 -29.8158 -29.7897 -29.6829 -14.9460 -14.9178 -14.8002 -14.7894
   -14.6955 -14.6575 -14.6227 -14.4898 -13.9950 -13.9817 -13.9473 -13.9282
   -13.9121 -13.9039 -13.8697 -13.8616 -13.8481 -13.8342 -13.8169 -13.7430
   -13.7356 -13.7063 -13.6814 -13.6714 -13.5685 -13.5299 -13.4078 -13.3906
   -13.1664 -13.1236 -13.0600 -13.0346 -13.0094 -12.9935 -12.9850 -12.9763
   -12.9620 -12.8890 -12.8492 -12.8428 -12.8159 -12.8042 -12.7610 -12.7513
   -12.6139 -12.6064 -12.5467 -12.4323 -12.3261 -12.2722 -12.2108 -12.1886
   -11.7816 -11.7691 -11.7511 -11.7345 -11.6994 -11.6814 -11.6473 -11.5871
   -11.5661 -11.5620 -11.5116 -11.5084  -2.2376  -2.1610  -2.1493  -2.0794
    -2.0401  -1.9616  -1.8939  -1.7686  -1.6515  -1.6209  -1.5835  -1.5251
    -1.4528  -1.4392  -1.3674  -1.3251  -1.2080  -1.1803  -1.1317  -1.1015
    -1.0375  -0.9927  -0.9730  -0.9609  -0.9096  -0.8622  -0.8480  -0.7347
    -0.6778  -0.6320  -0.5803  -0.5564  -0.5455  -0.5079  -0.4651  -0.4321
    -0.4185  -0.3340  -0.2646  -0.2199  -0.1951  -0.1204  -0.0662  -0.0466
     0.0062   0.0223   0.0403   0.0489   0.5043   0.5522   0.6396   0.6658
     1.0544   1.0646   1.0968   1.1351   1.4089   1.4291   1.4356   1.4723
     1.6056   1.7022   1.7291   1.7649   1.7843   1.8074   1.8170   1.8489
     1.8609   1.8786   1.8818   1.9344   1.9399   1.9659   1.9916   1.9967
     2.0174   2.0544   2.0808   2.0910   2.1236   2.1488   2.2209   2.2891
     2.5475   2.5889   2.6090   2.6283   2.6396   2.6668   2.6713   2.6885
     2.7024   2.7182   2.7378   2.7511   2.8004   2.8214   2.8243   2.8423
     2.8610   2.8816   2.8910   2.8973   2.9120   3.0034   3.0108   3.0348
     3.0448   3.9846   4.0188   4.0605   4.1153   4.3094   4.3817   4.4094
     4.6503   4.7716   4.8548   4.9843   5.0716   5.0785   5.1954   5.3007
     5.3673   5.8581   5.8844   5.9606   6.0202   6.4059   6.5114   6.5439
     7.7410   7.8142   7.8881   7.9006   7.9363   7.9704   8.0102   8.0799
     8.2619   8.4039   8.5449   8.5770   8.5860   8.6207   8.6481   8.7241

     occupation numbers 
     1.0000   1.0000   1.0000   1.0000   1.0000   1.0000   1.0000   1.0000
     1.0000   1.0000   1.0000   1.0000   1.0000   1.0000   1.0000   1.0000
     1.0000   1.0000   1.0000   1.0000   1.0000   1.0000   1.0000   1.0000
     1.0000   1.0000   1.0000   1.0000   1.0000   1.0000   1.0000   1.0000
     1.0000   1.0000   1.0000   1.0000   1.0000   1.0000   1.0000   1.0000
     1.0000   1.0000   1.0000   1.0000   1.0000   1.0000   1.0000   1.0000
     1.0000   1.0000   1.0000   1.0000   1.0000   1.0000   1.0000   1.0000
     1.0000   1.0000   1.0000   1.0000   1.0000   1.0000   1.0000   1.0000
     1.0000   1.0000   1.0000   1.0000   1.0000   1.0000   1.0000   1.0000
     1.0000   1.0000   1.0000   1.0000   1.0000   1.0000   1.0000   1.0000
     1.0000   1.0000   1.0000   1.0000   1.0000   1.0000   1.0000   1.0000
     1.0000   1.0000   1.0000   1.0000   1.0000   1.0000   1.0000   1.0000
     1.0000   1.0000   1.0000   1.0000   1.0000   1.0000   1.0000   1.0000
     1.0000   1.0000   1.0000   1.0000   1.0000   1.0000   1.0000   1.0000
     1.0000   1.0000   1.0000   1.0000   1.0000   1.0000   1.0000   1.0000
     1.0000   1.0000   1.0000   1.0000   1.0000   1.0000   1.0000   1.0000
     1.0000   1.0000   1.0000   1.0000   1.0000   1.0000   1.0000   1.0000
     1.0000   1.0000   1.0000   1.0000   1.0000   1.0000   1.0000   1.0000
     1.0000   1.0000   1.0000   1.0000   1.0000   1.0000   1.0000   1.0000
     1.0000   1.0000   1.0000   1.0000   1.0000   1.0000   1.0000   1.0000
     0.9996   0.9996   0.9995   0.9994   0.9977   0.9975   0.9974   0.9969
     0.9945   0.9918   0.9908   0.9894   0.9886   0.9875   0.9871   0.9854
     0.9847   0.9837   0.9835   0.9800   0.9796   0.9776   0.9755   0.9751
     0.9732   0.9697   0.9669   0.9657   0.9619   0.9587   0.9483   0.9367
     0.8736   0.8604   0.8537   0.8470   0.8430   0.8331   0.8314   0.8249
     0.8195   0.8133   0.8054   0.7999   0.7788   0.7694   0.7681   0.7599
     0.7511   0.7414   0.7368   0.7337   0.7266   0.6796   0.6757   0.6628
     0.6573   0.1610   0.1489   0.1350   0.1181   0.0704   0.0571   0.0525
     0.0239   0.0154   0.0112   0.0067   0.0046   0.0045   0.0027   0.0016
     0.0012   0.0001   0.0001   0.0000   0.0000   0.0000   0.0000   0.0000
     0.0000   0.0000   0.0000   0.0000   0.0000   0.0000   0.0000   0.0000
     0.0000   0.0000   0.0000   0.0000   0.0000   0.0000   0.0000   0.0000

          k = 0.2500 0.0000 0.0000 ( 65257 PWs)   bands (ev):

   -92.7103 -92.6551 -92.5636 -92.5124 -92.4584 -92.4165 -92.3989 -92.2756
   -56.0638 -56.0415 -55.9211 -55.9109 -55.9003 -55.8977 -55.8598 -55.8330
   -55.8174 -55.8160 -55.8063 -55.7662 -55.7453 -55.7092 -55.6899 -55.6584
   -55.6456 -55.6046 -55.6017 -55.6017 -55.5932 -55.5505 -55.5293 -55.4427
   -31.2844 -31.2686 -31.1253 -31.0544 -31.0394 -30.9547 -30.8953 -30.8509
   -29.8569 -29.8154 -29.7888 -29.6818 -15.0575 -15.0223 -14.9481 -14.8011
   -14.6980 -14.5048 -14.3653 -14.1869 -14.1691 -14.1388 -14.1099 -14.0840
   -14.0550 -14.0361 -14.0117 -13.9724 -13.8509 -13.8199 -13.6687 -13.6041
   -13.5966 -13.5352 -13.5017 -13.4918 -13.4358 -13.3549 -13.3213 -13.2420
   -13.1860 -13.1666 -13.0733 -13.0677 -13.0515 -13.0335 -13.0151 -12.9818
   -12.9461 -12.9267 -12.8595 -12.8377 -12.8292 -12.8129 -12.7828 -12.7797
   -12.7268 -12.6984 -12.6371 -12.5578 -12.4149 -12.2580 -12.1179 -12.0620
   -11.8365 -11.7843 -11.7671 -11.7540 -11.7271 -11.6768 -11.6534 -11.6454
   -11.5945 -11.5065 -11.4501 -11.4441  -2.8165  -2.5941  -2.4642  -2.2919
    -2.2283  -2.0575  -1.8509  -1.7733  -1.7284  -1.6950  -1.5938  -1.5798
    -1.5450  -1.5258  -1.4571  -1.2764  -1.1692  -1.1266  -1.0308  -1.0216
    -0.9390  -0.9129  -0.8634  -0.8216  -0.7691  -0.7422  -0.6918  -0.6644
    -0.6453  -0.5909  -0.5767  -0.4851  -0.4758  -0.4148  -0.3196  -0.2697
    -0.1431  -0.1270  -0.0741  -0.0252   0.0307   0.0538   0.0959   0.1557
     0.2019   0.4821   0.6167   0.6458   0.7350   0.7628   0.7920   0.8128
     0.8977   1.0067   1.0547   1.0775   1.1194   1.2631   1.2981   1.3316
     1.3379   1.3811   1.4267   1.4673   1.5050   1.5542   1.6033   1.6179
[...]
     0.7447   0.7251   0.7184   0.7148   0.7050   0.6987   0.6916   0.6802
     0.6770   0.6644   0.6569   0.6542   0.6470   0.6336   0.6220   0.6193
     0.6148   0.6108   0.6051   0.5990   0.5190   0.3530   0.3232   0.2046
     0.0800   0.0443   0.0218   0.0058   0.0049   0.0003   0.0001   0.0001
     0.0000   0.0000   0.0000   0.0000   0.0000   0.0000   0.0000   0.0000
     0.0000   0.0000   0.0000   0.0000   0.0000   0.0000   0.0000   0.0000
     0.0000   0.0000   0.0000   0.0000   0.0000   0.0000   0.0000   0.0000

          k =-0.5000 0.0000 0.0000 ( 65180 PWs)   bands (ev):

   -92.7103 -92.6551 -92.5636 -92.5124 -92.4584 -92.4165 -92.3989 -92.2756
   -56.0638 -56.0415 -55.9211 -55.9109 -55.9003 -55.8977 -55.8598 -55.8330
   -55.8174 -55.8160 -55.8063 -55.7662 -55.7453 -55.7092 -55.6899 -55.6584
   -55.6456 -55.6046 -55.6017 -55.6017 -55.5932 -55.5505 -55.5293 -55.4427
   -31.2822 -31.2709 -31.1249 -31.0543 -31.0398 -30.9542 -30.8959 -30.8511
   -29.8559 -29.8165 -29.7884 -29.6822 -15.0250 -14.9765 -14.9135 -14.8043
   -14.6994 -14.5557 -14.4142 -14.2682 -14.1417 -14.1330 -14.1173 -14.0569
   -14.0014 -13.9704 -13.9230 -13.9147 -13.9005 -13.8479 -13.8294 -13.7319
   -13.5639 -13.5470 -13.5044 -13.4964 -13.4311 -13.3738 -13.3373 -13.2767
   -13.2531 -13.2465 -13.0632 -13.0599 -13.0464 -13.0218 -13.0124 -12.9806
   -12.9548 -12.9343 -12.8588 -12.8337 -12.7957 -12.7903 -12.7279 -12.6952
   -12.6491 -12.6399 -12.5498 -12.4862 -12.3383 -12.3354 -12.2216 -12.1848
   -11.7883 -11.7672 -11.7600 -11.7456 -11.7274 -11.6858 -11.6235 -11.6056
   -11.5726 -11.5291 -11.5197 -11.5038  -2.5923  -2.5534  -2.3895  -2.3502
    -2.0377  -1.9632  -1.8137  -1.6959  -1.6570  -1.6125  -1.5636  -1.5378
    -1.4153  -1.3702  -1.3563  -1.2735  -1.2371  -1.2245  -1.1906  -1.1331
    -1.0651  -1.0351  -1.0077  -0.9107  -0.8643  -0.8161  -0.7829  -0.7615
    -0.7328  -0.6833  -0.6584  -0.6193  -0.5268  -0.4509  -0.3892  -0.3255
    -0.1568  -0.1263  -0.0654  -0.0399   0.0342   0.0418   0.1811   0.2115
     0.2489   0.4312   0.5300   0.5777   0.6494   0.7305   0.8454   0.8605
     0.9966   1.0206   1.0725   1.0952   1.1387   1.1524   1.1964   1.2207
     1.2878   1.3347   1.3818   1.3887   1.6866   1.6970   1.7139   1.7342
     1.8474   1.8565   1.8723   1.8825   1.9084   1.9205   1.9595   1.9863
     2.0100   2.0679   2.0786   2.1307   2.1512   2.2094   2.3109   2.4261
     2.4835   2.5073   2.5796   2.6172   2.6445   2.7122   2.7189   2.7287
     2.7566   2.8044   2.8284   2.8781   2.9184   2.9605   2.9900   2.9949
     2.9954   3.0120   3.0211   3.0335   3.0491   3.0522   3.0770   3.0810
     3.1050   3.1200   3.1249   3.2554   3.2741   4.0463   4.1109   4.1771
     4.3521   4.7823   4.8563   5.0203   5.0495   5.4803   5.5137   5.5776
     5.6482   5.9716   6.0253   6.0711   6.6288   6.7994   6.9995   7.2798
     7.3045   7.3212   7.4232   7.4948   7.7077   7.7715   7.8792   7.9101
     8.1607   8.2210   8.4358   8.5300   8.6219   8.7316   8.7563   8.8473

     occupation numbers 
     1.0000   1.0000   1.0000   1.0000   1.0000   1.0000   1.0000   1.0000
     1.0000   1.0000   1.0000   1.0000   1.0000   1.0000   1.0000   1.0000
     1.0000   1.0000   1.0000   1.0000   1.0000   1.0000   1.0000   1.0000
     1.0000   1.0000   1.0000   1.0000   1.0000   1.0000   1.0000   1.0000
     1.0000   1.0000   1.0000   1.0000   1.0000   1.0000   1.0000   1.0000
     1.0000   1.0000   1.0000   1.0000   1.0000   1.0000   1.0000   1.0000
     1.0000   1.0000   1.0000   1.0000   1.0000   1.0000   1.0000   1.0000
     1.0000   1.0000   1.0000   1.0000   1.0000   1.0000   1.0000   1.0000
     1.0000   1.0000   1.0000   1.0000   1.0000   1.0000   1.0000   1.0000
     1.0000   1.0000   1.0000   1.0000   1.0000   1.0000   1.0000   1.0000
     1.0000   1.0000   1.0000   1.0000   1.0000   1.0000   1.0000   1.0000
     1.0000   1.0000   1.0000   1.0000   1.0000   1.0000   1.0000   1.0000
     1.0000   1.0000   1.0000   1.0000   1.0000   1.0000   1.0000   1.0000
     1.0000   1.0000   1.0000   1.0000   1.0000   1.0000   1.0000   1.0000
     1.0000   1.0000   1.0000   1.0000   1.0000   1.0000   1.0000   1.0000
     1.0000   1.0000   1.0000   1.0000   1.0000   1.0000   1.0000   1.0000
     1.0000   1.0000   1.0000   1.0000   1.0000   1.0000   1.0000   1.0000
     1.0000   1.0000   1.0000   1.0000   1.0000   1.0000   1.0000   1.0000
     1.0000   1.0000   1.0000   1.0000   1.0000   1.0000   1.0000   1.0000
     1.0000   1.0000   1.0000   1.0000   1.0000   0.9999   0.9999   0.9999
     0.9997   0.9997   0.9996   0.9995   0.9994   0.9993   0.9992   0.9991
     0.9987   0.9984   0.9980   0.9979   0.9923   0.9919   0.9914   0.9906
     0.9855   0.9850   0.9841   0.9835   0.9818   0.9810   0.9781   0.9760
     0.9739   0.9683   0.9671   0.9610   0.9584   0.9501   0.9325   0.9072
     0.8923   0.8856   0.8634   0.8508   0.8413   0.8157   0.8130   0.8091
     0.7976   0.7770   0.7663   0.7430   0.7234   0.7021   0.6867   0.6841
     0.6838   0.6750   0.6702   0.6635   0.6550   0.6533   0.6396   0.6373
     0.6239   0.6155   0.6126   0.5368   0.5258   0.1396   0.1194   0.1009
     0.0623   0.0148   0.0112   0.0057   0.0051   0.0007   0.0006   0.0004
     0.0003   0.0000   0.0000   0.0000   0.0000   0.0000   0.0000   0.0000
     0.0000   0.0000   0.0000   0.0000   0.0000   0.0000   0.0000   0.0000
     0.0000   0.0000   0.0000   0.0000   0.0000   0.0000   0.0000   0.0000

          k =-0.2500 0.2500 0.0000 ( 65198 PWs)   bands (ev):

   -92.7103 -92.6551 -92.5636 -92.5124 -92.4584 -92.4165 -92.3989 -92.2756
   -56.0638 -56.0415 -55.9211 -55.9109 -55.9003 -55.8977 -55.8598 -55.8330
   -55.8174 -55.8160 -55.8063 -55.7662 -55.7453 -55.7092 -55.6899 -55.6584
   -55.6456 -55.6046 -55.6017 -55.6017 -55.5932 -55.5505 -55.5293 -55.4427
   -31.2842 -31.2685 -31.1255 -31.0541 -31.0396 -30.9550 -30.8946 -30.8517
   -29.8563 -29.8151 -29.7894 -29.6821 -15.0272 -14.9902 -14.9134 -14.7960
   -14.6876 -14.5608 -14.4725 -14.2664 -14.1253 -14.0953 -14.0817 -14.0372
   -14.0104 -13.9964 -13.9806 -13.9293 -13.8472 -13.8343 -13.6814 -13.6560
   -13.6296 -13.6072 -13.5724 -13.5064 -13.4488 -13.4430 -13.3177 -13.2897
   -13.2322 -13.1545 -13.1111 -13.0496 -13.0289 -13.0127 -12.9909 -12.9560
   -12.9374 -12.9062 -12.8863 -12.8376 -12.8063 -12.7789 -12.7772 -12.7437
   -12.7283 -12.7001 -12.5312 -12.4552 -12.4509 -12.2918 -12.1549 -12.1053
   -11.8086 -11.7869 -11.7600 -11.7477 -11.7067 -11.6721 -11.6489 -11.6275
   -11.6048 -11.5214 -11.4754 -11.4660  -2.6772  -2.4682  -2.3474  -2.2596
    -2.1406  -2.0737  -1.8722  -1.7257  -1.7068  -1.6793  -1.5863  -1.5510
    -1.4578  -1.4243  -1.3981  -1.2547  -1.1990  -1.1321  -1.1035  -1.0436
    -1.0204  -0.9806  -0.9515  -0.9117  -0.8486  -0.8013  -0.7403  -0.6705
    -0.6440  -0.5928  -0.5639  -0.5191  -0.4634  -0.4220  -0.3763  -0.2792
    -0.2446  -0.2335  -0.1888  -0.1221  -0.0454  -0.0061   0.0208   0.0918
     0.1210   0.3784   0.5456   0.5906   0.6286   0.6856   0.7300   0.7910
     0.8582   0.8851   1.1669   1.2801   1.3186   1.3511   1.3572   1.4001
     1.4185   1.4622   1.4935   1.5083   1.5346   1.5775   1.5914   1.6357
     1.6505   1.6970   1.7875   1.8020   1.8197   1.8595   1.8860   1.9247
     1.9781   2.0801   2.1933   2.2218   2.2660   2.2871   2.3564   2.3978
     2.4241   2.4478   2.4672   2.5694   2.6037   2.6936   2.7991   2.8736
     2.8859   2.8964   2.9089   2.9171   2.9313   2.9402   2.9552   2.9685
     2.9789   2.9879   3.0003   3.0096   3.0158   3.0485   3.0605   3.0685
     3.1022   3.3949   3.4774   3.5409   3.6191   3.6592   3.8278   3.9537
     4.2911   4.5147   4.7065   4.9768   5.1666   5.6378   5.6753   5.7389
     5.8244   5.8873   6.0142   6.1658   6.2126   6.7500   6.8931   7.0547
     7.1431   7.5617   7.6042   7.6638   7.7437   7.8767   7.9510   8.1196
     8.1415   8.2497   8.2898   8.3405   8.4416   8.4647   8.6085   8.8586

     occupation numbers 
     1.0000   1.0000   1.0000   1.0000   1.0000   1.0000   1.0000   1.0000
     1.0000   1.0000   1.0000   1.0000   1.0000   1.0000   1.0000   1.0000
     1.0000   1.0000   1.0000   1.0000   1.0000   1.0000   1.0000   1.0000
     1.0000   1.0000   1.0000   1.0000   1.0000   1.0000   1.0000   1.0000
     1.0000   1.0000   1.0000   1.0000   1.0000   1.0000   1.0000   1.0000
     1.0000   1.0000   1.0000   1.0000   1.0000   1.0000   1.0000   1.0000
     1.0000   1.0000   1.0000   1.0000   1.0000   1.0000   1.0000   1.0000
     1.0000   1.0000   1.0000   1.0000   1.0000   1.0000   1.0000   1.0000
     1.0000   1.0000   1.0000   1.0000   1.0000   1.0000   1.0000   1.0000
     1.0000   1.0000   1.0000   1.0000   1.0000   1.0000   1.0000   1.0000
     1.0000   1.0000   1.0000   1.0000   1.0000   1.0000   1.0000   1.0000
     1.0000   1.0000   1.0000   1.0000   1.0000   1.0000   1.0000   1.0000
     1.0000   1.0000   1.0000   1.0000   1.0000   1.0000   1.0000   1.0000
     1.0000   1.0000   1.0000   1.0000   1.0000   1.0000   1.0000   1.0000
     1.0000   1.0000   1.0000   1.0000   1.0000   1.0000   1.0000   1.0000
     1.0000   1.0000   1.0000   1.0000   1.0000   1.0000   1.0000   1.0000
     1.0000   1.0000   1.0000   1.0000   1.0000   1.0000   1.0000   1.0000
     1.0000   1.0000   1.0000   1.0000   1.0000   1.0000   1.0000   1.0000
     1.0000   1.0000   1.0000   1.0000   1.0000   1.0000   1.0000   1.0000
     1.0000   1.0000   1.0000   1.0000   1.0000   1.0000   0.9999   0.9999
     0.9999   0.9998   0.9993   0.9988   0.9985   0.9983   0.9982   0.9978
     0.9976   0.9971   0.9966   0.9964   0.9959   0.9951   0.9948   0.9937
     0.9934   0.9919   0.9885   0.9878   0.9869   0.9848   0.9832   0.9807
     0.9767   0.9669   0.9525   0.9482   0.9408   0.9370   0.9233   0.9140
     0.9077   0.9018   0.8967   0.8667   0.8555   0.8230   0.7794   0.7452
     0.7393   0.7342   0.7281   0.7240   0.7169   0.7125   0.7048   0.6979
     0.6925   0.6878   0.6813   0.6763   0.6730   0.6553   0.6487   0.6443
     0.6255   0.4544   0.4062   0.3701   0.3272   0.3060   0.2244   0.1725
     0.0742   0.0377   0.0196   0.0069   0.0030   0.0003   0.0002   0.0002
     0.0001   0.0001   0.0000   0.0000   0.0000   0.0000   0.0000   0.0000
     0.0000   0.0000   0.0000   0.0000   0.0000   0.0000   0.0000   0.0000
     0.0000   0.0000   0.0000   0.0000   0.0000   0.0000   0.0000   0.0000

          k =-0.5000 0.2500 0.0000 ( 65138 PWs)   bands (ev):

   -92.7103 -92.6551 -92.5636 -92.5124 -92.4584 -92.4165 -92.3989 -92.2756
   -56.0638 -56.0415 -55.9211 -55.9109 -55.9003 -55.8977 -55.8598 -55.8330
   -55.8174 -55.8160 -55.8063 -55.7662 -55.7453 -55.7092 -55.6899 -55.6584
   -55.6456 -55.6046 -55.6017 -55.6017 -55.5932 -55.5505 -55.5293 -55.4427
   -31.2820 -31.2707 -31.1251 -31.0540 -31.0400 -30.9545 -30.8951 -30.8518
   -29.8553 -29.8161 -29.7890 -29.6825 -14.9928 -14.9498 -14.8707 -14.7702
   -14.7285 -14.6023 -14.5167 -14.3846 -14.0761 -14.0448 -14.0335 -13.9897
   -13.9678 -13.9432 -13.9086 -13.8995 -13.8794 -13.8360 -13.8245 -13.7226
   -13.6467 -13.6052 -13.5966 -13.5849 -13.4824 -13.4773 -13.3733 -13.3188
   -13.2090 -13.1723 -13.0762 -13.0368 -13.0254 -13.0156 -12.9896 -12.9586
   -12.9481 -12.9299 -12.8792 -12.8209 -12.8105 -12.7916 -12.7449 -12.7212
   -12.6311 -12.6235 -12.5480 -12.4573 -12.3314 -12.3060 -12.2139 -12.1873
   -11.7812 -11.7686 -11.7543 -11.7423 -11.7211 -11.6906 -11.6102 -11.6021
   -11.5781 -11.5436 -11.5153 -11.5063  -2.4501  -2.4079  -2.2593  -2.2169
    -2.0568  -1.9820  -1.8380  -1.7021  -1.6463  -1.6190  -1.5796  -1.5404
    -1.4603  -1.3449  -1.2880  -1.2645  -1.2395  -1.1645  -1.1337  -1.0961
    -1.0779  -1.0176  -0.9893  -0.9492  -0.9139  -0.8851  -0.8277  -0.8006
    -0.7585  -0.7247  -0.6214  -0.5927  -0.5098  -0.4436  -0.4142  -0.3589
    -0.2710  -0.2365  -0.1378  -0.0959  -0.0426   0.0110   0.0289   0.1095
     0.1334   0.1648   0.2215   0.2608   0.5662   0.6337   0.6902   0.7120
     1.0062   1.0561   1.1351   1.1576   1.3373   1.3752   1.4118   1.4250
     1.4435   1.4612   1.5302   1.5728   1.6152   1.6392   1.7688   1.8015
     1.8298   1.8415   1.8827   1.9047   1.9194   1.9352   1.9560   1.9783
     2.0246   2.0419   2.0737   2.0961   2.1272   2.1871   2.3047   2.4119
     2.4331   2.5064   2.5440   2.5981   2.6424   2.6484   2.6848   2.7183
     2.7399   2.8091   2.8294   2.8744   2.8860   2.8948   2.9109   2.9328
     2.9449   2.9595   2.9760   2.9942   3.0047   3.0161   3.0238   3.0330
     3.0446   3.5705   3.6420   3.7638   3.7924   4.0552   4.1362   4.1863
     4.4197   4.7766   4.8733   5.0205   5.0760   5.3914   5.4235   5.5862
     5.6169   5.7442   5.7659   6.1375   6.3885   6.4916   6.5607   7.0199
     7.4406   7.5405   7.7092   7.7534   7.7909   7.8842   8.0179   8.2413
     8.3200   8.3771   8.4230   8.5411   8.5481   8.6222   8.6722   8.7378

     occupation numbers 
     1.0000   1.0000   1.0000   1.0000   1.0000   1.0000   1.0000   1.0000
     1.0000   1.0000   1.0000   1.0000   1.0000   1.0000   1.0000   1.0000
     1.0000   1.0000   1.0000   1.0000   1.0000   1.0000   1.0000   1.0000
     1.0000   1.0000   1.0000   1.0000   1.0000   1.0000   1.0000   1.0000
     1.0000   1.0000   1.0000   1.0000   1.0000   1.0000   1.0000   1.0000
     1.0000   1.0000   1.0000   1.0000   1.0000   1.0000   1.0000   1.0000
     1.0000   1.0000   1.0000   1.0000   1.0000   1.0000   1.0000   1.0000
     1.0000   1.0000   1.0000   1.0000   1.0000   1.0000   1.0000   1.0000
     1.0000   1.0000   1.0000   1.0000   1.0000   1.0000   1.0000   1.0000
     1.0000   1.0000   1.0000   1.0000   1.0000   1.0000   1.0000   1.0000
     1.0000   1.0000   1.0000   1.0000   1.0000   1.0000   1.0000   1.0000
     1.0000   1.0000   1.0000   1.0000   1.0000   1.0000   1.0000   1.0000
     1.0000   1.0000   1.0000   1.0000   1.0000   1.0000   1.0000   1.0000
     1.0000   1.0000   1.0000   1.0000   1.0000   1.0000   1.0000   1.0000
     1.0000   1.0000   1.0000   1.0000   1.0000   1.0000   1.0000   1.0000
     1.0000   1.0000   1.0000   1.0000   1.0000   1.0000   1.0000   1.0000
     1.0000   1.0000   1.0000   1.0000   1.0000   1.0000   1.0000   1.0000
     1.0000   1.0000   1.0000   1.0000   1.0000   1.0000   1.0000   1.0000
     1.0000   1.0000   1.0000   1.0000   1.0000   1.0000   1.0000   1.0000
     1.0000   1.0000   1.0000   1.0000   1.0000   1.0000   1.0000   0.9999
     0.9997   0.9996   0.9994   0.9993   0.9984   0.9980   0.9977   0.9975
     0.9973   0.9971   0.9960   0.9952   0.9943   0.9937   0.9893   0.9878
     0.9864   0.9858   0.9834   0.9821   0.9811   0.9800   0.9784   0.9766
     0.9726   0.9709   0.9676   0.9651   0.9614   0.9534   0.9337   0.9107
     0.9055   0.8858   0.8747   0.8573   0.8420   0.8398   0.8263   0.8133
     0.8046   0.7749   0.7658   0.7448   0.7392   0.7350   0.7271   0.7162
     0.7101   0.7026   0.6940   0.6845   0.6789   0.6729   0.6687   0.6637
     0.6575   0.3537   0.3151   0.2538   0.2404   0.1367   0.1121   0.0986
     0.0509   0.0151   0.0104   0.0057   0.0045   0.0010   0.0009   0.0004
     0.0003   0.0002   0.0001   0.0000   0.0000   0.0000   0.0000   0.0000
     0.0000   0.0000   0.0000   0.0000   0.0000   0.0000   0.0000   0.0000
     0.0000   0.0000   0.0000   0.0000   0.0000   0.0000   0.0000   0.0000

     the Fermi energy is     3.3177 ev

!    total energy              =   -4399.91450080 Ry
     estimated scf accuracy    <          6.5E-09 Ry
     smearing contrib. (-TS)   =      -1.14564778 Ry
     internal energy E=F+TS    =   -4398.76885302 Ry

     The total energy is F=E-TS. E is the sum of the following terms:
     one-electron contribution =  -21253.09092998 Ry
     hartree contribution      =   10754.51417085 Ry
     xc contribution           =    -686.72919062 Ry
     ewald contribution        =    7053.18231688 Ry
     one-center paw contrib.   =    -266.64522016 Ry
      -> PAW hartree energy AE =      25.15623327 Ry
      -> PAW hartree energy PS =     -25.04022157 Ry
      -> PAW xc energy AE      =     -16.51651343 Ry
      -> PAW xc energy PS      =       6.87593969 Ry
      -> total E_H with PAW    =   10754.63018255 Ry
      -> total E_XC with PAW   =    -696.36976436 Ry

     convergence has been achieved in  47 iterations

     Writing all to output data dir /bsuhome/zayahcortright/scratch/pwscf.save/
 
     init_run     :      7.44s CPU      8.10s WALL (       1 calls)
     electrons    :    682.98s CPU    695.00s WALL (       1 calls)

     Called by init_run:
     wfcinit      :      5.97s CPU      6.09s WALL (       1 calls)
     wfcinit:atom :      0.05s CPU      0.07s WALL (       5 calls)
     wfcinit:wfcr :      5.63s CPU      5.70s WALL (       5 calls)
     potinit      :      0.19s CPU      0.20s WALL (       1 calls)
     hinit0       :      0.41s CPU      0.86s WALL (       1 calls)

     Called by electrons:
     c_bands      :    540.06s CPU    544.83s WALL (      47 calls)
     sum_band     :    107.61s CPU    111.87s WALL (      47 calls)
     v_of_rho     :      5.24s CPU      5.51s WALL (      48 calls)
     v_h          :      0.46s CPU      0.47s WALL (      48 calls)
     v_xc         :      4.78s CPU      5.04s WALL (      48 calls)
     newd         :     16.12s CPU     18.47s WALL (      48 calls)
     PAW_pot      :      1.53s CPU      1.55s WALL (      48 calls)
     mix_rho      :     12.18s CPU     12.47s WALL (      47 calls)

     Called by c_bands:
     init_us_2    :      6.72s CPU      6.76s WALL (     475 calls)
     init_us_2:cp :      6.71s CPU      6.75s WALL (     475 calls)
     cegterg      :    510.35s CPU    514.95s WALL (     235 calls)

     Called by sum_band:
     sum_band:wei :      0.33s CPU      0.33s WALL (      47 calls)
     sum_band:loo :     88.59s CPU     89.34s WALL (      47 calls)
     sum_band:buf :      1.43s CPU      1.45s WALL (     235 calls)
     sum_band:ini :      3.23s CPU      3.24s WALL (     235 calls)
     sum_band:cal :     17.78s CPU     17.83s WALL (     235 calls)
     sum_band:bec :      0.52s CPU      0.52s WALL (     235 calls)
     addusdens    :     17.56s CPU     21.05s WALL (      47 calls)
                                        0.00s GPU  (      47 calls)
     addusd:skk   :      0.34s CPU      0.64s WALL (     188 calls)
                                        0.00s GPU  (     188 calls)

     Called by *egterg:
     cdiaghg      :     55.75s CPU     55.97s WALL (    1311 calls)
     cegterg:over :     36.21s CPU     36.41s WALL (    1076 calls)
     cegterg:upda :     27.09s CPU     27.41s WALL (    1076 calls)
     cegterg:last :     56.00s CPU     56.15s WALL (     434 calls)
     cdiaghg:chol :      3.23s CPU      3.25s WALL (    1311 calls)
     cdiaghg:inve :      3.50s CPU      3.52s WALL (    1311 calls)
     cdiaghg:para :      7.07s CPU      7.11s WALL (    2622 calls)
     h_psi        :    282.70s CPU    285.37s WALL (    1316 calls)
     s_psi        :     38.34s CPU     38.45s WALL (    1316 calls)
     g_psi        :      1.11s CPU      1.11s WALL (    1076 calls)

     Called by h_psi:
     h_psi:calbec :     41.33s CPU     41.45s WALL (    1316 calls)
     vloc_psi     :    200.05s CPU    202.08s WALL (    1316 calls)
     add_vuspsi   :     38.10s CPU     38.22s WALL (    1316 calls)

     General routines
     calbec       :     59.10s CPU     59.27s WALL (    1551 calls)
     fft          :      3.56s CPU      3.62s WALL (     622 calls)
     ffts         :      4.34s CPU      4.37s WALL (    4987 calls)
     fftw         :    170.02s CPU    171.45s WALL (  314838 calls)
     interpolate  :      0.39s CPU      0.40s WALL (      48 calls)
 
     Parallel routines

     PAW routines
     PAW_pot      :      1.53s CPU      1.55s WALL (      48 calls)
 
     PWSCF        :  11m32.04s CPU  11m48.11s WALL

 
   This run was terminated on:  19:50:33  21Jun2024            

=------------------------------------------------------------------------------=
   JOB DONE.
=------------------------------------------------------------------------------=
