
     Program PWSCF v.7.2 starts on 21Jun2024 at 21:51:45 

     This program is part of the open-source Quantum ESPRESSO suite
     for quantum simulation of materials; please cite
         "P. Giannozzi et al., J. Phys.:Condens. Matter 21 395502 (2009);
         "P. Giannozzi et al., J. Phys.:Condens. Matter 29 465901 (2017);
         "P. Giannozzi et al., J. Chem. Phys. 152 154105 (2020);
          URL http://www.quantum-espresso.org", 
     in publications or presentations arising from this work. More details at
     http://www.quantum-espresso.org/quote

     Parallel version (MPI & OpenMP), running on      48 processor cores
     Number of MPI processes:                48
     Threads/MPI process:                     1

     MPI processes distributed on     1 nodes
     180148 MiB available memory on the printing compute node when the environment starts
 
     Reading input from espresso.pwi
Warning: card &CELL ignored
Warning: card / ignored
Warning: card &FCP ignored
Warning: card / ignored
Warning: card &RISM ignored
Warning: card / ignored

     Current dimensions of program PWSCF are:
     Max number of different atomic species (ntypx) = 10
     Max number of k-points (npk) =  40000
     Max angular momentum in pseudopotentials (lmaxx) =  4
     file O.pbe-n-kjpaw_psl.0.1.UPF: wavefunction(s)  2P renormalized
     signal trapping enabled: kill the code with -SIGUSR1 to stop cleanly the simulation 
 
     K-points division:     npool     =       2
     R & G space division:  proc/nbgrp/npool/nimage =      24
     Subspace diagonalization in iterative solution of the eigenvalue problem:
     one sub-group per band group will be used
     scalapack distributed-memory algorithm (size of sub-group:  3*  3 procs)

 
     Parallelization info
     --------------------
     sticks:   dense  smooth     PW     G-vecs:    dense   smooth      PW
     Min         350     175     47                61430    21716    3036
     Max         351     177     48                61449    21727    3041
     Sum        8421    4205   1137              1474595   521381   72913
 
     Using Slab Decomposition
 


     bravais-lattice index     =            0
     lattice parameter (alat)  =      14.8599  a.u.
     unit-cell volume          =    8305.1283 (a.u.)^3
     number of atoms/cell      =           49
     number of atomic types    =            4
     number of electrons       =       425.00
     number of Kohn-Sham states=          256
     kinetic-energy cutoff     =      60.0000  Ry
     charge density cutoff     =     480.0000  Ry
     scf convergence threshold =      1.0E-08
     mixing beta               =       0.1500
     number of iterations used =            8  local-TF  mixing
     Exchange-correlation= PBE
                           (   1   4   3   4   0   0   0)

     celldm(1)=  14.859904  celldm(2)=   0.000000  celldm(3)=   0.000000
     celldm(4)=   0.000000  celldm(5)=   0.000000  celldm(6)=   0.000000

     crystal axes: (cart. coord. in units of alat)
               a(1) = (   1.000000   0.000000   0.000000 )  
               a(2) = (   0.000000   1.000000   0.000000 )  
               a(3) = (   0.000000   0.000000   2.531036 )  

     reciprocal axes: (cart. coord. in units 2 pi/alat)
               b(1) = (  1.000000  0.000000  0.000000 )  
               b(2) = (  0.000000  1.000000  0.000000 )  
               b(3) = (  0.000000  0.000000  0.395095 )  


     PseudoPot. # 1 for Sr read from file:
     /bsuhome/zayahcortright/q-e/pseudo/Sr_pbe_v1.uspp.F.UPF
     MD5 check sum: 6b418c05fbe9db5448babca5e47b7a5b
     Pseudo is Ultrasoft + core correction, Zval = 10.0
     Generated by new atomic code, or converted to UPF format
     Using radial grid of  883 points,  6 beta functions with: 
                l(1) =   0
                l(2) =   0
                l(3) =   1
                l(4) =   1
                l(5) =   2
                l(6) =   2
     Q(r) pseudized with  6 coefficients,  rinner =    1.400   1.400   1.400
                                                       1.400   1.400

     PseudoPot. # 2 for O  read from file:
     /bsuhome/zayahcortright/q-e/pseudo/O.pbe-n-kjpaw_psl.0.1.UPF
     MD5 check sum: 0234752ac141de4415c5fc33072bef88
     Pseudo is Projector augmented-wave + core cor, Zval =  6.0
     Generated using "atomic" code by A. Dal Corso  v.5.0.99 svn rev. 10869
     Shape of augmentation charge: BESSEL
     Using radial grid of 1095 points,  4 beta functions with: 
                l(1) =   0
                l(2) =   0
                l(3) =   1
                l(4) =   1
     Q(r) pseudized with 0 coefficients 


     PseudoPot. # 3 for Co read from file:
     /bsuhome/zayahcortright/q-e/pseudo/Co_pbe_v1.2.uspp.F.UPF
     MD5 check sum: 5f91765df6ddd3222702df6e7b74a16d
     Pseudo is Ultrasoft + core correction, Zval = 17.0
     Generated by new atomic code, or converted to UPF format
     Using radial grid of  863 points,  6 beta functions with: 
                l(1) =   0
                l(2) =   0
                l(3) =   1
                l(4) =   1
                l(5) =   2
                l(6) =   2
     Q(r) pseudized with  8 coefficients,  rinner =    1.200   1.200   1.200
                                                       1.200   1.200

     PseudoPot. # 4 for H  read from file:
     /bsuhome/zayahcortright/q-e/pseudo/H.pbe-rrkjus_psl.1.0.0.UPF
     MD5 check sum: f52b6d4d1c606e5624b1dc7b2218f220
     Pseudo is Ultrasoft, Zval =  1.0
     Generated using "atomic" code by A. Dal Corso  v.5.1
     Using radial grid of  929 points,  2 beta functions with: 
                l(1) =   0
                l(2) =   0
     Q(r) pseudized with 0 coefficients 


     atomic species   valence    mass     pseudopotential
        Sr            10.00    87.62000     Sr( 1.00)
        O              6.00    15.99900     O ( 1.00)
        Co            17.00    58.93319     Co( 1.00)
        H              1.00     1.00800     H ( 1.00)

     No symmetry found


                                    s                        frac. trans.

      isym =  1     identity                                     

 cryst.   s( 1) = (     1          0          0      )
                  (     0          1          0      )
                  (     0          0          1      )

 cart.    s( 1) = (  1.0000000  0.0000000  0.0000000 )
                  (  0.0000000  1.0000000  0.0000000 )
                  (  0.0000000  0.0000000  1.0000000 )


   Cartesian axes

     site n.     atom                  positions (alat units)
         1           Sr  tau(   1) = (   0.2508693   0.7491307   1.7574407  )
         2           O   tau(   2) = (   0.4985141   0.5014859   1.7715967  )
         3           Sr  tau(   3) = (   0.7482398   0.7454518   1.7648669  )
         4           Sr  tau(   4) = (   0.7441748   0.2558252   1.7667843  )
         5           Sr  tau(   5) = (   0.2508693   0.7491307   1.2696799  )
         6           Sr  tau(   6) = (   0.2508693   0.7491307   0.7632319  )
         7           Co  tau(   7) = (   0.4998914   0.5001086   1.0164559  )
         8           Co  tau(   8) = (   0.4936915   0.5063085   1.5135603  )
         9           O   tau(   9) = (   0.4988895   0.7610401   1.0164559  )
        10           O   tau(  10) = (   0.2389599   0.5011105   1.0164559  )
        11           O   tau(  11) = (   0.0070918   0.7374880   1.0164559  )
        12           O   tau(  12) = (   0.0088340   0.7405089   1.5135603  )
        13           O   tau(  13) = (   0.5066944   0.7415376   1.5135603  )
        14           O   tau(  14) = (   0.2584624   0.4933056   1.5135603  )
        15           O   tau(  15) = (   0.4985141   0.5014859   0.7773880  )
        16           O   tau(  16) = (   0.4985141   0.5014859   1.2555238  )
        17           Sr  tau(  17) = (   0.7482398   0.7454518   0.7706582  )
        18           Sr  tau(  18) = (   0.7482398   0.7454518   1.2622536  )
        19           Sr  tau(  19) = (   0.7441748   0.2558252   0.7725755  )
        20           Sr  tau(  20) = (   0.7441748   0.2558252   1.2603363  )
        21           O   tau(  21) = (   0.7322655   0.0078049   1.5135603  )
        22           O   tau(  22) = (   0.7558175   0.4996027   1.5135603  )
        23           O   tau(  23) = (   0.5003973   0.2441825   1.5135603  )
        24           O   tau(  24) = (   0.7527966   0.4978604   1.0164559  )
        25           O   tau(  25) = (   0.5021396   0.2472034   1.0164559  )
        26           O   tau(  26) = (   0.7517679   0.0000000   1.0164559  )
        27           O   tau(  27) = (   0.0114961   0.4948124   1.7455321  )
        28           O   tau(  28) = (   0.0048226   0.0077944   1.7715967  )
        29           Sr  tau(  29) = (   0.2545482   0.2517602   1.7648669  )
        30           O   tau(  30) = (   0.5048017   0.0015068   1.7786929  )
        31           Co  tau(  31) = (   0.0056869   0.5006215   1.0164559  )
        32           Co  tau(  32) = (   0.0065315   0.4997770   1.5135603  )
        33           Co  tau(  33) = (   0.0061999   0.0064171   1.0164559  )
        34           Co  tau(  34) = (   0.0000000   0.0126169   1.5135603  )
        35           O   tau(  35) = (   0.0114961   0.4948124   1.2815885  )
        36           O   tau(  36) = (   0.0114961   0.4948124   0.7513233  )
        37           O   tau(  37) = (   0.0051979   0.2673486   1.0164559  )
        38           O   tau(  38) = (   0.0130029   0.2478461   1.5135603  )
        39           O   tau(  39) = (   0.0048226   0.0077944   0.7773880  )
        40           O   tau(  40) = (   0.0048226   0.0077944   1.2555238  )
        41           Sr  tau(  41) = (   0.2545482   0.2517602   0.7706582  )
        42           Sr  tau(  42) = (   0.2545482   0.2517602   1.2622536  )
        43           Co  tau(  43) = (   0.4989925   0.0073160   1.5135603  )
        44           Co  tau(  44) = (   0.4998370   0.0064714   1.0164559  )
        45           O   tau(  45) = (   0.5048017   0.0015068   0.7844841  )
        46           O   tau(  46) = (   0.5048017   0.0015068   1.2484277  )
        47           O   tau(  47) = (   0.2621260   0.0059111   1.5135603  )
        48           O   tau(  48) = (   0.2591051   0.0041689   1.0164559  )
        49           H   tau(  49) = (   0.8529874   0.1421646   2.1602013  )

   Crystallographic axes

     site n.     atom                  positions (cryst. coord.)
         1           Sr  tau(   1) = (  0.2508693  0.7491307  0.6943562  )
         2           O   tau(   2) = (  0.4985141  0.5014859  0.6999492  )
         3           Sr  tau(   3) = (  0.7482398  0.7454518  0.6972903  )
         4           Sr  tau(   4) = (  0.7441748  0.2558252  0.6980478  )
         5           Sr  tau(   5) = (  0.2508693  0.7491307  0.5016443  )
         6           Sr  tau(   6) = (  0.2508693  0.7491307  0.3015492  )
         7           Co  tau(   7) = (  0.4998914  0.5001086  0.4015968  )
         8           Co  tau(   8) = (  0.4936915  0.5063085  0.5980003  )
         9           O   tau(   9) = (  0.4988895  0.7610401  0.4015968  )
        10           O   tau(  10) = (  0.2389599  0.5011105  0.4015968  )
        11           O   tau(  11) = (  0.0070918  0.7374880  0.4015968  )
        12           O   tau(  12) = (  0.0088340  0.7405089  0.5980003  )
        13           O   tau(  13) = (  0.5066944  0.7415376  0.5980003  )
        14           O   tau(  14) = (  0.2584624  0.4933056  0.5980003  )
        15           O   tau(  15) = (  0.4985141  0.5014859  0.3071422  )
        16           O   tau(  16) = (  0.4985141  0.5014859  0.4960513  )
        17           Sr  tau(  17) = (  0.7482398  0.7454518  0.3044833  )
        18           Sr  tau(  18) = (  0.7482398  0.7454518  0.4987103  )
        19           Sr  tau(  19) = (  0.7441748  0.2558252  0.3052408  )
        20           Sr  tau(  20) = (  0.7441748  0.2558252  0.4979527  )
        21           O   tau(  21) = (  0.7322655  0.0078049  0.5980003  )
        22           O   tau(  22) = (  0.7558175  0.4996027  0.5980003  )
        23           O   tau(  23) = (  0.5003973  0.2441825  0.5980003  )
        24           O   tau(  24) = (  0.7527966  0.4978604  0.4015968  )
        25           O   tau(  25) = (  0.5021396  0.2472034  0.4015968  )
        26           O   tau(  26) = (  0.7517679  0.0000000  0.4015968  )
        27           O   tau(  27) = (  0.0114961  0.4948124  0.6896512  )
        28           O   tau(  28) = (  0.0048226  0.0077944  0.6999492  )
        29           Sr  tau(  29) = (  0.2545482  0.2517602  0.6972903  )
        30           O   tau(  30) = (  0.5048017  0.0015068  0.7027529  )
        31           Co  tau(  31) = (  0.0056869  0.5006215  0.4015968  )
        32           Co  tau(  32) = (  0.0065315  0.4997770  0.5980003  )
        33           Co  tau(  33) = (  0.0061999  0.0064171  0.4015968  )
        34           Co  tau(  34) = (  0.0000000  0.0126169  0.5980003  )
        35           O   tau(  35) = (  0.0114961  0.4948124  0.5063494  )
        36           O   tau(  36) = (  0.0114961  0.4948124  0.2968442  )
        37           O   tau(  37) = (  0.0051979  0.2673486  0.4015968  )
        38           O   tau(  38) = (  0.0130029  0.2478461  0.5980003  )
        39           O   tau(  39) = (  0.0048226  0.0077944  0.3071422  )
        40           O   tau(  40) = (  0.0048226  0.0077944  0.4960513  )
        41           Sr  tau(  41) = (  0.2545482  0.2517602  0.3044833  )
        42           Sr  tau(  42) = (  0.2545482  0.2517602  0.4987103  )
        43           Co  tau(  43) = (  0.4989925  0.0073160  0.5980003  )
        44           Co  tau(  44) = (  0.4998370  0.0064714  0.4015968  )
        45           O   tau(  45) = (  0.5048017  0.0015068  0.3099459  )
        46           O   tau(  46) = (  0.5048017  0.0015068  0.4932477  )
        47           O   tau(  47) = (  0.2621260  0.0059111  0.5980003  )
        48           O   tau(  48) = (  0.2591051  0.0041689  0.4015968  )
        49           H   tau(  49) = (  0.8529874  0.1421646  0.8534850  )

     number of k points=    10  Gaussian smearing, width (Ry)=  0.0700
                       cart. coord. in units 2pi/alat
        k(    1) = (   0.0000000   0.0000000   0.0000000), wk =   0.1250000
        k(    2) = (   0.0000000   0.2500000   0.0000000), wk =   0.2500000
        k(    3) = (   0.0000000  -0.5000000   0.0000000), wk =   0.1250000
        k(    4) = (   0.2500000   0.2500000   0.0000000), wk =   0.2500000
        k(    5) = (   0.2500000  -0.5000000   0.0000000), wk =   0.2500000
        k(    6) = (  -0.5000000  -0.5000000   0.0000000), wk =   0.1250000
        k(    7) = (   0.2500000   0.0000000   0.0000000), wk =   0.2500000
        k(    8) = (  -0.5000000   0.0000000   0.0000000), wk =   0.1250000
        k(    9) = (  -0.2500000   0.2500000   0.0000000), wk =   0.2500000
        k(   10) = (  -0.5000000   0.2500000   0.0000000), wk =   0.2500000

                       cryst. coord.
        k(    1) = (   0.0000000   0.0000000   0.0000000), wk =   0.1250000
        k(    2) = (   0.0000000   0.2500000   0.0000000), wk =   0.2500000
        k(    3) = (   0.0000000  -0.5000000   0.0000000), wk =   0.1250000
        k(    4) = (   0.2500000   0.2500000   0.0000000), wk =   0.2500000
        k(    5) = (   0.2500000  -0.5000000   0.0000000), wk =   0.2500000
        k(    6) = (  -0.5000000  -0.5000000   0.0000000), wk =   0.1250000
        k(    7) = (   0.2500000   0.0000000   0.0000000), wk =   0.2500000
        k(    8) = (  -0.5000000   0.0000000   0.0000000), wk =   0.1250000
        k(    9) = (  -0.2500000   0.2500000   0.0000000), wk =   0.2500000
        k(   10) = (  -0.5000000   0.2500000   0.0000000), wk =   0.2500000

     Dense  grid:  1474595 G-vectors     FFT dimensions: ( 108, 108, 270)

     Smooth grid:   521381 G-vectors     FFT dimensions: (  75,  75, 192)

     Dynamical RAM for                 wfc:      10.61 MB

     Dynamical RAM for     wfc (w. buffer):      63.63 MB

     Dynamical RAM for           str. fact:       3.75 MB

     Dynamical RAM for           local pot:       0.00 MB

     Dynamical RAM for          nlocal pot:      24.28 MB

     Dynamical RAM for                qrad:       7.03 MB

     Dynamical RAM for          rho,v,vnew:       6.02 MB

     Dynamical RAM for               rhoin:       2.01 MB

     Dynamical RAM for            rho*nmix:      15.00 MB

     Dynamical RAM for           G-vectors:       3.68 MB

     Dynamical RAM for          h,s,v(r/c):       1.32 MB

     Dynamical RAM for          <psi|beta>:       2.29 MB

     Dynamical RAM for                 psi:      21.21 MB

     Dynamical RAM for                hpsi:      21.21 MB

     Dynamical RAM for                spsi:      21.21 MB

     Dynamical RAM for      wfcinit/wfcrot:      34.09 MB

     Dynamical RAM for           addusdens:     100.79 MB

     Estimated static dynamical RAM per process >     120.42 MB

     Estimated max dynamical RAM per process >     236.21 MB

     Estimated total dynamical RAM >      10.72 GB

     Check: negative core charge=   -0.000004

     Initial potential from superposition of free atoms

     starting charge     416.5961, renormalised to     425.0000

     negative rho (up, down):  7.826E-01 0.000E+00
     Starting wfcs are  373 randomized atomic wfcs
     Checking if some PAW data can be deallocated... 
       PAW data deallocated on   20 nodes for type:  2

     total cpu time spent up to now is        8.8 secs

     Self-consistent Calculation

     iteration #  1     ecut=    60.00 Ry     beta= 0.15
     Davidson diagonalization with overlap

---- Real-time Memory Report at c_bands before calling an iterative solver
             0 MiB given to the printing process from OS
             0 MiB allocation reported by mallinfo(arena+hblkhd)
        170486 MiB available memory on the node where the printing process lives
------------------
     ethr =  1.00E-02,  avg # of iterations =  2.0

     negative rho (up, down):  7.719E-01 0.000E+00

     total cpu time spent up to now is       23.5 secs

     total energy              =   -4404.77055446 Ry
     estimated scf accuracy    <      42.19033570 Ry

     iteration #  2     ecut=    60.00 Ry     beta= 0.15
     Davidson diagonalization with overlap

---- Real-time Memory Report at c_bands before calling an iterative solver
             0 MiB given to the printing process from OS
             0 MiB allocation reported by mallinfo(arena+hblkhd)
        170692 MiB available memory on the node where the printing process lives
------------------
     ethr =  9.93E-03,  avg # of iterations =  1.0

     negative rho (up, down):  7.532E-01 0.000E+00

     total cpu time spent up to now is       36.0 secs

     total energy              =   -4400.01420983 Ry
     estimated scf accuracy    <      26.70545561 Ry

     iteration #  3     ecut=    60.00 Ry     beta= 0.15
     Davidson diagonalization with overlap

---- Real-time Memory Report at c_bands before calling an iterative solver
             0 MiB given to the printing process from OS
             0 MiB allocation reported by mallinfo(arena+hblkhd)
        169951 MiB available memory on the node where the printing process lives
------------------
     ethr =  6.28E-03,  avg # of iterations =  2.0

     negative rho (up, down):  7.544E-01 0.000E+00

     total cpu time spent up to now is       49.9 secs

     total energy              =   -4402.38962709 Ry
     estimated scf accuracy    <      49.49611295 Ry

     iteration #  4     ecut=    60.00 Ry     beta= 0.15
     Davidson diagonalization with overlap

---- Real-time Memory Report at c_bands before calling an iterative solver
             0 MiB given to the printing process from OS
             0 MiB allocation reported by mallinfo(arena+hblkhd)
        169831 MiB available memory on the node where the printing process lives
------------------
     ethr =  6.28E-03,  avg # of iterations =  1.0

     negative rho (up, down):  7.410E-01 0.000E+00

     total cpu time spent up to now is       62.0 secs

     total energy              =   -4401.66083781 Ry
     estimated scf accuracy    <      29.57256074 Ry

     iteration #  5     ecut=    60.00 Ry     beta= 0.15
     Davidson diagonalization with overlap

---- Real-time Memory Report at c_bands before calling an iterative solver
             0 MiB given to the printing process from OS
             0 MiB allocation reported by mallinfo(arena+hblkhd)
        169812 MiB available memory on the node where the printing process lives
------------------
     ethr =  6.28E-03,  avg # of iterations =  1.0

     negative rho (up, down):  7.470E-01 0.000E+00

     total cpu time spent up to now is       74.1 secs

     total energy              =   -4399.80982699 Ry
     estimated scf accuracy    <      44.48975194 Ry

     iteration #  6     ecut=    60.00 Ry     beta= 0.15
     Davidson diagonalization with overlap

---- Real-time Memory Report at c_bands before calling an iterative solver
             0 MiB given to the printing process from OS
             0 MiB allocation reported by mallinfo(arena+hblkhd)
        169795 MiB available memory on the node where the printing process lives
------------------
     ethr =  6.28E-03,  avg # of iterations =  1.0

     negative rho (up, down):  7.421E-01 0.000E+00

     total cpu time spent up to now is       86.3 secs

     total energy              =   -4400.66425324 Ry
     estimated scf accuracy    <      11.85303494 Ry

     iteration #  7     ecut=    60.00 Ry     beta= 0.15
     Davidson diagonalization with overlap

---- Real-time Memory Report at c_bands before calling an iterative solver
             0 MiB given to the printing process from OS
             0 MiB allocation reported by mallinfo(arena+hblkhd)
        169776 MiB available memory on the node where the printing process lives
------------------
     ethr =  2.79E-03,  avg # of iterations =  1.1

     negative rho (up, down):  7.442E-01 0.000E+00

     total cpu time spent up to now is       99.0 secs

     total energy              =   -4400.81578717 Ry
     estimated scf accuracy    <       4.01698777 Ry

     iteration #  8     ecut=    60.00 Ry     beta= 0.15
     Davidson diagonalization with overlap

---- Real-time Memory Report at c_bands before calling an iterative solver
             0 MiB given to the printing process from OS
             0 MiB allocation reported by mallinfo(arena+hblkhd)
        169754 MiB available memory on the node where the printing process lives
------------------
     ethr =  9.45E-04,  avg # of iterations =  1.7

     negative rho (up, down):  7.538E-01 0.000E+00

     total cpu time spent up to now is      112.0 secs

     total energy              =   -4400.30761832 Ry
     estimated scf accuracy    <       3.34511398 Ry

     iteration #  9     ecut=    60.00 Ry     beta= 0.15
     Davidson diagonalization with overlap

---- Real-time Memory Report at c_bands before calling an iterative solver
             0 MiB given to the printing process from OS
             0 MiB allocation reported by mallinfo(arena+hblkhd)
        169723 MiB available memory on the node where the printing process lives
------------------
     ethr =  7.87E-04,  avg # of iterations =  4.1

     negative rho (up, down):  7.759E-01 0.000E+00

     total cpu time spent up to now is      127.3 secs

     total energy              =   -4399.74124927 Ry
     estimated scf accuracy    <      45.31926809 Ry

     iteration # 10     ecut=    60.00 Ry     beta= 0.15
     Davidson diagonalization with overlap

---- Real-time Memory Report at c_bands before calling an iterative solver
             0 MiB given to the printing process from OS
             0 MiB allocation reported by mallinfo(arena+hblkhd)
        169614 MiB available memory on the node where the printing process lives
------------------
     ethr =  7.87E-04,  avg # of iterations =  9.3

     negative rho (up, down):  7.778E-01 0.000E+00

     total cpu time spent up to now is      145.5 secs

     total energy              =   -4399.83389302 Ry
     estimated scf accuracy    <      11.57473487 Ry

     iteration # 11     ecut=    60.00 Ry     beta= 0.15
     Davidson diagonalization with overlap

---- Real-time Memory Report at c_bands before calling an iterative solver
             0 MiB given to the printing process from OS
             0 MiB allocation reported by mallinfo(arena+hblkhd)
        169289 MiB available memory on the node where the printing process lives
------------------
     ethr =  7.87E-04,  avg # of iterations =  1.0

     negative rho (up, down):  7.812E-01 0.000E+00

     total cpu time spent up to now is      157.5 secs

     total energy              =   -4400.11524553 Ry
     estimated scf accuracy    <       1.36594090 Ry

     iteration # 12     ecut=    60.00 Ry     beta= 0.15
     Davidson diagonalization with overlap

---- Real-time Memory Report at c_bands before calling an iterative solver
             0 MiB given to the printing process from OS
             0 MiB allocation reported by mallinfo(arena+hblkhd)
        169326 MiB available memory on the node where the printing process lives
------------------
     ethr =  3.21E-04,  avg # of iterations =  1.2

     negative rho (up, down):  7.889E-01 0.000E+00

     total cpu time spent up to now is      169.9 secs

     total energy              =   -4400.10780610 Ry
     estimated scf accuracy    <       0.89302931 Ry

     iteration # 13     ecut=    60.00 Ry     beta= 0.15
     Davidson diagonalization with overlap

---- Real-time Memory Report at c_bands before calling an iterative solver
             0 MiB given to the printing process from OS
             0 MiB allocation reported by mallinfo(arena+hblkhd)
        169329 MiB available memory on the node where the printing process lives
------------------
     ethr =  2.10E-04,  avg # of iterations =  4.6

     negative rho (up, down):  8.005E-01 0.000E+00

     total cpu time spent up to now is      184.9 secs

     total energy              =   -4400.10365136 Ry
     estimated scf accuracy    <       1.91904943 Ry

     iteration # 14     ecut=    60.00 Ry     beta= 0.15
     Davidson diagonalization with overlap

---- Real-time Memory Report at c_bands before calling an iterative solver
             0 MiB given to the printing process from OS
             0 MiB allocation reported by mallinfo(arena+hblkhd)
        169311 MiB available memory on the node where the printing process lives
------------------
     ethr =  2.10E-04,  avg # of iterations =  6.7

     negative rho (up, down):  8.037E-01 0.000E+00

     total cpu time spent up to now is      200.4 secs

     total energy              =   -4400.00384570 Ry
     estimated scf accuracy    <       2.14215678 Ry

     iteration # 15     ecut=    60.00 Ry     beta= 0.15
     Davidson diagonalization with overlap

---- Real-time Memory Report at c_bands before calling an iterative solver
             0 MiB given to the printing process from OS
             0 MiB allocation reported by mallinfo(arena+hblkhd)
        169292 MiB available memory on the node where the printing process lives
------------------
     ethr =  2.10E-04,  avg # of iterations =  5.2

     negative rho (up, down):  8.083E-01 0.000E+00

     total cpu time spent up to now is      215.5 secs

     total energy              =   -4400.04192546 Ry
     estimated scf accuracy    <       0.36952671 Ry

     iteration # 16     ecut=    60.00 Ry     beta= 0.15
     Davidson diagonalization with overlap

---- Real-time Memory Report at c_bands before calling an iterative solver
             0 MiB given to the printing process from OS
             0 MiB allocation reported by mallinfo(arena+hblkhd)
        169294 MiB available memory on the node where the printing process lives
------------------
     ethr =  8.69E-05,  avg # of iterations =  9.0

     negative rho (up, down):  8.135E-01 0.000E+00

     total cpu time spent up to now is      232.1 secs

     total energy              =   -4400.01706832 Ry
     estimated scf accuracy    <       0.30073926 Ry

     iteration # 17     ecut=    60.00 Ry     beta= 0.15
     Davidson diagonalization with overlap

---- Real-time Memory Report at c_bands before calling an iterative solver
             0 MiB given to the printing process from OS
             0 MiB allocation reported by mallinfo(arena+hblkhd)
        169260 MiB available memory on the node where the printing process lives
------------------
     c_bands:  1 eigenvalues not converged
     ethr =  7.08E-05,  avg # of iterations =  7.8

     negative rho (up, down):  8.171E-01 0.000E+00

     total cpu time spent up to now is      248.4 secs

     total energy              =   -4399.95107828 Ry
     estimated scf accuracy    <       0.26774154 Ry

     iteration # 18     ecut=    60.00 Ry     beta= 0.15
     Davidson diagonalization with overlap

---- Real-time Memory Report at c_bands before calling an iterative solver
             0 MiB given to the printing process from OS
             0 MiB allocation reported by mallinfo(arena+hblkhd)
        169255 MiB available memory on the node where the printing process lives
------------------
     ethr =  6.30E-05,  avg # of iterations =  9.1

     negative rho (up, down):  8.178E-01 0.000E+00

     total cpu time spent up to now is      265.8 secs

     total energy              =   -4399.94374295 Ry
     estimated scf accuracy    <       0.24602503 Ry

     iteration # 19     ecut=    60.00 Ry     beta= 0.15
     Davidson diagonalization with overlap

---- Real-time Memory Report at c_bands before calling an iterative solver
             0 MiB given to the printing process from OS
             0 MiB allocation reported by mallinfo(arena+hblkhd)
        169217 MiB available memory on the node where the printing process lives
------------------
     ethr =  5.79E-05,  avg # of iterations =  5.3

     negative rho (up, down):  8.178E-01 0.000E+00

     total cpu time spent up to now is      281.4 secs

     total energy              =   -4399.94605219 Ry
     estimated scf accuracy    <       0.11651870 Ry

     iteration # 20     ecut=    60.00 Ry     beta= 0.15
     Davidson diagonalization with overlap

---- Real-time Memory Report at c_bands before calling an iterative solver
             0 MiB given to the printing process from OS
             0 MiB allocation reported by mallinfo(arena+hblkhd)
        169223 MiB available memory on the node where the printing process lives
------------------
     ethr =  2.74E-05,  avg # of iterations =  5.7

     negative rho (up, down):  8.114E-01 0.000E+00

     total cpu time spent up to now is      296.6 secs

     total energy              =   -4399.93153117 Ry
     estimated scf accuracy    <       0.08695840 Ry

     iteration # 21     ecut=    60.00 Ry     beta= 0.15
     Davidson diagonalization with overlap

---- Real-time Memory Report at c_bands before calling an iterative solver
             0 MiB given to the printing process from OS
             0 MiB allocation reported by mallinfo(arena+hblkhd)
        169222 MiB available memory on the node where the printing process lives
------------------
     ethr =  2.05E-05,  avg # of iterations = 10.0

     negative rho (up, down):  8.083E-01 0.000E+00

     total cpu time spent up to now is      314.1 secs

     total energy              =   -4399.92337583 Ry
     estimated scf accuracy    <       0.05269743 Ry

     iteration # 22     ecut=    60.00 Ry     beta= 0.15
     Davidson diagonalization with overlap

---- Real-time Memory Report at c_bands before calling an iterative solver
             0 MiB given to the printing process from OS
             0 MiB allocation reported by mallinfo(arena+hblkhd)
        169188 MiB available memory on the node where the printing process lives
------------------
     c_bands:  1 eigenvalues not converged
     ethr =  1.24E-05,  avg # of iterations = 12.6

     negative rho (up, down):  8.020E-01 0.000E+00

     total cpu time spent up to now is      333.2 secs

     total energy              =   -4399.92267017 Ry
     estimated scf accuracy    <       0.02685346 Ry

     iteration # 23     ecut=    60.00 Ry     beta= 0.15
     Davidson diagonalization with overlap

---- Real-time Memory Report at c_bands before calling an iterative solver
             0 MiB given to the printing process from OS
             0 MiB allocation reported by mallinfo(arena+hblkhd)
        169193 MiB available memory on the node where the printing process lives
------------------
     ethr =  6.32E-06,  avg # of iterations =  6.5

     negative rho (up, down):  7.984E-01 0.000E+00

     total cpu time spent up to now is      348.5 secs

     total energy              =   -4399.92075938 Ry
     estimated scf accuracy    <       0.01871761 Ry

     iteration # 24     ecut=    60.00 Ry     beta= 0.15
     Davidson diagonalization with overlap

---- Real-time Memory Report at c_bands before calling an iterative solver
             0 MiB given to the printing process from OS
             0 MiB allocation reported by mallinfo(arena+hblkhd)
        169205 MiB available memory on the node where the printing process lives
------------------
     ethr =  4.40E-06,  avg # of iterations = 10.1

     negative rho (up, down):  7.955E-01 0.000E+00

     total cpu time spent up to now is      366.4 secs

     total energy              =   -4399.92071251 Ry
     estimated scf accuracy    <       0.01071352 Ry

     iteration # 25     ecut=    60.00 Ry     beta= 0.15
     Davidson diagonalization with overlap

---- Real-time Memory Report at c_bands before calling an iterative solver
             0 MiB given to the printing process from OS
             0 MiB allocation reported by mallinfo(arena+hblkhd)
        169114 MiB available memory on the node where the printing process lives
------------------
     ethr =  2.52E-06,  avg # of iterations =  2.8

     negative rho (up, down):  7.921E-01 0.000E+00

     total cpu time spent up to now is      380.8 secs

     total energy              =   -4399.91986611 Ry
     estimated scf accuracy    <       0.00867954 Ry

     iteration # 26     ecut=    60.00 Ry     beta= 0.15
     Davidson diagonalization with overlap

---- Real-time Memory Report at c_bands before calling an iterative solver
             0 MiB given to the printing process from OS
             0 MiB allocation reported by mallinfo(arena+hblkhd)
        169204 MiB available memory on the node where the printing process lives
------------------
     ethr =  2.04E-06,  avg # of iterations =  5.2

     negative rho (up, down):  7.922E-01 0.000E+00

     total cpu time spent up to now is      396.3 secs

     total energy              =   -4399.91970765 Ry
     estimated scf accuracy    <       0.00451946 Ry

     iteration # 27     ecut=    60.00 Ry     beta= 0.15
     Davidson diagonalization with overlap

---- Real-time Memory Report at c_bands before calling an iterative solver
             0 MiB given to the printing process from OS
             0 MiB allocation reported by mallinfo(arena+hblkhd)
        169197 MiB available memory on the node where the printing process lives
------------------
     ethr =  1.06E-06,  avg # of iterations =  6.8

     negative rho (up, down):  7.940E-01 0.000E+00

     total cpu time spent up to now is      412.8 secs

     total energy              =   -4399.91976652 Ry
     estimated scf accuracy    <       0.00227407 Ry

     iteration # 28     ecut=    60.00 Ry     beta= 0.15
     Davidson diagonalization with overlap

---- Real-time Memory Report at c_bands before calling an iterative solver
             0 MiB given to the printing process from OS
             0 MiB allocation reported by mallinfo(arena+hblkhd)
        169175 MiB available memory on the node where the printing process lives
------------------
     ethr =  5.35E-07,  avg # of iterations =  4.2

     negative rho (up, down):  7.917E-01 0.000E+00

     total cpu time spent up to now is      427.9 secs

     total energy              =   -4399.91953740 Ry
     estimated scf accuracy    <       0.00150326 Ry

     iteration # 29     ecut=    60.00 Ry     beta= 0.15
     Davidson diagonalization with overlap

---- Real-time Memory Report at c_bands before calling an iterative solver
             0 MiB given to the printing process from OS
             0 MiB allocation reported by mallinfo(arena+hblkhd)
        169235 MiB available memory on the node where the printing process lives
------------------
     c_bands:  1 eigenvalues not converged
     ethr =  3.54E-07,  avg # of iterations =  9.6

     negative rho (up, down):  7.914E-01 0.000E+00

     total cpu time spent up to now is      445.3 secs

     total energy              =   -4399.91953355 Ry
     estimated scf accuracy    <       0.00094945 Ry

     iteration # 30     ecut=    60.00 Ry     beta= 0.15
     Davidson diagonalization with overlap

---- Real-time Memory Report at c_bands before calling an iterative solver
             0 MiB given to the printing process from OS
             0 MiB allocation reported by mallinfo(arena+hblkhd)
        169197 MiB available memory on the node where the printing process lives
------------------
     c_bands:  1 eigenvalues not converged
     ethr =  2.23E-07,  avg # of iterations =  7.6

     negative rho (up, down):  7.925E-01 0.000E+00

     total cpu time spent up to now is      460.8 secs

     total energy              =   -4399.91955904 Ry
     estimated scf accuracy    <       0.00055117 Ry

     iteration # 31     ecut=    60.00 Ry     beta= 0.15
     Davidson diagonalization with overlap

---- Real-time Memory Report at c_bands before calling an iterative solver
             0 MiB given to the printing process from OS
             0 MiB allocation reported by mallinfo(arena+hblkhd)
        169196 MiB available memory on the node where the printing process lives
------------------
     ethr =  1.30E-07,  avg # of iterations =  7.0

     negative rho (up, down):  7.927E-01 0.000E+00

     total cpu time spent up to now is      477.1 secs

     total energy              =   -4399.91957489 Ry
     estimated scf accuracy    <       0.00027254 Ry

     iteration # 32     ecut=    60.00 Ry     beta= 0.15
     Davidson diagonalization with overlap

---- Real-time Memory Report at c_bands before calling an iterative solver
             0 MiB given to the printing process from OS
             0 MiB allocation reported by mallinfo(arena+hblkhd)
        169186 MiB available memory on the node where the printing process lives
------------------
     ethr =  6.41E-08,  avg # of iterations =  1.7

     negative rho (up, down):  7.927E-01 0.000E+00

     total cpu time spent up to now is      490.5 secs

     total energy              =   -4399.91955997 Ry
     estimated scf accuracy    <       0.00013832 Ry

     iteration # 33     ecut=    60.00 Ry     beta= 0.15
     Davidson diagonalization with overlap

---- Real-time Memory Report at c_bands before calling an iterative solver
             0 MiB given to the printing process from OS
             0 MiB allocation reported by mallinfo(arena+hblkhd)
        169169 MiB available memory on the node where the printing process lives
------------------
     ethr =  3.25E-08,  avg # of iterations =  6.1

     negative rho (up, down):  7.927E-01 0.000E+00

     total cpu time spent up to now is      505.6 secs

     total energy              =   -4399.91956661 Ry
     estimated scf accuracy    <       0.00004304 Ry

     iteration # 34     ecut=    60.00 Ry     beta= 0.15
     Davidson diagonalization with overlap

---- Real-time Memory Report at c_bands before calling an iterative solver
             0 MiB given to the printing process from OS
             0 MiB allocation reported by mallinfo(arena+hblkhd)
        169203 MiB available memory on the node where the printing process lives
------------------
     ethr =  1.01E-08,  avg # of iterations =  2.2

     negative rho (up, down):  7.927E-01 0.000E+00

     total cpu time spent up to now is      519.3 secs

     total energy              =   -4399.91957945 Ry
     estimated scf accuracy    <       0.00002051 Ry

     iteration # 35     ecut=    60.00 Ry     beta= 0.15
     Davidson diagonalization with overlap

---- Real-time Memory Report at c_bands before calling an iterative solver
             0 MiB given to the printing process from OS
             0 MiB allocation reported by mallinfo(arena+hblkhd)
        169254 MiB available memory on the node where the printing process lives
------------------
     ethr =  4.83E-09,  avg # of iterations =  4.7

     negative rho (up, down):  7.925E-01 0.000E+00

     total cpu time spent up to now is      533.8 secs

     total energy              =   -4399.91958124 Ry
     estimated scf accuracy    <       0.00001348 Ry

     iteration # 36     ecut=    60.00 Ry     beta= 0.15
     Davidson diagonalization with overlap

---- Real-time Memory Report at c_bands before calling an iterative solver
             0 MiB given to the printing process from OS
             0 MiB allocation reported by mallinfo(arena+hblkhd)
        169235 MiB available memory on the node where the printing process lives
------------------
     ethr =  3.17E-09,  avg # of iterations =  2.1

     negative rho (up, down):  7.924E-01 0.000E+00

     total cpu time spent up to now is      547.3 secs

     total energy              =   -4399.91958258 Ry
     estimated scf accuracy    <       0.00000752 Ry

     iteration # 37     ecut=    60.00 Ry     beta= 0.15
     Davidson diagonalization with overlap

---- Real-time Memory Report at c_bands before calling an iterative solver
             0 MiB given to the printing process from OS
             0 MiB allocation reported by mallinfo(arena+hblkhd)
        169238 MiB available memory on the node where the printing process lives
------------------
     ethr =  1.77E-09,  avg # of iterations =  2.1

     negative rho (up, down):  7.923E-01 0.000E+00

     total cpu time spent up to now is      561.0 secs

     total energy              =   -4399.91958214 Ry
     estimated scf accuracy    <       0.00000568 Ry

     iteration # 38     ecut=    60.00 Ry     beta= 0.15
     Davidson diagonalization with overlap

---- Real-time Memory Report at c_bands before calling an iterative solver
             0 MiB given to the printing process from OS
             0 MiB allocation reported by mallinfo(arena+hblkhd)
        169253 MiB available memory on the node where the printing process lives
------------------
     ethr =  1.34E-09,  avg # of iterations =  2.3

     negative rho (up, down):  7.923E-01 0.000E+00

     total cpu time spent up to now is      574.7 secs

     total energy              =   -4399.91958258 Ry
     estimated scf accuracy    <       0.00000407 Ry

     iteration # 39     ecut=    60.00 Ry     beta= 0.15
     Davidson diagonalization with overlap

---- Real-time Memory Report at c_bands before calling an iterative solver
             0 MiB given to the printing process from OS
             0 MiB allocation reported by mallinfo(arena+hblkhd)
        169257 MiB available memory on the node where the printing process lives
------------------
     ethr =  9.59E-10,  avg # of iterations =  1.6

     negative rho (up, down):  7.924E-01 0.000E+00

     total cpu time spent up to now is      587.6 secs

     total energy              =   -4399.91958268 Ry
     estimated scf accuracy    <       0.00000330 Ry

     iteration # 40     ecut=    60.00 Ry     beta= 0.15
     Davidson diagonalization with overlap

---- Real-time Memory Report at c_bands before calling an iterative solver
             0 MiB given to the printing process from OS
             0 MiB allocation reported by mallinfo(arena+hblkhd)
        169270 MiB available memory on the node where the printing process lives
------------------
     ethr =  7.77E-10,  avg # of iterations =  2.9

     negative rho (up, down):  7.924E-01 0.000E+00

     total cpu time spent up to now is      601.6 secs

     total energy              =   -4399.91958269 Ry
     estimated scf accuracy    <       0.00000115 Ry

     iteration # 41     ecut=    60.00 Ry     beta= 0.15
     Davidson diagonalization with overlap

---- Real-time Memory Report at c_bands before calling an iterative solver
             0 MiB given to the printing process from OS
             0 MiB allocation reported by mallinfo(arena+hblkhd)
        169273 MiB available memory on the node where the printing process lives
------------------
     ethr =  2.71E-10,  avg # of iterations =  2.1

     negative rho (up, down):  7.924E-01 0.000E+00

     total cpu time spent up to now is      616.2 secs

     total energy              =   -4399.91958277 Ry
     estimated scf accuracy    <       0.00000076 Ry

     iteration # 42     ecut=    60.00 Ry     beta= 0.15
     Davidson diagonalization with overlap

---- Real-time Memory Report at c_bands before calling an iterative solver
             0 MiB given to the printing process from OS
             0 MiB allocation reported by mallinfo(arena+hblkhd)
        169277 MiB available memory on the node where the printing process lives
------------------
     ethr =  1.80E-10,  avg # of iterations =  1.9

     negative rho (up, down):  7.924E-01 0.000E+00

     total cpu time spent up to now is      629.5 secs

     total energy              =   -4399.91958319 Ry
     estimated scf accuracy    <       0.00000056 Ry

     iteration # 43     ecut=    60.00 Ry     beta= 0.15
     Davidson diagonalization with overlap

---- Real-time Memory Report at c_bands before calling an iterative solver
             0 MiB given to the printing process from OS
             0 MiB allocation reported by mallinfo(arena+hblkhd)
        169280 MiB available memory on the node where the printing process lives
------------------
     ethr =  1.33E-10,  avg # of iterations =  3.2

     negative rho (up, down):  7.924E-01 0.000E+00

     total cpu time spent up to now is      643.6 secs

     total energy              =   -4399.91958327 Ry
     estimated scf accuracy    <       0.00000032 Ry

     iteration # 44     ecut=    60.00 Ry     beta= 0.15
     Davidson diagonalization with overlap

---- Real-time Memory Report at c_bands before calling an iterative solver
             0 MiB given to the printing process from OS
             0 MiB allocation reported by mallinfo(arena+hblkhd)
        169279 MiB available memory on the node where the printing process lives
------------------
     ethr =  7.55E-11,  avg # of iterations =  2.9

     negative rho (up, down):  7.924E-01 0.000E+00

     total cpu time spent up to now is      657.5 secs

     total energy              =   -4399.91958327 Ry
     estimated scf accuracy    <       0.00000020 Ry

     iteration # 45     ecut=    60.00 Ry     beta= 0.15
     Davidson diagonalization with overlap

---- Real-time Memory Report at c_bands before calling an iterative solver
             0 MiB given to the printing process from OS
             0 MiB allocation reported by mallinfo(arena+hblkhd)
        169277 MiB available memory on the node where the printing process lives
------------------
     ethr =  4.82E-11,  avg # of iterations =  3.5

     negative rho (up, down):  7.924E-01 0.000E+00

     total cpu time spent up to now is      671.7 secs

     total energy              =   -4399.91958320 Ry
     estimated scf accuracy    <       0.00000013 Ry

     iteration # 46     ecut=    60.00 Ry     beta= 0.15
     Davidson diagonalization with overlap

---- Real-time Memory Report at c_bands before calling an iterative solver
             0 MiB given to the printing process from OS
             0 MiB allocation reported by mallinfo(arena+hblkhd)
        169274 MiB available memory on the node where the printing process lives
------------------
     ethr =  2.98E-11,  avg # of iterations =  3.2

     negative rho (up, down):  7.924E-01 0.000E+00

     total cpu time spent up to now is      686.2 secs

     total energy              =   -4399.91958322 Ry
     estimated scf accuracy    <       0.00000003 Ry

     iteration # 47     ecut=    60.00 Ry     beta= 0.15
     Davidson diagonalization with overlap

---- Real-time Memory Report at c_bands before calling an iterative solver
             0 MiB given to the printing process from OS
             0 MiB allocation reported by mallinfo(arena+hblkhd)
        169277 MiB available memory on the node where the printing process lives
------------------
     ethr =  6.32E-12,  avg # of iterations =  2.2

     negative rho (up, down):  7.924E-01 0.000E+00

     total cpu time spent up to now is      700.1 secs

     total energy              =   -4399.91958324 Ry
     estimated scf accuracy    <       0.00000002 Ry

     iteration # 48     ecut=    60.00 Ry     beta= 0.15
     Davidson diagonalization with overlap

---- Real-time Memory Report at c_bands before calling an iterative solver
             0 MiB given to the printing process from OS
             0 MiB allocation reported by mallinfo(arena+hblkhd)
        169275 MiB available memory on the node where the printing process lives
------------------
     ethr =  3.58E-12,  avg # of iterations =  3.2

     negative rho (up, down):  7.924E-01 0.000E+00

     total cpu time spent up to now is      714.5 secs

     End of self-consistent calculation

          k = 0.0000 0.0000 0.0000 ( 65197 PWs)   bands (ev):

   -92.7281 -92.6749 -92.5820 -92.5348 -92.4752 -92.4344 -92.4173 -92.2946
   -56.0815 -56.0616 -55.9394 -55.9287 -55.9224 -55.9156 -55.8793 -55.8512
   -55.8360 -55.8339 -55.8254 -55.7828 -55.7655 -55.7266 -55.7085 -55.6753
   -55.6704 -55.6229 -55.6210 -55.6197 -55.6113 -55.5685 -55.5476 -55.4617
   -31.3041 -31.2849 -31.1422 -31.1352 -31.0560 -30.9846 -30.8264 -30.7951
   -29.8757 -29.8336 -29.8063 -29.6982 -15.1086 -15.0683 -14.9844 -14.8546
   -14.6634 -14.5419 -14.2461 -14.2296 -14.1988 -14.1512 -14.1081 -14.0955
   -14.0850 -14.0686 -14.0534 -14.0008 -13.9585 -13.8069 -13.6299 -13.5953
   -13.5639 -13.5333 -13.5171 -13.4626 -13.4294 -13.3484 -13.2770 -13.1611
   -13.1369 -13.1353 -13.1143 -13.1015 -13.0826 -13.0369 -13.0246 -13.0161
   -12.9791 -12.9506 -12.9362 -12.9291 -12.9047 -12.8822 -12.7992 -12.7946
   -12.7779 -12.7096 -12.6702 -12.6504 -12.3687 -12.2230 -12.0616 -11.9901
   -11.8895 -11.8154 -11.8039 -11.7818 -11.7641 -11.7002 -11.6826 -11.6487
   -11.6187 -11.5073 -11.4275 -11.4240  -2.9695  -2.7369  -2.5073  -2.3609
    -2.2975  -2.1551  -1.8482  -1.8339  -1.8139  -1.7301  -1.7108  -1.6425
    -1.6268  -1.5853  -1.5400  -1.3596  -1.1355  -1.1060  -0.9581  -0.9438
    -0.8994  -0.8786  -0.8346  -0.8189  -0.7618  -0.7346  -0.6632  -0.6510
    -0.5743  -0.4430  -0.4299  -0.4017  -0.3201  -0.3038  -0.2956  -0.2275
    -0.1567  -0.1173  -0.0605  -0.0348   0.0251   0.1056   0.1524   0.1764
     0.1847   0.4410   0.4575   0.6290   0.6953   0.7598   0.8063   0.8964
     0.9090   0.9267   0.9940   1.0209   1.0559   1.1133   1.2460   1.3017
     1.3237   1.3457   1.3566   1.4214   1.4941   1.5965   1.6114   1.6714
     1.6859   1.7285   1.7489   1.7542   1.8115   1.8648   1.8763   1.9109
     1.9463   1.9967   2.1287   2.2109   2.2557   2.2767   2.4229   2.4380
     2.4809   2.4857   2.5919   2.6290   2.6520   2.6733   2.6892   2.7531
     2.7961   2.8788   2.9120   2.9242   2.9304   2.9977   3.0013   3.0263
     3.0344   3.0423   3.0567   3.0623   3.0753   3.0802   3.0968   3.1033
     3.1087   3.1292   3.1504   3.1563   3.1675   3.1951   3.3083   3.4125
     4.0843   4.3980   4.7421   4.8552   5.0099   5.8498   5.9037   5.9589
     5.9951   6.2876   6.3342   6.4695   6.4790   6.7424   6.9922   7.0820
     7.1824   7.2885   7.3856   7.5910   7.6208   7.6428   7.6733   7.9225
     7.9702   8.0966   8.1438   8.1730   8.4379   8.5911   8.8212   8.8784

     occupation numbers 
     1.0000   1.0000   1.0000   1.0000   1.0000   1.0000   1.0000   1.0000
     1.0000   1.0000   1.0000   1.0000   1.0000   1.0000   1.0000   1.0000
     1.0000   1.0000   1.0000   1.0000   1.0000   1.0000   1.0000   1.0000
     1.0000   1.0000   1.0000   1.0000   1.0000   1.0000   1.0000   1.0000
     1.0000   1.0000   1.0000   1.0000   1.0000   1.0000   1.0000   1.0000
     1.0000   1.0000   1.0000   1.0000   1.0000   1.0000   1.0000   1.0000
     1.0000   1.0000   1.0000   1.0000   1.0000   1.0000   1.0000   1.0000
     1.0000   1.0000   1.0000   1.0000   1.0000   1.0000   1.0000   1.0000
     1.0000   1.0000   1.0000   1.0000   1.0000   1.0000   1.0000   1.0000
     1.0000   1.0000   1.0000   1.0000   1.0000   1.0000   1.0000   1.0000
     1.0000   1.0000   1.0000   1.0000   1.0000   1.0000   1.0000   1.0000
     1.0000   1.0000   1.0000   1.0000   1.0000   1.0000   1.0000   1.0000
     1.0000   1.0000   1.0000   1.0000   1.0000   1.0000   1.0000   1.0000
     1.0000   1.0000   1.0000   1.0000   1.0000   1.0000   1.0000   1.0000
     1.0000   1.0000   1.0000   1.0000   1.0000   1.0000   1.0000   1.0000
     1.0000   1.0000   1.0000   1.0000   1.0000   1.0000   1.0000   1.0000
     1.0000   1.0000   1.0000   1.0000   1.0000   1.0000   1.0000   1.0000
     1.0000   1.0000   1.0000   1.0000   1.0000   1.0000   1.0000   1.0000
     1.0000   1.0000   1.0000   1.0000   1.0000   1.0000   1.0000   1.0000
     1.0000   1.0000   1.0000   1.0000   0.9999   0.9999   0.9999   0.9998
     0.9998   0.9998   0.9997   0.9996   0.9996   0.9994   0.9989   0.9985
     0.9983   0.9981   0.9980   0.9974   0.9963   0.9943   0.9939   0.9922
     0.9917   0.9902   0.9894   0.9891   0.9864   0.9834   0.9827   0.9804
     0.9778   0.9735   0.9590   0.9470   0.9394   0.9356   0.9035   0.8996
     0.8879   0.8866   0.8533   0.8403   0.8319   0.8238   0.8177   0.7914
     0.7727   0.7340   0.7175   0.7114   0.7082   0.6730   0.6711   0.6576
     0.6532   0.6488   0.6408   0.6377   0.6304   0.6277   0.6184   0.6147
     0.6116   0.5999   0.5877   0.5843   0.5778   0.5617   0.4949   0.4334
     0.1220   0.0514   0.0161   0.0104   0.0055   0.0001   0.0001   0.0000
     0.0000   0.0000   0.0000   0.0000   0.0000   0.0000   0.0000   0.0000
     0.0000   0.0000   0.0000   0.0000   0.0000   0.0000   0.0000   0.0000
     0.0000   0.0000   0.0000   0.0000   0.0000   0.0000   0.0000   0.0000

          k = 0.0000 0.2500 0.0000 ( 65257 PWs)   bands (ev):

   -92.7281 -92.6749 -92.5820 -92.5348 -92.4752 -92.4344 -92.4173 -92.2946
   -56.0815 -56.0616 -55.9394 -55.9287 -55.9224 -55.9156 -55.8793 -55.8512
   -55.8360 -55.8339 -55.8254 -55.7828 -55.7655 -55.7266 -55.7085 -55.6753
   -55.6704 -55.6229 -55.6210 -55.6197 -55.6113 -55.5685 -55.5476 -55.4617
   -31.3039 -31.2848 -31.1424 -31.1351 -31.0561 -30.9844 -30.8266 -30.7952
   -29.8751 -29.8333 -29.8070 -29.6986 -15.0719 -15.0421 -14.9593 -14.8252
   -14.7049 -14.5312 -14.3922 -14.2124 -14.1805 -14.1583 -14.1263 -14.0735
   -14.0619 -14.0501 -14.0341 -13.9775 -13.8775 -13.8386 -13.6744 -13.6550
   -13.6059 -13.5692 -13.5255 -13.4811 -13.4372 -13.3697 -13.3340 -13.2674
   -13.2089 -13.1740 -13.1363 -13.1269 -13.1008 -13.0118 -12.9871 -12.9602
   -12.9442 -12.9237 -12.9142 -12.8970 -12.8870 -12.8244 -12.7784 -12.7246
   -12.6848 -12.6545 -12.6397 -12.5564 -12.4300 -12.2742 -12.1164 -12.0544
   -11.8550 -11.8123 -11.7839 -11.7559 -11.7395 -11.6922 -11.6806 -11.6578
   -11.6244 -11.5214 -11.4691 -11.4586  -2.8342  -2.6126  -2.4751  -2.2931
    -2.2495  -2.0855  -1.8666  -1.7816  -1.7686  -1.7111  -1.6086  -1.5928
    -1.5584  -1.5322  -1.4884  -1.2906  -1.1623  -1.1507  -1.0737  -1.0642
    -0.9597  -0.9289  -0.8710  -0.8462  -0.8054  -0.7421  -0.7160  -0.6833
    -0.6522  -0.6348  -0.6025  -0.5282  -0.4773  -0.4110  -0.3003  -0.2802
    -0.2383  -0.1213  -0.0877  -0.0224   0.0258   0.0908   0.1040   0.1322
     0.1889   0.4886   0.5768   0.6073   0.6966   0.7430   0.7635   0.8822
     0.9005   0.9960   1.0208   1.0480   1.1631   1.2545   1.2784   1.3017
     1.3211   1.3466   1.4064   1.4338   1.4616   1.5093   1.5435   1.5736
     1.6544   1.6882   1.7252   1.7788   1.8314   1.8727   1.8992   1.9264
     1.9454   2.0358   2.1635   2.2355   2.2576   2.3318   2.3778   2.4167
     2.4257   2.4878   2.5273   2.6075   2.6461   2.6664   2.7697   2.8373
     2.8668   2.8929   2.9152   2.9329   2.9399   2.9470   2.9579   2.9856
     2.9889   3.0077   3.0132   3.0248   3.0398   3.0535   3.0595   3.0817
     3.0911   3.0966   3.1312   3.1479   3.2099   3.5730   3.6243   3.8556
     4.2733   4.3954   4.6798   5.0049   5.0415   5.6155   5.7619   5.9280
     5.9535   6.0649   6.0954   6.1614   6.5858   6.8986   6.9526   7.0977
     7.3141   7.4329   7.4636   7.4792   7.6262   7.7256   7.7759   8.0117
     8.0425   8.1069   8.1713   8.3136   8.3891   8.6021   8.7203   8.9264

     occupation numbers 
     1.0000   1.0000   1.0000   1.0000   1.0000   1.0000   1.0000   1.0000
     1.0000   1.0000   1.0000   1.0000   1.0000   1.0000   1.0000   1.0000
     1.0000   1.0000   1.0000   1.0000   1.0000   1.0000   1.0000   1.0000
     1.0000   1.0000   1.0000   1.0000   1.0000   1.0000   1.0000   1.0000
     1.0000   1.0000   1.0000   1.0000   1.0000   1.0000   1.0000   1.0000
     1.0000   1.0000   1.0000   1.0000   1.0000   1.0000   1.0000   1.0000
     1.0000   1.0000   1.0000   1.0000   1.0000   1.0000   1.0000   1.0000
     1.0000   1.0000   1.0000   1.0000   1.0000   1.0000   1.0000   1.0000
     1.0000   1.0000   1.0000   1.0000   1.0000   1.0000   1.0000   1.0000
     1.0000   1.0000   1.0000   1.0000   1.0000   1.0000   1.0000   1.0000
     1.0000   1.0000   1.0000   1.0000   1.0000   1.0000   1.0000   1.0000
     1.0000   1.0000   1.0000   1.0000   1.0000   1.0000   1.0000   1.0000
     1.0000   1.0000   1.0000   1.0000   1.0000   1.0000   1.0000   1.0000
     1.0000   1.0000   1.0000   1.0000   1.0000   1.0000   1.0000   1.0000
     1.0000   1.0000   1.0000   1.0000   1.0000   1.0000   1.0000   1.0000
     1.0000   1.0000   1.0000   1.0000   1.0000   1.0000   1.0000   1.0000
     1.0000   1.0000   1.0000   1.0000   1.0000   1.0000   1.0000   1.0000
     1.0000   1.0000   1.0000   1.0000   1.0000   1.0000   1.0000   1.0000
     1.0000   1.0000   1.0000   1.0000   1.0000   1.0000   1.0000   1.0000
     1.0000   1.0000   1.0000   1.0000   0.9999   0.9999   0.9999   0.9998
     0.9998   0.9997   0.9996   0.9996   0.9992   0.9988   0.9987   0.9985
     0.9983   0.9981   0.9975   0.9972   0.9968   0.9961   0.9954   0.9948
     0.9927   0.9916   0.9903   0.9880   0.9854   0.9829   0.9812   0.9793
     0.9778   0.9697   0.9542   0.9430   0.9391   0.9247   0.9145   0.9051
     0.9028   0.8860   0.8743   0.8480   0.8341   0.8265   0.7843   0.7538
     0.7398   0.7271   0.7159   0.7070   0.7034   0.6997   0.6940   0.6795
     0.6777   0.6677   0.6647   0.6584   0.6502   0.6426   0.6393   0.6269
     0.6216   0.6185   0.5987   0.5891   0.5530   0.3424   0.3149   0.2045
     0.0741   0.0519   0.0202   0.0057   0.0048   0.0003   0.0001   0.0000
     0.0000   0.0000   0.0000   0.0000   0.0000   0.0000   0.0000   0.0000
     0.0000   0.0000   0.0000   0.0000   0.0000   0.0000   0.0000   0.0000
     0.0000   0.0000   0.0000   0.0000   0.0000   0.0000   0.0000   0.0000

          k = 0.0000-0.5000 0.0000 ( 65180 PWs)   bands (ev):

   -92.7281 -92.6749 -92.5820 -92.5348 -92.4752 -92.4344 -92.4173 -92.2946
   -56.0815 -56.0616 -55.9394 -55.9287 -55.9224 -55.9156 -55.8793 -55.8512
   -55.8360 -55.8339 -55.8254 -55.7828 -55.7655 -55.7266 -55.7085 -55.6753
   -55.6704 -55.6229 -55.6210 -55.6197 -55.6113 -55.5685 -55.5476 -55.4617
   -31.3037 -31.2847 -31.1426 -31.1351 -31.0563 -30.9842 -30.8268 -30.7953
   -29.8745 -29.8330 -29.8076 -29.6989 -15.0380 -14.9898 -14.9353 -14.8106
   -14.7219 -14.5887 -14.4293 -14.3160 -14.1843 -14.1105 -14.0706 -14.0648
   -14.0160 -13.9988 -13.9464 -13.9298 -13.9041 -13.8717 -13.8426 -13.7854
   -13.6102 -13.5522 -13.5321 -13.4832 -13.4308 -13.3854 -13.3376 -13.3096
   -13.2985 -13.2438 -13.1379 -13.1282 -13.0984 -12.9954 -12.9826 -12.9681
   -12.9548 -12.9192 -12.9075 -12.8884 -12.7705 -12.7322 -12.7234 -12.6781
   -12.6757 -12.6533 -12.5409 -12.5016 -12.3539 -12.3491 -12.2141 -12.1642
   -11.8093 -11.8066 -11.7788 -11.7414 -11.7070 -11.6959 -11.6546 -11.6504
   -11.6066 -11.5426 -11.5296 -11.5156  -2.6196  -2.5601  -2.4095  -2.3374
    -2.0561  -1.9723  -1.8446  -1.7077  -1.6699  -1.6510  -1.5717  -1.5417
    -1.4582  -1.4236  -1.3464  -1.3064  -1.2683  -1.2410  -1.1833  -1.1449
    -1.1004  -1.0635  -1.0292  -0.9971  -0.8853  -0.8412  -0.8063  -0.8037
    -0.7190  -0.6867  -0.6651  -0.6152  -0.5300  -0.4593  -0.3745  -0.3471
    -0.2425  -0.1993  -0.0568  -0.0199   0.0063   0.0651   0.1825   0.2328
     0.3646   0.4329   0.4398   0.5674   0.6134   0.7237   0.8456   0.9543
     0.9850   1.0248   1.0288   1.0700   1.0847   1.1208   1.1366   1.1492
     1.2572   1.3197   1.3497   1.3723   1.6361   1.6660   1.6849   1.7854
     1.8069   1.8381   1.8525   1.8824   1.8952   1.9068   1.9366   1.9741
     2.0048   2.0331   2.0410   2.0703   2.1237   2.2068   2.2357   2.4182
     2.5739   2.5841   2.5983   2.6342   2.6426   2.6521   2.7052   2.7176
     2.7629   2.7740   2.8048   2.8707   2.8897   2.9514   2.9676   2.9836
     2.9846   3.0035   3.0093   3.0155   3.0177   3.0223   3.0377   3.0505
     3.0624   3.1169   3.1228   3.1373   3.1914   4.1033   4.1325   4.1478
     4.2264   4.7193   4.8735   5.0058   5.1309   5.3947   5.4449   5.5678
     5.6899   5.9840   6.0209   6.0327   6.7951   6.8393   6.9408   7.2049
     7.3136   7.3614   7.4406   7.4559   7.7308   7.8069   7.8704   7.8883
     8.0615   8.2667   8.4316   8.4879   8.6404   8.7339   8.7968   8.8355

     occupation numbers 
     1.0000   1.0000   1.0000   1.0000   1.0000   1.0000   1.0000   1.0000
     1.0000   1.0000   1.0000   1.0000   1.0000   1.0000   1.0000   1.0000
     1.0000   1.0000   1.0000   1.0000   1.0000   1.0000   1.0000   1.0000
     1.0000   1.0000   1.0000   1.0000   1.0000   1.0000   1.0000   1.0000
     1.0000   1.0000   1.0000   1.0000   1.0000   1.0000   1.0000   1.0000
     1.0000   1.0000   1.0000   1.0000   1.0000   1.0000   1.0000   1.0000
     1.0000   1.0000   1.0000   1.0000   1.0000   1.0000   1.0000   1.0000
     1.0000   1.0000   1.0000   1.0000   1.0000   1.0000   1.0000   1.0000
     1.0000   1.0000   1.0000   1.0000   1.0000   1.0000   1.0000   1.0000
     1.0000   1.0000   1.0000   1.0000   1.0000   1.0000   1.0000   1.0000
     1.0000   1.0000   1.0000   1.0000   1.0000   1.0000   1.0000   1.0000
     1.0000   1.0000   1.0000   1.0000   1.0000   1.0000   1.0000   1.0000
     1.0000   1.0000   1.0000   1.0000   1.0000   1.0000   1.0000   1.0000
     1.0000   1.0000   1.0000   1.0000   1.0000   1.0000   1.0000   1.0000
     1.0000   1.0000   1.0000   1.0000   1.0000   1.0000   1.0000   1.0000
     1.0000   1.0000   1.0000   1.0000   1.0000   1.0000   1.0000   1.0000
     1.0000   1.0000   1.0000   1.0000   1.0000   1.0000   1.0000   1.0000
     1.0000   1.0000   1.0000   1.0000   1.0000   1.0000   1.0000   1.0000
     1.0000   1.0000   1.0000   1.0000   1.0000   1.0000   1.0000   1.0000
     1.0000   1.0000   1.0000   1.0000   1.0000   0.9999   0.9999   0.9998
     0.9997   0.9996   0.9996   0.9995   0.9995   0.9994   0.9993   0.9993
     0.9988   0.9984   0.9981   0.9979   0.9932   0.9924   0.9917   0.9877
     0.9867   0.9850   0.9842   0.9823   0.9815   0.9807   0.9785   0.9755
     0.9727   0.9700   0.9692   0.9660   0.9596   0.9477   0.9429   0.9047
     0.8594   0.8560   0.8511   0.8384   0.8354   0.8319   0.8113   0.8063
     0.7872   0.7824   0.7688   0.7379   0.7286   0.6974   0.6890   0.6806
     0.6800   0.6699   0.6668   0.6635   0.6623   0.6598   0.6514   0.6443
     0.6377   0.6070   0.6036   0.5952   0.5638   0.1164   0.1081   0.1039
     0.0844   0.0175   0.0097   0.0056   0.0033   0.0009   0.0007   0.0004
     0.0002   0.0000   0.0000   0.0000   0.0000   0.0000   0.0000   0.0000
     0.0000   0.0000   0.0000   0.0000   0.0000   0.0000   0.0000   0.0000
     0.0000   0.0000   0.0000   0.0000   0.0000   0.0000   0.0000   0.0000

          k = 0.2500 0.2500 0.0000 ( 65198 PWs)   bands (ev):

   -92.7281 -92.6749 -92.5820 -92.5348 -92.4752 -92.4344 -92.4173 -92.2946
   -56.0815 -56.0616 -55.9394 -55.9287 -55.9224 -55.9156 -55.8793 -55.8512
   -55.8360 -55.8339 -55.8254 -55.7828 -55.7655 -55.7266 -55.7085 -55.6753
   -55.6704 -55.6229 -55.6210 -55.6197 -55.6113 -55.5685 -55.5476 -55.4617
   -31.3022 -31.2866 -31.1420 -31.1349 -31.0565 -30.9846 -30.8255 -30.7963
   -29.8741 -29.8343 -29.8066 -29.6990 -15.0435 -15.0074 -14.9312 -14.8150
   -14.6962 -14.5722 -14.4975 -14.2923 -14.1358 -14.1239 -14.0864 -14.0599
   -14.0344 -14.0102 -13.9805 -13.9389 -13.8677 -13.8519 -13.6895 -13.6761
   -13.6467 -13.6273 -13.5799 -13.5372 -13.4719 -13.4526 -13.3323 -13.2946
   -13.2549 -13.1695 -13.1289 -13.0888 -13.0644 -13.0454 -12.9989 -12.9734
   -12.9481 -12.9317 -12.8965 -12.8550 -12.7929 -12.7692 -12.7521 -12.7400
   -12.7285 -12.6809 -12.5232 -12.4785 -12.4418 -12.3033 -12.1541 -12.0972
   -11.8272 -11.7959 -11.7846 -11.7771 -11.7156 -11.6800 -11.6738 -11.6384
   -11.6297 -11.5382 -11.4974 -11.4800  -2.6960  -2.4868  -2.3691  -2.2750
    -2.1539  -2.0889  -1.8915  -1.7466  -1.7269  -1.6979  -1.6036  -1.5685
    -1.4752  -1.4483  -1.3976  -1.2665  -1.2186  -1.1453  -1.1009  -1.0566
    -1.0326  -1.0081  -0.9648  -0.9505  -0.8599  -0.8099  -0.7446  -0.6962
    -0.6664  -0.6149  -0.6020  -0.5393  -0.4895  -0.4321  -0.3983  -0.3127
    -0.2606  -0.2316  -0.1920  -0.1369  -0.0664  -0.0268  -0.0004   0.0730
     0.1141   0.3805   0.5277   0.5637   0.6186   0.6619   0.7256   0.7730
     0.8369   0.8713   1.1449   1.2121   1.2851   1.3111   1.3592   1.3907
     1.4257   1.4629   1.4804   1.5083   1.5515   1.5617   1.5762   1.6206
     1.6608   1.7003   1.7510   1.7954   1.8019   1.8384   1.8705   1.9275
     1.9520   2.0783   2.1450   2.1810   2.2077   2.2712   2.3403   2.3677
     2.4042   2.4284   2.4400   2.5497   2.5900   2.6782   2.7817   2.8520
     2.8662   2.8722   2.8905   2.9041   2.9169   2.9284   2.9352   2.9466
     2.9602   2.9724   2.9919   3.0006   3.0085   3.0303   3.0426   3.0516
     3.0845   3.3843   3.4784   3.5202   3.5869   3.6225   3.8360   3.9272
     4.2766   4.4855   4.6906   4.9492   5.1581   5.6210   5.6736   5.7253
     5.8096   5.8689   6.0422   6.1401   6.2105   6.7445   6.8851   7.0708
     7.2306   7.5340   7.5826   7.6905   7.7837   7.8516   7.9734   8.0926
     8.1469   8.2035   8.2982   8.3106   8.4255   8.4812   8.6683   8.8189

     occupation numbers 
     1.0000   1.0000   1.0000   1.0000   1.0000   1.0000   1.0000   1.0000
     1.0000   1.0000   1.0000   1.0000   1.0000   1.0000   1.0000   1.0000
     1.0000   1.0000   1.0000   1.0000   1.0000   1.0000   1.0000   1.0000
     1.0000   1.0000   1.0000   1.0000   1.0000   1.0000   1.0000   1.0000
     1.0000   1.0000   1.0000   1.0000   1.0000   1.0000   1.0000   1.0000
     1.0000   1.0000   1.0000   1.0000   1.0000   1.0000   1.0000   1.0000
     1.0000   1.0000   1.0000   1.0000   1.0000   1.0000   1.0000   1.0000
     1.0000   1.0000   1.0000   1.0000   1.0000   1.0000   1.0000   1.0000
     1.0000   1.0000   1.0000   1.0000   1.0000   1.0000   1.0000   1.0000
     1.0000   1.0000   1.0000   1.0000   1.0000   1.0000   1.0000   1.0000
     1.0000   1.0000   1.0000   1.0000   1.0000   1.0000   1.0000   1.0000
     1.0000   1.0000   1.0000   1.0000   1.0000   1.0000   1.0000   1.0000
     1.0000   1.0000   1.0000   1.0000   1.0000   1.0000   1.0000   1.0000
     1.0000   1.0000   1.0000   1.0000   1.0000   1.0000   1.0000   1.0000
     1.0000   1.0000   1.0000   1.0000   1.0000   1.0000   1.0000   1.0000
     1.0000   1.0000   1.0000   1.0000   1.0000   1.0000   1.0000   1.0000
     1.0000   1.0000   1.0000   1.0000   1.0000   1.0000   1.0000   1.0000
     1.0000   1.0000   1.0000   1.0000   1.0000   1.0000   1.0000   1.0000
     1.0000   1.0000   1.0000   1.0000   1.0000   1.0000   1.0000   1.0000
     1.0000   1.0000   1.0000   1.0000   1.0000   1.0000   0.9999   0.9999
     0.9999   0.9998   0.9993   0.9990   0.9986   0.9984   0.9980   0.9977
     0.9973   0.9968   0.9965   0.9961   0.9953   0.9951   0.9948   0.9937
     0.9925   0.9912   0.9893   0.9872   0.9869   0.9850   0.9831   0.9792
     0.9773   0.9651   0.9568   0.9516   0.9475   0.9366   0.9228   0.9168
     0.9082   0.9021   0.8991   0.8673   0.8540   0.8219   0.7791   0.7469
     0.7401   0.7372   0.7282   0.7215   0.7151   0.7093   0.7058   0.6999
     0.6929   0.6865   0.6761   0.6715   0.6672   0.6554   0.6486   0.6436
     0.6253   0.4500   0.3953   0.3716   0.3348   0.3158   0.2129   0.1757
     0.0734   0.0391   0.0194   0.0072   0.0029   0.0003   0.0002   0.0002
     0.0001   0.0001   0.0000   0.0000   0.0000   0.0000   0.0000   0.0000
     0.0000   0.0000   0.0000   0.0000   0.0000   0.0000   0.0000   0.0000
     0.0000   0.0000   0.0000   0.0000   0.0000   0.0000   0.0000   0.0000

          k = 0.2500-0.5000 0.0000 ( 65138 PWs)   bands (ev):

   -92.7281 -92.6749 -92.5820 -92.5348 -92.4752 -92.4344 -92.4173 -92.2946
   -56.0815 -56.0616 -55.9394 -55.9287 -55.9224 -55.9156 -55.8793 -55.8512
   -55.8360 -55.8339 -55.8254 -55.7828 -55.7655 -55.7266 -55.7085 -55.6753
   -55.6704 -55.6229 -55.6210 -55.6197 -55.6113 -55.5685 -55.5476 -55.4617
   -31.3020 -31.2864 -31.1422 -31.1349 -31.0566 -30.9844 -30.8257 -30.7964
   -29.8735 -29.8340 -29.8072 -29.6993 -15.0077 -14.9630 -14.8927 -14.7810
   -14.7443 -14.6283 -14.5330 -14.4109 -14.0997 -14.0473 -14.0226 -13.9987
   -13.9849 -13.9700 -13.9307 -13.9176 -13.8869 -13.8470 -13.8286 -13.7771
   -13.6928 -13.6445 -13.5948 -13.5648 -13.4977 -13.4833 -13.3801 -13.3472
   -13.2335 -13.1683 -13.1499 -13.0738 -13.0545 -13.0159 -12.9993 -12.9699
   -12.9393 -12.9292 -12.9159 -12.8701 -12.7799 -12.7501 -12.7205 -12.6824
   -12.6764 -12.6491 -12.5475 -12.4554 -12.3468 -12.3057 -12.2087 -12.1750
   -11.8029 -11.7909 -11.7797 -11.7522 -11.7215 -11.6922 -11.6521 -11.6244
   -11.6025 -11.5560 -11.5305 -11.5198  -2.4780  -2.4119  -2.2834  -2.2061
    -2.0766  -1.9922  -1.8691  -1.7190  -1.6649  -1.6434  -1.5805  -1.5670
    -1.4687  -1.4033  -1.3182  -1.2683  -1.2596  -1.1958  -1.1535  -1.1188
    -1.0712  -1.0345  -0.9995  -0.9595  -0.9462  -0.9028  -0.8741  -0.8321
    -0.8012  -0.7341  -0.6322  -0.5920  -0.5146  -0.4499  -0.4005  -0.3576
    -0.3376  -0.2851  -0.1232  -0.1144  -0.0077   0.0274   0.0381   0.0818
     0.1110   0.1505   0.1774   0.2474   0.5186   0.6086   0.6903   0.7420
     1.0046   1.0289   1.1161   1.1440   1.3098   1.3426   1.3852   1.4079
     1.4231   1.4436   1.5058   1.5530   1.5875   1.6687   1.7549   1.7964
     1.8169   1.8264   1.8631   1.8776   1.8807   1.9264   1.9396   1.9565
     1.9947   2.0096   2.0329   2.0650   2.1230   2.1616   2.2406   2.3798
     2.5277   2.5421   2.5613   2.5904   2.6131   2.6389   2.6643   2.6745
     2.6991   2.7741   2.8121   2.8480   2.8680   2.8817   2.8898   2.9060
     2.9209   2.9419   2.9461   2.9785   2.9905   3.0049   3.0140   3.0253
     3.0351   3.5600   3.5731   3.7155   3.7655   4.1072   4.1539   4.1723
     4.2860   4.7377   4.8958   5.0399   5.1040   5.2786   5.4117   5.5812
     5.6160   5.7416   5.7663   6.1229   6.3813   6.4791   6.7077   6.9804
     7.4790   7.5164   7.6835   7.7920   7.8515   7.8630   8.0200   8.1878
     8.2670   8.3971   8.4485   8.5150   8.5344   8.6413   8.6969   8.7457

     occupation numbers 
     1.0000   1.0000   1.0000   1.0000   1.0000   1.0000   1.0000   1.0000
     1.0000   1.0000   1.0000   1.0000   1.0000   1.0000   1.0000   1.0000
     1.0000   1.0000   1.0000   1.0000   1.0000   1.0000   1.0000   1.0000
     1.0000   1.0000   1.0000   1.0000   1.0000   1.0000   1.0000   1.0000
     1.0000   1.0000   1.0000   1.0000   1.0000   1.0000   1.0000   1.0000
     1.0000   1.0000   1.0000   1.0000   1.0000   1.0000   1.0000   1.0000
     1.0000   1.0000   1.0000   1.0000   1.0000   1.0000   1.0000   1.0000
     1.0000   1.0000   1.0000   1.0000   1.0000   1.0000   1.0000   1.0000
     1.0000   1.0000   1.0000   1.0000   1.0000   1.0000   1.0000   1.0000
     1.0000   1.0000   1.0000   1.0000   1.0000   1.0000   1.0000   1.0000
     1.0000   1.0000   1.0000   1.0000   1.0000   1.0000   1.0000   1.0000
     1.0000   1.0000   1.0000   1.0000   1.0000   1.0000   1.0000   1.0000
     1.0000   1.0000   1.0000   1.0000   1.0000   1.0000   1.0000   1.0000
     1.0000   1.0000   1.0000   1.0000   1.0000   1.0000   1.0000   1.0000
     1.0000   1.0000   1.0000   1.0000   1.0000   1.0000   1.0000   1.0000
     1.0000   1.0000   1.0000   1.0000   1.0000   1.0000   1.0000   1.0000
     1.0000   1.0000   1.0000   1.0000   1.0000   1.0000   1.0000   1.0000
     1.0000   1.0000   1.0000   1.0000   1.0000   1.0000   1.0000   1.0000
     1.0000   1.0000   1.0000   1.0000   1.0000   1.0000   1.0000   1.0000
     1.0000   1.0000   1.0000   1.0000   1.0000   1.0000   0.9999   0.9999
     0.9997   0.9996   0.9994   0.9993   0.9984   0.9982   0.9978   0.9975
     0.9973   0.9971   0.9961   0.9952   0.9945   0.9923   0.9891   0.9872
     0.9862   0.9857   0.9835   0.9826   0.9824   0.9793   0.9783   0.9769
     0.9737   0.9723   0.9700   0.9666   0.9597   0.9545   0.9421   0.9140
     0.8741   0.8697   0.8635   0.8538   0.8460   0.8367   0.8273   0.8234
     0.8137   0.7824   0.7654   0.7488   0.7392   0.7325   0.7286   0.7205
     0.7131   0.7024   0.7002   0.6832   0.6769   0.6692   0.6643   0.6581
     0.6528   0.3495   0.3423   0.2685   0.2445   0.1152   0.1023   0.0975
     0.0715   0.0164   0.0089   0.0049   0.0037   0.0016   0.0009   0.0004
     0.0003   0.0001   0.0001   0.0000   0.0000   0.0000   0.0000   0.0000
     0.0000   0.0000   0.0000   0.0000   0.0000   0.0000   0.0000   0.0000
     0.0000   0.0000   0.0000   0.0000   0.0000   0.0000   0.0000   0.0000

          k =-0.5000-0.5000 0.0000 ( 65132 PWs)   bands (ev):

   -92.7281 -92.6749 -92.5820 -92.5348 -92.4752 -92.4344 -92.4173 -92.2946
   -56.0815 -56.0616 -55.9394 -55.9287 -55.9224 -55.9156 -55.8793 -55.8512
   -55.8360 -55.8339 -55.8254 -55.7828 -55.7655 -55.7266 -55.7085 -55.6753
   -55.6704 -55.6229 -55.6210 -55.6197 -55.6113 -55.5685 -55.5476 -55.4616
   -31.2997 -31.2887 -31.1419 -31.1347 -31.0570 -30.9846 -30.8246 -30.7975
   -29.8725 -29.8351 -29.8068 -29.6997 -14.9620 -14.9355 -14.8190 -14.8056
   -14.7070 -14.6755 -14.6384 -14.5089 -14.0118 -14.0014 -13.9675 -13.9468
   -13.9292 -13.9133 -13.8883 -13.8773 -13.8568 -13.8545 -13.8392 -13.7598
   -13.7538 -13.7166 -13.6906 -13.6884 -13.5860 -13.5573 -13.4201 -13.3879
   -13.1853 -13.1468 -13.0750 -13.0517 -13.0354 -13.0143 -13.0108 -13.0012
   -12.9822 -12.9241 -12.8685 -12.8557 -12.7896 -12.7860 -12.7596 -12.6947
   -12.6307 -12.6234 -12.5639 -12.4193 -12.3432 -12.2491 -12.2152 -12.1882
   -11.7994 -11.7868 -11.7690 -11.7523 -11.7174 -11.7010 -11.6640 -11.6046
   -11.5844 -11.5787 -11.5283 -11.5256  -2.2539  -2.1785  -2.1682  -2.0948
    -2.0573  -1.9789  -1.9111  -1.7850  -1.6692  -1.6397  -1.5999  -1.5427
    -1.4709  -1.4553  -1.3859  -1.3422  -1.2255  -1.1977  -1.1482  -1.1194
    -1.0553  -1.0098  -0.9910  -0.9795  -0.9248  -0.8801  -0.8651  -0.7522
    -0.6960  -0.6489  -0.5989  -0.5709  -0.5595  -0.5241  -0.4822  -0.4476
    -0.4353  -0.3503  -0.2851  -0.2375  -0.2136  -0.1388  -0.0841  -0.0693
    -0.0127   0.0144   0.0253   0.0409   0.4900   0.5259   0.6404   0.6528
     1.0355   1.0499   1.0831   1.1198   1.3949   1.4143   1.4203   1.4580
     1.5895   1.6828   1.7108   1.7462   1.7664   1.7918   1.7996   1.8311
     1.8397   1.8560   1.8645   1.9204   1.9217   1.9517   1.9666   1.9859
     2.0005   2.0367   2.0644   2.0763   2.1085   2.1373   2.2042   2.2710
     2.5374   2.5722   2.5875   2.6099   2.6191   2.6452   2.6552   2.6733
     2.6818   2.7007   2.7184   2.7323   2.7756   2.8027   2.8081   2.8287
     2.8380   2.8515   2.8733   2.8765   2.9084   2.9865   2.9912   3.0223
     3.0307   3.9967   4.0059   4.0347   4.0447   4.2939   4.3677   4.3914
     4.6322   4.7539   4.8368   4.9664   5.0525   5.0700   5.1793   5.2777
     5.3723   5.8394   5.8726   5.9449   6.0258   6.4163   6.5002   6.6292
     7.7926   7.8802   7.8887   7.9070   7.9410   7.9573   7.9988   8.0684
     8.2472   8.3837   8.4922   8.5662   8.5942   8.6292   8.6435   8.7027

     occupation numbers 
     1.0000   1.0000   1.0000   1.0000   1.0000   1.0000   1.0000   1.0000
     1.0000   1.0000   1.0000   1.0000   1.0000   1.0000   1.0000   1.0000
     1.0000   1.0000   1.0000   1.0000   1.0000   1.0000   1.0000   1.0000
     1.0000   1.0000   1.0000   1.0000   1.0000   1.0000   1.0000   1.0000
     1.0000   1.0000   1.0000   1.0000   1.0000   1.0000   1.0000   1.0000
     1.0000   1.0000   1.0000   1.0000   1.0000   1.0000   1.0000   1.0000
     1.0000   1.0000   1.0000   1.0000   1.0000   1.0000   1.0000   1.0000
     1.0000   1.0000   1.0000   1.0000   1.0000   1.0000   1.0000   1.0000
     1.0000   1.0000   1.0000   1.0000   1.0000   1.0000   1.0000   1.0000
     1.0000   1.0000   1.0000   1.0000   1.0000   1.0000   1.0000   1.0000
     1.0000   1.0000   1.0000   1.0000   1.0000   1.0000   1.0000   1.0000
     1.0000   1.0000   1.0000   1.0000   1.0000   1.0000   1.0000   1.0000
     1.0000   1.0000   1.0000   1.0000   1.0000   1.0000   1.0000   1.0000
     1.0000   1.0000   1.0000   1.0000   1.0000   1.0000   1.0000   1.0000
     1.0000   1.0000   1.0000   1.0000   1.0000   1.0000   1.0000   1.0000
     1.0000   1.0000   1.0000   1.0000   1.0000   1.0000   1.0000   1.0000
     1.0000   1.0000   1.0000   1.0000   1.0000   1.0000   1.0000   1.0000
     1.0000   1.0000   1.0000   1.0000   1.0000   1.0000   1.0000   1.0000
     1.0000   1.0000   1.0000   1.0000   1.0000   1.0000   1.0000   1.0000
     1.0000   1.0000   1.0000   1.0000   1.0000   1.0000   1.0000   1.0000
     0.9996   0.9996   0.9995   0.9994   0.9977   0.9974   0.9974   0.9969
     0.9944   0.9918   0.9908   0.9895   0.9886   0.9874   0.9870   0.9854
     0.9849   0.9840   0.9835   0.9797   0.9796   0.9773   0.9761   0.9745
     0.9731   0.9696   0.9667   0.9654   0.9615   0.9578   0.9481   0.9367
     0.8711   0.8600   0.8548   0.8471   0.8439   0.8344   0.8307   0.8238
     0.8205   0.8131   0.8059   0.8002   0.7818   0.7697   0.7673   0.7578
     0.7535   0.7471   0.7366   0.7351   0.7193   0.6790   0.6765   0.6598
     0.6552   0.1503   0.1472   0.1375   0.1343   0.0699   0.0564   0.0525
     0.0239   0.0154   0.0112   0.0067   0.0046   0.0043   0.0026   0.0017
     0.0010   0.0001   0.0001   0.0000   0.0000   0.0000   0.0000   0.0000
     0.0000   0.0000   0.0000   0.0000   0.0000   0.0000   0.0000   0.0000
     0.0000   0.0000   0.0000   0.0000   0.0000   0.0000   0.0000   0.0000

          k = 0.2500 0.0000 0.0000 ( 65257 PWs)   bands (ev):

   -92.7281 -92.6749 -92.5820 -92.5348 -92.4752 -92.4344 -92.4173 -92.2946
   -56.0815 -56.0616 -55.9394 -55.9287 -55.9224 -55.9156 -55.8793 -55.8512
   -55.8360 -55.8339 -55.8254 -55.7828 -55.7655 -55.7266 -55.7085 -55.6753
   -55.6704 -55.6229 -55.6210 -55.6197 -55.6113 -55.5685 -55.5476 -55.4617
   -31.3023 -31.2867 -31.1418 -31.1350 -31.0564 -30.9848 -30.8253 -30.7962
   -29.8747 -29.8346 -29.8059 -29.6986 -15.0755 -15.0382 -14.9647 -14.8181
   -14.7122 -14.5213 -14.3817 -14.2055 -14.1867 -14.1560 -14.1256 -14.1019
   -14.0688 -14.0524 -14.0340 -13.9832 -13.8670 -13.8361 -13.6862 -13.6176
   -13.6103 -13.5482 -13.5193 -13.5092 -13.4528 -13.3723 -13.3389 -13.2631
   -13.1993 -13.1851 -13.1105 -13.0865 -13.0694 -13.0518 -13.0320 -12.9973
   -12.9644 -12.9432 -12.8673 -12.8473 -12.8458 -12.7984 -12.7806 -12.7734
   -12.7688 -12.6945 -12.5865 -12.5129 -12.4321 -12.2752 -12.1174 -12.0588
[...]
     0.7445   0.7309   0.7176   0.7151   0.7041   0.6987   0.6916   0.6806
     0.6775   0.6623   0.6578   0.6538   0.6466   0.6354   0.6212   0.6197
     0.6150   0.6105   0.6055   0.5992   0.5276   0.3512   0.3191   0.2049
     0.0789   0.0463   0.0220   0.0055   0.0049   0.0003   0.0001   0.0000
     0.0000   0.0000   0.0000   0.0000   0.0000   0.0000   0.0000   0.0000
     0.0000   0.0000   0.0000   0.0000   0.0000   0.0000   0.0000   0.0000
     0.0000   0.0000   0.0000   0.0000   0.0000   0.0000   0.0000   0.0000

          k =-0.5000 0.0000 0.0000 ( 65180 PWs)   bands (ev):

   -92.7281 -92.6749 -92.5820 -92.5348 -92.4752 -92.4344 -92.4173 -92.2946
   -56.0815 -56.0616 -55.9394 -55.9287 -55.9224 -55.9156 -55.8793 -55.8512
   -55.8360 -55.8339 -55.8254 -55.7828 -55.7655 -55.7266 -55.7085 -55.6753
   -55.6704 -55.6229 -55.6210 -55.6197 -55.6113 -55.5685 -55.5476 -55.4617
   -31.3001 -31.2889 -31.1414 -31.1348 -31.0568 -30.9850 -30.8242 -30.7973
   -29.8737 -29.8357 -29.8055 -29.6991 -15.0428 -14.9930 -14.9306 -14.8178
   -14.7174 -14.5718 -14.4326 -14.2781 -14.1599 -14.1499 -14.1352 -14.0820
   -14.0200 -13.9886 -13.9408 -13.9296 -13.9112 -13.8645 -13.8400 -13.7432
   -13.5819 -13.5590 -13.5221 -13.5141 -13.4573 -13.3914 -13.3482 -13.2939
   -13.2706 -13.2575 -13.0957 -13.0803 -13.0654 -13.0410 -13.0253 -13.0069
   -12.9689 -12.9479 -12.8557 -12.8348 -12.7793 -12.7658 -12.7599 -12.6913
   -12.6663 -12.6571 -12.5672 -12.4498 -12.3532 -12.2914 -12.2292 -12.1962
   -11.8059 -11.7848 -11.7777 -11.7642 -11.7461 -11.7048 -11.6408 -11.6227
   -11.5894 -11.5462 -11.5371 -11.5211  -2.6096  -2.5707  -2.4071  -2.3677
    -2.0549  -1.9796  -1.8319  -1.7134  -1.6747  -1.6282  -1.5812  -1.5557
    -1.4325  -1.3883  -1.3732  -1.2907  -1.2548  -1.2408  -1.2080  -1.1504
    -1.0824  -1.0530  -1.0234  -0.9285  -0.8820  -0.8338  -0.8006  -0.7792
    -0.7486  -0.7006  -0.6759  -0.6382  -0.5404  -0.4670  -0.4021  -0.3396
    -0.1801  -0.1368  -0.0837  -0.0511   0.0073   0.0265   0.1646   0.1961
     0.2424   0.4126   0.5116   0.5596   0.6449   0.7066   0.8329   0.8439
     0.9762   1.0030   1.0567   1.0862   1.1224   1.1337   1.1799   1.2033
     1.2689   1.3199   1.3666   1.3748   1.6700   1.6783   1.6969   1.7147
     1.8263   1.8395   1.8543   1.8634   1.8955   1.9048   1.9430   1.9699
     1.9931   2.0502   2.0621   2.1170   2.1364   2.1928   2.3025   2.4005
     2.4744   2.4888   2.5659   2.5992   2.6280   2.6930   2.7021   2.7111
     2.7405   2.7678   2.8179   2.8638   2.9067   2.9277   2.9741   2.9771
     2.9798   2.9930   3.0055   3.0162   3.0300   3.0357   3.0577   3.0668
     3.0823   3.1020   3.1069   3.2361   3.2428   4.0602   4.0947   4.1582
     4.2975   4.7641   4.8343   5.0177   5.0338   5.4719   5.4932   5.5727
     5.6266   5.9991   6.0086   6.1059   6.5923   6.7833   6.9925   7.2646
     7.3032   7.3357   7.4162   7.5849   7.7002   7.7536   7.8651   7.9321
     8.1211   8.2510   8.4857   8.5106   8.6029   8.7403   8.8060   8.8284

     occupation numbers 
     1.0000   1.0000   1.0000   1.0000   1.0000   1.0000   1.0000   1.0000
     1.0000   1.0000   1.0000   1.0000   1.0000   1.0000   1.0000   1.0000
     1.0000   1.0000   1.0000   1.0000   1.0000   1.0000   1.0000   1.0000
     1.0000   1.0000   1.0000   1.0000   1.0000   1.0000   1.0000   1.0000
     1.0000   1.0000   1.0000   1.0000   1.0000   1.0000   1.0000   1.0000
     1.0000   1.0000   1.0000   1.0000   1.0000   1.0000   1.0000   1.0000
     1.0000   1.0000   1.0000   1.0000   1.0000   1.0000   1.0000   1.0000
     1.0000   1.0000   1.0000   1.0000   1.0000   1.0000   1.0000   1.0000
     1.0000   1.0000   1.0000   1.0000   1.0000   1.0000   1.0000   1.0000
     1.0000   1.0000   1.0000   1.0000   1.0000   1.0000   1.0000   1.0000
     1.0000   1.0000   1.0000   1.0000   1.0000   1.0000   1.0000   1.0000
     1.0000   1.0000   1.0000   1.0000   1.0000   1.0000   1.0000   1.0000
     1.0000   1.0000   1.0000   1.0000   1.0000   1.0000   1.0000   1.0000
     1.0000   1.0000   1.0000   1.0000   1.0000   1.0000   1.0000   1.0000
     1.0000   1.0000   1.0000   1.0000   1.0000   1.0000   1.0000   1.0000
     1.0000   1.0000   1.0000   1.0000   1.0000   1.0000   1.0000   1.0000
     1.0000   1.0000   1.0000   1.0000   1.0000   1.0000   1.0000   1.0000
     1.0000   1.0000   1.0000   1.0000   1.0000   1.0000   1.0000   1.0000
     1.0000   1.0000   1.0000   1.0000   1.0000   1.0000   1.0000   1.0000
     1.0000   1.0000   1.0000   1.0000   1.0000   0.9999   0.9999   0.9999
     0.9997   0.9997   0.9996   0.9995   0.9994   0.9994   0.9992   0.9991
     0.9987   0.9984   0.9979   0.9979   0.9922   0.9920   0.9913   0.9907
     0.9857   0.9849   0.9841   0.9835   0.9815   0.9808   0.9780   0.9758
     0.9738   0.9682   0.9669   0.9605   0.9579   0.9499   0.9306   0.9091
     0.8898   0.8857   0.8620   0.8508   0.8407   0.8162   0.8125   0.8089
     0.7968   0.7851   0.7628   0.7412   0.7202   0.7096   0.6856   0.6840
     0.6826   0.6756   0.6688   0.6631   0.6555   0.6524   0.6403   0.6352
     0.6265   0.6154   0.6126   0.5376   0.5336   0.1294   0.1189   0.1012
     0.0692   0.0148   0.0113   0.0054   0.0050   0.0006   0.0006   0.0004
     0.0003   0.0000   0.0000   0.0000   0.0000   0.0000   0.0000   0.0000
     0.0000   0.0000   0.0000   0.0000   0.0000   0.0000   0.0000   0.0000
     0.0000   0.0000   0.0000   0.0000   0.0000   0.0000   0.0000   0.0000

          k =-0.2500 0.2500 0.0000 ( 65198 PWs)   bands (ev):

   -92.7281 -92.6749 -92.5820 -92.5348 -92.4752 -92.4344 -92.4173 -92.2946
   -56.0815 -56.0616 -55.9394 -55.9287 -55.9224 -55.9156 -55.8793 -55.8512
   -55.8360 -55.8339 -55.8254 -55.7828 -55.7655 -55.7266 -55.7085 -55.6753
   -55.6704 -55.6229 -55.6210 -55.6197 -55.6113 -55.5685 -55.5476 -55.4617
   -31.3022 -31.2866 -31.1420 -31.1349 -31.0565 -30.9846 -30.8255 -30.7963
   -29.8741 -29.8343 -29.8066 -29.6990 -15.0449 -15.0061 -14.9301 -14.8130
   -14.7022 -14.5772 -14.4891 -14.2837 -14.1426 -14.1142 -14.1007 -14.0542
   -14.0303 -14.0078 -13.9943 -13.9447 -13.8631 -13.8526 -13.6993 -13.6722
   -13.6449 -13.6229 -13.5806 -13.5245 -13.4702 -13.4613 -13.3374 -13.2864
   -13.2491 -13.1734 -13.1309 -13.0738 -13.0647 -13.0298 -13.0100 -12.9722
   -12.9537 -12.9424 -12.8970 -12.8629 -12.7984 -12.7823 -12.7497 -12.7463
   -12.7180 -12.6768 -12.5396 -12.4682 -12.4163 -12.3090 -12.1445 -12.1106
   -11.8265 -11.8048 -11.7779 -11.7653 -11.7251 -11.6898 -11.6674 -11.6448
   -11.6226 -11.5379 -11.4929 -11.4832  -2.6943  -2.4858  -2.3648  -2.2769
    -2.1581  -2.0916  -1.8891  -1.7434  -1.7246  -1.6960  -1.6042  -1.5673
    -1.4750  -1.4411  -1.4154  -1.2720  -1.2164  -1.1488  -1.1206  -1.0598
    -1.0380  -0.9977  -0.9691  -0.9291  -0.8665  -0.8182  -0.7568  -0.6871
    -0.6623  -0.6108  -0.5822  -0.5360  -0.4793  -0.4351  -0.3927  -0.2936
    -0.2606  -0.2506  -0.2047  -0.1389  -0.0691  -0.0245   0.0068   0.0764
     0.1121   0.3618   0.5298   0.5718   0.6093   0.6681   0.7235   0.7782
     0.8406   0.8713   1.1523   1.2619   1.3023   1.3357   1.3414   1.3840
     1.4007   1.4447   1.4764   1.4914   1.5167   1.5600   1.5745   1.6199
     1.6370   1.6831   1.7657   1.7833   1.8018   1.8401   1.8683   1.9096
     1.9612   2.0680   2.1732   2.2051   2.2524   2.2720   2.3364   2.3801
     2.4059   2.4282   2.4518   2.5540   2.5872   2.6777   2.7810   2.8575
     2.8640   2.8800   2.8877   2.8992   2.9138   2.9190   2.9371   2.9470
     2.9602   2.9698   2.9821   2.9921   3.0032   3.0322   3.0425   3.0528
     3.0848   3.3776   3.4602   3.5219   3.6039   3.6190   3.8217   3.9359
     4.2742   4.4844   4.6898   4.9619   5.1580   5.6218   5.6707   5.7322
     5.8052   5.8700   6.0320   6.1662   6.1854   6.7566   6.8852   7.0757
     7.2087   7.5479   7.5913   7.6512   7.8032   7.8679   7.9456   8.1238
     8.1392   8.1915   8.3032   8.3847   8.4220   8.4574   8.6253   8.8175

     occupation numbers 
     1.0000   1.0000   1.0000   1.0000   1.0000   1.0000   1.0000   1.0000
     1.0000   1.0000   1.0000   1.0000   1.0000   1.0000   1.0000   1.0000
     1.0000   1.0000   1.0000   1.0000   1.0000   1.0000   1.0000   1.0000
     1.0000   1.0000   1.0000   1.0000   1.0000   1.0000   1.0000   1.0000
     1.0000   1.0000   1.0000   1.0000   1.0000   1.0000   1.0000   1.0000
     1.0000   1.0000   1.0000   1.0000   1.0000   1.0000   1.0000   1.0000
     1.0000   1.0000   1.0000   1.0000   1.0000   1.0000   1.0000   1.0000
     1.0000   1.0000   1.0000   1.0000   1.0000   1.0000   1.0000   1.0000
     1.0000   1.0000   1.0000   1.0000   1.0000   1.0000   1.0000   1.0000
     1.0000   1.0000   1.0000   1.0000   1.0000   1.0000   1.0000   1.0000
     1.0000   1.0000   1.0000   1.0000   1.0000   1.0000   1.0000   1.0000
     1.0000   1.0000   1.0000   1.0000   1.0000   1.0000   1.0000   1.0000
     1.0000   1.0000   1.0000   1.0000   1.0000   1.0000   1.0000   1.0000
     1.0000   1.0000   1.0000   1.0000   1.0000   1.0000   1.0000   1.0000
     1.0000   1.0000   1.0000   1.0000   1.0000   1.0000   1.0000   1.0000
     1.0000   1.0000   1.0000   1.0000   1.0000   1.0000   1.0000   1.0000
     1.0000   1.0000   1.0000   1.0000   1.0000   1.0000   1.0000   1.0000
     1.0000   1.0000   1.0000   1.0000   1.0000   1.0000   1.0000   1.0000
     1.0000   1.0000   1.0000   1.0000   1.0000   1.0000   1.0000   1.0000
     1.0000   1.0000   1.0000   1.0000   1.0000   1.0000   0.9999   0.9999
     0.9999   0.9998   0.9993   0.9988   0.9985   0.9982   0.9982   0.9978
     0.9976   0.9971   0.9966   0.9964   0.9959   0.9951   0.9948   0.9937
     0.9932   0.9918   0.9886   0.9878   0.9869   0.9849   0.9832   0.9805
     0.9766   0.9663   0.9528   0.9479   0.9400   0.9365   0.9237   0.9139
     0.9077   0.9022   0.8960   0.8659   0.8549   0.8221   0.7794   0.7442
     0.7412   0.7334   0.7296   0.7239   0.7167   0.7140   0.7048   0.6997
     0.6929   0.6879   0.6814   0.6760   0.6701   0.6543   0.6487   0.6430
     0.6251   0.4539   0.4058   0.3707   0.3257   0.3177   0.2191   0.1724
     0.0739   0.0393   0.0195   0.0068   0.0029   0.0003   0.0002   0.0002
     0.0001   0.0001   0.0000   0.0000   0.0000   0.0000   0.0000   0.0000
     0.0000   0.0000   0.0000   0.0000   0.0000   0.0000   0.0000   0.0000
     0.0000   0.0000   0.0000   0.0000   0.0000   0.0000   0.0000   0.0000

          k =-0.5000 0.2500 0.0000 ( 65138 PWs)   bands (ev):

   -92.7281 -92.6749 -92.5820 -92.5348 -92.4752 -92.4344 -92.4173 -92.2946
   -56.0815 -56.0616 -55.9394 -55.9287 -55.9224 -55.9156 -55.8793 -55.8512
   -55.8360 -55.8339 -55.8254 -55.7828 -55.7655 -55.7266 -55.7085 -55.6753
   -55.6704 -55.6229 -55.6210 -55.6197 -55.6113 -55.5685 -55.5476 -55.4616
   -31.2999 -31.2888 -31.1417 -31.1347 -31.0569 -30.9848 -30.8244 -30.7974
   -29.8731 -29.8354 -29.8062 -29.6994 -15.0102 -14.9663 -14.8878 -14.7857
   -14.7437 -14.6192 -14.5349 -14.3994 -14.0932 -14.0639 -14.0522 -14.0086
   -13.9866 -13.9598 -13.9259 -13.9152 -13.8910 -13.8507 -13.8391 -13.7343
   -13.6642 -13.6166 -13.6142 -13.6014 -13.5090 -13.4951 -13.3835 -13.3242
   -13.2271 -13.1908 -13.0962 -13.0635 -13.0487 -13.0413 -13.0064 -12.9746
   -12.9660 -12.9606 -12.8679 -12.8438 -12.7884 -12.7687 -12.7616 -12.6899
   -12.6477 -12.6407 -12.5654 -12.4343 -12.3485 -12.2715 -12.2206 -12.1929
   -11.7988 -11.7864 -11.7724 -11.7600 -11.7396 -11.7095 -11.6274 -11.6195
   -11.5957 -11.5604 -11.5327 -11.5233  -2.4673  -2.4251  -2.2768  -2.2344
    -2.0741  -1.9982  -1.8560  -1.7193  -1.6634  -1.6356  -1.5974  -1.5582
    -1.4777  -1.3623  -1.3053  -1.2818  -1.2567  -1.1812  -1.1508  -1.1139
    -1.0953  -1.0351  -1.0057  -0.9671  -0.9318  -0.9031  -0.8452  -0.8176
    -0.7757  -0.7415  -0.6376  -0.6115  -0.5228  -0.4596  -0.4303  -0.3729
    -0.2875  -0.2547  -0.1543  -0.1185  -0.0568  -0.0095   0.0146   0.0914
     0.1213   0.1541   0.2043   0.2427   0.5542   0.6073   0.6872   0.6987
     0.9856   1.0456   1.1195   1.1433   1.3229   1.3584   1.3958   1.4077
     1.4259   1.4440   1.5121   1.5576   1.5968   1.6255   1.7430   1.7804
     1.8160   1.8270   1.8637   1.8879   1.9030   1.9196   1.9375   1.9608
     2.0071   2.0239   2.0585   2.0832   2.1113   2.1719   2.2919   2.3921
     2.4195   2.4877   2.5259   2.5837   2.6235   2.6314   2.6683   2.7003
     2.7242   2.7665   2.8174   2.8603   2.8659   2.8769   2.8925   2.9177
     2.9262   2.9407   2.9574   2.9756   2.9884   2.9980   3.0056   3.0177
     3.0320   3.5630   3.5960   3.7483   3.7683   4.0614   4.1172   4.1691
     4.3799   4.7585   4.8524   5.0150   5.0587   5.3775   5.4063   5.5656
     5.6201   5.7221   5.7574   6.2109   6.3776   6.4631   6.5290   7.0940
     7.4610   7.5426   7.6977   7.7761   7.8001   7.8683   8.0042   8.2029
     8.3357   8.3866   8.4540   8.5109   8.5509   8.6303   8.6799   8.7307

     occupation numbers 
     1.0000   1.0000   1.0000   1.0000   1.0000   1.0000   1.0000   1.0000
     1.0000   1.0000   1.0000   1.0000   1.0000   1.0000   1.0000   1.0000
     1.0000   1.0000   1.0000   1.0000   1.0000   1.0000   1.0000   1.0000
     1.0000   1.0000   1.0000   1.0000   1.0000   1.0000   1.0000   1.0000
     1.0000   1.0000   1.0000   1.0000   1.0000   1.0000   1.0000   1.0000
     1.0000   1.0000   1.0000   1.0000   1.0000   1.0000   1.0000   1.0000
     1.0000   1.0000   1.0000   1.0000   1.0000   1.0000   1.0000   1.0000
     1.0000   1.0000   1.0000   1.0000   1.0000   1.0000   1.0000   1.0000
     1.0000   1.0000   1.0000   1.0000   1.0000   1.0000   1.0000   1.0000
     1.0000   1.0000   1.0000   1.0000   1.0000   1.0000   1.0000   1.0000
     1.0000   1.0000   1.0000   1.0000   1.0000   1.0000   1.0000   1.0000
     1.0000   1.0000   1.0000   1.0000   1.0000   1.0000   1.0000   1.0000
     1.0000   1.0000   1.0000   1.0000   1.0000   1.0000   1.0000   1.0000
     1.0000   1.0000   1.0000   1.0000   1.0000   1.0000   1.0000   1.0000
     1.0000   1.0000   1.0000   1.0000   1.0000   1.0000   1.0000   1.0000
     1.0000   1.0000   1.0000   1.0000   1.0000   1.0000   1.0000   1.0000
     1.0000   1.0000   1.0000   1.0000   1.0000   1.0000   1.0000   1.0000
     1.0000   1.0000   1.0000   1.0000   1.0000   1.0000   1.0000   1.0000
     1.0000   1.0000   1.0000   1.0000   1.0000   1.0000   1.0000   1.0000
     1.0000   1.0000   1.0000   1.0000   1.0000   1.0000   0.9999   0.9999
     0.9997   0.9996   0.9994   0.9993   0.9983   0.9980   0.9977   0.9975
     0.9973   0.9971   0.9960   0.9952   0.9943   0.9935   0.9896   0.9880
     0.9862   0.9856   0.9835   0.9820   0.9810   0.9798   0.9784   0.9766
     0.9725   0.9709   0.9673   0.9646   0.9612   0.9530   0.9327   0.9111
     0.9044   0.8860   0.8747   0.8561   0.8423   0.8395   0.8257   0.8132
     0.8036   0.7857   0.7630   0.7429   0.7402   0.7349   0.7272   0.7147
     0.7104   0.7030   0.6943   0.6848   0.6780   0.6729   0.6688   0.6623
     0.6544   0.3478   0.3299   0.2526   0.2432   0.1290   0.1124   0.0983
     0.0543   0.0151   0.0106   0.0054   0.0045   0.0010   0.0009   0.0004
     0.0003   0.0002   0.0001   0.0000   0.0000   0.0000   0.0000   0.0000
     0.0000   0.0000   0.0000   0.0000   0.0000   0.0000   0.0000   0.0000
     0.0000   0.0000   0.0000   0.0000   0.0000   0.0000   0.0000   0.0000

     the Fermi energy is     3.2996 ev

!    total energy              =   -4399.91958326 Ry
     estimated scf accuracy    <          3.5E-09 Ry
     smearing contrib. (-TS)   =      -1.14648147 Ry
     internal energy E=F+TS    =   -4398.77310178 Ry

     The total energy is F=E-TS. E is the sum of the following terms:
     one-electron contribution =  -21252.57692373 Ry
     hartree contribution      =   10754.01308978 Ry
     xc contribution           =    -686.73062761 Ry
     ewald contribution        =    7053.16652701 Ry
     one-center paw contrib.   =    -266.64516723 Ry
      -> PAW hartree energy AE =      25.17537797 Ry
      -> PAW hartree energy PS =     -25.05915252 Ry
      -> PAW xc energy AE      =     -16.51925109 Ry
      -> PAW xc energy PS      =       6.87880433 Ry
      -> total E_H with PAW    =   10754.12931523 Ry
      -> total E_XC with PAW   =    -696.37107437 Ry

     convergence has been achieved in  48 iterations

     Writing all to output data dir /bsuhome/zayahcortright/scratch/pwscf.save/
 
     init_run     :      7.88s CPU      8.21s WALL (       1 calls)
     electrons    :    693.51s CPU    705.84s WALL (       1 calls)

     Called by init_run:
     wfcinit      :      6.08s CPU      6.18s WALL (       1 calls)
     wfcinit:atom :      0.05s CPU      0.07s WALL (       5 calls)
     wfcinit:wfcr :      5.75s CPU      5.81s WALL (       5 calls)
     potinit      :      0.17s CPU      0.18s WALL (       1 calls)
     hinit0       :      0.65s CPU      0.79s WALL (       1 calls)

     Called by electrons:
     c_bands      :    546.13s CPU    550.99s WALL (      48 calls)
     sum_band     :    109.80s CPU    114.12s WALL (      48 calls)
     v_of_rho     :      5.28s CPU      5.54s WALL (      49 calls)
     v_h          :      0.47s CPU      0.47s WALL (      49 calls)
     v_xc         :      4.81s CPU      5.07s WALL (      49 calls)
     newd         :     16.44s CPU     18.85s WALL (      49 calls)
     PAW_pot      :      2.13s CPU      2.15s WALL (      49 calls)
     mix_rho      :     13.42s CPU     13.78s WALL (      48 calls)

     Called by c_bands:
     init_us_2    :      6.89s CPU      6.94s WALL (     485 calls)
     init_us_2:cp :      6.89s CPU      6.94s WALL (     485 calls)
     cegterg      :    517.16s CPU    521.85s WALL (     240 calls)

     Called by sum_band:
     sum_band:wei :      0.35s CPU      0.35s WALL (      48 calls)
     sum_band:loo :     90.53s CPU     91.23s WALL (      48 calls)
     sum_band:buf :      1.59s CPU      1.61s WALL (     240 calls)
     sum_band:ini :      3.31s CPU      3.32s WALL (     240 calls)
     sum_band:cal :     18.15s CPU     18.20s WALL (     240 calls)
     sum_band:bec :      0.52s CPU      0.53s WALL (     240 calls)
     addusdens    :     17.86s CPU     21.44s WALL (      48 calls)
                                        0.00s GPU  (      48 calls)
     addusd:skk   :      0.32s CPU      0.65s WALL (     192 calls)
                                        0.00s GPU  (     192 calls)

     Called by *egterg:
     cdiaghg      :     55.75s CPU     55.95s WALL (    1354 calls)
     cegterg:over :     38.24s CPU     38.43s WALL (    1114 calls)
     cegterg:upda :     28.09s CPU     28.40s WALL (    1114 calls)
     cegterg:last :     56.19s CPU     56.43s WALL (     439 calls)
     cdiaghg:chol :      3.17s CPU      3.18s WALL (    1354 calls)
     cdiaghg:inve :      3.15s CPU      3.16s WALL (    1354 calls)
     cdiaghg:para :      7.11s CPU      7.14s WALL (    2708 calls)
     h_psi        :    285.29s CPU    287.94s WALL (    1359 calls)
     s_psi        :     38.23s CPU     38.34s WALL (    1359 calls)
     g_psi        :      1.16s CPU      1.17s WALL (    1114 calls)

     Called by h_psi:
     h_psi:calbec :     42.19s CPU     42.33s WALL (    1359 calls)
     vloc_psi     :    201.62s CPU    203.60s WALL (    1359 calls)
     add_vuspsi   :     38.21s CPU     38.34s WALL (    1359 calls)

     General routines
     calbec       :     60.33s CPU     60.53s WALL (    1599 calls)
     fft          :      3.57s CPU      3.62s WALL (     635 calls)
     ffts         :      4.49s CPU      4.53s WALL (    5158 calls)
     fftw         :    173.72s CPU    175.08s WALL (  321728 calls)
     interpolate  :      0.39s CPU      0.40s WALL (      49 calls)
 
     Parallel routines

     PAW routines
     PAW_pot      :      2.13s CPU      2.15s WALL (      49 calls)
 
     PWSCF        :  11m43.20s CPU  11m58.75s WALL

 
   This run was terminated on:  22: 3:44  21Jun2024            

=------------------------------------------------------------------------------=
   JOB DONE.
=------------------------------------------------------------------------------=
