
     Program PWSCF v.7.2 starts on 21Jun2024 at 21: 1:46 

     This program is part of the open-source Quantum ESPRESSO suite
     for quantum simulation of materials; please cite
         "P. Giannozzi et al., J. Phys.:Condens. Matter 21 395502 (2009);
         "P. Giannozzi et al., J. Phys.:Condens. Matter 29 465901 (2017);
         "P. Giannozzi et al., J. Chem. Phys. 152 154105 (2020);
          URL http://www.quantum-espresso.org", 
     in publications or presentations arising from this work. More details at
     http://www.quantum-espresso.org/quote

     Parallel version (MPI & OpenMP), running on      48 processor cores
     Number of MPI processes:                48
     Threads/MPI process:                     1

     MPI processes distributed on     1 nodes
     33235 MiB available memory on the printing compute node when the environment starts
 
     Reading input from espresso.pwi
Warning: card &CELL ignored
Warning: card / ignored
Warning: card &FCP ignored
Warning: card / ignored
Warning: card &RISM ignored
Warning: card / ignored

     Current dimensions of program PWSCF are:
     Max number of different atomic species (ntypx) = 10
     Max number of k-points (npk) =  40000
     Max angular momentum in pseudopotentials (lmaxx) =  4
     file O.pbe-n-kjpaw_psl.0.1.UPF: wavefunction(s)  2P renormalized
     signal trapping enabled: kill the code with -SIGUSR1 to stop cleanly the simulation 
 
     K-points division:     npool     =       2
     R & G space division:  proc/nbgrp/npool/nimage =      24
     Subspace diagonalization in iterative solution of the eigenvalue problem:
     one sub-group per band group will be used
     scalapack distributed-memory algorithm (size of sub-group:  3*  3 procs)

 
     Parallelization info
     --------------------
     sticks:   dense  smooth     PW     G-vecs:    dense   smooth      PW
     Min         350     175     47                61430    21716    3036
     Max         351     177     48                61449    21727    3041
     Sum        8421    4205   1137              1474595   521381   72913
 
     Using Slab Decomposition
 


     bravais-lattice index     =            0
     lattice parameter (alat)  =      14.8599  a.u.
     unit-cell volume          =    8305.1283 (a.u.)^3
     number of atoms/cell      =           50
     number of atomic types    =            4
     number of electrons       =       431.00
     number of Kohn-Sham states=          259
     kinetic-energy cutoff     =      60.0000  Ry
     charge density cutoff     =     480.0000  Ry
     scf convergence threshold =      1.0E-08
     mixing beta               =       0.1500
     number of iterations used =            8  local-TF  mixing
     Exchange-correlation= PBE
                           (   1   4   3   4   0   0   0)

     celldm(1)=  14.859904  celldm(2)=   0.000000  celldm(3)=   0.000000
     celldm(4)=   0.000000  celldm(5)=   0.000000  celldm(6)=   0.000000

     crystal axes: (cart. coord. in units of alat)
               a(1) = (   1.000000   0.000000   0.000000 )  
               a(2) = (   0.000000   1.000000   0.000000 )  
               a(3) = (   0.000000   0.000000   2.531036 )  

     reciprocal axes: (cart. coord. in units 2 pi/alat)
               b(1) = (  1.000000  0.000000  0.000000 )  
               b(2) = (  0.000000  1.000000  0.000000 )  
               b(3) = (  0.000000  0.000000  0.395095 )  


     PseudoPot. # 1 for Sr read from file:
     /bsuhome/zayahcortright/q-e/pseudo/Sr_pbe_v1.uspp.F.UPF
     MD5 check sum: 6b418c05fbe9db5448babca5e47b7a5b
     Pseudo is Ultrasoft + core correction, Zval = 10.0
     Generated by new atomic code, or converted to UPF format
     Using radial grid of  883 points,  6 beta functions with: 
                l(1) =   0
                l(2) =   0
                l(3) =   1
                l(4) =   1
                l(5) =   2
                l(6) =   2
     Q(r) pseudized with  6 coefficients,  rinner =    1.400   1.400   1.400
                                                       1.400   1.400

     PseudoPot. # 2 for O  read from file:
     /bsuhome/zayahcortright/q-e/pseudo/O.pbe-n-kjpaw_psl.0.1.UPF
     MD5 check sum: 0234752ac141de4415c5fc33072bef88
     Pseudo is Projector augmented-wave + core cor, Zval =  6.0
     Generated using "atomic" code by A. Dal Corso  v.5.0.99 svn rev. 10869
     Shape of augmentation charge: BESSEL
     Using radial grid of 1095 points,  4 beta functions with: 
                l(1) =   0
                l(2) =   0
                l(3) =   1
                l(4) =   1
     Q(r) pseudized with 0 coefficients 


     PseudoPot. # 3 for Co read from file:
     /bsuhome/zayahcortright/q-e/pseudo/Co_pbe_v1.2.uspp.F.UPF
     MD5 check sum: 5f91765df6ddd3222702df6e7b74a16d
     Pseudo is Ultrasoft + core correction, Zval = 17.0
     Generated by new atomic code, or converted to UPF format
     Using radial grid of  863 points,  6 beta functions with: 
                l(1) =   0
                l(2) =   0
                l(3) =   1
                l(4) =   1
                l(5) =   2
                l(6) =   2
     Q(r) pseudized with  8 coefficients,  rinner =    1.200   1.200   1.200
                                                       1.200   1.200

     PseudoPot. # 4 for H  read from file:
     /bsuhome/zayahcortright/q-e/pseudo/H.pbe-rrkjus_psl.1.0.0.UPF
     MD5 check sum: f52b6d4d1c606e5624b1dc7b2218f220
     Pseudo is Ultrasoft, Zval =  1.0
     Generated using "atomic" code by A. Dal Corso  v.5.1
     Using radial grid of  929 points,  2 beta functions with: 
                l(1) =   0
                l(2) =   0
     Q(r) pseudized with 0 coefficients 


     atomic species   valence    mass     pseudopotential
        Sr            10.00    87.62000     Sr( 1.00)
        O              6.00    15.99900     O ( 1.00)
        Co            17.00    58.93319     Co( 1.00)
        H              1.00     1.00800     H ( 1.00)

     No symmetry found


                                    s                        frac. trans.

      isym =  1     identity                                     

 cryst.   s( 1) = (     1          0          0      )
                  (     0          1          0      )
                  (     0          0          1      )

 cart.    s( 1) = (  1.0000000  0.0000000  0.0000000 )
                  (  0.0000000  1.0000000  0.0000000 )
                  (  0.0000000  0.0000000  1.0000000 )


   Cartesian axes

     site n.     atom                  positions (alat units)
         1           Sr  tau(   1) = (   0.2508693   0.7491307   1.7574407  )
         2           O   tau(   2) = (   0.4985141   0.5014859   1.7715967  )
         3           Sr  tau(   3) = (   0.7482398   0.7454518   1.7648669  )
         4           Sr  tau(   4) = (   0.7441748   0.2558252   1.7667843  )
         5           Sr  tau(   5) = (   0.2508693   0.7491307   1.2696799  )
         6           Sr  tau(   6) = (   0.2508693   0.7491307   0.7632319  )
         7           Co  tau(   7) = (   0.4998914   0.5001086   1.0164559  )
         8           Co  tau(   8) = (   0.4936915   0.5063085   1.5135603  )
         9           O   tau(   9) = (   0.4988895   0.7610401   1.0164559  )
        10           O   tau(  10) = (   0.2389599   0.5011105   1.0164559  )
        11           O   tau(  11) = (   0.0070918   0.7374880   1.0164559  )
        12           O   tau(  12) = (   0.0088340   0.7405089   1.5135603  )
        13           O   tau(  13) = (   0.5066944   0.7415376   1.5135603  )
        14           O   tau(  14) = (   0.2584624   0.4933056   1.5135603  )
        15           O   tau(  15) = (   0.4985141   0.5014859   0.7773880  )
        16           O   tau(  16) = (   0.4985141   0.5014859   1.2555238  )
        17           Sr  tau(  17) = (   0.7482398   0.7454518   0.7706582  )
        18           Sr  tau(  18) = (   0.7482398   0.7454518   1.2622536  )
        19           Sr  tau(  19) = (   0.7441748   0.2558252   0.7725755  )
        20           Sr  tau(  20) = (   0.7441748   0.2558252   1.2603363  )
        21           O   tau(  21) = (   0.7322655   0.0078049   1.5135603  )
        22           O   tau(  22) = (   0.7558175   0.4996027   1.5135603  )
        23           O   tau(  23) = (   0.5003973   0.2441825   1.5135603  )
        24           O   tau(  24) = (   0.7527966   0.4978604   1.0164559  )
        25           O   tau(  25) = (   0.5021396   0.2472034   1.0164559  )
        26           O   tau(  26) = (   0.7517679   0.0000000   1.0164559  )
        27           O   tau(  27) = (   0.0114961   0.4948124   1.7455321  )
        28           O   tau(  28) = (   0.0048226   0.0077944   1.7715967  )
        29           Sr  tau(  29) = (   0.2545482   0.2517602   1.7648669  )
        30           O   tau(  30) = (   0.5048017   0.0015068   1.7786929  )
        31           Co  tau(  31) = (   0.0056869   0.5006215   1.0164559  )
        32           Co  tau(  32) = (   0.0065315   0.4997770   1.5135603  )
        33           Co  tau(  33) = (   0.0061999   0.0064171   1.0164559  )
        34           Co  tau(  34) = (   0.0000000   0.0126169   1.5135603  )
        35           O   tau(  35) = (   0.0114961   0.4948124   1.2815885  )
        36           O   tau(  36) = (   0.0114961   0.4948124   0.7513233  )
        37           O   tau(  37) = (   0.0051979   0.2673486   1.0164559  )
        38           O   tau(  38) = (   0.0130029   0.2478461   1.5135603  )
        39           O   tau(  39) = (   0.0048226   0.0077944   0.7773880  )
        40           O   tau(  40) = (   0.0048226   0.0077944   1.2555238  )
        41           Sr  tau(  41) = (   0.2545482   0.2517602   0.7706582  )
        42           Sr  tau(  42) = (   0.2545482   0.2517602   1.2622536  )
        43           Co  tau(  43) = (   0.4989925   0.0073160   1.5135603  )
        44           Co  tau(  44) = (   0.4998370   0.0064714   1.0164559  )
        45           O   tau(  45) = (   0.5048017   0.0015068   0.7844841  )
        46           O   tau(  46) = (   0.5048017   0.0015068   1.2484277  )
        47           O   tau(  47) = (   0.2621260   0.0059111   1.5135603  )
        48           O   tau(  48) = (   0.2591051   0.0041689   1.0164559  )
        49           O   tau(  49) = (   0.4264937   0.5686583   2.1602013  )
        50           H   tau(  50) = (   0.4264937   0.5686583   2.2847091  )

   Crystallographic axes

     site n.     atom                  positions (cryst. coord.)
         1           Sr  tau(   1) = (  0.2508693  0.7491307  0.6943562  )
         2           O   tau(   2) = (  0.4985141  0.5014859  0.6999492  )
         3           Sr  tau(   3) = (  0.7482398  0.7454518  0.6972903  )
         4           Sr  tau(   4) = (  0.7441748  0.2558252  0.6980478  )
         5           Sr  tau(   5) = (  0.2508693  0.7491307  0.5016443  )
         6           Sr  tau(   6) = (  0.2508693  0.7491307  0.3015492  )
         7           Co  tau(   7) = (  0.4998914  0.5001086  0.4015968  )
         8           Co  tau(   8) = (  0.4936915  0.5063085  0.5980003  )
         9           O   tau(   9) = (  0.4988895  0.7610401  0.4015968  )
        10           O   tau(  10) = (  0.2389599  0.5011105  0.4015968  )
        11           O   tau(  11) = (  0.0070918  0.7374880  0.4015968  )
        12           O   tau(  12) = (  0.0088340  0.7405089  0.5980003  )
        13           O   tau(  13) = (  0.5066944  0.7415376  0.5980003  )
        14           O   tau(  14) = (  0.2584624  0.4933056  0.5980003  )
        15           O   tau(  15) = (  0.4985141  0.5014859  0.3071422  )
        16           O   tau(  16) = (  0.4985141  0.5014859  0.4960513  )
        17           Sr  tau(  17) = (  0.7482398  0.7454518  0.3044833  )
        18           Sr  tau(  18) = (  0.7482398  0.7454518  0.4987103  )
        19           Sr  tau(  19) = (  0.7441748  0.2558252  0.3052408  )
        20           Sr  tau(  20) = (  0.7441748  0.2558252  0.4979527  )
        21           O   tau(  21) = (  0.7322655  0.0078049  0.5980003  )
        22           O   tau(  22) = (  0.7558175  0.4996027  0.5980003  )
        23           O   tau(  23) = (  0.5003973  0.2441825  0.5980003  )
        24           O   tau(  24) = (  0.7527966  0.4978604  0.4015968  )
        25           O   tau(  25) = (  0.5021396  0.2472034  0.4015968  )
        26           O   tau(  26) = (  0.7517679  0.0000000  0.4015968  )
        27           O   tau(  27) = (  0.0114961  0.4948124  0.6896512  )
        28           O   tau(  28) = (  0.0048226  0.0077944  0.6999492  )
        29           Sr  tau(  29) = (  0.2545482  0.2517602  0.6972903  )
        30           O   tau(  30) = (  0.5048017  0.0015068  0.7027529  )
        31           Co  tau(  31) = (  0.0056869  0.5006215  0.4015968  )
        32           Co  tau(  32) = (  0.0065315  0.4997770  0.5980003  )
        33           Co  tau(  33) = (  0.0061999  0.0064171  0.4015968  )
        34           Co  tau(  34) = (  0.0000000  0.0126169  0.5980003  )
        35           O   tau(  35) = (  0.0114961  0.4948124  0.5063494  )
        36           O   tau(  36) = (  0.0114961  0.4948124  0.2968442  )
        37           O   tau(  37) = (  0.0051979  0.2673486  0.4015968  )
        38           O   tau(  38) = (  0.0130029  0.2478461  0.5980003  )
        39           O   tau(  39) = (  0.0048226  0.0077944  0.3071422  )
        40           O   tau(  40) = (  0.0048226  0.0077944  0.4960513  )
        41           Sr  tau(  41) = (  0.2545482  0.2517602  0.3044833  )
        42           Sr  tau(  42) = (  0.2545482  0.2517602  0.4987103  )
        43           Co  tau(  43) = (  0.4989925  0.0073160  0.5980003  )
        44           Co  tau(  44) = (  0.4998370  0.0064714  0.4015968  )
        45           O   tau(  45) = (  0.5048017  0.0015068  0.3099459  )
        46           O   tau(  46) = (  0.5048017  0.0015068  0.4932477  )
        47           O   tau(  47) = (  0.2621260  0.0059111  0.5980003  )
        48           O   tau(  48) = (  0.2591051  0.0041689  0.4015968  )
        49           O   tau(  49) = (  0.4264937  0.5686583  0.8534850  )
        50           H   tau(  50) = (  0.4264937  0.5686583  0.9026774  )

     number of k points=    10  Gaussian smearing, width (Ry)=  0.0700
                       cart. coord. in units 2pi/alat
        k(    1) = (   0.0000000   0.0000000   0.0000000), wk =   0.1250000
        k(    2) = (   0.0000000   0.2500000   0.0000000), wk =   0.2500000
        k(    3) = (   0.0000000  -0.5000000   0.0000000), wk =   0.1250000
        k(    4) = (   0.2500000   0.2500000   0.0000000), wk =   0.2500000
        k(    5) = (   0.2500000  -0.5000000   0.0000000), wk =   0.2500000
        k(    6) = (  -0.5000000  -0.5000000   0.0000000), wk =   0.1250000
        k(    7) = (   0.2500000   0.0000000   0.0000000), wk =   0.2500000
        k(    8) = (  -0.5000000   0.0000000   0.0000000), wk =   0.1250000
        k(    9) = (  -0.2500000   0.2500000   0.0000000), wk =   0.2500000
        k(   10) = (  -0.5000000   0.2500000   0.0000000), wk =   0.2500000

                       cryst. coord.
        k(    1) = (   0.0000000   0.0000000   0.0000000), wk =   0.1250000
        k(    2) = (   0.0000000   0.2500000   0.0000000), wk =   0.2500000
        k(    3) = (   0.0000000  -0.5000000   0.0000000), wk =   0.1250000
        k(    4) = (   0.2500000   0.2500000   0.0000000), wk =   0.2500000
        k(    5) = (   0.2500000  -0.5000000   0.0000000), wk =   0.2500000
        k(    6) = (  -0.5000000  -0.5000000   0.0000000), wk =   0.1250000
        k(    7) = (   0.2500000   0.0000000   0.0000000), wk =   0.2500000
        k(    8) = (  -0.5000000   0.0000000   0.0000000), wk =   0.1250000
        k(    9) = (  -0.2500000   0.2500000   0.0000000), wk =   0.2500000
        k(   10) = (  -0.5000000   0.2500000   0.0000000), wk =   0.2500000

     Dense  grid:  1474595 G-vectors     FFT dimensions: ( 108, 108, 270)

     Smooth grid:   521381 G-vectors     FFT dimensions: (  75,  75, 192)

     Dynamical RAM for                 wfc:      10.73 MB

     Dynamical RAM for     wfc (w. buffer):      64.38 MB

     Dynamical RAM for           str. fact:       3.75 MB

     Dynamical RAM for           local pot:       0.00 MB

     Dynamical RAM for          nlocal pot:      24.61 MB

     Dynamical RAM for                qrad:       7.03 MB

     Dynamical RAM for          rho,v,vnew:       6.02 MB

     Dynamical RAM for               rhoin:       2.01 MB

     Dynamical RAM for            rho*nmix:      15.00 MB

     Dynamical RAM for           G-vectors:       3.68 MB

     Dynamical RAM for          h,s,v(r/c):       1.35 MB

     Dynamical RAM for          <psi|beta>:       2.35 MB

     Dynamical RAM for                 psi:      21.46 MB

     Dynamical RAM for                hpsi:      21.46 MB

     Dynamical RAM for                spsi:      21.46 MB

     Dynamical RAM for      wfcinit/wfcrot:      34.49 MB

     Dynamical RAM for           addusdens:     101.26 MB

     Estimated static dynamical RAM per process >     121.50 MB

     Estimated max dynamical RAM per process >     237.76 MB

     Estimated total dynamical RAM >      10.79 GB

     Check: negative core charge=   -0.000004

     Initial potential from superposition of free atoms

     starting charge     422.5961, renormalised to     431.0000

     negative rho (up, down):  7.820E-01 0.000E+00
     Starting wfcs are  377 randomized atomic wfcs
     Checking if some PAW data can be deallocated... 
       PAW data deallocated on   19 nodes for type:  2

     total cpu time spent up to now is        8.8 secs

     Self-consistent Calculation

     iteration #  1     ecut=    60.00 Ry     beta= 0.15
     Davidson diagonalization with overlap

---- Real-time Memory Report at c_bands before calling an iterative solver
             0 MiB given to the printing process from OS
             0 MiB allocation reported by mallinfo(arena+hblkhd)
         23983 MiB available memory on the node where the printing process lives
------------------
     ethr =  1.00E-02,  avg # of iterations =  2.0

     negative rho (up, down):  7.717E-01 0.000E+00

     total cpu time spent up to now is       25.8 secs

     total energy              =   -4446.66379298 Ry
     estimated scf accuracy    <      44.93256413 Ry

     iteration #  2     ecut=    60.00 Ry     beta= 0.15
     Davidson diagonalization with overlap

---- Real-time Memory Report at c_bands before calling an iterative solver
             0 MiB given to the printing process from OS
             0 MiB allocation reported by mallinfo(arena+hblkhd)
         24264 MiB available memory on the node where the printing process lives
------------------
     ethr =  1.00E-02,  avg # of iterations =  1.0

     negative rho (up, down):  7.581E-01 0.000E+00

     total cpu time spent up to now is       40.4 secs

     total energy              =   -4443.24646066 Ry
     estimated scf accuracy    <      29.81527671 Ry

     iteration #  3     ecut=    60.00 Ry     beta= 0.15
     Davidson diagonalization with overlap

---- Real-time Memory Report at c_bands before calling an iterative solver
             0 MiB given to the printing process from OS
             0 MiB allocation reported by mallinfo(arena+hblkhd)
         23418 MiB available memory on the node where the printing process lives
------------------
     ethr =  6.92E-03,  avg # of iterations =  1.0

     negative rho (up, down):  7.553E-01 0.000E+00

     total cpu time spent up to now is       55.2 secs

     total energy              =   -4444.25924510 Ry
     estimated scf accuracy    <      29.07914136 Ry

     iteration #  4     ecut=    60.00 Ry     beta= 0.15
     Davidson diagonalization with overlap

---- Real-time Memory Report at c_bands before calling an iterative solver
             0 MiB given to the printing process from OS
             0 MiB allocation reported by mallinfo(arena+hblkhd)
         23385 MiB available memory on the node where the printing process lives
------------------
     ethr =  6.75E-03,  avg # of iterations =  1.0

     negative rho (up, down):  7.499E-01 0.000E+00

     total cpu time spent up to now is       70.2 secs

     total energy              =   -4443.04986535 Ry
     estimated scf accuracy    <      21.20766473 Ry

     iteration #  5     ecut=    60.00 Ry     beta= 0.15
     Davidson diagonalization with overlap

---- Real-time Memory Report at c_bands before calling an iterative solver
             0 MiB given to the printing process from OS
             0 MiB allocation reported by mallinfo(arena+hblkhd)
         23373 MiB available memory on the node where the printing process lives
------------------
     ethr =  4.92E-03,  avg # of iterations =  1.0

     negative rho (up, down):  7.401E-01 0.000E+00

     total cpu time spent up to now is       85.1 secs

     total energy              =   -4442.51086774 Ry
     estimated scf accuracy    <      11.07202951 Ry

     iteration #  6     ecut=    60.00 Ry     beta= 0.15
     Davidson diagonalization with overlap

---- Real-time Memory Report at c_bands before calling an iterative solver
             0 MiB given to the printing process from OS
             0 MiB allocation reported by mallinfo(arena+hblkhd)
         23349 MiB available memory on the node where the printing process lives
------------------
     ethr =  2.57E-03,  avg # of iterations =  1.1

     negative rho (up, down):  7.427E-01 0.000E+00

     total cpu time spent up to now is      100.2 secs

     total energy              =   -4442.80834011 Ry
     estimated scf accuracy    <       5.00863984 Ry

     iteration #  7     ecut=    60.00 Ry     beta= 0.15
     Davidson diagonalization with overlap

---- Real-time Memory Report at c_bands before calling an iterative solver
             0 MiB given to the printing process from OS
             0 MiB allocation reported by mallinfo(arena+hblkhd)
         23337 MiB available memory on the node where the printing process lives
------------------
     ethr =  1.16E-03,  avg # of iterations =  1.8

     negative rho (up, down):  7.635E-01 0.000E+00

     total cpu time spent up to now is      115.8 secs

     total energy              =   -4441.69678231 Ry
     estimated scf accuracy    <       3.99297883 Ry

     iteration #  8     ecut=    60.00 Ry     beta= 0.15
     Davidson diagonalization with overlap

---- Real-time Memory Report at c_bands before calling an iterative solver
             0 MiB given to the printing process from OS
             0 MiB allocation reported by mallinfo(arena+hblkhd)
         23313 MiB available memory on the node where the printing process lives
------------------
     ethr =  9.26E-04,  avg # of iterations =  4.3

     negative rho (up, down):  7.724E-01 0.000E+00

     total cpu time spent up to now is      135.1 secs

     total energy              =   -4441.34854958 Ry
     estimated scf accuracy    <      18.95134455 Ry

     iteration #  9     ecut=    60.00 Ry     beta= 0.15
     Davidson diagonalization with overlap

---- Real-time Memory Report at c_bands before calling an iterative solver
             0 MiB given to the printing process from OS
             0 MiB allocation reported by mallinfo(arena+hblkhd)
         23158 MiB available memory on the node where the printing process lives
------------------
     ethr =  9.26E-04,  avg # of iterations =  9.7

     negative rho (up, down):  7.700E-01 0.000E+00

     total cpu time spent up to now is      156.8 secs

     total energy              =   -4441.74705179 Ry
     estimated scf accuracy    <       3.01159397 Ry

     iteration # 10     ecut=    60.00 Ry     beta= 0.15
     Davidson diagonalization with overlap

---- Real-time Memory Report at c_bands before calling an iterative solver
             0 MiB given to the printing process from OS
             0 MiB allocation reported by mallinfo(arena+hblkhd)
         22840 MiB available memory on the node where the printing process lives
------------------
     ethr =  6.99E-04,  avg # of iterations =  1.2

     negative rho (up, down):  7.765E-01 0.000E+00

     total cpu time spent up to now is      172.3 secs

     total energy              =   -4441.88907910 Ry
     estimated scf accuracy    <       1.38498832 Ry

     iteration # 11     ecut=    60.00 Ry     beta= 0.15
     Davidson diagonalization with overlap

---- Real-time Memory Report at c_bands before calling an iterative solver
             0 MiB given to the printing process from OS
             0 MiB allocation reported by mallinfo(arena+hblkhd)
         22827 MiB available memory on the node where the printing process lives
------------------
     ethr =  3.21E-04,  avg # of iterations =  3.4

     negative rho (up, down):  8.067E-01 0.000E+00

     total cpu time spent up to now is      190.4 secs

     total energy              =   -4441.70484917 Ry
     estimated scf accuracy    <       1.32207129 Ry

     iteration # 12     ecut=    60.00 Ry     beta= 0.15
     Davidson diagonalization with overlap

---- Real-time Memory Report at c_bands before calling an iterative solver
             0 MiB given to the printing process from OS
             0 MiB allocation reported by mallinfo(arena+hblkhd)
         22825 MiB available memory on the node where the printing process lives
------------------
     ethr =  3.07E-04,  avg # of iterations =  6.0

     negative rho (up, down):  8.151E-01 0.000E+00

     total cpu time spent up to now is      209.3 secs

     total energy              =   -4441.85339979 Ry
     estimated scf accuracy    <       1.32420586 Ry

     iteration # 13     ecut=    60.00 Ry     beta= 0.15
     Davidson diagonalization with overlap

---- Real-time Memory Report at c_bands before calling an iterative solver
             0 MiB given to the printing process from OS
             0 MiB allocation reported by mallinfo(arena+hblkhd)
         22821 MiB available memory on the node where the printing process lives
------------------
     ethr =  3.07E-04,  avg # of iterations =  5.3

     negative rho (up, down):  8.179E-01 0.000E+00

     total cpu time spent up to now is      228.0 secs

     total energy              =   -4441.78113531 Ry
     estimated scf accuracy    <       0.87449024 Ry

     iteration # 14     ecut=    60.00 Ry     beta= 0.15
     Davidson diagonalization with overlap

---- Real-time Memory Report at c_bands before calling an iterative solver
             0 MiB given to the printing process from OS
             0 MiB allocation reported by mallinfo(arena+hblkhd)
         22807 MiB available memory on the node where the printing process lives
------------------
     ethr =  2.03E-04,  avg # of iterations =  7.6

     negative rho (up, down):  8.222E-01 0.000E+00

     total cpu time spent up to now is      248.0 secs

     total energy              =   -4441.73485231 Ry
     estimated scf accuracy    <       0.36188614 Ry

     iteration # 15     ecut=    60.00 Ry     beta= 0.15
     Davidson diagonalization with overlap

---- Real-time Memory Report at c_bands before calling an iterative solver
             0 MiB given to the printing process from OS
             0 MiB allocation reported by mallinfo(arena+hblkhd)
         22797 MiB available memory on the node where the printing process lives
------------------
     ethr =  8.40E-05,  avg # of iterations = 10.0

     negative rho (up, down):  8.298E-01 0.000E+00

     total cpu time spent up to now is      270.1 secs

     total energy              =   -4441.71934038 Ry
     estimated scf accuracy    <       0.29204175 Ry

     iteration # 16     ecut=    60.00 Ry     beta= 0.15
     Davidson diagonalization with overlap

---- Real-time Memory Report at c_bands before calling an iterative solver
             0 MiB given to the printing process from OS
             0 MiB allocation reported by mallinfo(arena+hblkhd)
         22764 MiB available memory on the node where the printing process lives
------------------
     ethr =  6.78E-05,  avg # of iterations =  9.5

     negative rho (up, down):  8.301E-01 0.000E+00

     total cpu time spent up to now is      291.9 secs

     total energy              =   -4441.71507872 Ry
     estimated scf accuracy    <       0.28043261 Ry

     iteration # 17     ecut=    60.00 Ry     beta= 0.15
     Davidson diagonalization with overlap

---- Real-time Memory Report at c_bands before calling an iterative solver
             0 MiB given to the printing process from OS
             0 MiB allocation reported by mallinfo(arena+hblkhd)
         22745 MiB available memory on the node where the printing process lives
------------------
     ethr =  6.51E-05,  avg # of iterations =  1.1

     negative rho (up, down):  8.150E-01 0.000E+00

     total cpu time spent up to now is      307.4 secs

     total energy              =   -4441.69230567 Ry
     estimated scf accuracy    <       0.21263373 Ry

     iteration # 18     ecut=    60.00 Ry     beta= 0.15
     Davidson diagonalization with overlap

---- Real-time Memory Report at c_bands before calling an iterative solver
             0 MiB given to the printing process from OS
             0 MiB allocation reported by mallinfo(arena+hblkhd)
         22754 MiB available memory on the node where the printing process lives
------------------
     ethr =  4.93E-05,  avg # of iterations =  5.0

     negative rho (up, down):  8.099E-01 0.000E+00

     total cpu time spent up to now is      326.4 secs

     total energy              =   -4441.67677276 Ry
     estimated scf accuracy    <       0.13807676 Ry

     iteration # 19     ecut=    60.00 Ry     beta= 0.15
     Davidson diagonalization with overlap

---- Real-time Memory Report at c_bands before calling an iterative solver
             0 MiB given to the printing process from OS
             0 MiB allocation reported by mallinfo(arena+hblkhd)
         22764 MiB available memory on the node where the printing process lives
------------------
     ethr =  3.20E-05,  avg # of iterations =  8.4

     negative rho (up, down):  8.067E-01 0.000E+00

     total cpu time spent up to now is      348.3 secs

     total energy              =   -4441.66186194 Ry
     estimated scf accuracy    <       0.09455752 Ry

     iteration # 20     ecut=    60.00 Ry     beta= 0.15
     Davidson diagonalization with overlap

---- Real-time Memory Report at c_bands before calling an iterative solver
             0 MiB given to the printing process from OS
             0 MiB allocation reported by mallinfo(arena+hblkhd)
         22716 MiB available memory on the node where the printing process lives
------------------
     ethr =  2.19E-05,  avg # of iterations =  9.6

     negative rho (up, down):  8.260E-01 0.000E+00

     total cpu time spent up to now is      370.5 secs

     total energy              =   -4441.66005313 Ry
     estimated scf accuracy    <       0.04108905 Ry

     iteration # 21     ecut=    60.00 Ry     beta= 0.15
     Davidson diagonalization with overlap

---- Real-time Memory Report at c_bands before calling an iterative solver
             0 MiB given to the printing process from OS
             0 MiB allocation reported by mallinfo(arena+hblkhd)
         22691 MiB available memory on the node where the printing process lives
------------------
     ethr =  9.53E-06,  avg # of iterations = 11.9

     negative rho (up, down):  8.233E-01 0.000E+00

     total cpu time spent up to now is      394.5 secs

     total energy              =   -4441.66063641 Ry
     estimated scf accuracy    <       0.02558902 Ry

     iteration # 22     ecut=    60.00 Ry     beta= 0.15
     Davidson diagonalization with overlap

---- Real-time Memory Report at c_bands before calling an iterative solver
             0 MiB given to the printing process from OS
             0 MiB allocation reported by mallinfo(arena+hblkhd)
         22659 MiB available memory on the node where the printing process lives
------------------
     ethr =  5.94E-06,  avg # of iterations =  1.2

     negative rho (up, down):  7.949E-01 0.000E+00

     total cpu time spent up to now is      410.1 secs

     total energy              =   -4441.65530647 Ry
     estimated scf accuracy    <       0.02145628 Ry

     iteration # 23     ecut=    60.00 Ry     beta= 0.15
     Davidson diagonalization with overlap

---- Real-time Memory Report at c_bands before calling an iterative solver
             0 MiB given to the printing process from OS
             0 MiB allocation reported by mallinfo(arena+hblkhd)
         22676 MiB available memory on the node where the printing process lives
------------------
     ethr =  4.98E-06,  avg # of iterations =  7.0

     negative rho (up, down):  7.963E-01 0.000E+00

     total cpu time spent up to now is      430.7 secs

     total energy              =   -4441.65606069 Ry
     estimated scf accuracy    <       0.01138689 Ry

     iteration # 24     ecut=    60.00 Ry     beta= 0.15
     Davidson diagonalization with overlap

---- Real-time Memory Report at c_bands before calling an iterative solver
             0 MiB given to the printing process from OS
             0 MiB allocation reported by mallinfo(arena+hblkhd)
         22684 MiB available memory on the node where the printing process lives
------------------
     ethr =  2.64E-06,  avg # of iterations =  6.5

     negative rho (up, down):  7.974E-01 0.000E+00

     total cpu time spent up to now is      449.9 secs

     total energy              =   -4441.65515891 Ry
     estimated scf accuracy    <       0.00887494 Ry

     iteration # 25     ecut=    60.00 Ry     beta= 0.15
     Davidson diagonalization with overlap

---- Real-time Memory Report at c_bands before calling an iterative solver
             0 MiB given to the printing process from OS
             0 MiB allocation reported by mallinfo(arena+hblkhd)
         22682 MiB available memory on the node where the printing process lives
------------------
     c_bands:  1 eigenvalues not converged
     ethr =  2.06E-06,  avg # of iterations = 13.0

     negative rho (up, down):  7.950E-01 0.000E+00

     total cpu time spent up to now is      473.8 secs

     total energy              =   -4441.65430251 Ry
     estimated scf accuracy    <       0.00535257 Ry

     iteration # 26     ecut=    60.00 Ry     beta= 0.15
     Davidson diagonalization with overlap

---- Real-time Memory Report at c_bands before calling an iterative solver
             0 MiB given to the printing process from OS
             0 MiB allocation reported by mallinfo(arena+hblkhd)
         22629 MiB available memory on the node where the printing process lives
------------------
     ethr =  1.24E-06,  avg # of iterations =  6.6

     negative rho (up, down):  7.968E-01 0.000E+00

     total cpu time spent up to now is      493.4 secs

     total energy              =   -4441.65430930 Ry
     estimated scf accuracy    <       0.00225689 Ry

     iteration # 27     ecut=    60.00 Ry     beta= 0.15
     Davidson diagonalization with overlap

---- Real-time Memory Report at c_bands before calling an iterative solver
             0 MiB given to the printing process from OS
             0 MiB allocation reported by mallinfo(arena+hblkhd)
         22652 MiB available memory on the node where the printing process lives
------------------
     ethr =  5.24E-07,  avg # of iterations = 11.8

     negative rho (up, down):  7.969E-01 0.000E+00

     total cpu time spent up to now is      517.2 secs

     total energy              =   -4441.65445490 Ry
     estimated scf accuracy    <       0.00072183 Ry

     iteration # 28     ecut=    60.00 Ry     beta= 0.15
     Davidson diagonalization with overlap

---- Real-time Memory Report at c_bands before calling an iterative solver
             0 MiB given to the printing process from OS
             0 MiB allocation reported by mallinfo(arena+hblkhd)
         22591 MiB available memory on the node where the printing process lives
------------------
     ethr =  1.67E-07,  avg # of iterations =  6.9

     negative rho (up, down):  7.948E-01 0.000E+00

     total cpu time spent up to now is      536.4 secs

     total energy              =   -4441.65444966 Ry
     estimated scf accuracy    <       0.00042338 Ry

     iteration # 29     ecut=    60.00 Ry     beta= 0.15
     Davidson diagonalization with overlap

---- Real-time Memory Report at c_bands before calling an iterative solver
             0 MiB given to the printing process from OS
             0 MiB allocation reported by mallinfo(arena+hblkhd)
         22601 MiB available memory on the node where the printing process lives
------------------
     ethr =  9.82E-08,  avg # of iterations =  2.5

     negative rho (up, down):  7.942E-01 0.000E+00

     total cpu time spent up to now is      553.6 secs

     total energy              =   -4441.65446245 Ry
     estimated scf accuracy    <       0.00016027 Ry

     iteration # 30     ecut=    60.00 Ry     beta= 0.15
     Davidson diagonalization with overlap

---- Real-time Memory Report at c_bands before calling an iterative solver
             0 MiB given to the printing process from OS
             0 MiB allocation reported by mallinfo(arena+hblkhd)
         22672 MiB available memory on the node where the printing process lives
------------------
     ethr =  3.72E-08,  avg # of iterations =  4.5

     negative rho (up, down):  7.936E-01 0.000E+00

     total cpu time spent up to now is      572.2 secs

     total energy              =   -4441.65447607 Ry
     estimated scf accuracy    <       0.00007446 Ry

     iteration # 31     ecut=    60.00 Ry     beta= 0.15
     Davidson diagonalization with overlap

---- Real-time Memory Report at c_bands before calling an iterative solver
             0 MiB given to the printing process from OS
             0 MiB allocation reported by mallinfo(arena+hblkhd)
         22640 MiB available memory on the node where the printing process lives
------------------
     ethr =  1.73E-08,  avg # of iterations =  2.0

     negative rho (up, down):  7.924E-01 0.000E+00

     total cpu time spent up to now is      588.9 secs

     total energy              =   -4441.65447607 Ry
     estimated scf accuracy    <       0.00004574 Ry

     iteration # 32     ecut=    60.00 Ry     beta= 0.15
     Davidson diagonalization with overlap

---- Real-time Memory Report at c_bands before calling an iterative solver
             0 MiB given to the printing process from OS
             0 MiB allocation reported by mallinfo(arena+hblkhd)
         22548 MiB available memory on the node where the printing process lives
------------------
     c_bands:  1 eigenvalues not converged
     ethr =  1.06E-08,  avg # of iterations =  5.7

     negative rho (up, down):  7.926E-01 0.000E+00

     total cpu time spent up to now is      610.0 secs

     total energy              =   -4441.65448004 Ry
     estimated scf accuracy    <       0.00001260 Ry

     iteration # 33     ecut=    60.00 Ry     beta= 0.15
     Davidson diagonalization with overlap

---- Real-time Memory Report at c_bands before calling an iterative solver
             0 MiB given to the printing process from OS
             0 MiB allocation reported by mallinfo(arena+hblkhd)
         22515 MiB available memory on the node where the printing process lives
------------------
     c_bands:  1 eigenvalues not converged
     ethr =  2.92E-09,  avg # of iterations =  4.0

     negative rho (up, down):  7.925E-01 0.000E+00

     total cpu time spent up to now is      628.3 secs

     total energy              =   -4441.65448075 Ry
     estimated scf accuracy    <       0.00000819 Ry

     iteration # 34     ecut=    60.00 Ry     beta= 0.15
     Davidson diagonalization with overlap

---- Real-time Memory Report at c_bands before calling an iterative solver
             0 MiB given to the printing process from OS
             0 MiB allocation reported by mallinfo(arena+hblkhd)
         22529 MiB available memory on the node where the printing process lives
------------------
     ethr =  1.90E-09,  avg # of iterations =  2.9

     negative rho (up, down):  7.926E-01 0.000E+00

     total cpu time spent up to now is      644.8 secs

     total energy              =   -4441.65448037 Ry
     estimated scf accuracy    <       0.00000534 Ry

     iteration # 35     ecut=    60.00 Ry     beta= 0.15
     Davidson diagonalization with overlap

---- Real-time Memory Report at c_bands before calling an iterative solver
             0 MiB given to the printing process from OS
             0 MiB allocation reported by mallinfo(arena+hblkhd)
         22524 MiB available memory on the node where the printing process lives
------------------
     ethr =  1.24E-09,  avg # of iterations =  2.8

     negative rho (up, down):  7.924E-01 0.000E+00

     total cpu time spent up to now is      662.1 secs

     total energy              =   -4441.65448152 Ry
     estimated scf accuracy    <       0.00000378 Ry

     iteration # 36     ecut=    60.00 Ry     beta= 0.15
     Davidson diagonalization with overlap

---- Real-time Memory Report at c_bands before calling an iterative solver
             0 MiB given to the printing process from OS
             0 MiB allocation reported by mallinfo(arena+hblkhd)
         22543 MiB available memory on the node where the printing process lives
------------------
     ethr =  8.77E-10,  avg # of iterations =  2.3

     negative rho (up, down):  7.924E-01 0.000E+00

     total cpu time spent up to now is      679.1 secs

     total energy              =   -4441.65448226 Ry
     estimated scf accuracy    <       0.00000245 Ry

     iteration # 37     ecut=    60.00 Ry     beta= 0.15
     Davidson diagonalization with overlap

---- Real-time Memory Report at c_bands before calling an iterative solver
             0 MiB given to the printing process from OS
             0 MiB allocation reported by mallinfo(arena+hblkhd)
         22549 MiB available memory on the node where the printing process lives
------------------
     ethr =  5.69E-10,  avg # of iterations =  2.9

     negative rho (up, down):  7.924E-01 0.000E+00

     total cpu time spent up to now is      696.4 secs

     total energy              =   -4441.65448217 Ry
     estimated scf accuracy    <       0.00000165 Ry

     iteration # 38     ecut=    60.00 Ry     beta= 0.15
     Davidson diagonalization with overlap

---- Real-time Memory Report at c_bands before calling an iterative solver
             0 MiB given to the printing process from OS
             0 MiB allocation reported by mallinfo(arena+hblkhd)
         22539 MiB available memory on the node where the printing process lives
------------------
     ethr =  3.82E-10,  avg # of iterations =  3.1

     negative rho (up, down):  7.924E-01 0.000E+00

     total cpu time spent up to now is      713.7 secs

     total energy              =   -4441.65448175 Ry
     estimated scf accuracy    <       0.00000108 Ry

     iteration # 39     ecut=    60.00 Ry     beta= 0.15
     Davidson diagonalization with overlap

---- Real-time Memory Report at c_bands before calling an iterative solver
             0 MiB given to the printing process from OS
             0 MiB allocation reported by mallinfo(arena+hblkhd)
         22544 MiB available memory on the node where the printing process lives
------------------
     ethr =  2.50E-10,  avg # of iterations =  2.9

     negative rho (up, down):  7.924E-01 0.000E+00

     total cpu time spent up to now is      730.8 secs

     total energy              =   -4441.65448191 Ry
     estimated scf accuracy    <       0.00000057 Ry

     iteration # 40     ecut=    60.00 Ry     beta= 0.15
     Davidson diagonalization with overlap

---- Real-time Memory Report at c_bands before calling an iterative solver
             0 MiB given to the printing process from OS
             0 MiB allocation reported by mallinfo(arena+hblkhd)
         22558 MiB available memory on the node where the printing process lives
------------------
     ethr =  1.33E-10,  avg # of iterations =  2.2

     negative rho (up, down):  7.924E-01 0.000E+00

     total cpu time spent up to now is      747.9 secs

     total energy              =   -4441.65448205 Ry
     estimated scf accuracy    <       0.00000046 Ry

     iteration # 41     ecut=    60.00 Ry     beta= 0.15
     Davidson diagonalization with overlap

---- Real-time Memory Report at c_bands before calling an iterative solver
             0 MiB given to the printing process from OS
             0 MiB allocation reported by mallinfo(arena+hblkhd)
         22545 MiB available memory on the node where the printing process lives
------------------
     ethr =  1.06E-10,  avg # of iterations =  2.3

     negative rho (up, down):  7.925E-01 0.000E+00

     total cpu time spent up to now is      764.7 secs

     total energy              =   -4441.65448223 Ry
     estimated scf accuracy    <       0.00000031 Ry

     iteration # 42     ecut=    60.00 Ry     beta= 0.15
     Davidson diagonalization with overlap

---- Real-time Memory Report at c_bands before calling an iterative solver
             0 MiB given to the printing process from OS
             0 MiB allocation reported by mallinfo(arena+hblkhd)
         22550 MiB available memory on the node where the printing process lives
------------------
     ethr =  7.29E-11,  avg # of iterations =  4.0

     negative rho (up, down):  7.925E-01 0.000E+00

     total cpu time spent up to now is      783.6 secs

     total energy              =   -4441.65448221 Ry
     estimated scf accuracy    <       0.00000006 Ry

     iteration # 43     ecut=    60.00 Ry     beta= 0.15
     Davidson diagonalization with overlap

---- Real-time Memory Report at c_bands before calling an iterative solver
             0 MiB given to the printing process from OS
             0 MiB allocation reported by mallinfo(arena+hblkhd)
         22539 MiB available memory on the node where the printing process lives
------------------
     ethr =  1.48E-11,  avg # of iterations =  3.7

     negative rho (up, down):  7.925E-01 0.000E+00

     total cpu time spent up to now is      802.0 secs

     total energy              =   -4441.65448221 Ry
     estimated scf accuracy    <       0.00000003 Ry

     iteration # 44     ecut=    60.00 Ry     beta= 0.15
     Davidson diagonalization with overlap

---- Real-time Memory Report at c_bands before calling an iterative solver
             0 MiB given to the printing process from OS
             0 MiB allocation reported by mallinfo(arena+hblkhd)
         22539 MiB available memory on the node where the printing process lives
------------------
     ethr =  7.26E-12,  avg # of iterations =  2.9

     negative rho (up, down):  7.925E-01 0.000E+00

     total cpu time spent up to now is      819.5 secs

     total energy              =   -4441.65448223 Ry
     estimated scf accuracy    <       0.00000002 Ry

     iteration # 45     ecut=    60.00 Ry     beta= 0.15
     Davidson diagonalization with overlap

---- Real-time Memory Report at c_bands before calling an iterative solver
             0 MiB given to the printing process from OS
             0 MiB allocation reported by mallinfo(arena+hblkhd)
         22559 MiB available memory on the node where the printing process lives
------------------
     ethr =  4.76E-12,  avg # of iterations =  2.9

     negative rho (up, down):  7.925E-01 0.000E+00

     total cpu time spent up to now is      836.8 secs

     End of self-consistent calculation

          k = 0.0000 0.0000 0.0000 ( 65197 PWs)   bands (ev):

   -92.6894 -92.6378 -92.5434 -92.4968 -92.4412 -92.3967 -92.3782 -92.2555
   -56.0429 -56.0246 -55.9008 -55.8901 -55.8833 -55.8770 -55.8410 -55.8126
   -55.7967 -55.7966 -55.7890 -55.7472 -55.7280 -55.6921 -55.6699 -55.6404
   -55.6326 -55.5841 -55.5825 -55.5816 -55.5732 -55.5300 -55.5087 -55.4219
   -31.2669 -31.2474 -31.1060 -31.0477 -31.0190 -31.0048 -30.7511 -30.7246
   -29.8367 -29.7929 -29.7682 -29.6591 -15.0698 -15.0240 -14.9452 -14.8144
   -14.6217 -14.4960 -14.2070 -14.1874 -14.1571 -14.1129 -14.0648 -14.0579
   -14.0453 -14.0254 -13.9996 -13.9717 -13.9415 -13.9178 -13.7670 -13.5887
   -13.5528 -13.5247 -13.4926 -13.4756 -13.4178 -13.3818 -13.3115 -13.2395
   -13.1193 -13.0990 -13.0896 -13.0637 -13.0527 -13.0459 -12.9957 -12.9908
   -12.9688 -12.9452 -12.9118 -12.8949 -12.8848 -12.8647 -12.8527 -12.7575
   -12.7335 -12.7150 -12.6452 -12.6020 -12.5790 -12.3313 -12.1858 -12.0097
   -11.9236 -11.8499 -11.7757 -11.7649 -11.7419 -11.7245 -11.6607 -11.6436
   -11.6084 -11.5800 -11.4681 -11.3883 -11.3845  -2.9296  -2.6977  -2.4676
    -2.3212  -2.2579  -2.1162  -1.8086  -1.7944  -1.7752  -1.6907  -1.6711
    -1.6027  -1.5862  -1.5441  -1.5028  -1.3199  -1.0979  -1.0822  -1.0643
    -0.9193  -0.9049  -0.8574  -0.8398  -0.7937  -0.7771  -0.7222  -0.6955
    -0.6185  -0.6107  -0.5352  -0.4020  -0.3907  -0.3616  -0.2805  -0.2525
    -0.2457  -0.1912  -0.1158  -0.0505  -0.0199   0.0099   0.1056   0.1385
     0.1954   0.2102   0.2411   0.4853   0.5010   0.6716   0.7389   0.8074
     0.8667   0.9382   0.9506   0.9627   1.0362   1.0620   1.0960   1.1546
     1.2852   1.3454   1.3659   1.3848   1.4024   1.4631   1.5331   1.6438
     1.6534   1.7209   1.7325   1.7748   1.7877   1.8007   1.8633   1.9202
     1.9306   1.9638   1.9930   2.0420   2.1714   2.2663   2.3039   2.3081
     2.4564   2.4691   2.4793   2.4964   2.5240   2.5495   2.6337   2.6694
     2.6953   2.7138   2.7290   2.8117   2.9183   2.9519   2.9639   2.9694
     3.0366   3.0411   3.0647   3.0725   3.0814   3.0927   3.1009   3.1147
     3.1213   3.1319   3.1407   3.1505   3.1686   3.1895   3.1945   3.2071
     3.2355   3.3486   3.4245   4.1204   4.4465   4.7780   4.8735   5.0669
     5.7705   5.9572   5.9968   6.0136   6.3254   6.3725   6.4900   6.4991
     6.7476   7.0114   7.1076   7.3277   7.4973   7.5786   7.6668   7.6743
     7.7156   7.8459   7.9345   8.0753   8.1217   8.1781   8.4265   8.4771
     8.7011   8.8209   8.8942

     occupation numbers 
     1.0000   1.0000   1.0000   1.0000   1.0000   1.0000   1.0000   1.0000
     1.0000   1.0000   1.0000   1.0000   1.0000   1.0000   1.0000   1.0000
     1.0000   1.0000   1.0000   1.0000   1.0000   1.0000   1.0000   1.0000
     1.0000   1.0000   1.0000   1.0000   1.0000   1.0000   1.0000   1.0000
     1.0000   1.0000   1.0000   1.0000   1.0000   1.0000   1.0000   1.0000
     1.0000   1.0000   1.0000   1.0000   1.0000   1.0000   1.0000   1.0000
     1.0000   1.0000   1.0000   1.0000   1.0000   1.0000   1.0000   1.0000
     1.0000   1.0000   1.0000   1.0000   1.0000   1.0000   1.0000   1.0000
     1.0000   1.0000   1.0000   1.0000   1.0000   1.0000   1.0000   1.0000
     1.0000   1.0000   1.0000   1.0000   1.0000   1.0000   1.0000   1.0000
     1.0000   1.0000   1.0000   1.0000   1.0000   1.0000   1.0000   1.0000
     1.0000   1.0000   1.0000   1.0000   1.0000   1.0000   1.0000   1.0000
     1.0000   1.0000   1.0000   1.0000   1.0000   1.0000   1.0000   1.0000
     1.0000   1.0000   1.0000   1.0000   1.0000   1.0000   1.0000   1.0000
     1.0000   1.0000   1.0000   1.0000   1.0000   1.0000   1.0000   1.0000
     1.0000   1.0000   1.0000   1.0000   1.0000   1.0000   1.0000   1.0000
     1.0000   1.0000   1.0000   1.0000   1.0000   1.0000   1.0000   1.0000
     1.0000   1.0000   1.0000   1.0000   1.0000   1.0000   1.0000   1.0000
     1.0000   1.0000   1.0000   1.0000   1.0000   1.0000   1.0000   1.0000
     1.0000   1.0000   1.0000   1.0000   1.0000   1.0000   0.9999   0.9999
     0.9999   0.9998   0.9998   0.9998   0.9997   0.9996   0.9996   0.9994
     0.9988   0.9985   0.9983   0.9981   0.9980   0.9973   0.9963   0.9941
     0.9938   0.9918   0.9914   0.9899   0.9893   0.9888   0.9857   0.9824
     0.9817   0.9794   0.9771   0.9729   0.9584   0.9443   0.9377   0.9369
     0.9048   0.9016   0.8989   0.8943   0.8867   0.8792   0.8522   0.8397
     0.8301   0.8231   0.8172   0.7828   0.7335   0.7169   0.7108   0.7080
     0.6728   0.6704   0.6577   0.6534   0.6485   0.6423   0.6377   0.6300
     0.6263   0.6203   0.6153   0.6098   0.5994   0.5874   0.5845   0.5772
     0.5606   0.4939   0.4490   0.1227   0.0499   0.0163   0.0113   0.0051
     0.0002   0.0001   0.0000   0.0000   0.0000   0.0000   0.0000   0.0000
     0.0000   0.0000   0.0000   0.0000   0.0000   0.0000   0.0000   0.0000
     0.0000   0.0000   0.0000   0.0000   0.0000   0.0000   0.0000   0.0000
     0.0000   0.0000   0.0000

          k = 0.0000 0.2500 0.0000 ( 65257 PWs)   bands (ev):

   -92.6894 -92.6378 -92.5434 -92.4968 -92.4412 -92.3967 -92.3783 -92.2555
   -56.0429 -56.0246 -55.9008 -55.8901 -55.8833 -55.8770 -55.8410 -55.8126
   -55.7967 -55.7965 -55.7890 -55.7472 -55.7280 -55.6921 -55.6699 -55.6404
   -55.6326 -55.5841 -55.5825 -55.5816 -55.5732 -55.5300 -55.5087 -55.4219
   -31.2667 -31.2473 -31.1062 -31.0470 -31.0192 -31.0055 -30.7498 -30.7259
   -29.8360 -29.7926 -29.7689 -29.6595 -15.0332 -14.9979 -14.9200 -14.7850
   -14.6620 -14.4870 -14.3530 -14.1736 -14.1369 -14.1173 -14.0894 -14.0287
   -14.0226 -14.0088 -13.9880 -13.9521 -13.9293 -13.8369 -13.7969 -13.6364
   -13.6104 -13.5654 -13.5303 -13.4839 -13.4387 -13.3829 -13.3314 -13.2969
   -13.2310 -13.1611 -13.1366 -13.0979 -13.0817 -13.0352 -12.9797 -12.9567
   -12.9268 -12.9120 -12.8900 -12.8556 -12.8057 -12.7970 -12.7871 -12.7371
   -12.7321 -12.6967 -12.6391 -12.5162 -12.4456 -12.3926 -12.2370 -12.0666
   -11.9906 -11.8154 -11.7725 -11.7448 -11.7168 -11.7001 -11.6524 -11.6414
   -11.6189 -11.5841 -11.4825 -11.4298 -11.4193  -2.7942  -2.5734  -2.4351
    -2.2536  -2.2099  -2.0465  -1.8268  -1.7426  -1.7295  -1.6717  -1.5676
    -1.5531  -1.5208  -1.4923  -1.4487  -1.2512  -1.1231  -1.1129  -1.0791
    -1.0346  -1.0233  -0.9195  -0.8901  -0.8318  -0.8063  -0.7664  -0.7025
    -0.6747  -0.6431  -0.6098  -0.5936  -0.5599  -0.4866  -0.4369  -0.3705
    -0.2515  -0.2361  -0.1954  -0.0726  -0.0117   0.0168   0.0750   0.1231
     0.1490   0.1754   0.2449   0.5364   0.6196   0.6623   0.7435   0.7838
     0.8207   0.9207   0.9399   1.0394   1.0643   1.0889   1.2015   1.2984
     1.3211   1.3459   1.3608   1.3859   1.4483   1.4737   1.5033   1.5494
     1.5859   1.6170   1.7079   1.7386   1.7733   1.8217   1.8848   1.9288
     1.9479   1.9711   1.9871   2.0882   2.2165   2.2825   2.2989   2.3718
     2.4167   2.4513   2.4662   2.4838   2.5051   2.5284   2.5660   2.6484
     2.6897   2.7066   2.8771   2.8988   2.9330   2.9548   2.9699   2.9785
     2.9868   2.9944   3.0245   3.0266   3.0442   3.0489   3.0589   3.0779
     3.0898   3.0974   3.1189   3.1309   3.1354   3.1707   3.1873   3.2475
     3.6267   3.6484   3.8893   4.3128   4.4394   4.7272   5.0285   5.0821
     5.6585   5.8130   5.9333   5.9998   6.0955   6.1155   6.1953   6.6058
     6.8871   7.0231   7.1131   7.3399   7.4964   7.5095   7.6523   7.6801
     7.8599   7.9379   8.0435   8.2007   8.2149   8.3684   8.4168   8.4615
     8.5426   8.8019   8.9297

     occupation numbers 
     1.0000   1.0000   1.0000   1.0000   1.0000   1.0000   1.0000   1.0000
     1.0000   1.0000   1.0000   1.0000   1.0000   1.0000   1.0000   1.0000
     1.0000   1.0000   1.0000   1.0000   1.0000   1.0000   1.0000   1.0000
     1.0000   1.0000   1.0000   1.0000   1.0000   1.0000   1.0000   1.0000
     1.0000   1.0000   1.0000   1.0000   1.0000   1.0000   1.0000   1.0000
     1.0000   1.0000   1.0000   1.0000   1.0000   1.0000   1.0000   1.0000
     1.0000   1.0000   1.0000   1.0000   1.0000   1.0000   1.0000   1.0000
     1.0000   1.0000   1.0000   1.0000   1.0000   1.0000   1.0000   1.0000
     1.0000   1.0000   1.0000   1.0000   1.0000   1.0000   1.0000   1.0000
     1.0000   1.0000   1.0000   1.0000   1.0000   1.0000   1.0000   1.0000
     1.0000   1.0000   1.0000   1.0000   1.0000   1.0000   1.0000   1.0000
     1.0000   1.0000   1.0000   1.0000   1.0000   1.0000   1.0000   1.0000
     1.0000   1.0000   1.0000   1.0000   1.0000   1.0000   1.0000   1.0000
     1.0000   1.0000   1.0000   1.0000   1.0000   1.0000   1.0000   1.0000
     1.0000   1.0000   1.0000   1.0000   1.0000   1.0000   1.0000   1.0000
     1.0000   1.0000   1.0000   1.0000   1.0000   1.0000   1.0000   1.0000
     1.0000   1.0000   1.0000   1.0000   1.0000   1.0000   1.0000   1.0000
     1.0000   1.0000   1.0000   1.0000   1.0000   1.0000   1.0000   1.0000
     1.0000   1.0000   1.0000   1.0000   1.0000   1.0000   1.0000   1.0000
     1.0000   1.0000   1.0000   1.0000   1.0000   1.0000   0.9999   0.9999
     0.9999   0.9998   0.9998   0.9997   0.9996   0.9996   0.9992   0.9988
     0.9986   0.9985   0.9983   0.9981   0.9975   0.9972   0.9968   0.9960
     0.9954   0.9947   0.9923   0.9912   0.9899   0.9878   0.9845   0.9818
     0.9805   0.9788   0.9776   0.9683   0.9521   0.9415   0.9386   0.9243
     0.9144   0.9061   0.9023   0.8977   0.8920   0.8854   0.8742   0.8472
     0.8322   0.8259   0.7532   0.7430   0.7263   0.7154   0.7078   0.7034
     0.6991   0.6951   0.6793   0.6782   0.6688   0.6662   0.6608   0.6504
     0.6439   0.6397   0.6277   0.6209   0.6183   0.5982   0.5886   0.5536
     0.3342   0.3225   0.2066   0.0739   0.0510   0.0196   0.0060   0.0048
     0.0003   0.0001   0.0001   0.0000   0.0000   0.0000   0.0000   0.0000
     0.0000   0.0000   0.0000   0.0000   0.0000   0.0000   0.0000   0.0000
     0.0000   0.0000   0.0000   0.0000   0.0000   0.0000   0.0000   0.0000
     0.0000   0.0000   0.0000

          k = 0.0000-0.5000 0.0000 ( 65180 PWs)   bands (ev):

   -92.6894 -92.6378 -92.5434 -92.4968 -92.4412 -92.3967 -92.3782 -92.2555
   -56.0429 -56.0246 -55.9008 -55.8901 -55.8833 -55.8770 -55.8410 -55.8126
   -55.7967 -55.7965 -55.7890 -55.7472 -55.7280 -55.6921 -55.6699 -55.6404
   -55.6326 -55.5841 -55.5825 -55.5816 -55.5732 -55.5300 -55.5087 -55.4219
   -31.2665 -31.2472 -31.1064 -31.0462 -31.0193 -31.0062 -30.7484 -30.7274
   -29.8354 -29.7923 -29.7695 -29.6598 -14.9973 -14.9490 -14.8959 -14.7651
   -14.6836 -14.5456 -14.3932 -14.2672 -14.1460 -14.0747 -14.0294 -14.0243
   -13.9733 -13.9577 -13.9455 -13.9123 -13.8875 -13.8651 -13.8296 -13.7781
   -13.7477 -13.5717 -13.5134 -13.4894 -13.4455 -13.3658 -13.3473 -13.3103
   -13.2722 -13.2537 -13.2070 -13.0988 -13.0830 -13.0010 -12.9935 -12.9559
   -12.9390 -12.9178 -12.8709 -12.7953 -12.7857 -12.7353 -12.7265 -12.6949
   -12.6741 -12.6446 -12.6393 -12.5036 -12.3798 -12.3121 -12.2417 -12.1655
   -12.1292 -11.7694 -11.7670 -11.7399 -11.7029 -11.6684 -11.6573 -11.6141
   -11.6102 -11.5652 -11.5045 -11.4905 -11.4765  -2.5790  -2.5210  -2.3699
    -2.2983  -2.0156  -1.9334  -1.8055  -1.6685  -1.6304  -1.6109  -1.5341
    -1.5008  -1.4200  -1.3845  -1.3058  -1.2672  -1.2285  -1.2017  -1.1431
    -1.1079  -1.0826  -1.0558  -1.0231  -0.9909  -0.9555  -0.8467  -0.8023
    -0.7663  -0.7646  -0.6779  -0.6478  -0.6233  -0.5774  -0.4909  -0.4144
    -0.3250  -0.3007  -0.1672  -0.1584  -0.0185   0.0208   0.0584   0.0923
     0.2215   0.3214   0.4040   0.4733   0.4828   0.6113   0.6868   0.7473
     0.9019   0.9914   1.0259   1.0667   1.0772   1.1079   1.1261   1.1622
     1.1797   1.1980   1.3050   1.3594   1.3872   1.4109   1.6840   1.7167
     1.7431   1.8242   1.8419   1.8870   1.9119   1.9272   1.9477   1.9645
     1.9819   2.0162   2.0406   2.0717   2.0783   2.1095   2.1646   2.2540
     2.3016   2.4513   2.4751   2.4834   2.6158   2.6311   2.6390   2.6830
     2.6882   2.6952   2.7444   2.7565   2.8105   2.8328   2.9116   2.9217
     2.9952   2.9956   3.0214   3.0258   3.0414   3.0447   3.0484   3.0551
     3.0594   3.0721   3.0893   3.0911   3.1558   3.1605   3.1769   3.2340
     4.1324   4.1577   4.2312   4.2700   4.7422   4.9291   5.0356   5.1789
     5.4228   5.4741   5.5961   5.7354   6.0387   6.0585   6.3533   6.4198
     6.8610   6.9614   7.2349   7.2730   7.3860   7.4742   7.7613   7.8376
     7.9189   8.0297   8.1244   8.2329   8.3787   8.4417   8.5039   8.6780
     8.8243   8.8677   8.8796

     occupation numbers 
     1.0000   1.0000   1.0000   1.0000   1.0000   1.0000   1.0000   1.0000
     1.0000   1.0000   1.0000   1.0000   1.0000   1.0000   1.0000   1.0000
     1.0000   1.0000   1.0000   1.0000   1.0000   1.0000   1.0000   1.0000
     1.0000   1.0000   1.0000   1.0000   1.0000   1.0000   1.0000   1.0000
     1.0000   1.0000   1.0000   1.0000   1.0000   1.0000   1.0000   1.0000
     1.0000   1.0000   1.0000   1.0000   1.0000   1.0000   1.0000   1.0000
     1.0000   1.0000   1.0000   1.0000   1.0000   1.0000   1.0000   1.0000
     1.0000   1.0000   1.0000   1.0000   1.0000   1.0000   1.0000   1.0000
     1.0000   1.0000   1.0000   1.0000   1.0000   1.0000   1.0000   1.0000
     1.0000   1.0000   1.0000   1.0000   1.0000   1.0000   1.0000   1.0000
     1.0000   1.0000   1.0000   1.0000   1.0000   1.0000   1.0000   1.0000
     1.0000   1.0000   1.0000   1.0000   1.0000   1.0000   1.0000   1.0000
     1.0000   1.0000   1.0000   1.0000   1.0000   1.0000   1.0000   1.0000
     1.0000   1.0000   1.0000   1.0000   1.0000   1.0000   1.0000   1.0000
     1.0000   1.0000   1.0000   1.0000   1.0000   1.0000   1.0000   1.0000
     1.0000   1.0000   1.0000   1.0000   1.0000   1.0000   1.0000   1.0000
     1.0000   1.0000   1.0000   1.0000   1.0000   1.0000   1.0000   1.0000
     1.0000   1.0000   1.0000   1.0000   1.0000   1.0000   1.0000   1.0000
     1.0000   1.0000   1.0000   1.0000   1.0000   1.0000   1.0000   1.0000
     1.0000   1.0000   1.0000   1.0000   1.0000   1.0000   1.0000   0.9999
     0.9999   0.9998   0.9997   0.9996   0.9996   0.9995   0.9995   0.9994
     0.9993   0.9993   0.9987   0.9983   0.9981   0.9979   0.9930   0.9920
     0.9911   0.9877   0.9869   0.9844   0.9829   0.9819   0.9805   0.9793
     0.9780   0.9752   0.9730   0.9700   0.9693   0.9660   0.9593   0.9463
     0.9381   0.9061   0.9000   0.8978   0.8583   0.8531   0.8504   0.8347
     0.8328   0.8302   0.8110   0.8061   0.7833   0.7735   0.7368   0.7319
     0.6947   0.6945   0.6810   0.6786   0.6703   0.6685   0.6665   0.6629
     0.6606   0.6536   0.6442   0.6431   0.6067   0.6041   0.5946   0.5615
     0.1191   0.1118   0.0924   0.0832   0.0185   0.0091   0.0059   0.0031
     0.0010   0.0008   0.0004   0.0002   0.0000   0.0000   0.0000   0.0000
     0.0000   0.0000   0.0000   0.0000   0.0000   0.0000   0.0000   0.0000
     0.0000   0.0000   0.0000   0.0000   0.0000   0.0000   0.0000   0.0000
     0.0000   0.0000   0.0000

          k = 0.2500 0.2500 0.0000 ( 65198 PWs)   bands (ev):

   -92.6894 -92.6378 -92.5434 -92.4968 -92.4412 -92.3967 -92.3782 -92.2555
   -56.0429 -56.0246 -55.9008 -55.8901 -55.8833 -55.8770 -55.8410 -55.8126
   -55.7967 -55.7966 -55.7890 -55.7472 -55.7280 -55.6921 -55.6699 -55.6404
   -55.6326 -55.5841 -55.5825 -55.5816 -55.5732 -55.5300 -55.5087 -55.4219
   -31.2651 -31.2490 -31.1059 -31.0469 -31.0196 -31.0054 -30.7499 -30.7260
   -29.8351 -29.7936 -29.7685 -29.6599 -15.0043 -14.9631 -14.8920 -14.7745
   -14.6550 -14.5276 -14.4587 -14.2507 -14.0969 -14.0833 -14.0472 -14.0170
   -13.9934 -13.9672 -13.9481 -13.9297 -13.9000 -13.8285 -13.8110 -13.6515
   -13.6368 -13.6074 -13.5885 -13.5325 -13.4982 -13.4156 -13.4018 -13.2840
   -13.2536 -13.2182 -13.1308 -13.0909 -13.0401 -13.0097 -13.0036 -12.9725
   -12.9359 -12.9219 -12.9032 -12.8419 -12.8054 -12.7383 -12.7321 -12.7029
   -12.6905 -12.6675 -12.6293 -12.4663 -12.4411 -12.3677 -12.2661 -12.0982
   -12.0343 -11.7877 -11.7559 -11.7452 -11.7383 -11.6754 -11.6411 -11.6342
   -11.5984 -11.5912 -11.4991 -11.4580 -11.4407  -2.6558  -2.4476  -2.3289
    -2.2354  -2.1144  -2.0498  -1.8516  -1.7072  -1.6883  -1.6586  -1.5623
    -1.5310  -1.4358  -1.4082  -1.3577  -1.2281  -1.1787  -1.1062  -1.0833
    -1.0600  -1.0151  -0.9928  -0.9686  -0.9257  -0.9109  -0.8203  -0.7697
    -0.7028  -0.6543  -0.6231  -0.5763  -0.5611  -0.4981  -0.4480  -0.3898
    -0.3575  -0.2704  -0.2137  -0.1898  -0.1501  -0.0964   0.0064   0.0173
     0.0407   0.1296   0.1612   0.4224   0.5752   0.6064   0.6726   0.7195
     0.7717   0.8127   0.8885   0.9152   1.1869   1.2530   1.3277   1.3522
     1.4017   1.4308   1.4677   1.5056   1.5221   1.5501   1.5973   1.6027
     1.6182   1.6603   1.6979   1.7395   1.8133   1.8410   1.8543   1.8902
     1.9251   1.9736   1.9977   2.1264   2.1930   2.2308   2.2467   2.3126
     2.3790   2.4063   2.4420   2.4645   2.4719   2.4873   2.5053   2.5917
     2.6311   2.7190   2.8885   2.9051   2.9112   2.9281   2.9438   2.9555
     2.9686   2.9745   2.9852   2.9989   3.0110   3.0289   3.0350   3.0471
     3.0689   3.0810   3.0908   3.1221   3.4224   3.5153   3.5587   3.6314
     3.6625   3.8681   3.9657   4.3283   4.5215   4.7279   5.0039   5.1747
     5.6636   5.7141   5.7778   5.8481   5.9078   6.0891   6.1685   6.2213
     6.9056   6.9735   7.0713   7.2917   7.5603   7.6165   7.7241   7.8497
     7.8877   8.0217   8.1774   8.2277   8.2903   8.3545   8.4562   8.4707
     8.5485   8.7804   8.8907

     occupation numbers 
     1.0000   1.0000   1.0000   1.0000   1.0000   1.0000   1.0000   1.0000
     1.0000   1.0000   1.0000   1.0000   1.0000   1.0000   1.0000   1.0000
     1.0000   1.0000   1.0000   1.0000   1.0000   1.0000   1.0000   1.0000
     1.0000   1.0000   1.0000   1.0000   1.0000   1.0000   1.0000   1.0000
     1.0000   1.0000   1.0000   1.0000   1.0000   1.0000   1.0000   1.0000
     1.0000   1.0000   1.0000   1.0000   1.0000   1.0000   1.0000   1.0000
     1.0000   1.0000   1.0000   1.0000   1.0000   1.0000   1.0000   1.0000
     1.0000   1.0000   1.0000   1.0000   1.0000   1.0000   1.0000   1.0000
     1.0000   1.0000   1.0000   1.0000   1.0000   1.0000   1.0000   1.0000
     1.0000   1.0000   1.0000   1.0000   1.0000   1.0000   1.0000   1.0000
     1.0000   1.0000   1.0000   1.0000   1.0000   1.0000   1.0000   1.0000
     1.0000   1.0000   1.0000   1.0000   1.0000   1.0000   1.0000   1.0000
     1.0000   1.0000   1.0000   1.0000   1.0000   1.0000   1.0000   1.0000
     1.0000   1.0000   1.0000   1.0000   1.0000   1.0000   1.0000   1.0000
     1.0000   1.0000   1.0000   1.0000   1.0000   1.0000   1.0000   1.0000
     1.0000   1.0000   1.0000   1.0000   1.0000   1.0000   1.0000   1.0000
     1.0000   1.0000   1.0000   1.0000   1.0000   1.0000   1.0000   1.0000
     1.0000   1.0000   1.0000   1.0000   1.0000   1.0000   1.0000   1.0000
     1.0000   1.0000   1.0000   1.0000   1.0000   1.0000   1.0000   1.0000
     1.0000   1.0000   1.0000   1.0000   1.0000   1.0000   1.0000   0.9999
     0.9999   0.9999   0.9999   0.9998   0.9993   0.9990   0.9986   0.9984
     0.9980   0.9977   0.9973   0.9967   0.9965   0.9960   0.9951   0.9950
     0.9947   0.9936   0.9926   0.9912   0.9882   0.9869   0.9862   0.9842
     0.9821   0.9786   0.9767   0.9640   0.9555   0.9500   0.9475   0.9361
     0.9228   0.9168   0.9084   0.9027   0.9008   0.8968   0.8919   0.8662
     0.8531   0.8211   0.7479   0.7399   0.7370   0.7287   0.7210   0.7151
     0.7084   0.7054   0.6999   0.6928   0.6865   0.6770   0.6737   0.6672
     0.6554   0.6487   0.6433   0.6258   0.4502   0.3963   0.3717   0.3316
     0.3151   0.2157   0.1757   0.0708   0.0395   0.0195   0.0067   0.0032
     0.0003   0.0002   0.0001   0.0001   0.0001   0.0000   0.0000   0.0000
     0.0000   0.0000   0.0000   0.0000   0.0000   0.0000   0.0000   0.0000
     0.0000   0.0000   0.0000   0.0000   0.0000   0.0000   0.0000   0.0000
     0.0000   0.0000   0.0000

          k = 0.2500-0.5000 0.0000 ( 65138 PWs)   bands (ev):

   -92.6894 -92.6378 -92.5434 -92.4968 -92.4412 -92.3967 -92.3782 -92.2555
   -56.0429 -56.0246 -55.9008 -55.8901 -55.8833 -55.8770 -55.8409 -55.8126
   -55.7967 -55.7965 -55.7890 -55.7472 -55.7280 -55.6921 -55.6699 -55.6404
   -55.6326 -55.5841 -55.5825 -55.5816 -55.5732 -55.5300 -55.5087 -55.4219
   -31.2649 -31.2489 -31.1061 -31.0461 -31.0197 -31.0061 -30.7485 -30.7275
   -29.8344 -29.7932 -29.7691 -29.6602 -14.9666 -14.9221 -14.8527 -14.7351
   -14.7065 -14.5868 -14.4960 -14.3648 -14.0617 -14.0076 -13.9810 -13.9576
   -13.9461 -13.9421 -13.9304 -13.8961 -13.8763 -13.8438 -13.8079 -13.7775
   -13.7315 -13.6541 -13.6058 -13.5490 -13.5273 -13.4573 -13.4074 -13.3453
   -13.3151 -13.1957 -13.1313 -13.1091 -13.0240 -12.9863 -12.9711 -12.9705
   -12.9466 -12.9303 -12.9003 -12.7967 -12.7903 -12.7405 -12.7321 -12.6795
   -12.6513 -12.6427 -12.6125 -12.5102 -12.3631 -12.3095 -12.2216 -12.1547
   -12.1289 -11.7632 -11.7513 -11.7405 -11.7136 -11.6817 -11.6538 -11.6117
   -11.5847 -11.5621 -11.5174 -11.4917 -11.4804  -2.4368  -2.3729  -2.2437
    -2.1670  -2.0359  -1.9534  -1.8299  -1.6798  -1.6258  -1.6028  -1.5408
    -1.5282  -1.4308  -1.3635  -1.2786  -1.2285  -1.2188  -1.1572  -1.1138
    -1.0821  -1.0796  -1.0317  -0.9938  -0.9585  -0.9200  -0.9084  -0.8629
    -0.8336  -0.7912  -0.7601  -0.6934  -0.5915  -0.5540  -0.4733  -0.4059
    -0.3539  -0.3164  -0.2965  -0.2255  -0.0789  -0.0579   0.0331   0.0647
     0.0731   0.1167   0.1666   0.1905   0.2349   0.2917   0.5783   0.7037
     0.7210   0.7759   1.0583   1.0732   1.1620   1.1859   1.3497   1.3852
     1.4255   1.4509   1.4626   1.4845   1.5465   1.5952   1.6297   1.7009
     1.8198   1.8420   1.8652   1.8689   1.9102   1.9198   1.9394   1.9798
     1.9841   2.0081   2.0287   2.0499   2.0718   2.1044   2.1649   2.2096
     2.2924   2.4189   2.4743   2.4802   2.5680   2.5832   2.6023   2.6338
     2.6602   2.6828   2.7037   2.7176   2.7411   2.8381   2.8898   2.9069
     2.9103   2.9247   2.9450   2.9584   2.9780   2.9862   3.0197   3.0288
     3.0445   3.0524   3.0603   3.0717   3.5862   3.6159   3.7544   3.8137
     4.1414   4.1980   4.2278   4.3316   4.7628   4.9492   5.0723   5.1521
     5.3159   5.4419   5.6164   5.6477   5.7806   5.8015   6.4053   6.4537
     6.5021   6.5370   7.2813   7.3801   7.5919   7.7083   7.7762   7.8319
     7.8946   8.0497   8.2998   8.4057   8.4578   8.5542   8.5622   8.5947
     8.7042   8.7280   8.7839

     occupation numbers 
     1.0000   1.0000   1.0000   1.0000   1.0000   1.0000   1.0000   1.0000
     1.0000   1.0000   1.0000   1.0000   1.0000   1.0000   1.0000   1.0000
     1.0000   1.0000   1.0000   1.0000   1.0000   1.0000   1.0000   1.0000
     1.0000   1.0000   1.0000   1.0000   1.0000   1.0000   1.0000   1.0000
     1.0000   1.0000   1.0000   1.0000   1.0000   1.0000   1.0000   1.0000
     1.0000   1.0000   1.0000   1.0000   1.0000   1.0000   1.0000   1.0000
     1.0000   1.0000   1.0000   1.0000   1.0000   1.0000   1.0000   1.0000
     1.0000   1.0000   1.0000   1.0000   1.0000   1.0000   1.0000   1.0000
     1.0000   1.0000   1.0000   1.0000   1.0000   1.0000   1.0000   1.0000
     1.0000   1.0000   1.0000   1.0000   1.0000   1.0000   1.0000   1.0000
     1.0000   1.0000   1.0000   1.0000   1.0000   1.0000   1.0000   1.0000
     1.0000   1.0000   1.0000   1.0000   1.0000   1.0000   1.0000   1.0000
     1.0000   1.0000   1.0000   1.0000   1.0000   1.0000   1.0000   1.0000
     1.0000   1.0000   1.0000   1.0000   1.0000   1.0000   1.0000   1.0000
     1.0000   1.0000   1.0000   1.0000   1.0000   1.0000   1.0000   1.0000
     1.0000   1.0000   1.0000   1.0000   1.0000   1.0000   1.0000   1.0000
     1.0000   1.0000   1.0000   1.0000   1.0000   1.0000   1.0000   1.0000
     1.0000   1.0000   1.0000   1.0000   1.0000   1.0000   1.0000   1.0000
     1.0000   1.0000   1.0000   1.0000   1.0000   1.0000   1.0000   1.0000
     1.0000   1.0000   1.0000   1.0000   1.0000   1.0000   1.0000   1.0000
     0.9999   0.9999   0.9996   0.9996   0.9994   0.9993   0.9984   0.9981
     0.9977   0.9975   0.9973   0.9970   0.9961   0.9952   0.9944   0.9925
     0.9879   0.9868   0.9856   0.9854   0.9830   0.9824   0.9811   0.9782
     0.9778   0.9759   0.9741   0.9721   0.9700   0.9665   0.9593   0.9531
     0.9398   0.9139   0.9002   0.8987   0.8736   0.8689   0.8627   0.8522
     0.8430   0.8348   0.8270   0.8216   0.8123   0.7711   0.7473   0.7390
     0.7374   0.7304   0.7204   0.7136   0.7036   0.6994   0.6818   0.6770
     0.6686   0.6644   0.6601   0.6539   0.3563   0.3400   0.2683   0.2401
     0.1165   0.1008   0.0932   0.0701   0.0172   0.0084   0.0050   0.0035
     0.0017   0.0009   0.0004   0.0003   0.0001   0.0001   0.0000   0.0000
     0.0000   0.0000   0.0000   0.0000   0.0000   0.0000   0.0000   0.0000
     0.0000   0.0000   0.0000   0.0000   0.0000   0.0000   0.0000   0.0000
     0.0000   0.0000   0.0000

          k =-0.5000-0.5000 0.0000 ( 65132 PWs)   bands (ev):

   -92.6894 -92.6378 -92.5434 -92.4968 -92.4412 -92.3967 -92.3782 -92.2555
   -56.0429 -56.0246 -55.9008 -55.8901 -55.8833 -55.8769 -55.8409 -55.8126
   -55.7967 -55.7965 -55.7890 -55.7472 -55.7280 -55.6921 -55.6699 -55.6404
   -55.6326 -55.5841 -55.5825 -55.5816 -55.5732 -55.5300 -55.5087 -55.4219
   -31.2627 -31.2510 -31.1057 -31.0460 -31.0201 -31.0060 -30.7486 -30.7276
   -29.8334 -29.7943 -29.7687 -29.6606 -14.9197 -14.8952 -14.7761 -14.7648
   -14.6702 -14.6342 -14.5982 -14.4647 -13.9715 -13.9578 -13.9448 -13.9254
   -13.9084 -13.8896 -13.8747 -13.8472 -13.8369 -13.8225 -13.8120 -13.7971
   -13.7219 -13.7143 -13.6817 -13.6506 -13.6345 -13.5468 -13.4585 -13.3768
   -13.3722 -13.1458 -13.1068 -13.0396 -13.0145 -12.9828 -12.9732 -12.9642
   -12.9562 -12.9443 -12.9266 -12.8033 -12.7826 -12.7472 -12.7275 -12.6898
   -12.6625 -12.5939 -12.5862 -12.5264 -12.3473 -12.3059 -12.2002 -12.1446
   -12.1289 -11.7598 -11.7476 -11.7297 -11.7130 -11.6779 -11.6596 -11.6263
   -11.5650 -11.5450 -11.5395 -11.4893 -11.4861  -2.2123  -2.1365  -2.1285
    -2.0577  -2.0178  -1.9393  -1.8714  -1.7461  -1.6304  -1.6001  -1.5598
    -1.5033  -1.4314  -1.4171  -1.3455  -1.3043  -1.1871  -1.1574  -1.1092
    -1.0835  -1.0782  -1.0163  -0.9691  -0.9504  -0.9377  -0.8851  -0.8412
    -0.8224  -0.7120  -0.6539  -0.6083  -0.5573  -0.5324  -0.5193  -0.4842
    -0.4413  -0.4042  -0.3964  -0.3106  -0.2322  -0.1983  -0.1664  -0.0978
    -0.0298  -0.0250   0.0403   0.0608   0.0655   0.0768   0.5399   0.6556
     0.6661   0.6891   1.0852   1.1029   1.1263   1.1618   1.4349   1.4555
     1.4607   1.4981   1.6291   1.7245   1.7519   1.7890   1.8241   1.8323
     1.8433   1.8751   1.8891   1.9069   1.9240   1.9562   1.9653   1.9905
     2.0198   2.0245   2.0386   2.0866   2.1040   2.1175   2.1523   2.1813
     2.2454   2.3111   2.4676   2.4769   2.5836   2.6121   2.6327   2.6497
     2.6642   2.6924   2.6955   2.7142   2.7249   2.7415   2.7635   2.7743
     2.8384   2.8424   2.8622   2.8780   2.8904   2.9085   2.9164   2.9261
     3.0249   3.0323   3.0574   3.0676   4.0046   4.0514   4.0769   4.1394
     4.3298   4.4027   4.4298   4.6706   4.7924   4.8754   5.0046   5.0928
     5.1182   5.2184   5.3107   5.4263   5.8607   5.8963   5.9684   6.0406
     6.6533   6.7592   7.0032   7.1050   7.8833   7.9375   7.9441   7.9773
     7.9884   8.0327   8.0931   8.2832   8.4582   8.5976   8.6196   8.6357
     8.6677   8.7739   8.8864

     occupation numbers 
     1.0000   1.0000   1.0000   1.0000   1.0000   1.0000   1.0000   1.0000
     1.0000   1.0000   1.0000   1.0000   1.0000   1.0000   1.0000   1.0000
     1.0000   1.0000   1.0000   1.0000   1.0000   1.0000   1.0000   1.0000
     1.0000   1.0000   1.0000   1.0000   1.0000   1.0000   1.0000   1.0000
     1.0000   1.0000   1.0000   1.0000   1.0000   1.0000   1.0000   1.0000
     1.0000   1.0000   1.0000   1.0000   1.0000   1.0000   1.0000   1.0000
     1.0000   1.0000   1.0000   1.0000   1.0000   1.0000   1.0000   1.0000
     1.0000   1.0000   1.0000   1.0000   1.0000   1.0000   1.0000   1.0000
     1.0000   1.0000   1.0000   1.0000   1.0000   1.0000   1.0000   1.0000
     1.0000   1.0000   1.0000   1.0000   1.0000   1.0000   1.0000   1.0000
     1.0000   1.0000   1.0000   1.0000   1.0000   1.0000   1.0000   1.0000
     1.0000   1.0000   1.0000   1.0000   1.0000   1.0000   1.0000   1.0000
     1.0000   1.0000   1.0000   1.0000   1.0000   1.0000   1.0000   1.0000
     1.0000   1.0000   1.0000   1.0000   1.0000   1.0000   1.0000   1.0000
     1.0000   1.0000   1.0000   1.0000   1.0000   1.0000   1.0000   1.0000
     1.0000   1.0000   1.0000   1.0000   1.0000   1.0000   1.0000   1.0000
     1.0000   1.0000   1.0000   1.0000   1.0000   1.0000   1.0000   1.0000
     1.0000   1.0000   1.0000   1.0000   1.0000   1.0000   1.0000   1.0000
     1.0000   1.0000   1.0000   1.0000   1.0000   1.0000   1.0000   1.0000
     1.0000   1.0000   1.0000   1.0000   1.0000   1.0000   1.0000   1.0000
     1.0000   1.0000   0.9996   0.9995   0.9995   0.9994   0.9976   0.9974
     0.9973   0.9969   0.9944   0.9917   0.9908   0.9893   0.9877   0.9873
     0.9868   0.9851   0.9843   0.9832   0.9821   0.9799   0.9793   0.9773
     0.9749   0.9745   0.9732   0.9684   0.9666   0.9651   0.9609   0.9571
     0.9477   0.9364   0.9019   0.8995   0.8687   0.8595   0.8526   0.8467
     0.8415   0.8312   0.8300   0.8229   0.8188   0.8122   0.8033   0.7988
     0.7710   0.7692   0.7601   0.7528   0.7469   0.7383   0.7344   0.7297
     0.6791   0.6752   0.6616   0.6561   0.1612   0.1448   0.1363   0.1171
     0.0705   0.0570   0.0525   0.0239   0.0154   0.0112   0.0067   0.0046
     0.0041   0.0026   0.0017   0.0010   0.0001   0.0001   0.0000   0.0000
     0.0000   0.0000   0.0000   0.0000   0.0000   0.0000   0.0000   0.0000
     0.0000   0.0000   0.0000   0.0000   0.0000   0.0000   0.0000   0.0000
     0.0000   0.0000   0.0000

          k = 0.2500 0.0000 0.0000 ( 65257 PWs)   bands (ev):

   -92.6894 -92.6378 -92.5434 -92.4968 -92.4412 -92.3967 -92.3783 -92.2555
   -56.0429 -56.0246 -55.9008 -55.8901 -55.8833 -55.8770 -55.8410 -55.8126
   -55.7967 -55.7965 -55.7890 -55.7472 -55.7280 -55.6921 -55.6699 -55.6404
   -55.6326 -55.5841 -55.5825 -55.5816 -55.5732 -55.5300 -55.5087 -55.4219
   -31.2652 -31.2491 -31.1057 -31.0476 -31.0194 -31.0047 -30.7512 -30.7247
   -29.8357 -29.7939 -29.7678 -29.6595 -15.0369 -14.9930 -14.9256 -14.7779
   -14.6717 -14.4743 -14.3441 -14.1641 -14.1467 -14.1176 -14.0854 -14.0610
   -14.0246 -14.0108 -13.9865 -13.9531 -13.9323 -13.8290 -13.7977 -13.6480
   -13.5801 -13.5681 -13.5052 -13.4806 -13.4658 -13.3890 -13.3345 -13.3019
   -13.2092 -13.1495 -13.1421 -13.0563 -13.0480 -13.0321 -13.0155 -13.0002
   -12.9630 -12.9283 -12.9073 -12.8726 -12.8598 -12.8088 -12.7605 -12.7148
   -12.6529 -12.6074 -12.5958 -12.5825 -12.5071 -12.3948 -12.2380 -12.0630
   -11.9874 -11.8148 -11.7630 -11.7455 -11.7322 -11.7055 -11.6551 -11.6316
   -11.6237 -11.5735 -11.4838 -11.4281 -11.4222  -2.7937  -2.5724  -2.4419
    -2.2699  -2.2058  -2.0363  -1.8280  -1.7517  -1.7078  -1.6725  -1.5705
    -1.5572  -1.5230  -1.5039  -1.4339  -1.2539  -1.1462  -1.1103  -1.0794
    -1.0069  -0.9965  -0.9177  -0.8909  -0.8389  -0.7988  -0.7467  -0.7166
    -0.6683  -0.6418  -0.6193  -0.5677  -0.5543  -0.4628  -0.4529  -0.3827
    -0.2914  -0.2381  -0.1159  -0.1035  -0.0390   0.0055   0.0566   0.1016
     0.1476   0.1800   0.2245   0.5174   0.6431   0.6717   0.7662   0.8066
     0.8168   0.8407   0.9207   1.0357   1.0784   1.1032   1.1433   1.2883
     1.3245   1.3567   1.3646   1.4052   1.4514   1.4936   1.5267   1.5829
     1.6283   1.6468   1.6945   1.7478   1.7944   1.8206   1.8973   1.9048
     1.9443   1.9591   1.9891   2.1069   2.1740   2.2558   2.3084   2.3231
     2.4015   2.4641   2.4708   2.4819   2.5135   2.5498   2.5655   2.5750
     2.6337   2.7572   2.8711   2.8923   2.9249   2.9514   2.9567   2.9775
     2.9874   3.0018   3.0228   3.0283   3.0524   3.0653   3.0714   3.0844
     3.1058   3.1296   3.1344   3.1419   3.1482   3.1585   3.1682   3.2979
     3.5871   3.6427   3.8976   4.3005   4.4716   4.6929   5.0300   5.0912
     5.6482   5.8259   5.9466   6.0068   6.0818   6.1070   6.1937   6.5945
     6.8449   7.1172   7.1600   7.3428   7.4806   7.5661   7.5840   7.6062
     7.8249   7.9033   8.0450   8.1804   8.3111   8.3448   8.4140   8.4397
     8.5861   8.7969   8.9458

[...]
     0.3558   0.3255   0.2031   0.0765   0.0462   0.0221   0.0060   0.0046
     0.0003   0.0001   0.0001   0.0000   0.0000   0.0000   0.0000   0.0000
     0.0000   0.0000   0.0000   0.0000   0.0000   0.0000   0.0000   0.0000
     0.0000   0.0000   0.0000   0.0000   0.0000   0.0000   0.0000   0.0000
     0.0000   0.0000   0.0000

          k =-0.5000 0.0000 0.0000 ( 65180 PWs)   bands (ev):

   -92.6894 -92.6378 -92.5434 -92.4968 -92.4412 -92.3967 -92.3782 -92.2555
   -56.0429 -56.0246 -55.9008 -55.8901 -55.8833 -55.8769 -55.8410 -55.8126
   -55.7967 -55.7965 -55.7890 -55.7472 -55.7280 -55.6921 -55.6699 -55.6404
   -55.6326 -55.5841 -55.5825 -55.5816 -55.5732 -55.5300 -55.5087 -55.4219
   -31.2631 -31.2513 -31.1053 -31.0475 -31.0198 -31.0046 -30.7513 -30.7249
   -29.8347 -29.7949 -29.7675 -29.6599 -15.0028 -14.9500 -14.8881 -14.7805
   -14.6755 -14.5334 -14.3828 -14.2459 -14.1206 -14.1088 -14.0969 -14.0278
   -13.9789 -13.9476 -13.9434 -13.8954 -13.8904 -13.8725 -13.8267 -13.8061
   -13.6995 -13.5434 -13.5116 -13.4827 -13.4758 -13.3751 -13.3523 -13.2940
   -13.2571 -13.2334 -13.2234 -13.0448 -13.0434 -13.0313 -13.0075 -12.9988
   -12.9415 -12.9347 -12.9151 -12.8751 -12.8605 -12.7071 -12.6561 -12.6293
   -12.6198 -12.6030 -12.5816 -12.5296 -12.4524 -12.3165 -12.3130 -12.1499
   -12.0964 -11.7669 -11.7454 -11.7386 -11.7237 -11.7056 -11.6640 -11.6020
   -11.5847 -11.5521 -11.5062 -11.4970 -11.4817  -2.5693  -2.5311  -2.3678
    -2.3286  -2.0145  -1.9398  -1.7916  -1.6743  -1.6351  -1.5901  -1.5411
    -1.5169  -1.3935  -1.3494  -1.3336  -1.2516  -1.2169  -1.2006  -1.1697
    -1.1102  -1.0837  -1.0402  -1.0140  -0.9815  -0.8872  -0.8417  -0.7924
    -0.7597  -0.7393  -0.7094  -0.6601  -0.6360  -0.5925  -0.4981  -0.4293
    -0.3588  -0.2999  -0.1161  -0.1034  -0.0438  -0.0066   0.0641   0.0926
     0.2175   0.2510   0.2794   0.4545   0.5531   0.6024   0.6760   0.7765
     0.8681   0.8979   1.0231   1.0477   1.0973   1.1220   1.1618   1.1797
     1.2211   1.2463   1.3199   1.3580   1.4045   1.4149   1.7242   1.7326
     1.7455   1.7788   1.8838   1.8858   1.9021   1.9070   1.9336   1.9500
     1.9908   2.0077   2.0342   2.0895   2.1073   2.1548   2.1785   2.2350
     2.3333   2.4508   2.4700   2.4744   2.5210   2.5473   2.6129   2.6381
     2.6705   2.7360   2.7437   2.7512   2.7800   2.8474   2.8965   2.9401
     2.9706   3.0110   3.0161   3.0174   3.0294   3.0430   3.0549   3.0703
     3.0730   3.0961   3.0984   3.1217   3.1407   3.1464   3.2761   3.2826
     4.0668   4.1484   4.2238   4.3361   4.8058   4.8891   5.0547   5.0597
     5.4953   5.5190   5.6134   5.6685   6.0479   6.0518   6.2695   6.5259
     6.8074   7.0128   7.2805   7.3292   7.3755   7.4728   7.6670   7.7881
     7.8983   7.9307   8.1404   8.2895   8.4076   8.4723   8.5303   8.6441
     8.7673   8.8233   8.8742

     occupation numbers 
     1.0000   1.0000   1.0000   1.0000   1.0000   1.0000   1.0000   1.0000
     1.0000   1.0000   1.0000   1.0000   1.0000   1.0000   1.0000   1.0000
     1.0000   1.0000   1.0000   1.0000   1.0000   1.0000   1.0000   1.0000
     1.0000   1.0000   1.0000   1.0000   1.0000   1.0000   1.0000   1.0000
     1.0000   1.0000   1.0000   1.0000   1.0000   1.0000   1.0000   1.0000
     1.0000   1.0000   1.0000   1.0000   1.0000   1.0000   1.0000   1.0000
     1.0000   1.0000   1.0000   1.0000   1.0000   1.0000   1.0000   1.0000
     1.0000   1.0000   1.0000   1.0000   1.0000   1.0000   1.0000   1.0000
     1.0000   1.0000   1.0000   1.0000   1.0000   1.0000   1.0000   1.0000
     1.0000   1.0000   1.0000   1.0000   1.0000   1.0000   1.0000   1.0000
     1.0000   1.0000   1.0000   1.0000   1.0000   1.0000   1.0000   1.0000
     1.0000   1.0000   1.0000   1.0000   1.0000   1.0000   1.0000   1.0000
     1.0000   1.0000   1.0000   1.0000   1.0000   1.0000   1.0000   1.0000
     1.0000   1.0000   1.0000   1.0000   1.0000   1.0000   1.0000   1.0000
     1.0000   1.0000   1.0000   1.0000   1.0000   1.0000   1.0000   1.0000
     1.0000   1.0000   1.0000   1.0000   1.0000   1.0000   1.0000   1.0000
     1.0000   1.0000   1.0000   1.0000   1.0000   1.0000   1.0000   1.0000
     1.0000   1.0000   1.0000   1.0000   1.0000   1.0000   1.0000   1.0000
     1.0000   1.0000   1.0000   1.0000   1.0000   1.0000   1.0000   1.0000
     1.0000   1.0000   1.0000   1.0000   1.0000   1.0000   1.0000   0.9999
     0.9999   0.9999   0.9997   0.9997   0.9996   0.9995   0.9994   0.9993
     0.9992   0.9991   0.9986   0.9984   0.9980   0.9979   0.9917   0.9914
     0.9910   0.9897   0.9846   0.9845   0.9835   0.9832   0.9815   0.9804
     0.9773   0.9759   0.9736   0.9681   0.9662   0.9606   0.9575   0.9493
     0.9322   0.9062   0.9013   0.9002   0.8875   0.8799   0.8593   0.8507
     0.8393   0.8144   0.8113   0.8083   0.7964   0.7669   0.7440   0.7228
     0.7074   0.6864   0.6838   0.6831   0.6767   0.6694   0.6630   0.6546
     0.6531   0.6404   0.6391   0.6261   0.6154   0.6121   0.5367   0.5329
     0.1396   0.1145   0.0943   0.0692   0.0147   0.0106   0.0054   0.0053
     0.0007   0.0006   0.0004   0.0003   0.0000   0.0000   0.0000   0.0000
     0.0000   0.0000   0.0000   0.0000   0.0000   0.0000   0.0000   0.0000
     0.0000   0.0000   0.0000   0.0000   0.0000   0.0000   0.0000   0.0000
     0.0000   0.0000   0.0000

          k =-0.2500 0.2500 0.0000 ( 65198 PWs)   bands (ev):

   -92.6894 -92.6378 -92.5434 -92.4968 -92.4412 -92.3967 -92.3782 -92.2555
   -56.0429 -56.0246 -55.9008 -55.8901 -55.8833 -55.8770 -55.8410 -55.8126
   -55.7967 -55.7966 -55.7890 -55.7472 -55.7280 -55.6921 -55.6699 -55.6404
   -55.6326 -55.5841 -55.5825 -55.5816 -55.5732 -55.5300 -55.5087 -55.4219
   -31.2651 -31.2490 -31.1059 -31.0469 -31.0196 -31.0054 -30.7499 -30.7260
   -29.8351 -29.7936 -29.7685 -29.6599 -15.0056 -14.9620 -14.8905 -14.7730
   -14.6610 -14.5322 -14.4507 -14.2416 -14.1034 -14.0739 -14.0613 -14.0113
   -13.9885 -13.9691 -13.9504 -13.9439 -13.8986 -13.8250 -13.8118 -13.6603
   -13.6335 -13.6031 -13.5848 -13.5360 -13.4846 -13.4244 -13.3947 -13.2921
   -13.2531 -13.2122 -13.1350 -13.0925 -13.0288 -13.0047 -12.9974 -12.9766
   -12.9430 -12.9161 -12.9061 -12.8505 -12.8130 -12.7601 -12.7349 -12.6924
   -12.6822 -12.6626 -12.6303 -12.4629 -12.4309 -12.3691 -12.2718 -12.0977
   -12.0351 -11.7868 -11.7654 -11.7384 -11.7262 -11.6849 -11.6507 -11.6271
   -11.6062 -11.5833 -11.4988 -11.4536 -11.4438  -2.6542  -2.4465  -2.3248
    -2.2370  -2.1186  -2.0525  -1.8492  -1.7041  -1.6860  -1.6566  -1.5628
    -1.5300  -1.4355  -1.4016  -1.3751  -1.2340  -1.1772  -1.1092  -1.0839
    -1.0774  -1.0185  -0.9985  -0.9586  -0.9299  -0.8895  -0.8266  -0.7784
    -0.7148  -0.6460  -0.6191  -0.5693  -0.5421  -0.4953  -0.4384  -0.3919
    -0.3530  -0.2494  -0.2189  -0.2054  -0.1636  -0.0977   0.0002   0.0208
     0.0498   0.1361   0.1572   0.4031   0.5758   0.6164   0.6604   0.7269
     0.7713   0.8187   0.8891   0.9161   1.1962   1.3033   1.3442   1.3776
     1.3809   1.4252   1.4415   1.4865   1.5189   1.5322   1.5572   1.6061
     1.6201   1.6574   1.6768   1.7217   1.8286   1.8353   1.8541   1.8888
     1.9223   1.9564   2.0031   2.1154   2.2287   2.2493   2.2916   2.3113
     2.3769   2.4184   2.4460   2.4608   2.4747   2.4907   2.5118   2.5917
     2.6294   2.7192   2.8956   2.9044   2.9170   2.9268   2.9374   2.9523
     2.9594   2.9762   2.9836   2.9993   3.0088   3.0216   3.0303   3.0368
     3.0707   3.0811   3.0898   3.1238   3.4156   3.4969   3.5616   3.6309
     3.6759   3.8523   3.9747   4.3277   4.5196   4.7291   5.0130   5.1746
     5.6651   5.7115   5.7807   5.8453   5.9086   6.0896   6.1780   6.2105
     6.9037   6.9696   7.0899   7.2721   7.5733   7.6241   7.6837   7.8662
     7.9131   8.0033   8.1657   8.2120   8.3026   8.3495   8.4590   8.5070
     8.6310   8.6743   8.8913

     occupation numbers 
     1.0000   1.0000   1.0000   1.0000   1.0000   1.0000   1.0000   1.0000
     1.0000   1.0000   1.0000   1.0000   1.0000   1.0000   1.0000   1.0000
     1.0000   1.0000   1.0000   1.0000   1.0000   1.0000   1.0000   1.0000
     1.0000   1.0000   1.0000   1.0000   1.0000   1.0000   1.0000   1.0000
     1.0000   1.0000   1.0000   1.0000   1.0000   1.0000   1.0000   1.0000
     1.0000   1.0000   1.0000   1.0000   1.0000   1.0000   1.0000   1.0000
     1.0000   1.0000   1.0000   1.0000   1.0000   1.0000   1.0000   1.0000
     1.0000   1.0000   1.0000   1.0000   1.0000   1.0000   1.0000   1.0000
     1.0000   1.0000   1.0000   1.0000   1.0000   1.0000   1.0000   1.0000
     1.0000   1.0000   1.0000   1.0000   1.0000   1.0000   1.0000   1.0000
     1.0000   1.0000   1.0000   1.0000   1.0000   1.0000   1.0000   1.0000
     1.0000   1.0000   1.0000   1.0000   1.0000   1.0000   1.0000   1.0000
     1.0000   1.0000   1.0000   1.0000   1.0000   1.0000   1.0000   1.0000
     1.0000   1.0000   1.0000   1.0000   1.0000   1.0000   1.0000   1.0000
     1.0000   1.0000   1.0000   1.0000   1.0000   1.0000   1.0000   1.0000
     1.0000   1.0000   1.0000   1.0000   1.0000   1.0000   1.0000   1.0000
     1.0000   1.0000   1.0000   1.0000   1.0000   1.0000   1.0000   1.0000
     1.0000   1.0000   1.0000   1.0000   1.0000   1.0000   1.0000   1.0000
     1.0000   1.0000   1.0000   1.0000   1.0000   1.0000   1.0000   1.0000
     1.0000   1.0000   1.0000   1.0000   1.0000   1.0000   1.0000   0.9999
     0.9999   0.9999   0.9999   0.9998   0.9993   0.9987   0.9985   0.9982
     0.9982   0.9977   0.9976   0.9970   0.9965   0.9963   0.9959   0.9949
     0.9946   0.9937   0.9932   0.9918   0.9875   0.9872   0.9862   0.9843
     0.9822   0.9799   0.9763   0.9653   0.9503   0.9470   0.9399   0.9364
     0.9233   0.9140   0.9074   0.9037   0.9001   0.8959   0.8901   0.8662
     0.8537   0.8210   0.7445   0.7402   0.7341   0.7293   0.7241   0.7167
     0.7131   0.7045   0.7007   0.6926   0.6876   0.6808   0.6762   0.6728
     0.6544   0.6487   0.6439   0.6249   0.4542   0.4068   0.3701   0.3319
     0.3080   0.2226   0.1723   0.0709   0.0397   0.0194   0.0064   0.0032
     0.0003   0.0002   0.0001   0.0001   0.0001   0.0000   0.0000   0.0000
     0.0000   0.0000   0.0000   0.0000   0.0000   0.0000   0.0000   0.0000
     0.0000   0.0000   0.0000   0.0000   0.0000   0.0000   0.0000   0.0000
     0.0000   0.0000   0.0000

          k =-0.5000 0.2500 0.0000 ( 65138 PWs)   bands (ev):

   -92.6894 -92.6378 -92.5434 -92.4968 -92.4412 -92.3967 -92.3782 -92.2555
   -56.0429 -56.0246 -55.9008 -55.8901 -55.8833 -55.8769 -55.8410 -55.8126
   -55.7967 -55.7965 -55.7890 -55.7472 -55.7280 -55.6921 -55.6699 -55.6404
   -55.6326 -55.5841 -55.5825 -55.5816 -55.5732 -55.5300 -55.5087 -55.4219
   -31.2629 -31.2512 -31.1055 -31.0468 -31.0200 -31.0053 -30.7500 -30.7261
   -29.8341 -29.7946 -29.7681 -29.6603 -14.9698 -14.9240 -14.8451 -14.7464
   -14.7051 -14.5800 -14.4875 -14.3613 -14.0541 -14.0226 -14.0107 -13.9638
   -13.9465 -13.9414 -13.9192 -13.8824 -13.8755 -13.8520 -13.8134 -13.8024
   -13.6937 -13.6261 -13.5770 -13.5723 -13.5561 -13.4581 -13.4163 -13.3367
   -13.3005 -13.1889 -13.1533 -13.0570 -13.0160 -13.0049 -12.9986 -12.9778
   -12.9453 -12.9290 -12.9086 -12.8732 -12.8154 -12.7124 -12.6917 -12.6548
   -12.6273 -12.6108 -12.6021 -12.5278 -12.3918 -12.3113 -12.2565 -12.1473
   -12.1079 -11.7597 -11.7469 -11.7327 -11.7209 -11.6992 -11.6689 -11.5891
   -11.5805 -11.5574 -11.5208 -11.4927 -11.4842  -2.4267  -2.3853  -2.2374
    -2.1952  -2.0338  -1.9584  -1.8158  -1.6807  -1.6236  -1.5972  -1.5575
    -1.5192  -1.4387  -1.3235  -1.2662  -1.2434  -1.2176  -1.1404  -1.1140
    -1.0823  -1.0716  -1.0544  -0.9947  -0.9642  -0.9268  -0.8920  -0.8631
    -0.8051  -0.7774  -0.7359  -0.7003  -0.5972  -0.5670  -0.4801  -0.4225
    -0.3881  -0.3312  -0.2476  -0.2101  -0.1129  -0.0567  -0.0173   0.0446
     0.0749   0.1435   0.1597   0.1897   0.2431   0.2867   0.5965   0.7042
     0.7281   0.7380   1.0379   1.0872   1.1632   1.1879   1.3624   1.3992
     1.4363   1.4481   1.4663   1.4841   1.5548   1.5975   1.6438   1.6668
     1.8110   1.8386   1.8564   1.8666   1.9120   1.9380   1.9523   1.9628
     1.9836   2.0100   2.0469   2.0644   2.0992   2.1209   2.1578   2.2084
     2.3296   2.4320   2.4511   2.4716   2.4963   2.5380   2.5653   2.6290
     2.6660   2.6711   2.7089   2.7438   2.7653   2.8469   2.8919   2.9051
     2.9099   2.9303   2.9525   2.9650   2.9819   2.9939   3.0146   3.0264
     3.0378   3.0445   3.0551   3.0663   3.5923   3.6520   3.7850   3.8088
     4.0761   4.1754   4.2220   4.4192   4.7999   4.9058   5.0504   5.0888
     5.4189   5.4442   5.6031   5.6393   5.7592   5.8022   6.3752   6.4028
     6.5054   6.6638   7.2112   7.4135   7.5711   7.7275   7.7914   7.8111
     7.9017   8.0357   8.2684   8.3930   8.4453   8.5636   8.5811   8.5916
     8.6767   8.7376   8.7919

     occupation numbers 
     1.0000   1.0000   1.0000   1.0000   1.0000   1.0000   1.0000   1.0000
     1.0000   1.0000   1.0000   1.0000   1.0000   1.0000   1.0000   1.0000
     1.0000   1.0000   1.0000   1.0000   1.0000   1.0000   1.0000   1.0000
     1.0000   1.0000   1.0000   1.0000   1.0000   1.0000   1.0000   1.0000
     1.0000   1.0000   1.0000   1.0000   1.0000   1.0000   1.0000   1.0000
     1.0000   1.0000   1.0000   1.0000   1.0000   1.0000   1.0000   1.0000
     1.0000   1.0000   1.0000   1.0000   1.0000   1.0000   1.0000   1.0000
     1.0000   1.0000   1.0000   1.0000   1.0000   1.0000   1.0000   1.0000
     1.0000   1.0000   1.0000   1.0000   1.0000   1.0000   1.0000   1.0000
     1.0000   1.0000   1.0000   1.0000   1.0000   1.0000   1.0000   1.0000
     1.0000   1.0000   1.0000   1.0000   1.0000   1.0000   1.0000   1.0000
     1.0000   1.0000   1.0000   1.0000   1.0000   1.0000   1.0000   1.0000
     1.0000   1.0000   1.0000   1.0000   1.0000   1.0000   1.0000   1.0000
     1.0000   1.0000   1.0000   1.0000   1.0000   1.0000   1.0000   1.0000
     1.0000   1.0000   1.0000   1.0000   1.0000   1.0000   1.0000   1.0000
     1.0000   1.0000   1.0000   1.0000   1.0000   1.0000   1.0000   1.0000
     1.0000   1.0000   1.0000   1.0000   1.0000   1.0000   1.0000   1.0000
     1.0000   1.0000   1.0000   1.0000   1.0000   1.0000   1.0000   1.0000
     1.0000   1.0000   1.0000   1.0000   1.0000   1.0000   1.0000   1.0000
     1.0000   1.0000   1.0000   1.0000   1.0000   1.0000   1.0000   1.0000
     0.9999   0.9999   0.9997   0.9996   0.9994   0.9993   0.9983   0.9980
     0.9976   0.9975   0.9973   0.9970   0.9960   0.9951   0.9941   0.9935
     0.9883   0.9870   0.9861   0.9856   0.9829   0.9812   0.9802   0.9794
     0.9779   0.9757   0.9724   0.9707   0.9671   0.9647   0.9602   0.9533
     0.9329   0.9108   0.9061   0.9009   0.8944   0.8826   0.8745   0.8538
     0.8409   0.8390   0.8250   0.8113   0.8025   0.7671   0.7462   0.7399
     0.7376   0.7276   0.7166   0.7102   0.7016   0.6954   0.6846   0.6783
     0.6722   0.6686   0.6629   0.6568   0.3529   0.3206   0.2535   0.2423
     0.1366   0.1069   0.0947   0.0542   0.0150   0.0100   0.0055   0.0047
     0.0010   0.0009   0.0004   0.0003   0.0002   0.0001   0.0000   0.0000
     0.0000   0.0000   0.0000   0.0000   0.0000   0.0000   0.0000   0.0000
     0.0000   0.0000   0.0000   0.0000   0.0000   0.0000   0.0000   0.0000
     0.0000   0.0000   0.0000

     the Fermi energy is     3.3382 ev

!    total energy              =   -4441.65448229 Ry
     estimated scf accuracy    <          9.6E-09 Ry
     smearing contrib. (-TS)   =      -1.15479040 Ry
     internal energy E=F+TS    =   -4440.49969189 Ry

     The total energy is F=E-TS. E is the sum of the following terms:
     one-electron contribution =  -20804.83835396 Ry
     hartree contribution      =   10534.56582654 Ry
     xc contribution           =    -694.18020518 Ry
     ewald contribution        =    6800.12397353 Ry
     one-center paw contrib.   =    -276.17093282 Ry
      -> PAW hartree energy AE =      25.05844051 Ry
      -> PAW hartree energy PS =     -24.94353255 Ry
      -> PAW xc energy AE      =     -16.50248786 Ry
      -> PAW xc energy PS      =       6.86128197 Ry
      -> total E_H with PAW    =   10534.68073449 Ry
      -> total E_XC with PAW   =    -703.82141107 Ry

     convergence has been achieved in  45 iterations

     Writing all to output data dir /bsuhome/zayahcortright/scratch/pwscf.save/
 
     init_run     :      7.56s CPU      8.44s WALL (       1 calls)
     electrons    :    756.18s CPU    828.27s WALL (       1 calls)

     Called by init_run:
     wfcinit      :      6.13s CPU      6.35s WALL (       1 calls)
     wfcinit:atom :      0.04s CPU      0.06s WALL (       5 calls)
     wfcinit:wfcr :      5.83s CPU      5.95s WALL (       5 calls)
     potinit      :      0.16s CPU      0.19s WALL (       1 calls)
     hinit0       :      0.42s CPU      0.77s WALL (       1 calls)

     Called by electrons:
     c_bands      :    613.38s CPU    624.43s WALL (      45 calls)
     sum_band     :    107.22s CPU    140.75s WALL (      45 calls)
     v_of_rho     :      4.89s CPU      5.30s WALL (      46 calls)
     v_h          :      0.42s CPU      0.43s WALL (      46 calls)
     v_xc         :      4.47s CPU      4.87s WALL (      46 calls)
     newd         :     17.01s CPU     43.75s WALL (      46 calls)
     PAW_pot      :      1.56s CPU      1.59s WALL (      46 calls)
     mix_rho      :     11.72s CPU     12.11s WALL (      45 calls)

     Called by c_bands:
     init_us_2    :      6.53s CPU      6.65s WALL (     455 calls)
     init_us_2:cp :      6.52s CPU      6.64s WALL (     455 calls)
     cegterg      :    578.28s CPU    588.91s WALL (     225 calls)

     Called by sum_band:
     sum_band:wei :      0.33s CPU      0.33s WALL (      45 calls)
     sum_band:loo :     88.69s CPU     89.49s WALL (      45 calls)
     sum_band:buf :      1.34s CPU      1.44s WALL (     225 calls)
     sum_band:ini :      2.80s CPU      2.82s WALL (     225 calls)
     sum_band:cal :     17.62s CPU     17.70s WALL (     225 calls)
     sum_band:bec :      0.56s CPU      0.59s WALL (     225 calls)
     addusdens    :     15.81s CPU     48.44s WALL (      45 calls)
                                        0.00s GPU  (      45 calls)
     addusd:skk   :      0.27s CPU      1.96s WALL (     180 calls)
                                        0.00s GPU  (     180 calls)

     Called by *egterg:
     cdiaghg      :     57.67s CPU     57.95s WALL (    1319 calls)
     cegterg:over :     41.03s CPU     41.20s WALL (    1094 calls)
     cegterg:upda :     46.67s CPU     47.65s WALL (    1094 calls)
     cegterg:last :     64.48s CPU     64.77s WALL (     407 calls)
     cdiaghg:chol :      3.28s CPU      3.31s WALL (    1319 calls)
     cdiaghg:inve :      3.38s CPU      3.40s WALL (    1319 calls)
     cdiaghg:para :      7.28s CPU      7.33s WALL (    2638 calls)
     h_psi        :    305.25s CPU    309.67s WALL (    1324 calls)
     s_psi        :     41.75s CPU     41.89s WALL (    1324 calls)
     g_psi        :      2.28s CPU      2.29s WALL (    1094 calls)

     Called by h_psi:
     h_psi:calbec :     43.22s CPU     43.46s WALL (    1324 calls)
     vloc_psi     :    215.03s CPU    217.01s WALL (    1324 calls)
     add_vuspsi   :     42.41s CPU     42.67s WALL (    1324 calls)

     General routines
     calbec       :     60.83s CPU     61.15s WALL (    1549 calls)
     fft          :      4.61s CPU      4.68s WALL (     596 calls)
     ffts         :      4.39s CPU      4.45s WALL (    4825 calls)
     fftw         :    169.47s CPU    170.85s WALL (  307325 calls)
     interpolate  :      0.37s CPU      0.38s WALL (      46 calls)
 
     Parallel routines

     PAW routines
     PAW_pot      :      1.56s CPU      1.59s WALL (      46 calls)
 
     PWSCF        :  12m45.32s CPU  14m 1.26s WALL

 
   This run was terminated on:  21:15:47  21Jun2024            

=------------------------------------------------------------------------------=
   JOB DONE.
=------------------------------------------------------------------------------=
