
     Program PWSCF v.7.2 starts on 21Jun2024 at 15:42:48 

     This program is part of the open-source Quantum ESPRESSO suite
     for quantum simulation of materials; please cite
         "P. Giannozzi et al., J. Phys.:Condens. Matter 21 395502 (2009);
         "P. Giannozzi et al., J. Phys.:Condens. Matter 29 465901 (2017);
         "P. Giannozzi et al., J. Chem. Phys. 152 154105 (2020);
          URL http://www.quantum-espresso.org", 
     in publications or presentations arising from this work. More details at
     http://www.quantum-espresso.org/quote

     Parallel version (MPI & OpenMP), running on      48 processor cores
     Number of MPI processes:                48
     Threads/MPI process:                     1

     MPI processes distributed on     1 nodes
     33232 MiB available memory on the printing compute node when the environment starts
 
     Reading input from espresso.pwi
Warning: card &CELL ignored
Warning: card / ignored
Warning: card &FCP ignored
Warning: card / ignored
Warning: card &RISM ignored
Warning: card / ignored

     Current dimensions of program PWSCF are:
     Max number of different atomic species (ntypx) = 10
     Max number of k-points (npk) =  40000
     Max angular momentum in pseudopotentials (lmaxx) =  4
     file O.pbe-n-kjpaw_psl.0.1.UPF: wavefunction(s)  2P renormalized
     signal trapping enabled: kill the code with -SIGUSR1 to stop cleanly the simulation 
 
     K-points division:     npool     =       2
     R & G space division:  proc/nbgrp/npool/nimage =      24
     Subspace diagonalization in iterative solution of the eigenvalue problem:
     one sub-group per band group will be used
     scalapack distributed-memory algorithm (size of sub-group:  3*  3 procs)

 
     Parallelization info
     --------------------
     sticks:   dense  smooth     PW     G-vecs:    dense   smooth      PW
     Min         350     175     47                61430    21716    3036
     Max         351     177     48                61449    21727    3041
     Sum        8421    4205   1137              1474595   521381   72913
 
     Using Slab Decomposition
 


     bravais-lattice index     =            0
     lattice parameter (alat)  =      14.8599  a.u.
     unit-cell volume          =    8305.1283 (a.u.)^3
     number of atoms/cell      =           50
     number of atomic types    =            4
     number of electrons       =       431.00
     number of Kohn-Sham states=          259
     kinetic-energy cutoff     =      60.0000  Ry
     charge density cutoff     =     480.0000  Ry
     scf convergence threshold =      1.0E-08
     mixing beta               =       0.1500
     number of iterations used =            8  local-TF  mixing
     Exchange-correlation= PBE
                           (   1   4   3   4   0   0   0)

     celldm(1)=  14.859904  celldm(2)=   0.000000  celldm(3)=   0.000000
     celldm(4)=   0.000000  celldm(5)=   0.000000  celldm(6)=   0.000000

     crystal axes: (cart. coord. in units of alat)
               a(1) = (   1.000000   0.000000   0.000000 )  
               a(2) = (   0.000000   1.000000   0.000000 )  
               a(3) = (   0.000000   0.000000   2.531036 )  

     reciprocal axes: (cart. coord. in units 2 pi/alat)
               b(1) = (  1.000000  0.000000  0.000000 )  
               b(2) = (  0.000000  1.000000  0.000000 )  
               b(3) = (  0.000000  0.000000  0.395095 )  


     PseudoPot. # 1 for Sr read from file:
     /bsuhome/zayahcortright/q-e/pseudo/Sr_pbe_v1.uspp.F.UPF
     MD5 check sum: 6b418c05fbe9db5448babca5e47b7a5b
     Pseudo is Ultrasoft + core correction, Zval = 10.0
     Generated by new atomic code, or converted to UPF format
     Using radial grid of  883 points,  6 beta functions with: 
                l(1) =   0
                l(2) =   0
                l(3) =   1
                l(4) =   1
                l(5) =   2
                l(6) =   2
     Q(r) pseudized with  6 coefficients,  rinner =    1.400   1.400   1.400
                                                       1.400   1.400

     PseudoPot. # 2 for O  read from file:
     /bsuhome/zayahcortright/q-e/pseudo/O.pbe-n-kjpaw_psl.0.1.UPF
     MD5 check sum: 0234752ac141de4415c5fc33072bef88
     Pseudo is Projector augmented-wave + core cor, Zval =  6.0
     Generated using "atomic" code by A. Dal Corso  v.5.0.99 svn rev. 10869
     Shape of augmentation charge: BESSEL
     Using radial grid of 1095 points,  4 beta functions with: 
                l(1) =   0
                l(2) =   0
                l(3) =   1
                l(4) =   1
     Q(r) pseudized with 0 coefficients 


     PseudoPot. # 3 for Co read from file:
     /bsuhome/zayahcortright/q-e/pseudo/Co_pbe_v1.2.uspp.F.UPF
     MD5 check sum: 5f91765df6ddd3222702df6e7b74a16d
     Pseudo is Ultrasoft + core correction, Zval = 17.0
     Generated by new atomic code, or converted to UPF format
     Using radial grid of  863 points,  6 beta functions with: 
                l(1) =   0
                l(2) =   0
                l(3) =   1
                l(4) =   1
                l(5) =   2
                l(6) =   2
     Q(r) pseudized with  8 coefficients,  rinner =    1.200   1.200   1.200
                                                       1.200   1.200

     PseudoPot. # 4 for H  read from file:
     /bsuhome/zayahcortright/q-e/pseudo/H.pbe-rrkjus_psl.1.0.0.UPF
     MD5 check sum: f52b6d4d1c606e5624b1dc7b2218f220
     Pseudo is Ultrasoft, Zval =  1.0
     Generated using "atomic" code by A. Dal Corso  v.5.1
     Using radial grid of  929 points,  2 beta functions with: 
                l(1) =   0
                l(2) =   0
     Q(r) pseudized with 0 coefficients 


     atomic species   valence    mass     pseudopotential
        Sr            10.00    87.62000     Sr( 1.00)
        O              6.00    15.99900     O ( 1.00)
        Co            17.00    58.93319     Co( 1.00)
        H              1.00     1.00800     H ( 1.00)

     No symmetry found


                                    s                        frac. trans.

      isym =  1     identity                                     

 cryst.   s( 1) = (     1          0          0      )
                  (     0          1          0      )
                  (     0          0          1      )

 cart.    s( 1) = (  1.0000000  0.0000000  0.0000000 )
                  (  0.0000000  1.0000000  0.0000000 )
                  (  0.0000000  0.0000000  1.0000000 )


   Cartesian axes

     site n.     atom                  positions (alat units)
         1           Sr  tau(   1) = (   0.2508693   0.7491307   1.7574407  )
         2           O   tau(   2) = (   0.4985141   0.5014859   1.7715967  )
         3           Sr  tau(   3) = (   0.7482398   0.7454518   1.7648669  )
         4           Sr  tau(   4) = (   0.7441748   0.2558252   1.7667843  )
         5           Sr  tau(   5) = (   0.2508693   0.7491307   1.2696799  )
         6           Sr  tau(   6) = (   0.2508693   0.7491307   0.7632319  )
         7           Co  tau(   7) = (   0.4998914   0.5001086   1.0164559  )
         8           Co  tau(   8) = (   0.4936915   0.5063085   1.5135603  )
         9           O   tau(   9) = (   0.4988895   0.7610401   1.0164559  )
        10           O   tau(  10) = (   0.2389599   0.5011105   1.0164559  )
        11           O   tau(  11) = (   0.0070918   0.7374880   1.0164559  )
        12           O   tau(  12) = (   0.0088340   0.7405089   1.5135603  )
        13           O   tau(  13) = (   0.5066944   0.7415376   1.5135603  )
        14           O   tau(  14) = (   0.2584624   0.4933056   1.5135603  )
        15           O   tau(  15) = (   0.4985141   0.5014859   0.7773880  )
        16           O   tau(  16) = (   0.4985141   0.5014859   1.2555238  )
        17           Sr  tau(  17) = (   0.7482398   0.7454518   0.7706582  )
        18           Sr  tau(  18) = (   0.7482398   0.7454518   1.2622536  )
        19           Sr  tau(  19) = (   0.7441748   0.2558252   0.7725755  )
        20           Sr  tau(  20) = (   0.7441748   0.2558252   1.2603363  )
        21           O   tau(  21) = (   0.7322655   0.0078049   1.5135603  )
        22           O   tau(  22) = (   0.7558175   0.4996027   1.5135603  )
        23           O   tau(  23) = (   0.5003973   0.2441825   1.5135603  )
        24           O   tau(  24) = (   0.7527966   0.4978604   1.0164559  )
        25           O   tau(  25) = (   0.5021396   0.2472034   1.0164559  )
        26           O   tau(  26) = (   0.7517679   0.0000000   1.0164559  )
        27           O   tau(  27) = (   0.0114961   0.4948124   1.7455321  )
        28           O   tau(  28) = (   0.0048226   0.0077944   1.7715967  )
        29           Sr  tau(  29) = (   0.2545482   0.2517602   1.7648669  )
        30           O   tau(  30) = (   0.5048017   0.0015068   1.7786929  )
        31           Co  tau(  31) = (   0.0056869   0.5006215   1.0164559  )
        32           Co  tau(  32) = (   0.0065315   0.4997770   1.5135603  )
        33           Co  tau(  33) = (   0.0061999   0.0064171   1.0164559  )
        34           Co  tau(  34) = (   0.0000000   0.0126169   1.5135603  )
        35           O   tau(  35) = (   0.0114961   0.4948124   1.2815885  )
        36           O   tau(  36) = (   0.0114961   0.4948124   0.7513233  )
        37           O   tau(  37) = (   0.0051979   0.2673486   1.0164559  )
        38           O   tau(  38) = (   0.0130029   0.2478461   1.5135603  )
        39           O   tau(  39) = (   0.0048226   0.0077944   0.7773880  )
        40           O   tau(  40) = (   0.0048226   0.0077944   1.2555238  )
        41           Sr  tau(  41) = (   0.2545482   0.2517602   0.7706582  )
        42           Sr  tau(  42) = (   0.2545482   0.2517602   1.2622536  )
        43           Co  tau(  43) = (   0.4989925   0.0073160   1.5135603  )
        44           Co  tau(  44) = (   0.4998370   0.0064714   1.0164559  )
        45           O   tau(  45) = (   0.5048017   0.0015068   0.7844841  )
        46           O   tau(  46) = (   0.5048017   0.0015068   1.2484277  )
        47           O   tau(  47) = (   0.2621260   0.0059111   1.5135603  )
        48           O   tau(  48) = (   0.2591051   0.0041689   1.0164559  )
        49           O   tau(  49) = (   0.0000000   0.8529874   2.1602013  )
        50           H   tau(  50) = (   0.0000000   0.8529874   2.2847091  )

   Crystallographic axes

     site n.     atom                  positions (cryst. coord.)
         1           Sr  tau(   1) = (  0.2508693  0.7491307  0.6943562  )
         2           O   tau(   2) = (  0.4985141  0.5014859  0.6999492  )
         3           Sr  tau(   3) = (  0.7482398  0.7454518  0.6972903  )
         4           Sr  tau(   4) = (  0.7441748  0.2558252  0.6980478  )
         5           Sr  tau(   5) = (  0.2508693  0.7491307  0.5016443  )
         6           Sr  tau(   6) = (  0.2508693  0.7491307  0.3015492  )
         7           Co  tau(   7) = (  0.4998914  0.5001086  0.4015968  )
         8           Co  tau(   8) = (  0.4936915  0.5063085  0.5980003  )
         9           O   tau(   9) = (  0.4988895  0.7610401  0.4015968  )
        10           O   tau(  10) = (  0.2389599  0.5011105  0.4015968  )
        11           O   tau(  11) = (  0.0070918  0.7374880  0.4015968  )
        12           O   tau(  12) = (  0.0088340  0.7405089  0.5980003  )
        13           O   tau(  13) = (  0.5066944  0.7415376  0.5980003  )
        14           O   tau(  14) = (  0.2584624  0.4933056  0.5980003  )
        15           O   tau(  15) = (  0.4985141  0.5014859  0.3071422  )
        16           O   tau(  16) = (  0.4985141  0.5014859  0.4960513  )
        17           Sr  tau(  17) = (  0.7482398  0.7454518  0.3044833  )
        18           Sr  tau(  18) = (  0.7482398  0.7454518  0.4987103  )
        19           Sr  tau(  19) = (  0.7441748  0.2558252  0.3052408  )
        20           Sr  tau(  20) = (  0.7441748  0.2558252  0.4979527  )
        21           O   tau(  21) = (  0.7322655  0.0078049  0.5980003  )
        22           O   tau(  22) = (  0.7558175  0.4996027  0.5980003  )
        23           O   tau(  23) = (  0.5003973  0.2441825  0.5980003  )
        24           O   tau(  24) = (  0.7527966  0.4978604  0.4015968  )
        25           O   tau(  25) = (  0.5021396  0.2472034  0.4015968  )
        26           O   tau(  26) = (  0.7517679  0.0000000  0.4015968  )
        27           O   tau(  27) = (  0.0114961  0.4948124  0.6896512  )
        28           O   tau(  28) = (  0.0048226  0.0077944  0.6999492  )
        29           Sr  tau(  29) = (  0.2545482  0.2517602  0.6972903  )
        30           O   tau(  30) = (  0.5048017  0.0015068  0.7027529  )
        31           Co  tau(  31) = (  0.0056869  0.5006215  0.4015968  )
        32           Co  tau(  32) = (  0.0065315  0.4997770  0.5980003  )
        33           Co  tau(  33) = (  0.0061999  0.0064171  0.4015968  )
        34           Co  tau(  34) = (  0.0000000  0.0126169  0.5980003  )
        35           O   tau(  35) = (  0.0114961  0.4948124  0.5063494  )
        36           O   tau(  36) = (  0.0114961  0.4948124  0.2968442  )
        37           O   tau(  37) = (  0.0051979  0.2673486  0.4015968  )
        38           O   tau(  38) = (  0.0130029  0.2478461  0.5980003  )
        39           O   tau(  39) = (  0.0048226  0.0077944  0.3071422  )
        40           O   tau(  40) = (  0.0048226  0.0077944  0.4960513  )
        41           Sr  tau(  41) = (  0.2545482  0.2517602  0.3044833  )
        42           Sr  tau(  42) = (  0.2545482  0.2517602  0.4987103  )
        43           Co  tau(  43) = (  0.4989925  0.0073160  0.5980003  )
        44           Co  tau(  44) = (  0.4998370  0.0064714  0.4015968  )
        45           O   tau(  45) = (  0.5048017  0.0015068  0.3099459  )
        46           O   tau(  46) = (  0.5048017  0.0015068  0.4932477  )
        47           O   tau(  47) = (  0.2621260  0.0059111  0.5980003  )
        48           O   tau(  48) = (  0.2591051  0.0041689  0.4015968  )
        49           O   tau(  49) = (  0.0000000  0.8529874  0.8534850  )
        50           H   tau(  50) = (  0.0000000  0.8529874  0.9026774  )

     number of k points=    10  Gaussian smearing, width (Ry)=  0.0700
                       cart. coord. in units 2pi/alat
        k(    1) = (   0.0000000   0.0000000   0.0000000), wk =   0.1250000
        k(    2) = (   0.0000000   0.2500000   0.0000000), wk =   0.2500000
        k(    3) = (   0.0000000  -0.5000000   0.0000000), wk =   0.1250000
        k(    4) = (   0.2500000   0.2500000   0.0000000), wk =   0.2500000
        k(    5) = (   0.2500000  -0.5000000   0.0000000), wk =   0.2500000
        k(    6) = (  -0.5000000  -0.5000000   0.0000000), wk =   0.1250000
        k(    7) = (   0.2500000   0.0000000   0.0000000), wk =   0.2500000
        k(    8) = (  -0.5000000   0.0000000   0.0000000), wk =   0.1250000
        k(    9) = (  -0.2500000   0.2500000   0.0000000), wk =   0.2500000
        k(   10) = (  -0.5000000   0.2500000   0.0000000), wk =   0.2500000

                       cryst. coord.
        k(    1) = (   0.0000000   0.0000000   0.0000000), wk =   0.1250000
        k(    2) = (   0.0000000   0.2500000   0.0000000), wk =   0.2500000
        k(    3) = (   0.0000000  -0.5000000   0.0000000), wk =   0.1250000
        k(    4) = (   0.2500000   0.2500000   0.0000000), wk =   0.2500000
        k(    5) = (   0.2500000  -0.5000000   0.0000000), wk =   0.2500000
        k(    6) = (  -0.5000000  -0.5000000   0.0000000), wk =   0.1250000
        k(    7) = (   0.2500000   0.0000000   0.0000000), wk =   0.2500000
        k(    8) = (  -0.5000000   0.0000000   0.0000000), wk =   0.1250000
        k(    9) = (  -0.2500000   0.2500000   0.0000000), wk =   0.2500000
        k(   10) = (  -0.5000000   0.2500000   0.0000000), wk =   0.2500000

     Dense  grid:  1474595 G-vectors     FFT dimensions: ( 108, 108, 270)

     Smooth grid:   521381 G-vectors     FFT dimensions: (  75,  75, 192)

     Dynamical RAM for                 wfc:      10.73 MB

     Dynamical RAM for     wfc (w. buffer):      64.38 MB

     Dynamical RAM for           str. fact:       3.75 MB

     Dynamical RAM for           local pot:       0.00 MB

     Dynamical RAM for          nlocal pot:      24.61 MB

     Dynamical RAM for                qrad:       7.03 MB

     Dynamical RAM for          rho,v,vnew:       6.02 MB

     Dynamical RAM for               rhoin:       2.01 MB

     Dynamical RAM for            rho*nmix:      15.00 MB

     Dynamical RAM for           G-vectors:       3.68 MB

     Dynamical RAM for          h,s,v(r/c):       1.35 MB

     Dynamical RAM for          <psi|beta>:       2.35 MB

     Dynamical RAM for                 psi:      21.46 MB

     Dynamical RAM for                hpsi:      21.46 MB

     Dynamical RAM for                spsi:      21.46 MB

     Dynamical RAM for      wfcinit/wfcrot:      34.49 MB

     Dynamical RAM for           addusdens:     101.26 MB

     Estimated static dynamical RAM per process >     121.50 MB

     Estimated max dynamical RAM per process >     237.76 MB

     Estimated total dynamical RAM >      10.79 GB

     Check: negative core charge=   -0.000004

     Initial potential from superposition of free atoms

     starting charge     422.5961, renormalised to     431.0000

     negative rho (up, down):  7.819E-01 0.000E+00
     Starting wfcs are  377 randomized atomic wfcs
     Checking if some PAW data can be deallocated... 
       PAW data deallocated on   19 nodes for type:  2

     total cpu time spent up to now is        8.8 secs

     Self-consistent Calculation

     iteration #  1     ecut=    60.00 Ry     beta= 0.15
     Davidson diagonalization with overlap

---- Real-time Memory Report at c_bands before calling an iterative solver
             0 MiB given to the printing process from OS
             0 MiB allocation reported by mallinfo(arena+hblkhd)
         24022 MiB available memory on the node where the printing process lives
------------------
     ethr =  1.00E-02,  avg # of iterations =  2.0

     negative rho (up, down):  7.715E-01 0.000E+00

     total cpu time spent up to now is       25.4 secs

     total energy              =   -4446.62861507 Ry
     estimated scf accuracy    <      44.80311352 Ry

     iteration #  2     ecut=    60.00 Ry     beta= 0.15
     Davidson diagonalization with overlap

---- Real-time Memory Report at c_bands before calling an iterative solver
             0 MiB given to the printing process from OS
             0 MiB allocation reported by mallinfo(arena+hblkhd)
         24269 MiB available memory on the node where the printing process lives
------------------
     ethr =  1.00E-02,  avg # of iterations =  1.0

     negative rho (up, down):  7.581E-01 0.000E+00

     total cpu time spent up to now is       39.6 secs

     total energy              =   -4443.26148375 Ry
     estimated scf accuracy    <      29.67194346 Ry

     iteration #  3     ecut=    60.00 Ry     beta= 0.15
     Davidson diagonalization with overlap

---- Real-time Memory Report at c_bands before calling an iterative solver
             0 MiB given to the printing process from OS
             0 MiB allocation reported by mallinfo(arena+hblkhd)
         23431 MiB available memory on the node where the printing process lives
------------------
     ethr =  6.88E-03,  avg # of iterations =  1.0

     negative rho (up, down):  7.554E-01 0.000E+00

     total cpu time spent up to now is       54.0 secs

     total energy              =   -4444.26250785 Ry
     estimated scf accuracy    <      28.83449634 Ry

     iteration #  4     ecut=    60.00 Ry     beta= 0.15
     Davidson diagonalization with overlap

---- Real-time Memory Report at c_bands before calling an iterative solver
             0 MiB given to the printing process from OS
             0 MiB allocation reported by mallinfo(arena+hblkhd)
         23406 MiB available memory on the node where the printing process lives
------------------
     ethr =  6.69E-03,  avg # of iterations =  1.0

     negative rho (up, down):  7.493E-01 0.000E+00

     total cpu time spent up to now is       68.3 secs

     total energy              =   -4443.04729898 Ry
     estimated scf accuracy    <      20.86580464 Ry

     iteration #  5     ecut=    60.00 Ry     beta= 0.15
     Davidson diagonalization with overlap

---- Real-time Memory Report at c_bands before calling an iterative solver
             0 MiB given to the printing process from OS
             0 MiB allocation reported by mallinfo(arena+hblkhd)
         23384 MiB available memory on the node where the printing process lives
------------------
     ethr =  4.84E-03,  avg # of iterations =  1.0

     negative rho (up, down):  7.406E-01 0.000E+00

     total cpu time spent up to now is       82.7 secs

     total energy              =   -4442.58806984 Ry
     estimated scf accuracy    <      10.48862291 Ry

     iteration #  6     ecut=    60.00 Ry     beta= 0.15
     Davidson diagonalization with overlap

---- Real-time Memory Report at c_bands before calling an iterative solver
             0 MiB given to the printing process from OS
             0 MiB allocation reported by mallinfo(arena+hblkhd)
         23363 MiB available memory on the node where the printing process lives
------------------
     ethr =  2.43E-03,  avg # of iterations =  1.1

     negative rho (up, down):  7.429E-01 0.000E+00

     total cpu time spent up to now is       97.2 secs

     total energy              =   -4442.80939470 Ry
     estimated scf accuracy    <       4.88912009 Ry

     iteration #  7     ecut=    60.00 Ry     beta= 0.15
     Davidson diagonalization with overlap

---- Real-time Memory Report at c_bands before calling an iterative solver
             0 MiB given to the printing process from OS
             0 MiB allocation reported by mallinfo(arena+hblkhd)
         23346 MiB available memory on the node where the printing process lives
------------------
     ethr =  1.13E-03,  avg # of iterations =  1.7

     negative rho (up, down):  7.658E-01 0.000E+00

     total cpu time spent up to now is      111.8 secs

     total energy              =   -4441.64644481 Ry
     estimated scf accuracy    <       3.92941945 Ry

     iteration #  8     ecut=    60.00 Ry     beta= 0.15
     Davidson diagonalization with overlap

---- Real-time Memory Report at c_bands before calling an iterative solver
             0 MiB given to the printing process from OS
             0 MiB allocation reported by mallinfo(arena+hblkhd)
         23328 MiB available memory on the node where the printing process lives
------------------
     ethr =  9.12E-04,  avg # of iterations =  4.7

     negative rho (up, down):  7.725E-01 0.000E+00

     total cpu time spent up to now is      131.4 secs

     total energy              =   -4441.52084268 Ry
     estimated scf accuracy    <      15.80592857 Ry

     iteration #  9     ecut=    60.00 Ry     beta= 0.15
     Davidson diagonalization with overlap

---- Real-time Memory Report at c_bands before calling an iterative solver
             0 MiB given to the printing process from OS
             0 MiB allocation reported by mallinfo(arena+hblkhd)
         23142 MiB available memory on the node where the printing process lives
------------------
     ethr =  9.12E-04,  avg # of iterations =  9.9

     negative rho (up, down):  7.704E-01 0.000E+00

     total cpu time spent up to now is      153.5 secs

     total energy              =   -4441.77364490 Ry
     estimated scf accuracy    <       2.60476983 Ry

     iteration # 10     ecut=    60.00 Ry     beta= 0.15
     Davidson diagonalization with overlap

---- Real-time Memory Report at c_bands before calling an iterative solver
             0 MiB given to the printing process from OS
             0 MiB allocation reported by mallinfo(arena+hblkhd)
         22859 MiB available memory on the node where the printing process lives
------------------
     ethr =  6.04E-04,  avg # of iterations =  3.2

     negative rho (up, down):  7.768E-01 0.000E+00

     total cpu time spent up to now is      170.4 secs

     total energy              =   -4441.91739848 Ry
     estimated scf accuracy    <       1.17851472 Ry

     iteration # 11     ecut=    60.00 Ry     beta= 0.15
     Davidson diagonalization with overlap

---- Real-time Memory Report at c_bands before calling an iterative solver
             0 MiB given to the printing process from OS
             0 MiB allocation reported by mallinfo(arena+hblkhd)
         22852 MiB available memory on the node where the printing process lives
------------------
     ethr =  2.73E-04,  avg # of iterations =  4.4

     negative rho (up, down):  8.107E-01 0.000E+00

     total cpu time spent up to now is      188.9 secs

     total energy              =   -4441.70009844 Ry
     estimated scf accuracy    <       1.28612593 Ry

     iteration # 12     ecut=    60.00 Ry     beta= 0.15
     Davidson diagonalization with overlap

---- Real-time Memory Report at c_bands before calling an iterative solver
             0 MiB given to the printing process from OS
             0 MiB allocation reported by mallinfo(arena+hblkhd)
         22803 MiB available memory on the node where the printing process lives
------------------
     ethr =  2.73E-04,  avg # of iterations =  4.8

     negative rho (up, down):  8.172E-01 0.000E+00

     total cpu time spent up to now is      206.7 secs

     total energy              =   -4441.85212369 Ry
     estimated scf accuracy    <       1.33456537 Ry

     iteration # 13     ecut=    60.00 Ry     beta= 0.15
     Davidson diagonalization with overlap

---- Real-time Memory Report at c_bands before calling an iterative solver
             0 MiB given to the printing process from OS
             0 MiB allocation reported by mallinfo(arena+hblkhd)
         22804 MiB available memory on the node where the printing process lives
------------------
     ethr =  2.73E-04,  avg # of iterations =  2.5

     negative rho (up, down):  8.181E-01 0.000E+00

     total cpu time spent up to now is      222.4 secs

     total energy              =   -4441.78925621 Ry
     estimated scf accuracy    <       0.84373027 Ry

     iteration # 14     ecut=    60.00 Ry     beta= 0.15
     Davidson diagonalization with overlap

---- Real-time Memory Report at c_bands before calling an iterative solver
             0 MiB given to the printing process from OS
             0 MiB allocation reported by mallinfo(arena+hblkhd)
         22736 MiB available memory on the node where the printing process lives
------------------
     ethr =  1.96E-04,  avg # of iterations =  7.7

     negative rho (up, down):  8.217E-01 0.000E+00

     total cpu time spent up to now is      241.8 secs

     total energy              =   -4441.74888752 Ry
     estimated scf accuracy    <       0.35825502 Ry

     iteration # 15     ecut=    60.00 Ry     beta= 0.15
     Davidson diagonalization with overlap

---- Real-time Memory Report at c_bands before calling an iterative solver
             0 MiB given to the printing process from OS
             0 MiB allocation reported by mallinfo(arena+hblkhd)
         22714 MiB available memory on the node where the printing process lives
------------------
     ethr =  8.31E-05,  avg # of iterations = 10.6

     negative rho (up, down):  8.313E-01 0.000E+00

     total cpu time spent up to now is      262.9 secs

     total energy              =   -4441.72104248 Ry
     estimated scf accuracy    <       0.27932366 Ry

     iteration # 16     ecut=    60.00 Ry     beta= 0.15
     Davidson diagonalization with overlap

---- Real-time Memory Report at c_bands before calling an iterative solver
             0 MiB given to the printing process from OS
             0 MiB allocation reported by mallinfo(arena+hblkhd)
         22679 MiB available memory on the node where the printing process lives
------------------
     c_bands:  1 eigenvalues not converged
     ethr =  6.48E-05,  avg # of iterations = 11.2

     negative rho (up, down):  8.319E-01 0.000E+00

     total cpu time spent up to now is      283.7 secs

     total energy              =   -4441.72110999 Ry
     estimated scf accuracy    <       0.26536533 Ry

     iteration # 17     ecut=    60.00 Ry     beta= 0.15
     Davidson diagonalization with overlap

---- Real-time Memory Report at c_bands before calling an iterative solver
             0 MiB given to the printing process from OS
             0 MiB allocation reported by mallinfo(arena+hblkhd)
         22673 MiB available memory on the node where the printing process lives
------------------
     ethr =  6.16E-05,  avg # of iterations =  1.1

     negative rho (up, down):  8.171E-01 0.000E+00

     total cpu time spent up to now is      298.4 secs

     total energy              =   -4441.69633355 Ry
     estimated scf accuracy    <       0.21913477 Ry

     iteration # 18     ecut=    60.00 Ry     beta= 0.15
     Davidson diagonalization with overlap

---- Real-time Memory Report at c_bands before calling an iterative solver
             0 MiB given to the printing process from OS
             0 MiB allocation reported by mallinfo(arena+hblkhd)
         22699 MiB available memory on the node where the printing process lives
------------------
     ethr =  5.08E-05,  avg # of iterations =  3.2

     negative rho (up, down):  8.133E-01 0.000E+00

     total cpu time spent up to now is      315.5 secs

     total energy              =   -4441.68459130 Ry
     estimated scf accuracy    <       0.13955718 Ry

     iteration # 19     ecut=    60.00 Ry     beta= 0.15
     Davidson diagonalization with overlap

---- Real-time Memory Report at c_bands before calling an iterative solver
             0 MiB given to the printing process from OS
             0 MiB allocation reported by mallinfo(arena+hblkhd)
         22709 MiB available memory on the node where the printing process lives
------------------
     ethr =  3.24E-05,  avg # of iterations =  9.3

     negative rho (up, down):  8.053E-01 0.000E+00

     total cpu time spent up to now is      336.4 secs

     total energy              =   -4441.67030420 Ry
     estimated scf accuracy    <       0.10134389 Ry

     iteration # 20     ecut=    60.00 Ry     beta= 0.15
     Davidson diagonalization with overlap

---- Real-time Memory Report at c_bands before calling an iterative solver
             0 MiB given to the printing process from OS
             0 MiB allocation reported by mallinfo(arena+hblkhd)
         22653 MiB available memory on the node where the printing process lives
------------------
     ethr =  2.35E-05,  avg # of iterations =  8.5

     negative rho (up, down):  8.323E-01 0.000E+00

     total cpu time spent up to now is      357.2 secs

     total energy              =   -4441.65928025 Ry
     estimated scf accuracy    <       0.06328865 Ry

     iteration # 21     ecut=    60.00 Ry     beta= 0.15
     Davidson diagonalization with overlap

---- Real-time Memory Report at c_bands before calling an iterative solver
             0 MiB given to the printing process from OS
             0 MiB allocation reported by mallinfo(arena+hblkhd)
         22663 MiB available memory on the node where the printing process lives
------------------
     ethr =  1.47E-05,  avg # of iterations = 10.7

     negative rho (up, down):  8.264E-01 0.000E+00

     total cpu time spent up to now is      380.9 secs

     total energy              =   -4441.66314362 Ry
     estimated scf accuracy    <       0.02400608 Ry

     iteration # 22     ecut=    60.00 Ry     beta= 0.15
     Davidson diagonalization with overlap

---- Real-time Memory Report at c_bands before calling an iterative solver
             0 MiB given to the printing process from OS
             0 MiB allocation reported by mallinfo(arena+hblkhd)
         22575 MiB available memory on the node where the printing process lives
------------------
     ethr =  5.57E-06,  avg # of iterations =  1.8

     negative rho (up, down):  8.021E-01 0.000E+00

     total cpu time spent up to now is      397.6 secs

     total energy              =   -4441.65993276 Ry
     estimated scf accuracy    <       0.01950753 Ry

     iteration # 23     ecut=    60.00 Ry     beta= 0.15
     Davidson diagonalization with overlap

---- Real-time Memory Report at c_bands before calling an iterative solver
             0 MiB given to the printing process from OS
             0 MiB allocation reported by mallinfo(arena+hblkhd)
         22607 MiB available memory on the node where the printing process lives
------------------
     ethr =  4.53E-06,  avg # of iterations =  5.3

     negative rho (up, down):  7.918E-01 0.000E+00

     total cpu time spent up to now is      416.3 secs

     total energy              =   -4441.65898192 Ry
     estimated scf accuracy    <       0.01282197 Ry

     iteration # 24     ecut=    60.00 Ry     beta= 0.15
     Davidson diagonalization with overlap

---- Real-time Memory Report at c_bands before calling an iterative solver
             0 MiB given to the printing process from OS
             0 MiB allocation reported by mallinfo(arena+hblkhd)
         22601 MiB available memory on the node where the printing process lives
------------------
     c_bands:  1 eigenvalues not converged
     ethr =  2.97E-06,  avg # of iterations =  9.7

     negative rho (up, down):  7.930E-01 0.000E+00

     total cpu time spent up to now is      437.5 secs

     total energy              =   -4441.65779001 Ry
     estimated scf accuracy    <       0.00827865 Ry

     iteration # 25     ecut=    60.00 Ry     beta= 0.15
     Davidson diagonalization with overlap

---- Real-time Memory Report at c_bands before calling an iterative solver
             0 MiB given to the printing process from OS
             0 MiB allocation reported by mallinfo(arena+hblkhd)
         22566 MiB available memory on the node where the printing process lives
------------------
     c_bands:  1 eigenvalues not converged
     ethr =  1.92E-06,  avg # of iterations = 11.9

     negative rho (up, down):  7.994E-01 0.000E+00

     total cpu time spent up to now is      459.9 secs

     total energy              =   -4441.65765624 Ry
     estimated scf accuracy    <       0.00412402 Ry

     iteration # 26     ecut=    60.00 Ry     beta= 0.15
     Davidson diagonalization with overlap

---- Real-time Memory Report at c_bands before calling an iterative solver
             0 MiB given to the printing process from OS
             0 MiB allocation reported by mallinfo(arena+hblkhd)
         22553 MiB available memory on the node where the printing process lives
------------------
     ethr =  9.57E-07,  avg # of iterations = 10.2

     negative rho (up, down):  7.994E-01 0.000E+00

     total cpu time spent up to now is      482.0 secs

     total energy              =   -4441.65777293 Ry
     estimated scf accuracy    <       0.00117677 Ry

     iteration # 27     ecut=    60.00 Ry     beta= 0.15
     Davidson diagonalization with overlap

---- Real-time Memory Report at c_bands before calling an iterative solver
             0 MiB given to the printing process from OS
             0 MiB allocation reported by mallinfo(arena+hblkhd)
         22508 MiB available memory on the node where the printing process lives
------------------
     c_bands:  1 eigenvalues not converged
     ethr =  2.73E-07,  avg # of iterations =  9.7

     negative rho (up, down):  7.981E-01 0.000E+00

     total cpu time spent up to now is      503.6 secs

     total energy              =   -4441.65779395 Ry
     estimated scf accuracy    <       0.00071042 Ry

     iteration # 28     ecut=    60.00 Ry     beta= 0.15
     Davidson diagonalization with overlap

---- Real-time Memory Report at c_bands before calling an iterative solver
             0 MiB given to the printing process from OS
             0 MiB allocation reported by mallinfo(arena+hblkhd)
         22508 MiB available memory on the node where the printing process lives
------------------
     ethr =  1.65E-07,  avg # of iterations =  5.8

     negative rho (up, down):  7.959E-01 0.000E+00

     total cpu time spent up to now is      522.5 secs

     total energy              =   -4441.65776119 Ry
     estimated scf accuracy    <       0.00031477 Ry

     iteration # 29     ecut=    60.00 Ry     beta= 0.15
     Davidson diagonalization with overlap

---- Real-time Memory Report at c_bands before calling an iterative solver
             0 MiB given to the printing process from OS
             0 MiB allocation reported by mallinfo(arena+hblkhd)
         22564 MiB available memory on the node where the printing process lives
------------------
     c_bands:  1 eigenvalues not converged
     ethr =  7.30E-08,  avg # of iterations =  9.1

     negative rho (up, down):  7.947E-01 0.000E+00

     total cpu time spent up to now is      544.8 secs

     total energy              =   -4441.65776993 Ry
     estimated scf accuracy    <       0.00014503 Ry

     iteration # 30     ecut=    60.00 Ry     beta= 0.15
     Davidson diagonalization with overlap

---- Real-time Memory Report at c_bands before calling an iterative solver
             0 MiB given to the printing process from OS
             0 MiB allocation reported by mallinfo(arena+hblkhd)
         22599 MiB available memory on the node where the printing process lives
------------------
     ethr =  3.36E-08,  avg # of iterations =  2.1

     negative rho (up, down):  7.937E-01 0.000E+00

     total cpu time spent up to now is      562.0 secs

     total energy              =   -4441.65776612 Ry
     estimated scf accuracy    <       0.00008140 Ry

     iteration # 31     ecut=    60.00 Ry     beta= 0.15
     Davidson diagonalization with overlap

---- Real-time Memory Report at c_bands before calling an iterative solver
             0 MiB given to the printing process from OS
             0 MiB allocation reported by mallinfo(arena+hblkhd)
         22616 MiB available memory on the node where the printing process lives
------------------
     ethr =  1.89E-08,  avg # of iterations =  2.1

     negative rho (up, down):  7.926E-01 0.000E+00

     total cpu time spent up to now is      579.1 secs

     total energy              =   -4441.65776467 Ry
     estimated scf accuracy    <       0.00004273 Ry

     iteration # 32     ecut=    60.00 Ry     beta= 0.15
     Davidson diagonalization with overlap

---- Real-time Memory Report at c_bands before calling an iterative solver
             0 MiB given to the printing process from OS
             0 MiB allocation reported by mallinfo(arena+hblkhd)
         22606 MiB available memory on the node where the printing process lives
------------------
     ethr =  9.91E-09,  avg # of iterations =  3.5

     negative rho (up, down):  7.925E-01 0.000E+00

     total cpu time spent up to now is      597.1 secs

     total energy              =   -4441.65776791 Ry
     estimated scf accuracy    <       0.00001431 Ry

     iteration # 33     ecut=    60.00 Ry     beta= 0.15
     Davidson diagonalization with overlap

---- Real-time Memory Report at c_bands before calling an iterative solver
             0 MiB given to the printing process from OS
             0 MiB allocation reported by mallinfo(arena+hblkhd)
         22621 MiB available memory on the node where the printing process lives
------------------
     ethr =  3.32E-09,  avg # of iterations =  2.1

     negative rho (up, down):  7.924E-01 0.000E+00

     total cpu time spent up to now is      614.4 secs

     total energy              =   -4441.65776957 Ry
     estimated scf accuracy    <       0.00000399 Ry

     iteration # 34     ecut=    60.00 Ry     beta= 0.15
     Davidson diagonalization with overlap

---- Real-time Memory Report at c_bands before calling an iterative solver
             0 MiB given to the printing process from OS
             0 MiB allocation reported by mallinfo(arena+hblkhd)
         22624 MiB available memory on the node where the printing process lives
------------------
     ethr =  9.25E-10,  avg # of iterations =  2.1

     negative rho (up, down):  7.925E-01 0.000E+00

     total cpu time spent up to now is      631.4 secs

     total energy              =   -4441.65776995 Ry
     estimated scf accuracy    <       0.00000265 Ry

     iteration # 35     ecut=    60.00 Ry     beta= 0.15
     Davidson diagonalization with overlap

---- Real-time Memory Report at c_bands before calling an iterative solver
             0 MiB given to the printing process from OS
             0 MiB allocation reported by mallinfo(arena+hblkhd)
         22633 MiB available memory on the node where the printing process lives
------------------
     ethr =  6.16E-10,  avg # of iterations =  2.2

     negative rho (up, down):  7.925E-01 0.000E+00

     total cpu time spent up to now is      648.4 secs

     total energy              =   -4441.65777049 Ry
     estimated scf accuracy    <       0.00000179 Ry

     iteration # 36     ecut=    60.00 Ry     beta= 0.15
     Davidson diagonalization with overlap

---- Real-time Memory Report at c_bands before calling an iterative solver
             0 MiB given to the printing process from OS
             0 MiB allocation reported by mallinfo(arena+hblkhd)
         22633 MiB available memory on the node where the printing process lives
------------------
     ethr =  4.16E-10,  avg # of iterations =  2.1

     negative rho (up, down):  7.925E-01 0.000E+00

     total cpu time spent up to now is      665.2 secs

     total energy              =   -4441.65777072 Ry
     estimated scf accuracy    <       0.00000139 Ry

     iteration # 37     ecut=    60.00 Ry     beta= 0.15
     Davidson diagonalization with overlap

---- Real-time Memory Report at c_bands before calling an iterative solver
             0 MiB given to the printing process from OS
             0 MiB allocation reported by mallinfo(arena+hblkhd)
         22630 MiB available memory on the node where the printing process lives
------------------
     ethr =  3.22E-10,  avg # of iterations =  2.1

     negative rho (up, down):  7.925E-01 0.000E+00

     total cpu time spent up to now is      682.3 secs

     total energy              =   -4441.65777102 Ry
     estimated scf accuracy    <       0.00000126 Ry

     iteration # 38     ecut=    60.00 Ry     beta= 0.15
     Davidson diagonalization with overlap

---- Real-time Memory Report at c_bands before calling an iterative solver
             0 MiB given to the printing process from OS
             0 MiB allocation reported by mallinfo(arena+hblkhd)
         22640 MiB available memory on the node where the printing process lives
------------------
     ethr =  2.92E-10,  avg # of iterations =  2.4

     negative rho (up, down):  7.925E-01 0.000E+00

     total cpu time spent up to now is      699.5 secs

     total energy              =   -4441.65777121 Ry
     estimated scf accuracy    <       0.00000084 Ry

     iteration # 39     ecut=    60.00 Ry     beta= 0.15
     Davidson diagonalization with overlap

---- Real-time Memory Report at c_bands before calling an iterative solver
             0 MiB given to the printing process from OS
             0 MiB allocation reported by mallinfo(arena+hblkhd)
         22637 MiB available memory on the node where the printing process lives
------------------
     ethr =  1.94E-10,  avg # of iterations =  2.2

     negative rho (up, down):  7.925E-01 0.000E+00

     total cpu time spent up to now is      716.4 secs

     total energy              =   -4441.65777136 Ry
     estimated scf accuracy    <       0.00000058 Ry

     iteration # 40     ecut=    60.00 Ry     beta= 0.15
     Davidson diagonalization with overlap

---- Real-time Memory Report at c_bands before calling an iterative solver
             0 MiB given to the printing process from OS
             0 MiB allocation reported by mallinfo(arena+hblkhd)
         22646 MiB available memory on the node where the printing process lives
------------------
     ethr =  1.36E-10,  avg # of iterations =  2.8

     negative rho (up, down):  7.925E-01 0.000E+00

     total cpu time spent up to now is      733.7 secs

     total energy              =   -4441.65777147 Ry
     estimated scf accuracy    <       0.00000034 Ry

     iteration # 41     ecut=    60.00 Ry     beta= 0.15
     Davidson diagonalization with overlap

---- Real-time Memory Report at c_bands before calling an iterative solver
             0 MiB given to the printing process from OS
             0 MiB allocation reported by mallinfo(arena+hblkhd)
         22645 MiB available memory on the node where the printing process lives
------------------
     ethr =  7.88E-11,  avg # of iterations =  3.1

     negative rho (up, down):  7.925E-01 0.000E+00

     total cpu time spent up to now is      750.8 secs

     total energy              =   -4441.65777150 Ry
     estimated scf accuracy    <       0.00000017 Ry

     iteration # 42     ecut=    60.00 Ry     beta= 0.15
     Davidson diagonalization with overlap

---- Real-time Memory Report at c_bands before calling an iterative solver
             0 MiB given to the printing process from OS
             0 MiB allocation reported by mallinfo(arena+hblkhd)
         22651 MiB available memory on the node where the printing process lives
------------------
     ethr =  3.96E-11,  avg # of iterations =  2.2

     negative rho (up, down):  7.925E-01 0.000E+00

     total cpu time spent up to now is      767.6 secs

     total energy              =   -4441.65777155 Ry
     estimated scf accuracy    <       0.00000012 Ry

     iteration # 43     ecut=    60.00 Ry     beta= 0.15
     Davidson diagonalization with overlap

---- Real-time Memory Report at c_bands before calling an iterative solver
             0 MiB given to the printing process from OS
             0 MiB allocation reported by mallinfo(arena+hblkhd)
         22653 MiB available memory on the node where the printing process lives
------------------
     ethr =  2.86E-11,  avg # of iterations =  2.7

     negative rho (up, down):  7.925E-01 0.000E+00

     total cpu time spent up to now is      784.8 secs

     total energy              =   -4441.65777160 Ry
     estimated scf accuracy    <       0.00000010 Ry

     iteration # 44     ecut=    60.00 Ry     beta= 0.15
     Davidson diagonalization with overlap

---- Real-time Memory Report at c_bands before calling an iterative solver
             0 MiB given to the printing process from OS
             0 MiB allocation reported by mallinfo(arena+hblkhd)
         22670 MiB available memory on the node where the printing process lives
------------------
     ethr =  2.23E-11,  avg # of iterations =  3.6

     negative rho (up, down):  7.925E-01 0.000E+00

     total cpu time spent up to now is      802.9 secs

     total energy              =   -4441.65777161 Ry
     estimated scf accuracy    <       0.00000003 Ry

     iteration # 45     ecut=    60.00 Ry     beta= 0.15
     Davidson diagonalization with overlap

---- Real-time Memory Report at c_bands before calling an iterative solver
             0 MiB given to the printing process from OS
             0 MiB allocation reported by mallinfo(arena+hblkhd)
         22664 MiB available memory on the node where the printing process lives
------------------
     ethr =  6.64E-12,  avg # of iterations =  2.3

     negative rho (up, down):  7.925E-01 0.000E+00

     total cpu time spent up to now is      819.9 secs

     total energy              =   -4441.65777161 Ry
     estimated scf accuracy    <       0.00000002 Ry

     iteration # 46     ecut=    60.00 Ry     beta= 0.15
     Davidson diagonalization with overlap

---- Real-time Memory Report at c_bands before calling an iterative solver
             0 MiB given to the printing process from OS
             0 MiB allocation reported by mallinfo(arena+hblkhd)
         22665 MiB available memory on the node where the printing process lives
------------------
     ethr =  4.83E-12,  avg # of iterations =  2.7

     negative rho (up, down):  7.925E-01 0.000E+00

     total cpu time spent up to now is      837.0 secs

     total energy              =   -4441.65777161 Ry
     estimated scf accuracy    <       0.00000001 Ry

     iteration # 47     ecut=    60.00 Ry     beta= 0.15
     Davidson diagonalization with overlap

---- Real-time Memory Report at c_bands before calling an iterative solver
             0 MiB given to the printing process from OS
             0 MiB allocation reported by mallinfo(arena+hblkhd)
         22667 MiB available memory on the node where the printing process lives
------------------
     ethr =  2.83E-12,  avg # of iterations =  2.6

     negative rho (up, down):  7.925E-01 0.000E+00

     total cpu time spent up to now is      853.9 secs

     End of self-consistent calculation

          k = 0.0000 0.0000 0.0000 ( 65197 PWs)   bands (ev):

   -92.6927 -92.6425 -92.5468 -92.4996 -92.4415 -92.3990 -92.3823 -92.2625
   -56.0461 -56.0295 -55.9040 -55.8934 -55.8873 -55.8802 -55.8471 -55.8160
   -55.8011 -55.7984 -55.7917 -55.7492 -55.7298 -55.6927 -55.6733 -55.6412
   -55.6354 -55.5877 -55.5864 -55.5843 -55.5759 -55.5376 -55.5125 -55.4290
   -31.2698 -31.2504 -31.1090 -31.0222 -31.0179 -30.9463 -30.7929 -30.7625
   -29.8392 -29.7957 -29.7709 -29.6626 -15.0732 -15.0280 -14.9482 -14.8182
   -14.6240 -14.5015 -14.2102 -14.1870 -14.1604 -14.1141 -14.0709 -14.0613
   -14.0458 -14.0296 -14.0020 -13.9700 -13.9513 -13.9201 -13.7696 -13.5906
   -13.5574 -13.5280 -13.4936 -13.4786 -13.4252 -13.3922 -13.3145 -13.2425
   -13.1169 -13.1018 -13.0893 -13.0667 -13.0490 -13.0315 -12.9928 -12.9875
   -12.9552 -12.9454 -12.9147 -12.8926 -12.8454 -12.8383 -12.8234 -12.7623
   -12.7382 -12.7314 -12.6665 -12.6339 -12.6234 -12.3345 -12.1889 -12.0188
   -11.9379 -11.8528 -11.7785 -11.7677 -11.7448 -11.7273 -11.6636 -11.6467
   -11.6113 -11.5825 -11.4715 -11.3914 -11.3877  -2.9328  -2.7009  -2.4712
    -2.3241  -2.2614  -2.1195  -1.8121  -1.7979  -1.7784  -1.6933  -1.6741
    -1.6064  -1.5899  -1.5494  -1.5033  -1.3231  -1.1200  -1.0835  -1.0687
    -0.9226  -0.9080  -0.8605  -0.8428  -0.7975  -0.7783  -0.7248  -0.6988
    -0.6260  -0.6127  -0.5385  -0.4074  -0.3942  -0.3643  -0.2836  -0.2658
    -0.2431  -0.1898  -0.1187  -0.0792  -0.0185   0.0038   0.0732   0.1569
     0.1890   0.2155   0.2351   0.4826   0.4958   0.6716   0.7328   0.7981
     0.8576   0.9388   0.9526   0.9701   1.0316   1.0587   1.0934   1.1505
     1.2823   1.3407   1.3646   1.3875   1.3954   1.4605   1.5295   1.6371
     1.6528   1.7123   1.7221   1.7655   1.7889   1.7960   1.8538   1.9078
     1.9227   1.9692   1.9942   2.0370   2.1688   2.2488   2.2930   2.3283
     2.4494   2.4621   2.4791   2.4927   2.5196   2.5214   2.6411   2.6669
     2.6957   2.7143   2.7294   2.8094   2.9158   2.9483   2.9593   2.9660
     3.0334   3.0378   3.0620   3.0694   3.0788   3.0940   3.0976   3.1122
     3.1171   3.1304   3.1383   3.1457   3.1649   3.1859   3.1913   3.2029
     3.2259   3.3437   3.4287   4.1187   4.4363   4.7747   4.8710   5.0552
     5.7809   5.9456   5.9913   6.0269   6.3224   6.3695   6.4864   6.4968
     6.7461   7.0133   7.1048   7.3252   7.5089   7.5724   7.6622   7.6828
     7.6961   7.8885   7.9448   8.0969   8.1187   8.1913   8.3967   8.4368
     8.7294   8.8566   8.8760

     occupation numbers 
     1.0000   1.0000   1.0000   1.0000   1.0000   1.0000   1.0000   1.0000
     1.0000   1.0000   1.0000   1.0000   1.0000   1.0000   1.0000   1.0000
     1.0000   1.0000   1.0000   1.0000   1.0000   1.0000   1.0000   1.0000
     1.0000   1.0000   1.0000   1.0000   1.0000   1.0000   1.0000   1.0000
     1.0000   1.0000   1.0000   1.0000   1.0000   1.0000   1.0000   1.0000
     1.0000   1.0000   1.0000   1.0000   1.0000   1.0000   1.0000   1.0000
     1.0000   1.0000   1.0000   1.0000   1.0000   1.0000   1.0000   1.0000
     1.0000   1.0000   1.0000   1.0000   1.0000   1.0000   1.0000   1.0000
     1.0000   1.0000   1.0000   1.0000   1.0000   1.0000   1.0000   1.0000
     1.0000   1.0000   1.0000   1.0000   1.0000   1.0000   1.0000   1.0000
     1.0000   1.0000   1.0000   1.0000   1.0000   1.0000   1.0000   1.0000
     1.0000   1.0000   1.0000   1.0000   1.0000   1.0000   1.0000   1.0000
     1.0000   1.0000   1.0000   1.0000   1.0000   1.0000   1.0000   1.0000
     1.0000   1.0000   1.0000   1.0000   1.0000   1.0000   1.0000   1.0000
     1.0000   1.0000   1.0000   1.0000   1.0000   1.0000   1.0000   1.0000
     1.0000   1.0000   1.0000   1.0000   1.0000   1.0000   1.0000   1.0000
     1.0000   1.0000   1.0000   1.0000   1.0000   1.0000   1.0000   1.0000
     1.0000   1.0000   1.0000   1.0000   1.0000   1.0000   1.0000   1.0000
     1.0000   1.0000   1.0000   1.0000   1.0000   1.0000   1.0000   1.0000
     1.0000   1.0000   1.0000   1.0000   1.0000   1.0000   0.9999   0.9999
     0.9999   0.9998   0.9998   0.9998   0.9997   0.9996   0.9996   0.9994
     0.9988   0.9985   0.9983   0.9981   0.9980   0.9973   0.9963   0.9942
     0.9938   0.9920   0.9917   0.9901   0.9892   0.9888   0.9861   0.9830
     0.9820   0.9787   0.9768   0.9730   0.9583   0.9466   0.9391   0.9325
     0.9057   0.9025   0.8981   0.8945   0.8870   0.8865   0.8486   0.8394
     0.8287   0.8216   0.8157   0.7824   0.7332   0.7170   0.7115   0.7081
     0.6728   0.6705   0.6573   0.6533   0.6481   0.6397   0.6378   0.6296
     0.6268   0.6193   0.6148   0.6106   0.5996   0.5876   0.5844   0.5777
     0.5643   0.4948   0.4446   0.1223   0.0510   0.0163   0.0113   0.0053
     0.0001   0.0001   0.0000   0.0000   0.0000   0.0000   0.0000   0.0000
     0.0000   0.0000   0.0000   0.0000   0.0000   0.0000   0.0000   0.0000
     0.0000   0.0000   0.0000   0.0000   0.0000   0.0000   0.0000   0.0000
     0.0000   0.0000   0.0000

          k = 0.0000 0.2500 0.0000 ( 65257 PWs)   bands (ev):

   -92.6927 -92.6425 -92.5468 -92.4996 -92.4415 -92.3990 -92.3823 -92.2625
   -56.0461 -56.0295 -55.9040 -55.8934 -55.8873 -55.8802 -55.8471 -55.8160
   -55.8011 -55.7984 -55.7917 -55.7492 -55.7298 -55.6927 -55.6733 -55.6412
   -55.6354 -55.5877 -55.5864 -55.5843 -55.5759 -55.5376 -55.5125 -55.4290
   -31.2696 -31.2503 -31.1092 -31.0223 -31.0175 -30.9467 -30.7918 -30.7636
   -29.8386 -29.7954 -29.7715 -29.6629 -15.0367 -15.0020 -14.9232 -14.7886
   -14.6650 -14.4914 -14.3556 -14.1765 -14.1381 -14.1188 -14.0908 -14.0317
   -14.0271 -14.0128 -13.9887 -13.9536 -13.9385 -13.8392 -13.7995 -13.6394
   -13.6148 -13.5688 -13.5335 -13.4832 -13.4450 -13.4013 -13.3343 -13.2997
   -13.2236 -13.1438 -13.1358 -13.1005 -13.0805 -13.0135 -12.9791 -12.9529
   -12.9272 -12.8968 -12.8834 -12.8585 -12.7925 -12.7865 -12.7764 -12.7582
   -12.7216 -12.7056 -12.6593 -12.5445 -12.4665 -12.3959 -12.2401 -12.0767
   -12.0067 -11.8183 -11.7752 -11.7476 -11.7196 -11.7030 -11.6553 -11.6442
   -11.6216 -11.5868 -11.4860 -11.4331 -11.4225  -2.7975  -2.5766  -2.4386
    -2.2568  -2.2133  -2.0499  -1.8301  -1.7461  -1.7331  -1.6741  -1.5729
    -1.5562  -1.5217  -1.4959  -1.4521  -1.2544  -1.1269  -1.1164  -1.1037
    -1.0342  -1.0259  -0.9221  -0.8932  -0.8354  -0.8094  -0.7695  -0.7044
    -0.6769  -0.6460  -0.6142  -0.5977  -0.5646  -0.4923  -0.4401  -0.3677
    -0.2635  -0.2387  -0.1995  -0.0843  -0.0489   0.0222   0.0642   0.1350
     0.1608   0.1760   0.2274   0.5312   0.6185   0.6463   0.7410   0.7850
     0.8172   0.9218   0.9412   1.0356   1.0608   1.0856   1.2013   1.2949
     1.3158   1.3399   1.3618   1.3841   1.4439   1.4730   1.4982   1.5466
     1.5824   1.6132   1.6972   1.7295   1.7688   1.8201   1.8720   1.9143
     1.9449   1.9742   1.9842   2.0943   2.2012   2.2753   2.3100   2.3693
     2.4136   2.4488   2.4540   2.4654   2.4908   2.5291   2.5631   2.6584
     2.6912   2.7067   2.8741   2.8954   2.9280   2.9513   2.9671   2.9757
     2.9825   2.9916   3.0212   3.0248   3.0423   3.0479   3.0566   3.0752
     3.0870   3.0941   3.1163   3.1272   3.1325   3.1667   3.1833   3.2445
     3.6078   3.6521   3.8925   4.3126   4.4297   4.7167   5.0237   5.0804
     5.6495   5.8196   5.9417   5.9917   6.0925   6.1200   6.1911   6.6039
     6.8412   7.1015   7.1738   7.3370   7.4938   7.5051   7.5746   7.6522
     7.8422   7.9484   8.0509   8.1751   8.2946   8.3809   8.4116   8.4384
     8.5497   8.8407   8.9520

     occupation numbers 
     1.0000   1.0000   1.0000   1.0000   1.0000   1.0000   1.0000   1.0000
     1.0000   1.0000   1.0000   1.0000   1.0000   1.0000   1.0000   1.0000
     1.0000   1.0000   1.0000   1.0000   1.0000   1.0000   1.0000   1.0000
     1.0000   1.0000   1.0000   1.0000   1.0000   1.0000   1.0000   1.0000
     1.0000   1.0000   1.0000   1.0000   1.0000   1.0000   1.0000   1.0000
     1.0000   1.0000   1.0000   1.0000   1.0000   1.0000   1.0000   1.0000
     1.0000   1.0000   1.0000   1.0000   1.0000   1.0000   1.0000   1.0000
     1.0000   1.0000   1.0000   1.0000   1.0000   1.0000   1.0000   1.0000
     1.0000   1.0000   1.0000   1.0000   1.0000   1.0000   1.0000   1.0000
     1.0000   1.0000   1.0000   1.0000   1.0000   1.0000   1.0000   1.0000
     1.0000   1.0000   1.0000   1.0000   1.0000   1.0000   1.0000   1.0000
     1.0000   1.0000   1.0000   1.0000   1.0000   1.0000   1.0000   1.0000
     1.0000   1.0000   1.0000   1.0000   1.0000   1.0000   1.0000   1.0000
     1.0000   1.0000   1.0000   1.0000   1.0000   1.0000   1.0000   1.0000
     1.0000   1.0000   1.0000   1.0000   1.0000   1.0000   1.0000   1.0000
     1.0000   1.0000   1.0000   1.0000   1.0000   1.0000   1.0000   1.0000
     1.0000   1.0000   1.0000   1.0000   1.0000   1.0000   1.0000   1.0000
     1.0000   1.0000   1.0000   1.0000   1.0000   1.0000   1.0000   1.0000
     1.0000   1.0000   1.0000   1.0000   1.0000   1.0000   1.0000   1.0000
     1.0000   1.0000   1.0000   1.0000   1.0000   1.0000   0.9999   0.9999
     0.9999   0.9998   0.9998   0.9997   0.9996   0.9996   0.9992   0.9988
     0.9986   0.9985   0.9983   0.9981   0.9975   0.9972   0.9968   0.9960
     0.9954   0.9947   0.9925   0.9914   0.9900   0.9878   0.9851   0.9825
     0.9805   0.9783   0.9776   0.9673   0.9539   0.9422   0.9360   0.9242
     0.9144   0.9059   0.9046   0.9017   0.8950   0.8843   0.8741   0.8425
     0.8304   0.8246   0.7531   0.7430   0.7272   0.7155   0.7075   0.7031
     0.6996   0.6949   0.6793   0.6774   0.6680   0.6650   0.6603   0.6502
     0.6436   0.6397   0.6273   0.6211   0.6181   0.5986   0.5891   0.5534
     0.3427   0.3188   0.2038   0.0733   0.0520   0.0201   0.0061   0.0048
     0.0003   0.0001   0.0001   0.0000   0.0000   0.0000   0.0000   0.0000
     0.0000   0.0000   0.0000   0.0000   0.0000   0.0000   0.0000   0.0000
     0.0000   0.0000   0.0000   0.0000   0.0000   0.0000   0.0000   0.0000
     0.0000   0.0000   0.0000

          k = 0.0000-0.5000 0.0000 ( 65180 PWs)   bands (ev):

   -92.6927 -92.6425 -92.5468 -92.4996 -92.4415 -92.3990 -92.3823 -92.2625
   -56.0461 -56.0295 -55.9040 -55.8934 -55.8873 -55.8802 -55.8471 -55.8160
   -55.8011 -55.7984 -55.7917 -55.7492 -55.7298 -55.6927 -55.6733 -55.6412
   -55.6354 -55.5877 -55.5864 -55.5843 -55.5759 -55.5376 -55.5125 -55.4290
   -31.2694 -31.2501 -31.1094 -31.0224 -31.0171 -30.9472 -30.7906 -30.7648
   -29.8380 -29.7951 -29.7722 -29.6632 -15.0011 -14.9522 -14.9004 -14.7672
   -14.6884 -14.5470 -14.3998 -14.2656 -14.1493 -14.0739 -14.0326 -14.0268
   -13.9777 -13.9625 -13.9518 -13.9150 -13.8898 -13.8674 -13.8296 -13.7802
   -13.7573 -13.5754 -13.5164 -13.4884 -13.4483 -13.4016 -13.3501 -13.2932
   -13.2752 -13.2268 -13.2099 -13.1012 -13.0809 -13.0034 -12.9612 -12.9456
   -12.9314 -12.9207 -12.8736 -12.7898 -12.7681 -12.7528 -12.7116 -12.6972
   -12.6882 -12.6660 -12.6439 -12.5069 -12.3970 -12.3151 -12.2288 -12.1937
   -12.1545 -11.7721 -11.7699 -11.7426 -11.7059 -11.6712 -11.6599 -11.6166
   -11.6127 -11.5681 -11.5080 -11.4941 -11.4798  -2.5832  -2.5230  -2.3737
    -2.3015  -2.0194  -1.9361  -1.8096  -1.6719  -1.6332  -1.6153  -1.5358
    -1.5034  -1.4239  -1.3876  -1.3101  -1.2705  -1.2318  -1.2045  -1.1467
    -1.1113  -1.1037  -1.0606  -1.0245  -0.9945  -0.9581  -0.8500  -0.8052
    -0.7688  -0.7675  -0.6818  -0.6484  -0.6271  -0.5768  -0.4913  -0.4230
    -0.3340  -0.3036  -0.2067  -0.1610  -0.0207   0.0303   0.0433   0.1153
     0.2420   0.2703   0.4002   0.4714   0.4778   0.6045   0.6590   0.7933
     0.8822   0.9924   1.0243   1.0615   1.0686   1.1140   1.1223   1.1582
     1.1792   1.1845   1.2947   1.3555   1.3910   1.4184   1.6771   1.7041
     1.7319   1.8244   1.8519   1.8754   1.8908   1.9202   1.9336   1.9577
     1.9755   2.0146   2.0435   2.0770   2.0903   2.1139   2.1616   2.2468
     2.2750   2.4443   2.4665   2.4838   2.6129   2.6253   2.6537   2.6777
     2.6838   2.6915   2.7420   2.7526   2.8072   2.8290   2.9087   2.9206
     2.9889   2.9958   3.0182   3.0228   3.0391   3.0449   3.0488   3.0533
     3.0560   3.0680   3.0863   3.0878   3.1516   3.1577   3.1729   3.2268
     4.1429   4.1614   4.1861   4.2692   4.7611   4.9077   5.0334   5.1767
     5.4215   5.4731   5.5904   5.7399   6.0370   6.0565   6.2768   6.5332
     6.8592   6.9587   7.2214   7.3520   7.3945   7.5016   7.6449   7.7609
     7.9162   7.9949   8.1840   8.2898   8.3959   8.4284   8.5253   8.6730
     8.7958   8.8246   8.8684

     occupation numbers 
     1.0000   1.0000   1.0000   1.0000   1.0000   1.0000   1.0000   1.0000
     1.0000   1.0000   1.0000   1.0000   1.0000   1.0000   1.0000   1.0000
     1.0000   1.0000   1.0000   1.0000   1.0000   1.0000   1.0000   1.0000
     1.0000   1.0000   1.0000   1.0000   1.0000   1.0000   1.0000   1.0000
     1.0000   1.0000   1.0000   1.0000   1.0000   1.0000   1.0000   1.0000
     1.0000   1.0000   1.0000   1.0000   1.0000   1.0000   1.0000   1.0000
     1.0000   1.0000   1.0000   1.0000   1.0000   1.0000   1.0000   1.0000
     1.0000   1.0000   1.0000   1.0000   1.0000   1.0000   1.0000   1.0000
     1.0000   1.0000   1.0000   1.0000   1.0000   1.0000   1.0000   1.0000
     1.0000   1.0000   1.0000   1.0000   1.0000   1.0000   1.0000   1.0000
     1.0000   1.0000   1.0000   1.0000   1.0000   1.0000   1.0000   1.0000
     1.0000   1.0000   1.0000   1.0000   1.0000   1.0000   1.0000   1.0000
     1.0000   1.0000   1.0000   1.0000   1.0000   1.0000   1.0000   1.0000
     1.0000   1.0000   1.0000   1.0000   1.0000   1.0000   1.0000   1.0000
     1.0000   1.0000   1.0000   1.0000   1.0000   1.0000   1.0000   1.0000
     1.0000   1.0000   1.0000   1.0000   1.0000   1.0000   1.0000   1.0000
     1.0000   1.0000   1.0000   1.0000   1.0000   1.0000   1.0000   1.0000
     1.0000   1.0000   1.0000   1.0000   1.0000   1.0000   1.0000   1.0000
     1.0000   1.0000   1.0000   1.0000   1.0000   1.0000   1.0000   1.0000
     1.0000   1.0000   1.0000   1.0000   1.0000   1.0000   1.0000   0.9999
     0.9999   0.9997   0.9997   0.9996   0.9996   0.9995   0.9995   0.9994
     0.9993   0.9993   0.9988   0.9984   0.9981   0.9978   0.9931   0.9923
     0.9914   0.9876   0.9862   0.9849   0.9840   0.9822   0.9813   0.9796
     0.9782   0.9750   0.9724   0.9691   0.9677   0.9651   0.9593   0.9469
     0.9422   0.9070   0.9014   0.8969   0.8582   0.8540   0.8441   0.8354
     0.8332   0.8303   0.8107   0.8064   0.7834   0.7738   0.7366   0.7308
     0.6963   0.6927   0.6809   0.6785   0.6698   0.6666   0.6646   0.6621
     0.6607   0.6541   0.6440   0.6432   0.6073   0.6038   0.5951   0.5638
     0.1151   0.1099   0.1031   0.0827   0.0171   0.0098   0.0058   0.0031
     0.0010   0.0007   0.0004   0.0002   0.0000   0.0000   0.0000   0.0000
     0.0000   0.0000   0.0000   0.0000   0.0000   0.0000   0.0000   0.0000
     0.0000   0.0000   0.0000   0.0000   0.0000   0.0000   0.0000   0.0000
     0.0000   0.0000   0.0000

          k = 0.2500 0.2500 0.0000 ( 65198 PWs)   bands (ev):

   -92.6927 -92.6425 -92.5468 -92.4996 -92.4415 -92.3990 -92.3823 -92.2625
   -56.0461 -56.0295 -55.9040 -55.8934 -55.8873 -55.8802 -55.8471 -55.8160
   -55.8011 -55.7984 -55.7917 -55.7492 -55.7298 -55.6927 -55.6733 -55.6412
   -55.6354 -55.5877 -55.5864 -55.5843 -55.5759 -55.5376 -55.5125 -55.4290
   -31.2679 -31.2520 -31.1089 -31.0227 -31.0173 -30.9466 -30.7920 -30.7637
   -29.8376 -29.7964 -29.7711 -29.6633 -15.0079 -14.9672 -14.8953 -14.7780
   -14.6576 -14.5324 -14.4610 -14.2516 -14.0997 -14.0856 -14.0493 -14.0188
   -13.9986 -13.9725 -13.9530 -13.9327 -13.9026 -13.8304 -13.8128 -13.6552
   -13.6397 -13.6108 -13.5912 -13.5286 -13.5020 -13.4359 -13.4181 -13.2803
   -13.2282 -13.2165 -13.1332 -13.0934 -13.0410 -13.0102 -12.9881 -12.9628
   -12.9387 -12.9088 -12.8736 -12.8269 -12.7787 -12.7608 -12.7362 -12.7190
   -12.7058 -12.6660 -12.6559 -12.4818 -12.4444 -12.3768 -12.2692 -12.1084
   -12.0542 -11.7905 -11.7589 -11.7480 -11.7409 -11.6782 -11.6438 -11.6371
   -11.6016 -11.5936 -11.5026 -11.4613 -11.4440  -2.6592  -2.4508  -2.3326
    -2.2384  -2.1179  -2.0532  -1.8547  -1.7107  -1.6916  -1.6612  -1.5676
    -1.5321  -1.4386  -1.4118  -1.3615  -1.2305  -1.1827  -1.1181  -1.0955
    -1.0634  -1.0187  -0.9952  -0.9717  -0.9294  -0.9139  -0.8229  -0.7727
    -0.7071  -0.6573  -0.6282  -0.5793  -0.5649  -0.5017  -0.4522  -0.3907
    -0.3608  -0.2730  -0.2225  -0.1922  -0.1550  -0.0988  -0.0281   0.0112
     0.0446   0.1187   0.1726   0.4190   0.5667   0.6010   0.6624   0.7012
     0.7821   0.8310   0.8771   0.9127   1.1857   1.2502   1.3239   1.3472
     1.4003   1.4295   1.4646   1.5009   1.5187   1.5456   1.5895   1.5989
     1.6139   1.6621   1.7030   1.7381   1.7911   1.8344   1.8441   1.8795
     1.9155   1.9730   1.9993   2.1305   2.1859   2.2196   2.2448   2.3221
     2.3789   2.4037   2.4363   2.4474   2.4673   2.4790   2.4935   2.6025
     2.6298   2.7199   2.8847   2.9022   2.9077   2.9235   2.9385   2.9522
     2.9642   2.9712   2.9827   2.9959   3.0093   3.0265   3.0328   3.0454
     3.0678   3.0784   3.0872   3.1194   3.4196   3.5126   3.5565   3.6261
     3.6509   3.8722   3.9628   4.3163   4.5200   4.7261   4.9930   5.1720
     5.6542   5.7114   5.7825   5.8442   5.9034   6.1004   6.1643   6.2222
     6.9023   6.9528   7.1243   7.2764   7.5585   7.6138   7.7204   7.8602
     7.8853   8.0145   8.1686   8.2278   8.3397   8.3762   8.4536   8.4934
     8.5833   8.7189   8.9207

     occupation numbers 
     1.0000   1.0000   1.0000   1.0000   1.0000   1.0000   1.0000   1.0000
     1.0000   1.0000   1.0000   1.0000   1.0000   1.0000   1.0000   1.0000
     1.0000   1.0000   1.0000   1.0000   1.0000   1.0000   1.0000   1.0000
     1.0000   1.0000   1.0000   1.0000   1.0000   1.0000   1.0000   1.0000
     1.0000   1.0000   1.0000   1.0000   1.0000   1.0000   1.0000   1.0000
     1.0000   1.0000   1.0000   1.0000   1.0000   1.0000   1.0000   1.0000
     1.0000   1.0000   1.0000   1.0000   1.0000   1.0000   1.0000   1.0000
     1.0000   1.0000   1.0000   1.0000   1.0000   1.0000   1.0000   1.0000
     1.0000   1.0000   1.0000   1.0000   1.0000   1.0000   1.0000   1.0000
     1.0000   1.0000   1.0000   1.0000   1.0000   1.0000   1.0000   1.0000
     1.0000   1.0000   1.0000   1.0000   1.0000   1.0000   1.0000   1.0000
     1.0000   1.0000   1.0000   1.0000   1.0000   1.0000   1.0000   1.0000
     1.0000   1.0000   1.0000   1.0000   1.0000   1.0000   1.0000   1.0000
     1.0000   1.0000   1.0000   1.0000   1.0000   1.0000   1.0000   1.0000
     1.0000   1.0000   1.0000   1.0000   1.0000   1.0000   1.0000   1.0000
     1.0000   1.0000   1.0000   1.0000   1.0000   1.0000   1.0000   1.0000
     1.0000   1.0000   1.0000   1.0000   1.0000   1.0000   1.0000   1.0000
     1.0000   1.0000   1.0000   1.0000   1.0000   1.0000   1.0000   1.0000
     1.0000   1.0000   1.0000   1.0000   1.0000   1.0000   1.0000   1.0000
     1.0000   1.0000   1.0000   1.0000   1.0000   1.0000   1.0000   1.0000
     0.9999   0.9999   0.9999   0.9998   0.9993   0.9990   0.9986   0.9984
     0.9980   0.9977   0.9973   0.9968   0.9965   0.9961   0.9952   0.9950
     0.9947   0.9935   0.9923   0.9911   0.9891   0.9871   0.9866   0.9847
     0.9825   0.9784   0.9763   0.9631   0.9560   0.9512   0.9473   0.9337
     0.9221   0.9166   0.9090   0.9062   0.9012   0.8981   0.8942   0.8616
     0.8525   0.8195   0.7481   0.7397   0.7371   0.7294   0.7219   0.7151
     0.7090   0.7054   0.6995   0.6927   0.6856   0.6765   0.6731   0.6664
     0.6542   0.6484   0.6435   0.6255   0.4500   0.3960   0.3711   0.3327
     0.3195   0.2125   0.1756   0.0725   0.0392   0.0194   0.0069   0.0032
     0.0003   0.0002   0.0001   0.0001   0.0001   0.0000   0.0000   0.0000
     0.0000   0.0000   0.0000   0.0000   0.0000   0.0000   0.0000   0.0000
     0.0000   0.0000   0.0000   0.0000   0.0000   0.0000   0.0000   0.0000
     0.0000   0.0000   0.0000

          k = 0.2500-0.5000 0.0000 ( 65138 PWs)   bands (ev):

   -92.6927 -92.6425 -92.5468 -92.4996 -92.4415 -92.3990 -92.3823 -92.2625
   -56.0461 -56.0295 -55.9040 -55.8934 -55.8873 -55.8802 -55.8471 -55.8160
   -55.8011 -55.7984 -55.7917 -55.7492 -55.7298 -55.6927 -55.6733 -55.6412
   -55.6354 -55.5877 -55.5864 -55.5843 -55.5759 -55.5376 -55.5125 -55.4290
   -31.2678 -31.2519 -31.1091 -31.0228 -31.0169 -30.9470 -30.7908 -30.7649
   -29.8370 -29.7961 -29.7718 -29.6637 -14.9706 -14.9254 -14.8574 -14.7373
   -14.7107 -14.5886 -14.5007 -14.3650 -14.0644 -14.0094 -13.9835 -13.9632
   -13.9533 -13.9441 -13.9346 -13.8992 -13.8782 -13.8425 -13.8102 -13.7745
   -13.7444 -13.6579 -13.6089 -13.5462 -13.5301 -13.4628 -13.4475 -13.3323
   -13.2790 -13.1988 -13.1342 -13.1101 -13.0248 -12.9917 -12.9758 -12.9548
   -12.9351 -12.9041 -12.8909 -12.7850 -12.7761 -12.7569 -12.7267 -12.7044
   -12.6649 -12.6472 -12.6160 -12.5134 -12.3807 -12.3126 -12.2107 -12.1823
   -12.1519 -11.7661 -11.7541 -11.7433 -11.7163 -11.6843 -11.6566 -11.6141
   -11.5877 -11.5649 -11.5210 -11.4952 -11.4838  -2.4413  -2.3749  -2.2475
    -2.1702  -2.0398  -1.9558  -1.8339  -1.6829  -1.6288  -1.6069  -1.5434
    -1.5307  -1.4347  -1.3660  -1.2821  -1.2320  -1.2223  -1.1601  -1.1192
    -1.1030  -1.0828  -1.0343  -0.9966  -0.9624  -0.9230  -0.9118  -0.8657
    -0.8365  -0.7939  -0.7624  -0.6964  -0.5934  -0.5538  -0.4768  -0.4113
    -0.3614  -0.3209  -0.3002  -0.2456  -0.0864  -0.0773   0.0409   0.0670
     0.0792   0.1258   0.1515   0.1969   0.2164   0.2837   0.5592   0.6542
     0.7479   0.8097   1.0449   1.0706   1.1589   1.1812   1.3472   1.3836
     1.4229   1.4443   1.4601   1.4809   1.5445   1.5929   1.6271   1.7106
     1.7937   1.8335   1.8579   1.8672   1.9018   1.9162   1.9214   1.9660
     1.9802   1.9956   2.0451   2.0607   2.0722   2.1062   2.1630   2.2020
     2.2821   2.4168   2.4496   2.4849   2.5668   2.5872   2.6077   2.6297
     2.6531   2.6787   2.6999   2.7155   2.7375   2.8353   2.8852   2.9031
     2.9095   2.9212   2.9414   2.9554   2.9740   2.9827   3.0160   3.0277
     3.0406   3.0505   3.0601   3.0698   3.5980   3.6025   3.7510   3.8014
     4.1487   4.1925   4.2045   4.3258   4.7792   4.9300   5.0712   5.1462
     5.3132   5.4401   5.6145   5.6526   5.7778   5.7956   6.3767   6.4045
     6.4958   6.6738   7.2181   7.4305   7.5715   7.7112   7.8038   7.8240
     7.8893   8.0478   8.2577   8.4104   8.5183   8.5363   8.5701   8.5760
     8.7155   8.7528   8.7936

     occupation numbers 
     1.0000   1.0000   1.0000   1.0000   1.0000   1.0000   1.0000   1.0000
     1.0000   1.0000   1.0000   1.0000   1.0000   1.0000   1.0000   1.0000
     1.0000   1.0000   1.0000   1.0000   1.0000   1.0000   1.0000   1.0000
     1.0000   1.0000   1.0000   1.0000   1.0000   1.0000   1.0000   1.0000
     1.0000   1.0000   1.0000   1.0000   1.0000   1.0000   1.0000   1.0000
     1.0000   1.0000   1.0000   1.0000   1.0000   1.0000   1.0000   1.0000
     1.0000   1.0000   1.0000   1.0000   1.0000   1.0000   1.0000   1.0000
     1.0000   1.0000   1.0000   1.0000   1.0000   1.0000   1.0000   1.0000
     1.0000   1.0000   1.0000   1.0000   1.0000   1.0000   1.0000   1.0000
     1.0000   1.0000   1.0000   1.0000   1.0000   1.0000   1.0000   1.0000
     1.0000   1.0000   1.0000   1.0000   1.0000   1.0000   1.0000   1.0000
     1.0000   1.0000   1.0000   1.0000   1.0000   1.0000   1.0000   1.0000
     1.0000   1.0000   1.0000   1.0000   1.0000   1.0000   1.0000   1.0000
     1.0000   1.0000   1.0000   1.0000   1.0000   1.0000   1.0000   1.0000
     1.0000   1.0000   1.0000   1.0000   1.0000   1.0000   1.0000   1.0000
     1.0000   1.0000   1.0000   1.0000   1.0000   1.0000   1.0000   1.0000
     1.0000   1.0000   1.0000   1.0000   1.0000   1.0000   1.0000   1.0000
     1.0000   1.0000   1.0000   1.0000   1.0000   1.0000   1.0000   1.0000
     1.0000   1.0000   1.0000   1.0000   1.0000   1.0000   1.0000   1.0000
     1.0000   1.0000   1.0000   1.0000   1.0000   1.0000   1.0000   1.0000
     0.9999   0.9999   0.9997   0.9996   0.9994   0.9993   0.9984   0.9981
     0.9977   0.9975   0.9973   0.9970   0.9961   0.9952   0.9944   0.9921
     0.9889   0.9871   0.9859   0.9854   0.9833   0.9824   0.9821   0.9790
     0.9779   0.9766   0.9723   0.9708   0.9696   0.9660   0.9591   0.9537
     0.9410   0.9136   0.9057   0.8966   0.8730   0.8666   0.8599   0.8525
     0.8443   0.8351   0.8272   0.8212   0.8125   0.7709   0.7479   0.7393
     0.7362   0.7305   0.7205   0.7135   0.7040   0.6995   0.6821   0.6759
     0.6689   0.6636   0.6584   0.6531   0.3480   0.3456   0.2683   0.2443
     0.1135   0.1015   0.0983   0.0706   0.0160   0.0089   0.0050   0.0036
     0.0017   0.0009   0.0004   0.0003   0.0001   0.0001   0.0000   0.0000
     0.0000   0.0000   0.0000   0.0000   0.0000   0.0000   0.0000   0.0000
     0.0000   0.0000   0.0000   0.0000   0.0000   0.0000   0.0000   0.0000
     0.0000   0.0000   0.0000

          k =-0.5000-0.5000 0.0000 ( 65132 PWs)   bands (ev):

   -92.6927 -92.6425 -92.5468 -92.4996 -92.4415 -92.3990 -92.3823 -92.2625
   -56.0461 -56.0295 -55.9040 -55.8934 -55.8872 -55.8802 -55.8471 -55.8160
   -55.8011 -55.7984 -55.7917 -55.7492 -55.7298 -55.6927 -55.6733 -55.6412
   -55.6354 -55.5877 -55.5864 -55.5843 -55.5759 -55.5376 -55.5125 -55.4290
   -31.2656 -31.2540 -31.1087 -31.0232 -31.0168 -30.9469 -30.7909 -30.7651
   -29.8360 -29.7971 -29.7714 -29.6641 -14.9242 -14.8986 -14.7803 -14.7691
   -14.6732 -14.6371 -14.5997 -14.4661 -13.9746 -13.9628 -13.9529 -13.9273
   -13.9105 -13.8935 -13.8772 -13.8501 -13.8385 -13.8271 -13.8132 -13.7959
   -13.7245 -13.7177 -13.6824 -13.6525 -13.6351 -13.5503 -13.5094 -13.3750
   -13.3200 -13.1488 -13.1074 -13.0427 -13.0176 -12.9874 -12.9764 -12.9671
   -12.9518 -12.9398 -12.8640 -12.7887 -12.7617 -12.7579 -12.7273 -12.7216
   -12.6876 -12.5972 -12.5893 -12.5298 -12.3652 -12.3090 -12.1907 -12.1707
   -12.1511 -11.7628 -11.7504 -11.7323 -11.7158 -11.6803 -11.6624 -11.6288
   -11.5683 -11.5476 -11.5430 -11.4928 -11.4896  -2.2164  -2.1419  -2.1321
    -2.0580  -2.0209  -1.9429  -1.8753  -1.7483  -1.6336  -1.6035  -1.5629
    -1.5068  -1.4343  -1.4206  -1.3495  -1.3066  -1.1899  -1.1603  -1.1111
    -1.1043  -1.0840  -1.0195  -0.9732  -0.9542  -0.9419  -0.8870  -0.8444
    -0.8273  -0.7144  -0.6565  -0.6123  -0.5621  -0.5319  -0.5200  -0.4879
    -0.4449  -0.4087  -0.3989  -0.3129  -0.2472  -0.2020  -0.1759  -0.1023
    -0.0451  -0.0339   0.0253   0.0620   0.0671   0.0939   0.5333   0.5698
     0.6816   0.7487   1.0781   1.0907   1.1215   1.1626   1.4334   1.4530
     1.4594   1.5009   1.6253   1.7218   1.7480   1.7843   1.8060   1.8328
     1.8392   1.8681   1.8771   1.8920   1.9059   1.9579   1.9624   1.9915
     2.0051   2.0327   2.0395   2.0761   2.1022   2.1219   2.1495   2.1928
     2.2406   2.3119   2.4417   2.4833   2.5845   2.6094   2.6311   2.6460
     2.6601   2.6886   2.6899   2.7097   2.7210   2.7379   2.7592   2.7695
     2.8365   2.8395   2.8600   2.8752   2.8880   2.9089   2.9102   2.9204
     3.0249   3.0289   3.0564   3.0678   4.0361   4.0524   4.0686   4.0803
     4.3290   4.4066   4.4267   4.6674   4.7898   4.8724   5.0014   5.0876
     5.1093   5.2155   5.3071   5.4329   5.8620   5.8878   5.9640   6.0400
     6.6121   6.8153   7.0432   7.0920   7.9032   7.9323   7.9546   7.9574
     7.9858   8.0316   8.0998   8.2756   8.4340   8.5946   8.6243   8.6677
     8.7416   8.7492   8.7748

     occupation numbers 
     1.0000   1.0000   1.0000   1.0000   1.0000   1.0000   1.0000   1.0000
     1.0000   1.0000   1.0000   1.0000   1.0000   1.0000   1.0000   1.0000
     1.0000   1.0000   1.0000   1.0000   1.0000   1.0000   1.0000   1.0000
     1.0000   1.0000   1.0000   1.0000   1.0000   1.0000   1.0000   1.0000
     1.0000   1.0000   1.0000   1.0000   1.0000   1.0000   1.0000   1.0000
     1.0000   1.0000   1.0000   1.0000   1.0000   1.0000   1.0000   1.0000
     1.0000   1.0000   1.0000   1.0000   1.0000   1.0000   1.0000   1.0000
     1.0000   1.0000   1.0000   1.0000   1.0000   1.0000   1.0000   1.0000
     1.0000   1.0000   1.0000   1.0000   1.0000   1.0000   1.0000   1.0000
     1.0000   1.0000   1.0000   1.0000   1.0000   1.0000   1.0000   1.0000
     1.0000   1.0000   1.0000   1.0000   1.0000   1.0000   1.0000   1.0000
     1.0000   1.0000   1.0000   1.0000   1.0000   1.0000   1.0000   1.0000
     1.0000   1.0000   1.0000   1.0000   1.0000   1.0000   1.0000   1.0000
     1.0000   1.0000   1.0000   1.0000   1.0000   1.0000   1.0000   1.0000
     1.0000   1.0000   1.0000   1.0000   1.0000   1.0000   1.0000   1.0000
     1.0000   1.0000   1.0000   1.0000   1.0000   1.0000   1.0000   1.0000
     1.0000   1.0000   1.0000   1.0000   1.0000   1.0000   1.0000   1.0000
     1.0000   1.0000   1.0000   1.0000   1.0000   1.0000   1.0000   1.0000
     1.0000   1.0000   1.0000   1.0000   1.0000   1.0000   1.0000   1.0000
     1.0000   1.0000   1.0000   1.0000   1.0000   1.0000   1.0000   1.0000
     1.0000   0.9999   0.9996   0.9996   0.9995   0.9994   0.9976   0.9974
     0.9973   0.9968   0.9944   0.9917   0.9908   0.9893   0.9884   0.9871
     0.9868   0.9853   0.9848   0.9839   0.9831   0.9796   0.9792   0.9770
     0.9758   0.9734   0.9728   0.9692   0.9664   0.9642   0.9608   0.9551
     0.9479   0.9356   0.9076   0.8970   0.8674   0.8593   0.8520   0.8468
     0.8419   0.8314   0.8309   0.8234   0.8190   0.8123   0.8037   0.7994
     0.7704   0.7690   0.7597   0.7526   0.7466   0.7365   0.7359   0.7309
     0.6774   0.6753   0.6604   0.6542   0.1489   0.1433   0.1380   0.1342
     0.0700   0.0558   0.0525   0.0239   0.0154   0.0112   0.0067   0.0046
     0.0042   0.0026   0.0017   0.0009   0.0001   0.0001   0.0000   0.0000
     0.0000   0.0000   0.0000   0.0000   0.0000   0.0000   0.0000   0.0000
     0.0000   0.0000   0.0000   0.0000   0.0000   0.0000   0.0000   0.0000
     0.0000   0.0000   0.0000

          k = 0.2500 0.0000 0.0000 ( 65257 PWs)   bands (ev):

   -92.6927 -92.6425 -92.5468 -92.4996 -92.4415 -92.3990 -92.3823 -92.2625
   -56.0461 -56.0295 -55.9040 -55.8934 -55.8873 -55.8802 -55.8471 -55.8160
   -55.8011 -55.7984 -55.7917 -55.7492 -55.7298 -55.6927 -55.6733 -55.6412
   -55.6354 -55.5877 -55.5864 -55.5843 -55.5759 -55.5376 -55.5125 -55.4290
   -31.2681 -31.2521 -31.1087 -31.0225 -31.0178 -30.9462 -30.7931 -30.7626
   -29.8383 -29.7967 -29.7705 -29.6630 -15.0404 -14.9973 -14.9285 -14.7818
   -14.6738 -14.4801 -14.3465 -14.1640 -14.1497 -14.1192 -14.0887 -14.0618
   -14.0314 -14.0135 -13.9875 -13.9557 -13.9403 -13.8310 -13.7998 -13.6513
   -13.5811 -13.5699 -13.5055 -13.4836 -13.4709 -13.4121 -13.3373 -13.3049
   -13.2085 -13.1510 -13.1298 -13.0530 -13.0385 -13.0280 -13.0161 -12.9967
   -12.9645 -12.9262 -12.8785 -12.8360 -12.8122 -12.8101 -12.7637 -12.7477
   -12.6779 -12.6349 -12.6244 -12.5947 -12.5054 -12.3980 -12.2411 -12.0740
   -12.0043 -11.8175 -11.7656 -11.7482 -11.7351 -11.7082 -11.6581 -11.6346
[...]
     0.3492   0.3255   0.2049   0.0783   0.0463   0.0217   0.0060   0.0049
     0.0003   0.0001   0.0001   0.0000   0.0000   0.0000   0.0000   0.0000
     0.0000   0.0000   0.0000   0.0000   0.0000   0.0000   0.0000   0.0000
     0.0000   0.0000   0.0000   0.0000   0.0000   0.0000   0.0000   0.0000
     0.0000   0.0000   0.0000

          k =-0.5000 0.0000 0.0000 ( 65180 PWs)   bands (ev):

   -92.6927 -92.6425 -92.5468 -92.4996 -92.4415 -92.3990 -92.3823 -92.2625
   -56.0461 -56.0295 -55.9040 -55.8934 -55.8872 -55.8802 -55.8471 -55.8160
   -55.8011 -55.7984 -55.7917 -55.7492 -55.7298 -55.6927 -55.6733 -55.6412
   -55.6354 -55.5877 -55.5864 -55.5843 -55.5759 -55.5376 -55.5125 -55.4290
   -31.2660 -31.2543 -31.1083 -31.0229 -31.0176 -30.9460 -30.7932 -30.7628
   -29.8372 -29.7977 -29.7701 -29.6634 -15.0066 -14.9540 -14.8920 -14.7819
   -14.6804 -14.5355 -14.3904 -14.2445 -14.1236 -14.1067 -14.0999 -14.0322
   -13.9836 -13.9536 -13.9501 -13.8998 -13.8910 -13.8766 -13.8289 -13.8040
   -13.7002 -13.5469 -13.5120 -13.4859 -13.4781 -13.4129 -13.3563 -13.2859
   -13.2600 -13.2364 -13.2055 -13.0465 -13.0358 -13.0230 -13.0040 -12.9937
   -12.9386 -12.9192 -12.9139 -12.8362 -12.8096 -12.7388 -12.6760 -12.6345
   -12.6324 -12.6248 -12.6228 -12.5330 -12.4438 -12.3191 -12.2945 -12.1697
   -12.1262 -11.7697 -11.7480 -11.7413 -11.7267 -11.7084 -11.6670 -11.6049
   -11.5873 -11.5541 -11.5099 -11.5006 -11.4851  -2.5729  -2.5344  -2.3711
    -2.3318  -2.0183  -1.9427  -1.7955  -1.6774  -1.6387  -1.5914  -1.5448
    -1.5202  -1.3969  -1.3528  -1.3361  -1.2554  -1.2197  -1.2056  -1.1740
    -1.1169  -1.0964  -1.0448  -1.0165  -0.9870  -0.8909  -0.8451  -0.7953
    -0.7642  -0.7427  -0.7100  -0.6647  -0.6386  -0.6011  -0.5012  -0.4277
    -0.3621  -0.3008  -0.1418  -0.0879  -0.0480  -0.0107   0.0443   0.0672
     0.2072   0.2423   0.2999   0.4481   0.5475   0.5958   0.7044   0.7496
     0.8729   0.8888   1.0114   1.0394   1.0948   1.1269   1.1675   1.1733
     1.2227   1.2426   1.3112   1.3587   1.4068   1.4148   1.7141   1.7289
     1.7370   1.7623   1.8644   1.8778   1.8929   1.9026   1.9338   1.9474
     1.9860   2.0114   2.0323   2.0860   2.1043   2.1543   2.1786   2.2327
     2.3596   2.4353   2.4433   2.4931   2.5114   2.5240   2.6149   2.6347
     2.6671   2.7349   2.7420   2.7489   2.7786   2.8460   2.8898   2.9393
     2.9628   3.0098   3.0130   3.0167   3.0257   3.0425   3.0534   3.0665
     3.0713   3.0908   3.0960   3.1180   3.1376   3.1423   3.2709   3.2795
     4.1059   4.1330   4.1940   4.3289   4.7991   4.8699   5.0536   5.0656
     5.4905   5.5189   5.6080   5.6603   6.0410   6.0502   6.3509   6.4459
     6.8032   7.0113   7.2793   7.3025   7.3457   7.4350   7.7837   7.8133
     7.8901   8.0289   8.1835   8.3058   8.3403   8.4864   8.5285   8.6363
     8.7681   8.8448   8.9196

     occupation numbers 
     1.0000   1.0000   1.0000   1.0000   1.0000   1.0000   1.0000   1.0000
     1.0000   1.0000   1.0000   1.0000   1.0000   1.0000   1.0000   1.0000
     1.0000   1.0000   1.0000   1.0000   1.0000   1.0000   1.0000   1.0000
     1.0000   1.0000   1.0000   1.0000   1.0000   1.0000   1.0000   1.0000
     1.0000   1.0000   1.0000   1.0000   1.0000   1.0000   1.0000   1.0000
     1.0000   1.0000   1.0000   1.0000   1.0000   1.0000   1.0000   1.0000
     1.0000   1.0000   1.0000   1.0000   1.0000   1.0000   1.0000   1.0000
     1.0000   1.0000   1.0000   1.0000   1.0000   1.0000   1.0000   1.0000
     1.0000   1.0000   1.0000   1.0000   1.0000   1.0000   1.0000   1.0000
     1.0000   1.0000   1.0000   1.0000   1.0000   1.0000   1.0000   1.0000
     1.0000   1.0000   1.0000   1.0000   1.0000   1.0000   1.0000   1.0000
     1.0000   1.0000   1.0000   1.0000   1.0000   1.0000   1.0000   1.0000
     1.0000   1.0000   1.0000   1.0000   1.0000   1.0000   1.0000   1.0000
     1.0000   1.0000   1.0000   1.0000   1.0000   1.0000   1.0000   1.0000
     1.0000   1.0000   1.0000   1.0000   1.0000   1.0000   1.0000   1.0000
     1.0000   1.0000   1.0000   1.0000   1.0000   1.0000   1.0000   1.0000
     1.0000   1.0000   1.0000   1.0000   1.0000   1.0000   1.0000   1.0000
     1.0000   1.0000   1.0000   1.0000   1.0000   1.0000   1.0000   1.0000
     1.0000   1.0000   1.0000   1.0000   1.0000   1.0000   1.0000   1.0000
     1.0000   1.0000   1.0000   1.0000   1.0000   1.0000   1.0000   0.9999
     0.9999   0.9999   0.9997   0.9997   0.9996   0.9995   0.9994   0.9993
     0.9991   0.9991   0.9987   0.9983   0.9979   0.9978   0.9920   0.9915
     0.9912   0.9902   0.9855   0.9848   0.9839   0.9833   0.9813   0.9803
     0.9774   0.9753   0.9735   0.9682   0.9662   0.9602   0.9570   0.9492
     0.9262   0.9092   0.9072   0.8944   0.8893   0.8857   0.8575   0.8508
     0.8393   0.8135   0.8107   0.8079   0.7956   0.7661   0.7457   0.7215
     0.7097   0.6854   0.6837   0.6817   0.6769   0.6680   0.6620   0.6549
     0.6523   0.6415   0.6386   0.6263   0.6153   0.6126   0.5379   0.5328
     0.1261   0.1180   0.1010   0.0700   0.0148   0.0113   0.0054   0.0051
     0.0007   0.0006   0.0004   0.0003   0.0000   0.0000   0.0000   0.0000
     0.0000   0.0000   0.0000   0.0000   0.0000   0.0000   0.0000   0.0000
     0.0000   0.0000   0.0000   0.0000   0.0000   0.0000   0.0000   0.0000
     0.0000   0.0000   0.0000

          k =-0.2500 0.2500 0.0000 ( 65198 PWs)   bands (ev):

   -92.6927 -92.6425 -92.5468 -92.4996 -92.4415 -92.3990 -92.3823 -92.2625
   -56.0461 -56.0295 -55.9040 -55.8934 -55.8873 -55.8802 -55.8471 -55.8160
   -55.8011 -55.7984 -55.7917 -55.7492 -55.7298 -55.6927 -55.6733 -55.6412
   -55.6354 -55.5877 -55.5864 -55.5843 -55.5759 -55.5376 -55.5125 -55.4290
   -31.2679 -31.2520 -31.1089 -31.0227 -31.0174 -30.9466 -30.7920 -30.7637
   -29.8376 -29.7964 -29.7711 -29.6633 -15.0092 -14.9662 -14.8935 -14.7768
   -14.6634 -14.5369 -14.4533 -14.2427 -14.1059 -14.0768 -14.0620 -14.0153
   -13.9908 -13.9735 -13.9544 -13.9485 -13.9032 -13.8261 -13.8132 -13.6639
   -13.6363 -13.6065 -13.5877 -13.5346 -13.4885 -13.4296 -13.4250 -13.2855
   -13.2282 -13.2126 -13.1376 -13.0944 -13.0315 -13.0019 -12.9890 -12.9712
   -12.9374 -12.9195 -12.8724 -12.8242 -12.7830 -12.7652 -12.7523 -12.7122
   -12.6854 -12.6749 -12.6524 -12.4815 -12.4341 -12.3802 -12.2749 -12.1096
   -12.0522 -11.7897 -11.7681 -11.7413 -11.7290 -11.6876 -11.6535 -11.6300
   -11.6089 -11.5862 -11.5023 -11.4568 -11.4471  -2.6576  -2.4498  -2.3285
    -2.2399  -2.1221  -2.0559  -1.8524  -1.7077  -1.6893  -1.6591  -1.5683
    -1.5309  -1.4388  -1.4049  -1.3789  -1.2364  -1.1805  -1.1178  -1.0991
    -1.0830  -1.0220  -1.0010  -0.9616  -0.9330  -0.8929  -0.8287  -0.7817
    -0.7171  -0.6496  -0.6241  -0.5737  -0.5445  -0.4994  -0.4417  -0.3947
    -0.3554  -0.2551  -0.2220  -0.2111  -0.1669  -0.1017  -0.0319   0.0140
     0.0504   0.1229   0.1719   0.3993   0.5724   0.6088   0.6493   0.7089
     0.7810   0.8336   0.8847   0.9106   1.1930   1.3016   1.3409   1.3728
     1.3810   1.4220   1.4374   1.4842   1.5135   1.5280   1.5538   1.5991
     1.6140   1.6589   1.6794   1.7227   1.8033   1.8250   1.8445   1.8850
     1.9122   1.9499   2.0127   2.1188   2.2128   2.2433   2.2954   2.3181
     2.3762   2.4156   2.4377   2.4487   2.4646   2.4900   2.4961   2.6027
     2.6288   2.7193   2.8916   2.8999   2.9135   2.9232   2.9340   2.9479
     2.9551   2.9734   2.9827   2.9959   3.0063   3.0180   3.0279   3.0353
     3.0691   3.0791   3.0863   3.1213   3.4129   3.4945   3.5589   3.6349
     3.6542   3.8577   3.9716   4.3156   4.5178   4.7270   5.0028   5.1720
     5.6552   5.7092   5.7857   5.8415   5.9043   6.1003   6.1768   6.2071
     6.9037   6.9616   7.1042   7.2933   7.5726   7.6206   7.6809   7.8644
     7.9033   8.0045   8.1891   8.2175   8.3302   8.3549   8.4565   8.5063
     8.5833   8.7267   8.9179

     occupation numbers 
     1.0000   1.0000   1.0000   1.0000   1.0000   1.0000   1.0000   1.0000
     1.0000   1.0000   1.0000   1.0000   1.0000   1.0000   1.0000   1.0000
     1.0000   1.0000   1.0000   1.0000   1.0000   1.0000   1.0000   1.0000
     1.0000   1.0000   1.0000   1.0000   1.0000   1.0000   1.0000   1.0000
     1.0000   1.0000   1.0000   1.0000   1.0000   1.0000   1.0000   1.0000
     1.0000   1.0000   1.0000   1.0000   1.0000   1.0000   1.0000   1.0000
     1.0000   1.0000   1.0000   1.0000   1.0000   1.0000   1.0000   1.0000
     1.0000   1.0000   1.0000   1.0000   1.0000   1.0000   1.0000   1.0000
     1.0000   1.0000   1.0000   1.0000   1.0000   1.0000   1.0000   1.0000
     1.0000   1.0000   1.0000   1.0000   1.0000   1.0000   1.0000   1.0000
     1.0000   1.0000   1.0000   1.0000   1.0000   1.0000   1.0000   1.0000
     1.0000   1.0000   1.0000   1.0000   1.0000   1.0000   1.0000   1.0000
     1.0000   1.0000   1.0000   1.0000   1.0000   1.0000   1.0000   1.0000
     1.0000   1.0000   1.0000   1.0000   1.0000   1.0000   1.0000   1.0000
     1.0000   1.0000   1.0000   1.0000   1.0000   1.0000   1.0000   1.0000
     1.0000   1.0000   1.0000   1.0000   1.0000   1.0000   1.0000   1.0000
     1.0000   1.0000   1.0000   1.0000   1.0000   1.0000   1.0000   1.0000
     1.0000   1.0000   1.0000   1.0000   1.0000   1.0000   1.0000   1.0000
     1.0000   1.0000   1.0000   1.0000   1.0000   1.0000   1.0000   1.0000
     1.0000   1.0000   1.0000   1.0000   1.0000   1.0000   1.0000   1.0000
     0.9999   0.9999   0.9999   0.9998   0.9993   0.9987   0.9985   0.9982
     0.9981   0.9977   0.9976   0.9970   0.9966   0.9964   0.9959   0.9950
     0.9947   0.9936   0.9930   0.9917   0.9885   0.9875   0.9866   0.9843
     0.9827   0.9801   0.9752   0.9645   0.9522   0.9475   0.9387   0.9345
     0.9227   0.9139   0.9086   0.9059   0.9019   0.8952   0.8935   0.8615
     0.8528   0.8197   0.7448   0.7409   0.7343   0.7295   0.7242   0.7173
     0.7136   0.7043   0.6995   0.6927   0.6872   0.6810   0.6758   0.6718
     0.6535   0.6480   0.6440   0.6245   0.4539   0.4064   0.3697   0.3280
     0.3177   0.2188   0.1722   0.0727   0.0395   0.0194   0.0066   0.0032
     0.0003   0.0002   0.0001   0.0001   0.0001   0.0000   0.0000   0.0000
     0.0000   0.0000   0.0000   0.0000   0.0000   0.0000   0.0000   0.0000
     0.0000   0.0000   0.0000   0.0000   0.0000   0.0000   0.0000   0.0000
     0.0000   0.0000   0.0000

          k =-0.5000 0.2500 0.0000 ( 65138 PWs)   bands (ev):

   -92.6927 -92.6425 -92.5468 -92.4996 -92.4415 -92.3990 -92.3823 -92.2625
   -56.0461 -56.0295 -55.9040 -55.8934 -55.8872 -55.8802 -55.8471 -55.8160
   -55.8011 -55.7984 -55.7917 -55.7492 -55.7298 -55.6927 -55.6733 -55.6412
   -55.6354 -55.5877 -55.5864 -55.5843 -55.5759 -55.5376 -55.5125 -55.4290
   -31.2658 -31.2542 -31.1085 -31.0231 -31.0172 -30.9464 -30.7921 -30.7639
   -29.8366 -29.7974 -29.7707 -29.6637 -14.9737 -14.9279 -14.8492 -14.7483
   -14.7092 -14.5822 -14.4930 -14.3613 -14.0564 -14.0246 -14.0128 -13.9697
   -13.9535 -13.9447 -13.9239 -13.8860 -13.8751 -13.8558 -13.8161 -13.8020
   -13.6929 -13.6294 -13.5802 -13.5746 -13.5557 -13.4641 -13.4590 -13.3263
   -13.2688 -13.1920 -13.1558 -13.0592 -13.0186 -13.0079 -12.9873 -12.9688
   -12.9416 -12.9304 -12.8747 -12.8460 -12.7753 -12.7534 -12.6967 -12.6721
   -12.6593 -12.6142 -12.6061 -12.5312 -12.4001 -12.3143 -12.2491 -12.1641
   -12.1361 -11.7625 -11.7498 -11.7354 -11.7235 -11.7020 -11.6718 -11.5917
   -11.5835 -11.5597 -11.5244 -11.4963 -11.4876  -2.4305  -2.3886  -2.2408
    -2.1985  -2.0376  -1.9611  -1.8197  -1.6835  -1.6267  -1.5994  -1.5610
    -1.5227  -1.4420  -1.3266  -1.2696  -1.2467  -1.2198  -1.1487  -1.1178
    -1.0981  -1.0739  -1.0591  -0.9982  -0.9687  -0.9300  -0.8943  -0.8661
    -0.8080  -0.7811  -0.7396  -0.7046  -0.5991  -0.5743  -0.4828  -0.4225
    -0.3911  -0.3326  -0.2488  -0.2180  -0.1136  -0.0815  -0.0171   0.0285
     0.0616   0.1285   0.1646   0.2043   0.2415   0.2801   0.6029   0.6480
     0.7276   0.7783   1.0236   1.0898   1.1581   1.1858   1.3617   1.3960
     1.4344   1.4474   1.4658   1.4825   1.5515   1.5960   1.6341   1.6678
     1.7810   1.8240   1.8549   1.8704   1.9037   1.9264   1.9444   1.9628
     1.9796   2.0009   2.0496   2.0617   2.0997   2.1227   2.1543   2.2143
     2.3437   2.4250   2.4412   2.4614   2.4895   2.5246   2.5620   2.6313
     2.6622   2.6685   2.7083   2.7385   2.7628   2.8462   2.8879   2.9007
     2.9062   2.9273   2.9496   2.9623   2.9769   2.9894   3.0115   3.0253
     3.0345   3.0433   3.0538   3.0663   3.5977   3.6307   3.7857   3.8038
     4.1084   4.1533   4.2059   4.4133   4.7937   4.8879   5.0564   5.0881
     5.4169   5.4403   5.5955   5.6320   5.7543   5.8066   6.3966   6.4488
     6.4998   6.5705   7.2970   7.3893   7.5791   7.7212   7.7941   7.8165
     7.8999   8.0335   8.2517   8.4531   8.5193   8.5620   8.5805   8.5938
     8.6664   8.7490   8.7657

     occupation numbers 
     1.0000   1.0000   1.0000   1.0000   1.0000   1.0000   1.0000   1.0000
     1.0000   1.0000   1.0000   1.0000   1.0000   1.0000   1.0000   1.0000
     1.0000   1.0000   1.0000   1.0000   1.0000   1.0000   1.0000   1.0000
     1.0000   1.0000   1.0000   1.0000   1.0000   1.0000   1.0000   1.0000
     1.0000   1.0000   1.0000   1.0000   1.0000   1.0000   1.0000   1.0000
     1.0000   1.0000   1.0000   1.0000   1.0000   1.0000   1.0000   1.0000
     1.0000   1.0000   1.0000   1.0000   1.0000   1.0000   1.0000   1.0000
     1.0000   1.0000   1.0000   1.0000   1.0000   1.0000   1.0000   1.0000
     1.0000   1.0000   1.0000   1.0000   1.0000   1.0000   1.0000   1.0000
     1.0000   1.0000   1.0000   1.0000   1.0000   1.0000   1.0000   1.0000
     1.0000   1.0000   1.0000   1.0000   1.0000   1.0000   1.0000   1.0000
     1.0000   1.0000   1.0000   1.0000   1.0000   1.0000   1.0000   1.0000
     1.0000   1.0000   1.0000   1.0000   1.0000   1.0000   1.0000   1.0000
     1.0000   1.0000   1.0000   1.0000   1.0000   1.0000   1.0000   1.0000
     1.0000   1.0000   1.0000   1.0000   1.0000   1.0000   1.0000   1.0000
     1.0000   1.0000   1.0000   1.0000   1.0000   1.0000   1.0000   1.0000
     1.0000   1.0000   1.0000   1.0000   1.0000   1.0000   1.0000   1.0000
     1.0000   1.0000   1.0000   1.0000   1.0000   1.0000   1.0000   1.0000
     1.0000   1.0000   1.0000   1.0000   1.0000   1.0000   1.0000   1.0000
     1.0000   1.0000   1.0000   1.0000   1.0000   1.0000   1.0000   1.0000
     0.9999   0.9999   0.9997   0.9996   0.9994   0.9993   0.9983   0.9980
     0.9976   0.9975   0.9972   0.9970   0.9960   0.9951   0.9942   0.9933
     0.9895   0.9876   0.9860   0.9852   0.9832   0.9818   0.9805   0.9792
     0.9779   0.9762   0.9718   0.9707   0.9667   0.9641   0.9602   0.9520
     0.9295   0.9117   0.9078   0.9027   0.8953   0.8856   0.8745   0.8519
     0.8411   0.8388   0.8240   0.8121   0.8022   0.7660   0.7466   0.7405
     0.7378   0.7275   0.7164   0.7100   0.7025   0.6960   0.6845   0.6772
     0.6722   0.6675   0.6618   0.6550   0.3482   0.3303   0.2517   0.2432
     0.1254   0.1121   0.0979   0.0547   0.0152   0.0106   0.0053   0.0046
     0.0010   0.0009   0.0004   0.0003   0.0002   0.0001   0.0000   0.0000
     0.0000   0.0000   0.0000   0.0000   0.0000   0.0000   0.0000   0.0000
     0.0000   0.0000   0.0000   0.0000   0.0000   0.0000   0.0000   0.0000
     0.0000   0.0000   0.0000

     the Fermi energy is     3.3349 ev

!    total energy              =   -4441.65777161 Ry
     estimated scf accuracy    <          6.7E-09 Ry
     smearing contrib. (-TS)   =      -1.15487112 Ry
     internal energy E=F+TS    =   -4440.50290049 Ry

     The total energy is F=E-TS. E is the sum of the following terms:
     one-electron contribution =  -20803.32050146 Ry
     hartree contribution      =   10533.75328430 Ry
     xc contribution           =    -694.18203055 Ry
     ewald contribution        =    6799.41657319 Ry
     one-center paw contrib.   =    -276.17022597 Ry
      -> PAW hartree energy AE =      25.17485442 Ry
      -> PAW hartree energy PS =     -25.05862663 Ry
      -> PAW xc energy AE      =     -16.51920185 Ry
      -> PAW xc energy PS      =       6.87874291 Ry
      -> total E_H with PAW    =   10533.86951208 Ry
      -> total E_XC with PAW   =    -703.82248949 Ry

     convergence has been achieved in  47 iterations

     Writing all to output data dir /bsuhome/zayahcortright/scratch/pwscf.save/
 
     init_run     :      7.71s CPU      8.39s WALL (       1 calls)
     electrons    :    771.14s CPU    845.32s WALL (       1 calls)

     Called by init_run:
     wfcinit      :      6.04s CPU      6.27s WALL (       1 calls)
     wfcinit:atom :      0.04s CPU      0.06s WALL (       5 calls)
     wfcinit:wfcr :      5.72s CPU      5.85s WALL (       5 calls)
     potinit      :      0.17s CPU      0.19s WALL (       1 calls)
     hinit0       :      0.60s CPU      0.79s WALL (       1 calls)

     Called by electrons:
     c_bands      :    620.90s CPU    632.64s WALL (      47 calls)
     sum_band     :    112.70s CPU    146.36s WALL (      47 calls)
     v_of_rho     :      5.13s CPU      5.50s WALL (      48 calls)
     v_h          :      0.44s CPU      0.45s WALL (      48 calls)
     v_xc         :      4.69s CPU      5.06s WALL (      48 calls)
     newd         :     18.21s CPU     46.27s WALL (      48 calls)
     PAW_pot      :      1.57s CPU      1.61s WALL (      48 calls)
     mix_rho      :     12.30s CPU     12.64s WALL (      47 calls)

     Called by c_bands:
     init_us_2    :      5.99s CPU      6.14s WALL (     475 calls)
     init_us_2:cp :      5.99s CPU      6.13s WALL (     475 calls)
     cegterg      :    589.07s CPU    600.44s WALL (     235 calls)

     Called by sum_band:
     sum_band:wei :      0.35s CPU      0.35s WALL (      47 calls)
     sum_band:loo :     90.41s CPU     91.09s WALL (      47 calls)
     sum_band:buf :      1.17s CPU      1.23s WALL (     235 calls)
     sum_band:ini :      2.59s CPU      2.62s WALL (     235 calls)
     sum_band:cal :     18.34s CPU     18.40s WALL (     235 calls)
     sum_band:bec :      0.54s CPU      0.56s WALL (     235 calls)
     addusdens    :     19.27s CPU     52.21s WALL (      47 calls)
                                        0.00s GPU  (      47 calls)
     addusd:skk   :      0.31s CPU      1.69s WALL (     188 calls)
                                        0.00s GPU  (     188 calls)

     Called by *egterg:
     cdiaghg      :     58.84s CPU     59.09s WALL (    1295 calls)
     cegterg:over :     46.53s CPU     46.72s WALL (    1060 calls)
     cegterg:upda :     47.97s CPU     49.03s WALL (    1060 calls)
     cegterg:last :     69.67s CPU     69.93s WALL (     432 calls)
     cdiaghg:chol :      3.20s CPU      3.22s WALL (    1295 calls)
     cdiaghg:inve :      3.58s CPU      3.60s WALL (    1295 calls)
     cdiaghg:para :      7.65s CPU      7.71s WALL (    2590 calls)
     h_psi        :    303.53s CPU    308.08s WALL (    1300 calls)
     s_psi        :     37.97s CPU     38.08s WALL (    1300 calls)
     g_psi        :      2.55s CPU      2.57s WALL (    1060 calls)

     Called by h_psi:
     h_psi:calbec :     44.88s CPU     45.10s WALL (    1300 calls)
     vloc_psi     :    215.80s CPU    217.70s WALL (    1300 calls)
     add_vuspsi   :     37.90s CPU     38.12s WALL (    1300 calls)

     General routines
     calbec       :     63.22s CPU     63.50s WALL (    1535 calls)
     fft          :      4.52s CPU      4.57s WALL (     622 calls)
     ffts         :      4.59s CPU      4.62s WALL (    5059 calls)
     fftw         :    189.14s CPU    190.55s WALL (  319201 calls)
     interpolate  :      0.40s CPU      0.41s WALL (      48 calls)
 
     Parallel routines

     PAW routines
     PAW_pot      :      1.57s CPU      1.61s WALL (      48 calls)
 
     PWSCF        :  13m 0.50s CPU  14m18.24s WALL

 
   This run was terminated on:  15:57: 6  21Jun2024            

=------------------------------------------------------------------------------=
   JOB DONE.
=------------------------------------------------------------------------------=
