
     Program PWSCF v.7.2 starts on 21Jun2024 at 16:36:52 

     This program is part of the open-source Quantum ESPRESSO suite
     for quantum simulation of materials; please cite
         "P. Giannozzi et al., J. Phys.:Condens. Matter 21 395502 (2009);
         "P. Giannozzi et al., J. Phys.:Condens. Matter 29 465901 (2017);
         "P. Giannozzi et al., J. Chem. Phys. 152 154105 (2020);
          URL http://www.quantum-espresso.org", 
     in publications or presentations arising from this work. More details at
     http://www.quantum-espresso.org/quote

     Parallel version (MPI & OpenMP), running on      48 processor cores
     Number of MPI processes:                48
     Threads/MPI process:                     1

     MPI processes distributed on     1 nodes
     60573 MiB available memory on the printing compute node when the environment starts
 
     Reading input from espresso.pwi
Warning: card &CELL ignored
Warning: card / ignored
Warning: card &FCP ignored
Warning: card / ignored
Warning: card &RISM ignored
Warning: card / ignored

     Current dimensions of program PWSCF are:
     Max number of different atomic species (ntypx) = 10
     Max number of k-points (npk) =  40000
     Max angular momentum in pseudopotentials (lmaxx) =  4
     file O.pbe-n-kjpaw_psl.0.1.UPF: wavefunction(s)  2P renormalized
     signal trapping enabled: kill the code with -SIGUSR1 to stop cleanly the simulation 
 
     K-points division:     npool     =       2
     R & G space division:  proc/nbgrp/npool/nimage =      24
     Subspace diagonalization in iterative solution of the eigenvalue problem:
     one sub-group per band group will be used
     scalapack distributed-memory algorithm (size of sub-group:  3*  3 procs)

 
     Parallelization info
     --------------------
     sticks:   dense  smooth     PW     G-vecs:    dense   smooth      PW
     Min         350     175     47                61430    21716    3036
     Max         351     177     48                61449    21727    3041
     Sum        8421    4205   1137              1474595   521381   72913
 
     Using Slab Decomposition
 


     bravais-lattice index     =            0
     lattice parameter (alat)  =      14.8599  a.u.
     unit-cell volume          =    8305.1283 (a.u.)^3
     number of atoms/cell      =           49
     number of atomic types    =            3
     number of electrons       =       430.00
     number of Kohn-Sham states=          258
     kinetic-energy cutoff     =      60.0000  Ry
     charge density cutoff     =     480.0000  Ry
     scf convergence threshold =      1.0E-08
     mixing beta               =       0.1500
     number of iterations used =            8  local-TF  mixing
     Exchange-correlation= SLA  PW   PBE  PBE
                           (   1   4   3   4   0   0   0)

     celldm(1)=  14.859904  celldm(2)=   0.000000  celldm(3)=   0.000000
     celldm(4)=   0.000000  celldm(5)=   0.000000  celldm(6)=   0.000000

     crystal axes: (cart. coord. in units of alat)
               a(1) = (   1.000000   0.000000   0.000000 )  
               a(2) = (   0.000000   1.000000   0.000000 )  
               a(3) = (   0.000000   0.000000   2.531036 )  

     reciprocal axes: (cart. coord. in units 2 pi/alat)
               b(1) = (  1.000000  0.000000  0.000000 )  
               b(2) = (  0.000000  1.000000  0.000000 )  
               b(3) = (  0.000000  0.000000  0.395095 )  


     PseudoPot. # 1 for Sr read from file:
     /bsuhome/zayahcortright/q-e/pseudo/Sr_pbe_v1.uspp.F.UPF
     MD5 check sum: 6b418c05fbe9db5448babca5e47b7a5b
     Pseudo is Ultrasoft + core correction, Zval = 10.0
     Generated by new atomic code, or converted to UPF format
     Using radial grid of  883 points,  6 beta functions with: 
                l(1) =   0
                l(2) =   0
                l(3) =   1
                l(4) =   1
                l(5) =   2
                l(6) =   2
     Q(r) pseudized with  6 coefficients,  rinner =    1.400   1.400   1.400
                                                       1.400   1.400

     PseudoPot. # 2 for O  read from file:
     /bsuhome/zayahcortright/q-e/pseudo/O.pbe-n-kjpaw_psl.0.1.UPF
     MD5 check sum: 0234752ac141de4415c5fc33072bef88
     Pseudo is Projector augmented-wave + core cor, Zval =  6.0
     Generated using "atomic" code by A. Dal Corso  v.5.0.99 svn rev. 10869
     Shape of augmentation charge: BESSEL
     Using radial grid of 1095 points,  4 beta functions with: 
                l(1) =   0
                l(2) =   0
                l(3) =   1
                l(4) =   1
     Q(r) pseudized with 0 coefficients 


     PseudoPot. # 3 for Co read from file:
     /bsuhome/zayahcortright/q-e/pseudo/Co_pbe_v1.2.uspp.F.UPF
     MD5 check sum: 5f91765df6ddd3222702df6e7b74a16d
     Pseudo is Ultrasoft + core correction, Zval = 17.0
     Generated by new atomic code, or converted to UPF format
     Using radial grid of  863 points,  6 beta functions with: 
                l(1) =   0
                l(2) =   0
                l(3) =   1
                l(4) =   1
                l(5) =   2
                l(6) =   2
     Q(r) pseudized with  8 coefficients,  rinner =    1.200   1.200   1.200
                                                       1.200   1.200

     atomic species   valence    mass     pseudopotential
        Sr            10.00    87.62000     Sr( 1.00)
        O              6.00    15.99900     O ( 1.00)
        Co            17.00    58.93319     Co( 1.00)

     No symmetry found


                                    s                        frac. trans.

      isym =  1     identity                                     

 cryst.   s( 1) = (     1          0          0      )
                  (     0          1          0      )
                  (     0          0          1      )

 cart.    s( 1) = (  1.0000000  0.0000000  0.0000000 )
                  (  0.0000000  1.0000000  0.0000000 )
                  (  0.0000000  0.0000000  1.0000000 )


   Cartesian axes

     site n.     atom                  positions (alat units)
         1           Sr  tau(   1) = (   0.2508693   0.7491307   1.7574407  )
         2           O   tau(   2) = (   0.4985141   0.5014859   1.7715967  )
         3           Sr  tau(   3) = (   0.7482398   0.7454518   1.7648669  )
         4           Sr  tau(   4) = (   0.7441748   0.2558252   1.7667843  )
         5           Sr  tau(   5) = (   0.2508693   0.7491307   1.2696799  )
         6           Sr  tau(   6) = (   0.2508693   0.7491307   0.7632319  )
         7           Co  tau(   7) = (   0.4998914   0.5001086   1.0164559  )
         8           Co  tau(   8) = (   0.4936915   0.5063085   1.5135603  )
         9           O   tau(   9) = (   0.4988895   0.7610401   1.0164559  )
        10           O   tau(  10) = (   0.2389599   0.5011105   1.0164559  )
        11           O   tau(  11) = (   0.0070918   0.7374880   1.0164559  )
        12           O   tau(  12) = (   0.0088340   0.7405089   1.5135603  )
        13           O   tau(  13) = (   0.5066944   0.7415376   1.5135603  )
        14           O   tau(  14) = (   0.2584624   0.4933056   1.5135603  )
        15           O   tau(  15) = (   0.4985141   0.5014859   0.7773880  )
        16           O   tau(  16) = (   0.4985141   0.5014859   1.2555238  )
        17           Sr  tau(  17) = (   0.7482398   0.7454518   0.7706582  )
        18           Sr  tau(  18) = (   0.7482398   0.7454518   1.2622536  )
        19           Sr  tau(  19) = (   0.7441748   0.2558252   0.7725755  )
        20           Sr  tau(  20) = (   0.7441748   0.2558252   1.2603363  )
        21           O   tau(  21) = (   0.7322655   0.0078049   1.5135603  )
        22           O   tau(  22) = (   0.7558175   0.4996027   1.5135603  )
        23           O   tau(  23) = (   0.5003973   0.2441825   1.5135603  )
        24           O   tau(  24) = (   0.7527966   0.4978604   1.0164559  )
        25           O   tau(  25) = (   0.5021396   0.2472034   1.0164559  )
        26           O   tau(  26) = (   0.7517679   0.0000000   1.0164559  )
        27           O   tau(  27) = (   0.0114961   0.4948124   1.7455321  )
        28           O   tau(  28) = (   0.0048226   0.0077944   1.7715967  )
        29           Sr  tau(  29) = (   0.2545482   0.2517602   1.7648669  )
        30           O   tau(  30) = (   0.5048017   0.0015068   1.7786929  )
        31           Co  tau(  31) = (   0.0056869   0.5006215   1.0164559  )
        32           Co  tau(  32) = (   0.0065315   0.4997770   1.5135603  )
        33           Co  tau(  33) = (   0.0061999   0.0064171   1.0164559  )
        34           Co  tau(  34) = (   0.0000000   0.0126169   1.5135603  )
        35           O   tau(  35) = (   0.0114961   0.4948124   1.2815885  )
        36           O   tau(  36) = (   0.0114961   0.4948124   0.7513233  )
        37           O   tau(  37) = (   0.0051979   0.2673486   1.0164559  )
        38           O   tau(  38) = (   0.0130029   0.2478461   1.5135603  )
        39           O   tau(  39) = (   0.0048226   0.0077944   0.7773880  )
        40           O   tau(  40) = (   0.0048226   0.0077944   1.2555238  )
        41           Sr  tau(  41) = (   0.2545482   0.2517602   0.7706582  )
        42           Sr  tau(  42) = (   0.2545482   0.2517602   1.2622536  )
        43           Co  tau(  43) = (   0.4989925   0.0073160   1.5135603  )
        44           Co  tau(  44) = (   0.4998370   0.0064714   1.0164559  )
        45           O   tau(  45) = (   0.5048017   0.0015068   0.7844841  )
        46           O   tau(  46) = (   0.5048017   0.0015068   1.2484277  )
        47           O   tau(  47) = (   0.2621260   0.0059111   1.5135603  )
        48           O   tau(  48) = (   0.2591051   0.0041689   1.0164559  )
        49           O   tau(  49) = (   0.1421646   0.4264937   2.1602013  )

   Crystallographic axes

     site n.     atom                  positions (cryst. coord.)
         1           Sr  tau(   1) = (  0.2508693  0.7491307  0.6943562  )
         2           O   tau(   2) = (  0.4985141  0.5014859  0.6999492  )
         3           Sr  tau(   3) = (  0.7482398  0.7454518  0.6972903  )
         4           Sr  tau(   4) = (  0.7441748  0.2558252  0.6980478  )
         5           Sr  tau(   5) = (  0.2508693  0.7491307  0.5016443  )
         6           Sr  tau(   6) = (  0.2508693  0.7491307  0.3015492  )
         7           Co  tau(   7) = (  0.4998914  0.5001086  0.4015968  )
         8           Co  tau(   8) = (  0.4936915  0.5063085  0.5980003  )
         9           O   tau(   9) = (  0.4988895  0.7610401  0.4015968  )
        10           O   tau(  10) = (  0.2389599  0.5011105  0.4015968  )
        11           O   tau(  11) = (  0.0070918  0.7374880  0.4015968  )
        12           O   tau(  12) = (  0.0088340  0.7405089  0.5980003  )
        13           O   tau(  13) = (  0.5066944  0.7415376  0.5980003  )
        14           O   tau(  14) = (  0.2584624  0.4933056  0.5980003  )
        15           O   tau(  15) = (  0.4985141  0.5014859  0.3071422  )
        16           O   tau(  16) = (  0.4985141  0.5014859  0.4960513  )
        17           Sr  tau(  17) = (  0.7482398  0.7454518  0.3044833  )
        18           Sr  tau(  18) = (  0.7482398  0.7454518  0.4987103  )
        19           Sr  tau(  19) = (  0.7441748  0.2558252  0.3052408  )
        20           Sr  tau(  20) = (  0.7441748  0.2558252  0.4979527  )
        21           O   tau(  21) = (  0.7322655  0.0078049  0.5980003  )
        22           O   tau(  22) = (  0.7558175  0.4996027  0.5980003  )
        23           O   tau(  23) = (  0.5003973  0.2441825  0.5980003  )
        24           O   tau(  24) = (  0.7527966  0.4978604  0.4015968  )
        25           O   tau(  25) = (  0.5021396  0.2472034  0.4015968  )
        26           O   tau(  26) = (  0.7517679  0.0000000  0.4015968  )
        27           O   tau(  27) = (  0.0114961  0.4948124  0.6896512  )
        28           O   tau(  28) = (  0.0048226  0.0077944  0.6999492  )
        29           Sr  tau(  29) = (  0.2545482  0.2517602  0.6972903  )
        30           O   tau(  30) = (  0.5048017  0.0015068  0.7027529  )
        31           Co  tau(  31) = (  0.0056869  0.5006215  0.4015968  )
        32           Co  tau(  32) = (  0.0065315  0.4997770  0.5980003  )
        33           Co  tau(  33) = (  0.0061999  0.0064171  0.4015968  )
        34           Co  tau(  34) = (  0.0000000  0.0126169  0.5980003  )
        35           O   tau(  35) = (  0.0114961  0.4948124  0.5063494  )
        36           O   tau(  36) = (  0.0114961  0.4948124  0.2968442  )
        37           O   tau(  37) = (  0.0051979  0.2673486  0.4015968  )
        38           O   tau(  38) = (  0.0130029  0.2478461  0.5980003  )
        39           O   tau(  39) = (  0.0048226  0.0077944  0.3071422  )
        40           O   tau(  40) = (  0.0048226  0.0077944  0.4960513  )
        41           Sr  tau(  41) = (  0.2545482  0.2517602  0.3044833  )
        42           Sr  tau(  42) = (  0.2545482  0.2517602  0.4987103  )
        43           Co  tau(  43) = (  0.4989925  0.0073160  0.5980003  )
        44           Co  tau(  44) = (  0.4998370  0.0064714  0.4015968  )
        45           O   tau(  45) = (  0.5048017  0.0015068  0.3099459  )
        46           O   tau(  46) = (  0.5048017  0.0015068  0.4932477  )
        47           O   tau(  47) = (  0.2621260  0.0059111  0.5980003  )
        48           O   tau(  48) = (  0.2591051  0.0041689  0.4015968  )
        49           O   tau(  49) = (  0.1421646  0.4264937  0.8534850  )

     number of k points=    10  Gaussian smearing, width (Ry)=  0.0700
                       cart. coord. in units 2pi/alat
        k(    1) = (   0.0000000   0.0000000   0.0000000), wk =   0.1250000
        k(    2) = (   0.0000000   0.2500000   0.0000000), wk =   0.2500000
        k(    3) = (   0.0000000  -0.5000000   0.0000000), wk =   0.1250000
        k(    4) = (   0.2500000   0.2500000   0.0000000), wk =   0.2500000
        k(    5) = (   0.2500000  -0.5000000   0.0000000), wk =   0.2500000
        k(    6) = (  -0.5000000  -0.5000000   0.0000000), wk =   0.1250000
        k(    7) = (   0.2500000   0.0000000   0.0000000), wk =   0.2500000
        k(    8) = (  -0.5000000   0.0000000   0.0000000), wk =   0.1250000
        k(    9) = (  -0.2500000   0.2500000   0.0000000), wk =   0.2500000
        k(   10) = (  -0.5000000   0.2500000   0.0000000), wk =   0.2500000

                       cryst. coord.
        k(    1) = (   0.0000000   0.0000000   0.0000000), wk =   0.1250000
        k(    2) = (   0.0000000   0.2500000   0.0000000), wk =   0.2500000
        k(    3) = (   0.0000000  -0.5000000   0.0000000), wk =   0.1250000
        k(    4) = (   0.2500000   0.2500000   0.0000000), wk =   0.2500000
        k(    5) = (   0.2500000  -0.5000000   0.0000000), wk =   0.2500000
        k(    6) = (  -0.5000000  -0.5000000   0.0000000), wk =   0.1250000
        k(    7) = (   0.2500000   0.0000000   0.0000000), wk =   0.2500000
        k(    8) = (  -0.5000000   0.0000000   0.0000000), wk =   0.1250000
        k(    9) = (  -0.2500000   0.2500000   0.0000000), wk =   0.2500000
        k(   10) = (  -0.5000000   0.2500000   0.0000000), wk =   0.2500000

     Dense  grid:  1474595 G-vectors     FFT dimensions: ( 108, 108, 270)

     Smooth grid:   521381 G-vectors     FFT dimensions: (  75,  75, 192)

     Dynamical RAM for                 wfc:      10.69 MB

     Dynamical RAM for     wfc (w. buffer):      64.13 MB

     Dynamical RAM for           str. fact:       2.81 MB

     Dynamical RAM for           local pot:       0.00 MB

     Dynamical RAM for          nlocal pot:      24.53 MB

     Dynamical RAM for                qrad:       5.27 MB

     Dynamical RAM for          rho,v,vnew:       6.02 MB

     Dynamical RAM for               rhoin:       2.01 MB

     Dynamical RAM for            rho*nmix:      15.00 MB

     Dynamical RAM for           G-vectors:       3.68 MB

     Dynamical RAM for          h,s,v(r/c):       1.35 MB

     Dynamical RAM for          <psi|beta>:       2.33 MB

     Dynamical RAM for                 psi:      21.38 MB

     Dynamical RAM for                hpsi:      21.38 MB

     Dynamical RAM for                spsi:      21.38 MB

     Dynamical RAM for      wfcinit/wfcrot:      34.39 MB

     Dynamical RAM for           addusdens:     101.26 MB

     Estimated static dynamical RAM per process >     117.53 MB

     Estimated max dynamical RAM per process >     233.79 MB

     Estimated total dynamical RAM >      10.61 GB

     Check: negative core charge=   -0.000004

     Initial potential from superposition of free atoms

     starting charge     421.5961, renormalised to     430.0000

     negative rho (up, down):  7.826E-01 0.000E+00
     Starting wfcs are  376 randomized atomic wfcs
     Checking if some PAW data can be deallocated... 
       PAW data deallocated on   19 nodes for type:  2

     total cpu time spent up to now is        9.1 secs

     Self-consistent Calculation

     iteration #  1     ecut=    60.00 Ry     beta= 0.15
     Davidson diagonalization with overlap

---- Real-time Memory Report at c_bands before calling an iterative solver
             0 MiB given to the printing process from OS
             0 MiB allocation reported by mallinfo(arena+hblkhd)
         51481 MiB available memory on the node where the printing process lives
------------------
     ethr =  1.00E-02,  avg # of iterations =  2.0

     negative rho (up, down):  7.717E-01 0.000E+00

     total cpu time spent up to now is       24.2 secs

     total energy              =   -4445.23867114 Ry
     estimated scf accuracy    <      54.00886854 Ry

     iteration #  2     ecut=    60.00 Ry     beta= 0.15
     Davidson diagonalization with overlap

---- Real-time Memory Report at c_bands before calling an iterative solver
             0 MiB given to the printing process from OS
             0 MiB allocation reported by mallinfo(arena+hblkhd)
         51835 MiB available memory on the node where the printing process lives
------------------
     ethr =  1.00E-02,  avg # of iterations =  1.0

     negative rho (up, down):  7.591E-01 0.000E+00

     total cpu time spent up to now is       36.8 secs

     total energy              =   -4441.92727091 Ry
     estimated scf accuracy    <      28.45292321 Ry

     iteration #  3     ecut=    60.00 Ry     beta= 0.15
     Davidson diagonalization with overlap

---- Real-time Memory Report at c_bands before calling an iterative solver
             0 MiB given to the printing process from OS
             0 MiB allocation reported by mallinfo(arena+hblkhd)
         51067 MiB available memory on the node where the printing process lives
------------------
     ethr =  6.62E-03,  avg # of iterations =  1.0

     negative rho (up, down):  7.531E-01 0.000E+00

     total cpu time spent up to now is       49.4 secs

     total energy              =   -4442.60695994 Ry
     estimated scf accuracy    <      29.18005722 Ry

     iteration #  4     ecut=    60.00 Ry     beta= 0.15
     Davidson diagonalization with overlap

---- Real-time Memory Report at c_bands before calling an iterative solver
             0 MiB given to the printing process from OS
             0 MiB allocation reported by mallinfo(arena+hblkhd)
         51020 MiB available memory on the node where the printing process lives
------------------
     ethr =  6.62E-03,  avg # of iterations =  1.0

     negative rho (up, down):  7.537E-01 0.000E+00

     total cpu time spent up to now is       62.1 secs

     total energy              =   -4442.63749474 Ry
     estimated scf accuracy    <      27.38250630 Ry

     iteration #  5     ecut=    60.00 Ry     beta= 0.15
     Davidson diagonalization with overlap

---- Real-time Memory Report at c_bands before calling an iterative solver
             0 MiB given to the printing process from OS
             0 MiB allocation reported by mallinfo(arena+hblkhd)
         50997 MiB available memory on the node where the printing process lives
------------------
     ethr =  6.37E-03,  avg # of iterations =  1.0

     negative rho (up, down):  7.383E-01 0.000E+00

     total cpu time spent up to now is       74.8 secs

     total energy              =   -4441.94471904 Ry
     estimated scf accuracy    <      21.48734066 Ry

     iteration #  6     ecut=    60.00 Ry     beta= 0.15
     Davidson diagonalization with overlap

---- Real-time Memory Report at c_bands before calling an iterative solver
             0 MiB given to the printing process from OS
             0 MiB allocation reported by mallinfo(arena+hblkhd)
         50972 MiB available memory on the node where the printing process lives
------------------
     ethr =  5.00E-03,  avg # of iterations =  1.0

     negative rho (up, down):  7.401E-01 0.000E+00

     total cpu time spent up to now is       87.4 secs

     total energy              =   -4443.98526406 Ry
     estimated scf accuracy    <      63.96341550 Ry

     iteration #  7     ecut=    60.00 Ry     beta= 0.15
     Davidson diagonalization with overlap

---- Real-time Memory Report at c_bands before calling an iterative solver
             0 MiB given to the printing process from OS
             0 MiB allocation reported by mallinfo(arena+hblkhd)
         50956 MiB available memory on the node where the printing process lives
------------------
     ethr =  5.00E-03,  avg # of iterations =  1.0

     negative rho (up, down):  7.459E-01 0.000E+00

     total cpu time spent up to now is       99.8 secs

     total energy              =   -4441.09790843 Ry
     estimated scf accuracy    <      61.65201367 Ry

     iteration #  8     ecut=    60.00 Ry     beta= 0.15
     Davidson diagonalization with overlap

---- Real-time Memory Report at c_bands before calling an iterative solver
             0 MiB given to the printing process from OS
             0 MiB allocation reported by mallinfo(arena+hblkhd)
         50940 MiB available memory on the node where the printing process lives
------------------
     ethr =  5.00E-03,  avg # of iterations =  1.0

     negative rho (up, down):  7.493E-01 0.000E+00

     total cpu time spent up to now is      112.3 secs

     total energy              =   -4441.63036569 Ry
     estimated scf accuracy    <      10.54085537 Ry

     iteration #  9     ecut=    60.00 Ry     beta= 0.15
     Davidson diagonalization with overlap

---- Real-time Memory Report at c_bands before calling an iterative solver
             0 MiB given to the printing process from OS
             0 MiB allocation reported by mallinfo(arena+hblkhd)
         50925 MiB available memory on the node where the printing process lives
------------------
     ethr =  2.45E-03,  avg # of iterations =  1.1

     negative rho (up, down):  7.602E-01 0.000E+00

     total cpu time spent up to now is      124.8 secs

     total energy              =   -4440.45692110 Ry
     estimated scf accuracy    <       6.39783328 Ry

     iteration # 10     ecut=    60.00 Ry     beta= 0.15
     Davidson diagonalization with overlap

---- Real-time Memory Report at c_bands before calling an iterative solver
             0 MiB given to the printing process from OS
             0 MiB allocation reported by mallinfo(arena+hblkhd)
         50902 MiB available memory on the node where the printing process lives
------------------
     ethr =  1.49E-03,  avg # of iterations =  6.0

     negative rho (up, down):  7.688E-01 0.000E+00

     total cpu time spent up to now is      140.8 secs

     total energy              =   -4440.50442298 Ry
     estimated scf accuracy    <       5.38178588 Ry

     iteration # 11     ecut=    60.00 Ry     beta= 0.15
     Davidson diagonalization with overlap

---- Real-time Memory Report at c_bands before calling an iterative solver
             0 MiB given to the printing process from OS
             0 MiB allocation reported by mallinfo(arena+hblkhd)
         50788 MiB available memory on the node where the printing process lives
------------------
     ethr =  1.25E-03,  avg # of iterations =  2.5

     negative rho (up, down):  7.811E-01 0.000E+00

     total cpu time spent up to now is      154.9 secs

     total energy              =   -4439.90719033 Ry
     estimated scf accuracy    <      22.02646065 Ry

     iteration # 12     ecut=    60.00 Ry     beta= 0.15
     Davidson diagonalization with overlap

---- Real-time Memory Report at c_bands before calling an iterative solver
             0 MiB given to the printing process from OS
             0 MiB allocation reported by mallinfo(arena+hblkhd)
         50791 MiB available memory on the node where the printing process lives
------------------
     ethr =  1.25E-03,  avg # of iterations =  5.3

     negative rho (up, down):  7.823E-01 0.000E+00

     total cpu time spent up to now is      170.3 secs

     total energy              =   -4440.51506970 Ry
     estimated scf accuracy    <       2.43181225 Ry

     iteration # 13     ecut=    60.00 Ry     beta= 0.15
     Davidson diagonalization with overlap

---- Real-time Memory Report at c_bands before calling an iterative solver
             0 MiB given to the printing process from OS
             0 MiB allocation reported by mallinfo(arena+hblkhd)
         50725 MiB available memory on the node where the printing process lives
------------------
     ethr =  5.66E-04,  avg # of iterations = 11.8

     negative rho (up, down):  7.852E-01 0.000E+00

     total cpu time spent up to now is      188.6 secs

     total energy              =   -4440.53286751 Ry
     estimated scf accuracy    <       0.87578970 Ry

     iteration # 14     ecut=    60.00 Ry     beta= 0.15
     Davidson diagonalization with overlap

---- Real-time Memory Report at c_bands before calling an iterative solver
             0 MiB given to the printing process from OS
             0 MiB allocation reported by mallinfo(arena+hblkhd)
         50503 MiB available memory on the node where the printing process lives
------------------
     ethr =  2.04E-04,  avg # of iterations =  6.4

     negative rho (up, down):  8.042E-01 0.000E+00

     total cpu time spent up to now is      204.4 secs

     total energy              =   -4440.42284591 Ry
     estimated scf accuracy    <       0.80821014 Ry

     iteration # 15     ecut=    60.00 Ry     beta= 0.15
     Davidson diagonalization with overlap

---- Real-time Memory Report at c_bands before calling an iterative solver
             0 MiB given to the printing process from OS
             0 MiB allocation reported by mallinfo(arena+hblkhd)
         50530 MiB available memory on the node where the printing process lives
------------------
     ethr =  1.88E-04,  avg # of iterations =  4.2

     negative rho (up, down):  8.187E-01 0.000E+00

     total cpu time spent up to now is      219.5 secs

     total energy              =   -4440.38977223 Ry
     estimated scf accuracy    <       0.46419555 Ry

     iteration # 16     ecut=    60.00 Ry     beta= 0.15
     Davidson diagonalization with overlap

---- Real-time Memory Report at c_bands before calling an iterative solver
             0 MiB given to the printing process from OS
             0 MiB allocation reported by mallinfo(arena+hblkhd)
         50558 MiB available memory on the node where the printing process lives
------------------
     c_bands:  1 eigenvalues not converged
     ethr =  1.08E-04,  avg # of iterations = 13.2

     negative rho (up, down):  8.272E-01 0.000E+00

     total cpu time spent up to now is      239.1 secs

     total energy              =   -4440.37416013 Ry
     estimated scf accuracy    <       0.23475582 Ry

     iteration # 17     ecut=    60.00 Ry     beta= 0.15
     Davidson diagonalization with overlap

---- Real-time Memory Report at c_bands before calling an iterative solver
             0 MiB given to the printing process from OS
             0 MiB allocation reported by mallinfo(arena+hblkhd)
         50436 MiB available memory on the node where the printing process lives
------------------
     c_bands:  1 eigenvalues not converged
     c_bands:  1 eigenvalues not converged
     ethr =  5.46E-05,  avg # of iterations =  8.5

     negative rho (up, down):  8.194E-01 0.000E+00

     total cpu time spent up to now is      256.1 secs

     total energy              =   -4440.35719674 Ry
     estimated scf accuracy    <       0.66073752 Ry

     iteration # 18     ecut=    60.00 Ry     beta= 0.15
     Davidson diagonalization with overlap

---- Real-time Memory Report at c_bands before calling an iterative solver
             0 MiB given to the printing process from OS
             0 MiB allocation reported by mallinfo(arena+hblkhd)
         50494 MiB available memory on the node where the printing process lives
------------------
     ethr =  5.46E-05,  avg # of iterations =  2.0

     negative rho (up, down):  8.161E-01 0.000E+00

     total cpu time spent up to now is      270.2 secs

     total energy              =   -4440.34851594 Ry
     estimated scf accuracy    <       0.22378247 Ry

     iteration # 19     ecut=    60.00 Ry     beta= 0.15
     Davidson diagonalization with overlap

---- Real-time Memory Report at c_bands before calling an iterative solver
             0 MiB given to the printing process from OS
             0 MiB allocation reported by mallinfo(arena+hblkhd)
         50496 MiB available memory on the node where the printing process lives
------------------
     ethr =  5.20E-05,  avg # of iterations =  2.9

     negative rho (up, down):  8.061E-01 0.000E+00

     total cpu time spent up to now is      284.6 secs

     total energy              =   -4440.32016788 Ry
     estimated scf accuracy    <       0.31297942 Ry

     iteration # 20     ecut=    60.00 Ry     beta= 0.15
     Davidson diagonalization with overlap

---- Real-time Memory Report at c_bands before calling an iterative solver
             0 MiB given to the printing process from OS
             0 MiB allocation reported by mallinfo(arena+hblkhd)
         50505 MiB available memory on the node where the printing process lives
------------------
     ethr =  5.20E-05,  avg # of iterations =  5.7

     negative rho (up, down):  8.144E-01 0.000E+00

     total cpu time spent up to now is      300.3 secs

     total energy              =   -4440.31834208 Ry
     estimated scf accuracy    <       0.08628881 Ry

     iteration # 21     ecut=    60.00 Ry     beta= 0.15
     Davidson diagonalization with overlap

---- Real-time Memory Report at c_bands before calling an iterative solver
             0 MiB given to the printing process from OS
             0 MiB allocation reported by mallinfo(arena+hblkhd)
         50490 MiB available memory on the node where the printing process lives
------------------
     ethr =  2.01E-05,  avg # of iterations =  9.7

     negative rho (up, down):  8.383E-01 0.000E+00

     total cpu time spent up to now is      318.8 secs

     total energy              =   -4440.30897985 Ry
     estimated scf accuracy    <       0.07074317 Ry

     iteration # 22     ecut=    60.00 Ry     beta= 0.15
     Davidson diagonalization with overlap

---- Real-time Memory Report at c_bands before calling an iterative solver
             0 MiB given to the printing process from OS
             0 MiB allocation reported by mallinfo(arena+hblkhd)
         50390 MiB available memory on the node where the printing process lives
------------------
     ethr =  1.65E-05,  avg # of iterations =  8.1

     negative rho (up, down):  8.403E-01 0.000E+00

     total cpu time spent up to now is      336.1 secs

     total energy              =   -4440.31086924 Ry
     estimated scf accuracy    <       0.03027505 Ry

     iteration # 23     ecut=    60.00 Ry     beta= 0.15
     Davidson diagonalization with overlap

---- Real-time Memory Report at c_bands before calling an iterative solver
             0 MiB given to the printing process from OS
             0 MiB allocation reported by mallinfo(arena+hblkhd)
         50407 MiB available memory on the node where the printing process lives
------------------
     c_bands:  1 eigenvalues not converged
     ethr =  7.04E-06,  avg # of iterations =  7.7

     negative rho (up, down):  8.309E-01 0.000E+00

     total cpu time spent up to now is      353.3 secs

     total energy              =   -4440.30991643 Ry
     estimated scf accuracy    <       0.02092524 Ry

     iteration # 24     ecut=    60.00 Ry     beta= 0.15
     Davidson diagonalization with overlap

---- Real-time Memory Report at c_bands before calling an iterative solver
             0 MiB given to the printing process from OS
             0 MiB allocation reported by mallinfo(arena+hblkhd)
         50395 MiB available memory on the node where the printing process lives
------------------
     ethr =  4.87E-06,  avg # of iterations =  4.9

     negative rho (up, down):  8.003E-01 0.000E+00

     total cpu time spent up to now is      368.3 secs

     total energy              =   -4440.30672833 Ry
     estimated scf accuracy    <       0.01922211 Ry

     iteration # 25     ecut=    60.00 Ry     beta= 0.15
     Davidson diagonalization with overlap

---- Real-time Memory Report at c_bands before calling an iterative solver
             0 MiB given to the printing process from OS
             0 MiB allocation reported by mallinfo(arena+hblkhd)
         50394 MiB available memory on the node where the printing process lives
------------------
     ethr =  4.47E-06,  avg # of iterations =  2.8

     negative rho (up, down):  7.909E-01 0.000E+00

     total cpu time spent up to now is      382.9 secs

     total energy              =   -4440.30432038 Ry
     estimated scf accuracy    <       0.01397834 Ry

     iteration # 26     ecut=    60.00 Ry     beta= 0.15
     Davidson diagonalization with overlap

---- Real-time Memory Report at c_bands before calling an iterative solver
             0 MiB given to the printing process from OS
             0 MiB allocation reported by mallinfo(arena+hblkhd)
         50423 MiB available memory on the node where the printing process lives
------------------
     c_bands:  1 eigenvalues not converged
     ethr =  3.25E-06,  avg # of iterations = 10.6

     negative rho (up, down):  7.921E-01 0.000E+00

     total cpu time spent up to now is      401.8 secs

     total energy              =   -4440.30426633 Ry
     estimated scf accuracy    <       0.00595832 Ry

     iteration # 27     ecut=    60.00 Ry     beta= 0.15
     Davidson diagonalization with overlap

---- Real-time Memory Report at c_bands before calling an iterative solver
             0 MiB given to the printing process from OS
             0 MiB allocation reported by mallinfo(arena+hblkhd)
         50389 MiB available memory on the node where the printing process lives
------------------
     ethr =  1.39E-06,  avg # of iterations =  4.8

     negative rho (up, down):  7.964E-01 0.000E+00

     total cpu time spent up to now is      417.3 secs

     total energy              =   -4440.30422570 Ry
     estimated scf accuracy    <       0.00376442 Ry

     iteration # 28     ecut=    60.00 Ry     beta= 0.15
     Davidson diagonalization with overlap

---- Real-time Memory Report at c_bands before calling an iterative solver
             0 MiB given to the printing process from OS
             0 MiB allocation reported by mallinfo(arena+hblkhd)
         50425 MiB available memory on the node where the printing process lives
------------------
     ethr =  8.75E-07,  avg # of iterations =  6.8

     negative rho (up, down):  7.966E-01 0.000E+00

     total cpu time spent up to now is      434.1 secs

     total energy              =   -4440.30409041 Ry
     estimated scf accuracy    <       0.00189171 Ry

     iteration # 29     ecut=    60.00 Ry     beta= 0.15
     Davidson diagonalization with overlap

---- Real-time Memory Report at c_bands before calling an iterative solver
             0 MiB given to the printing process from OS
             0 MiB allocation reported by mallinfo(arena+hblkhd)
         50404 MiB available memory on the node where the printing process lives
------------------
     c_bands:  1 eigenvalues not converged
     ethr =  4.40E-07,  avg # of iterations =  8.3

     negative rho (up, down):  7.927E-01 0.000E+00

     total cpu time spent up to now is      451.7 secs

     total energy              =   -4440.30401640 Ry
     estimated scf accuracy    <       0.00111660 Ry

     iteration # 30     ecut=    60.00 Ry     beta= 0.15
     Davidson diagonalization with overlap

---- Real-time Memory Report at c_bands before calling an iterative solver
             0 MiB given to the printing process from OS
             0 MiB allocation reported by mallinfo(arena+hblkhd)
         50392 MiB available memory on the node where the printing process lives
------------------
     ethr =  2.60E-07,  avg # of iterations =  5.2

     negative rho (up, down):  7.936E-01 0.000E+00

     total cpu time spent up to now is      467.2 secs

     total energy              =   -4440.30401429 Ry
     estimated scf accuracy    <       0.00051509 Ry

     iteration # 31     ecut=    60.00 Ry     beta= 0.15
     Davidson diagonalization with overlap

---- Real-time Memory Report at c_bands before calling an iterative solver
             0 MiB given to the printing process from OS
             0 MiB allocation reported by mallinfo(arena+hblkhd)
         50454 MiB available memory on the node where the printing process lives
------------------
     ethr =  1.20E-07,  avg # of iterations =  5.2

     negative rho (up, down):  7.943E-01 0.000E+00

     total cpu time spent up to now is      483.0 secs

     total energy              =   -4440.30406391 Ry
     estimated scf accuracy    <       0.00018883 Ry

     iteration # 32     ecut=    60.00 Ry     beta= 0.15
     Davidson diagonalization with overlap

---- Real-time Memory Report at c_bands before calling an iterative solver
             0 MiB given to the printing process from OS
             0 MiB allocation reported by mallinfo(arena+hblkhd)
         50398 MiB available memory on the node where the printing process lives
------------------
     ethr =  4.39E-08,  avg # of iterations =  2.7

     negative rho (up, down):  7.935E-01 0.000E+00

     total cpu time spent up to now is      497.5 secs

     total energy              =   -4440.30409296 Ry
     estimated scf accuracy    <       0.00006907 Ry

     iteration # 33     ecut=    60.00 Ry     beta= 0.15
     Davidson diagonalization with overlap

---- Real-time Memory Report at c_bands before calling an iterative solver
             0 MiB given to the printing process from OS
             0 MiB allocation reported by mallinfo(arena+hblkhd)
         50415 MiB available memory on the node where the printing process lives
------------------
     ethr =  1.61E-08,  avg # of iterations =  2.3

     negative rho (up, down):  7.931E-01 0.000E+00

     total cpu time spent up to now is      512.2 secs

     total energy              =   -4440.30409682 Ry
     estimated scf accuracy    <       0.00002226 Ry

     iteration # 34     ecut=    60.00 Ry     beta= 0.15
     Davidson diagonalization with overlap

---- Real-time Memory Report at c_bands before calling an iterative solver
             0 MiB given to the printing process from OS
             0 MiB allocation reported by mallinfo(arena+hblkhd)
         50413 MiB available memory on the node where the printing process lives
------------------
     ethr =  5.18E-09,  avg # of iterations =  1.9

     negative rho (up, down):  7.929E-01 0.000E+00

     total cpu time spent up to now is      526.7 secs

     total energy              =   -4440.30409720 Ry
     estimated scf accuracy    <       0.00001365 Ry

     iteration # 35     ecut=    60.00 Ry     beta= 0.15
     Davidson diagonalization with overlap

---- Real-time Memory Report at c_bands before calling an iterative solver
             0 MiB given to the printing process from OS
             0 MiB allocation reported by mallinfo(arena+hblkhd)
         50416 MiB available memory on the node where the printing process lives
------------------
     ethr =  3.17E-09,  avg # of iterations =  2.0

     negative rho (up, down):  7.925E-01 0.000E+00

     total cpu time spent up to now is      540.9 secs

     total energy              =   -4440.30409845 Ry
     estimated scf accuracy    <       0.00001029 Ry

     iteration # 36     ecut=    60.00 Ry     beta= 0.15
     Davidson diagonalization with overlap

---- Real-time Memory Report at c_bands before calling an iterative solver
             0 MiB given to the printing process from OS
             0 MiB allocation reported by mallinfo(arena+hblkhd)
         50426 MiB available memory on the node where the printing process lives
------------------
     ethr =  2.39E-09,  avg # of iterations =  2.5

     negative rho (up, down):  7.924E-01 0.000E+00

     total cpu time spent up to now is      555.6 secs

     total energy              =   -4440.30409900 Ry
     estimated scf accuracy    <       0.00000665 Ry

     iteration # 37     ecut=    60.00 Ry     beta= 0.15
     Davidson diagonalization with overlap

---- Real-time Memory Report at c_bands before calling an iterative solver
             0 MiB given to the printing process from OS
             0 MiB allocation reported by mallinfo(arena+hblkhd)
         50431 MiB available memory on the node where the printing process lives
------------------
     ethr =  1.55E-09,  avg # of iterations =  2.0

     negative rho (up, down):  7.924E-01 0.000E+00

     total cpu time spent up to now is      569.9 secs

     total energy              =   -4440.30409932 Ry
     estimated scf accuracy    <       0.00000478 Ry

     iteration # 38     ecut=    60.00 Ry     beta= 0.15
     Davidson diagonalization with overlap

---- Real-time Memory Report at c_bands before calling an iterative solver
             0 MiB given to the printing process from OS
             0 MiB allocation reported by mallinfo(arena+hblkhd)
         50440 MiB available memory on the node where the printing process lives
------------------
     ethr =  1.11E-09,  avg # of iterations =  2.4

     negative rho (up, down):  7.924E-01 0.000E+00

     total cpu time spent up to now is      584.4 secs

     total energy              =   -4440.30409955 Ry
     estimated scf accuracy    <       0.00000294 Ry

     iteration # 39     ecut=    60.00 Ry     beta= 0.15
     Davidson diagonalization with overlap

---- Real-time Memory Report at c_bands before calling an iterative solver
             0 MiB given to the printing process from OS
             0 MiB allocation reported by mallinfo(arena+hblkhd)
         50452 MiB available memory on the node where the printing process lives
------------------
     ethr =  6.84E-10,  avg # of iterations =  1.0

     negative rho (up, down):  7.926E-01 0.000E+00

     total cpu time spent up to now is      597.4 secs

     total energy              =   -4440.30410052 Ry
     estimated scf accuracy    <       0.00000222 Ry

     iteration # 40     ecut=    60.00 Ry     beta= 0.15
     Davidson diagonalization with overlap

---- Real-time Memory Report at c_bands before calling an iterative solver
             0 MiB given to the printing process from OS
             0 MiB allocation reported by mallinfo(arena+hblkhd)
         50457 MiB available memory on the node where the printing process lives
------------------
     ethr =  5.16E-10,  avg # of iterations =  2.6

     negative rho (up, down):  7.927E-01 0.000E+00

     total cpu time spent up to now is      612.3 secs

     total energy              =   -4440.30410050 Ry
     estimated scf accuracy    <       0.00000093 Ry

     iteration # 41     ecut=    60.00 Ry     beta= 0.15
     Davidson diagonalization with overlap

---- Real-time Memory Report at c_bands before calling an iterative solver
             0 MiB given to the printing process from OS
             0 MiB allocation reported by mallinfo(arena+hblkhd)
         50452 MiB available memory on the node where the printing process lives
------------------
     ethr =  2.16E-10,  avg # of iterations =  2.7

     negative rho (up, down):  7.927E-01 0.000E+00

     total cpu time spent up to now is      627.0 secs

     total energy              =   -4440.30410034 Ry
     estimated scf accuracy    <       0.00000058 Ry

     iteration # 42     ecut=    60.00 Ry     beta= 0.15
     Davidson diagonalization with overlap

---- Real-time Memory Report at c_bands before calling an iterative solver
             0 MiB given to the printing process from OS
             0 MiB allocation reported by mallinfo(arena+hblkhd)
         50449 MiB available memory on the node where the printing process lives
------------------
     ethr =  1.36E-10,  avg # of iterations =  2.5

     negative rho (up, down):  7.927E-01 0.000E+00

     total cpu time spent up to now is      641.2 secs

     total energy              =   -4440.30410038 Ry
     estimated scf accuracy    <       0.00000035 Ry

     iteration # 43     ecut=    60.00 Ry     beta= 0.15
     Davidson diagonalization with overlap

---- Real-time Memory Report at c_bands before calling an iterative solver
             0 MiB given to the printing process from OS
             0 MiB allocation reported by mallinfo(arena+hblkhd)
         50451 MiB available memory on the node where the printing process lives
------------------
     ethr =  8.23E-11,  avg # of iterations =  2.0

     negative rho (up, down):  7.926E-01 0.000E+00

     total cpu time spent up to now is      655.3 secs

     total energy              =   -4440.30410041 Ry
     estimated scf accuracy    <       0.00000019 Ry

     iteration # 44     ecut=    60.00 Ry     beta= 0.15
     Davidson diagonalization with overlap

---- Real-time Memory Report at c_bands before calling an iterative solver
             0 MiB given to the printing process from OS
             0 MiB allocation reported by mallinfo(arena+hblkhd)
         50449 MiB available memory on the node where the printing process lives
------------------
     ethr =  4.44E-11,  avg # of iterations =  2.0

     negative rho (up, down):  7.926E-01 0.000E+00

     total cpu time spent up to now is      669.5 secs

     total energy              =   -4440.30410045 Ry
     estimated scf accuracy    <       0.00000012 Ry

     iteration # 45     ecut=    60.00 Ry     beta= 0.15
     Davidson diagonalization with overlap

---- Real-time Memory Report at c_bands before calling an iterative solver
             0 MiB given to the printing process from OS
             0 MiB allocation reported by mallinfo(arena+hblkhd)
         50449 MiB available memory on the node where the printing process lives
------------------
     ethr =  2.81E-11,  avg # of iterations =  1.6

     negative rho (up, down):  7.926E-01 0.000E+00

     total cpu time spent up to now is      683.7 secs

     total energy              =   -4440.30410050 Ry
     estimated scf accuracy    <       0.00000008 Ry

     iteration # 46     ecut=    60.00 Ry     beta= 0.15
     Davidson diagonalization with overlap

---- Real-time Memory Report at c_bands before calling an iterative solver
             0 MiB given to the printing process from OS
             0 MiB allocation reported by mallinfo(arena+hblkhd)
         50456 MiB available memory on the node where the printing process lives
------------------
     ethr =  1.77E-11,  avg # of iterations =  2.3

     negative rho (up, down):  7.926E-01 0.000E+00

     total cpu time spent up to now is      698.4 secs

     total energy              =   -4440.30410055 Ry
     estimated scf accuracy    <       0.00000005 Ry

     iteration # 47     ecut=    60.00 Ry     beta= 0.15
     Davidson diagonalization with overlap

---- Real-time Memory Report at c_bands before calling an iterative solver
             0 MiB given to the printing process from OS
             0 MiB allocation reported by mallinfo(arena+hblkhd)
         50454 MiB available memory on the node where the printing process lives
------------------
     ethr =  1.26E-11,  avg # of iterations =  2.7

     negative rho (up, down):  7.926E-01 0.000E+00

     total cpu time spent up to now is      713.1 secs

     total energy              =   -4440.30410059 Ry
     estimated scf accuracy    <       0.00000003 Ry

     iteration # 48     ecut=    60.00 Ry     beta= 0.15
     Davidson diagonalization with overlap

---- Real-time Memory Report at c_bands before calling an iterative solver
             0 MiB given to the printing process from OS
             0 MiB allocation reported by mallinfo(arena+hblkhd)
         50450 MiB available memory on the node where the printing process lives
------------------
     ethr =  7.37E-12,  avg # of iterations =  3.3

     negative rho (up, down):  7.926E-01 0.000E+00

     total cpu time spent up to now is      728.2 secs

     total energy              =   -4440.30410061 Ry
     estimated scf accuracy    <       0.00000002 Ry

     iteration # 49     ecut=    60.00 Ry     beta= 0.15
     Davidson diagonalization with overlap

---- Real-time Memory Report at c_bands before calling an iterative solver
             0 MiB given to the printing process from OS
             0 MiB allocation reported by mallinfo(arena+hblkhd)
         50452 MiB available memory on the node where the printing process lives
------------------
     ethr =  4.16E-12,  avg # of iterations =  3.8

     negative rho (up, down):  7.926E-01 0.000E+00

     total cpu time spent up to now is      743.6 secs

     End of self-consistent calculation

          k = 0.0000 0.0000 0.0000 ( 65197 PWs)   bands (ev):

   -92.8868 -92.8368 -92.7418 -92.6942 -92.6378 -92.5937 -92.5760 -92.4558
   -56.2404 -56.2222 -56.0983 -56.0873 -56.0813 -56.0742 -56.0400 -56.0104
   -55.9949 -55.9936 -55.9879 -55.9444 -55.9250 -55.8884 -55.8689 -55.8377
   -55.8297 -55.7823 -55.7813 -55.7785 -55.7701 -55.7308 -55.7061 -55.6208
   -31.4506 -31.4302 -31.2890 -31.2790 -31.2011 -31.1525 -30.9870 -30.6864
   -30.0325 -29.9880 -29.9628 -29.8538 -15.2631 -15.2120 -15.1368 -15.0070
   -14.8049 -14.6841 -14.3995 -14.3771 -14.3503 -14.3048 -14.2536 -14.2388
   -14.2338 -14.2117 -14.1953 -14.1633 -14.1135 -13.9590 -13.7694 -13.7466
   -13.7172 -13.6767 -13.6600 -13.6072 -13.5752 -13.4928 -13.4246 -13.3064
   -13.2831 -13.2802 -13.2539 -13.2484 -13.2298 -13.1772 -13.1743 -13.1540
   -13.1281 -13.0956 -13.0872 -13.0724 -13.0625 -13.0268 -12.9430 -12.9202
   -12.9041 -12.6988 -12.6868 -12.6255 -12.5164 -12.3700 -12.1452 -12.0734
   -12.0444 -11.9868 -11.9713 -11.9601 -11.9356 -11.9184 -11.8554 -11.8381
   -11.8035 -11.7752 -11.6612 -11.5830 -11.5794  -3.1235  -2.8925  -2.6630
    -2.5136  -2.4531  -2.3114  -2.0027  -1.9876  -1.9703  -1.8804  -1.8638
    -1.7958  -1.7788  -1.7391  -1.6954  -1.5133  -1.2858  -1.2553  -1.1142
    -1.0992  -1.0503  -1.0315  -0.9851  -0.9684  -0.9172  -0.8897  -0.8131
    -0.8023  -0.7303  -0.5949  -0.5820  -0.5535  -0.4744  -0.4444  -0.3952
    -0.3689  -0.3087  -0.2569  -0.2082  -0.1844  -0.1127  -0.0471  -0.0019
     0.0240   0.0354   0.2955   0.3107   0.4851   0.5465   0.6111   0.6666
     0.7461   0.7578   0.7750   0.8432   0.8706   0.9031   0.9608   1.0902
     1.1508   1.1725   1.2019   1.2123   1.2687   1.3366   1.4533   1.4716
     1.5296   1.5345   1.5813   1.6006   1.6125   1.6655   1.7315   1.7351
     1.7748   1.8045   1.8465   1.9796   2.0692   2.1072   2.1263   2.2714
     2.2859   2.3275   2.3347   2.4409   2.4753   2.5022   2.5212   2.5329
     2.5835   2.6118   2.6369   2.6417   2.7285   2.7623   2.7687   2.7737
     2.8418   2.8521   2.8691   2.8769   2.8862   2.8977   2.9076   2.9228
     2.9275   2.9375   2.9457   2.9538   2.9730   2.9942   2.9989   3.0114
     3.0365   3.1513   3.2523   3.9327   4.2507   4.6078   4.8259   4.8640
     5.7681   5.8082   5.8332   5.8820   6.1305   6.1769   6.4311   6.4412
     6.9378   6.9881   7.0755   7.1561   7.4198   7.5296   7.5472   7.5699
     7.6511   7.8609   7.8758   7.9300   8.0293   8.1414   8.3544   8.5790
     8.7496   8.9303

     occupation numbers 
     1.0000   1.0000   1.0000   1.0000   1.0000   1.0000   1.0000   1.0000
     1.0000   1.0000   1.0000   1.0000   1.0000   1.0000   1.0000   1.0000
     1.0000   1.0000   1.0000   1.0000   1.0000   1.0000   1.0000   1.0000
     1.0000   1.0000   1.0000   1.0000   1.0000   1.0000   1.0000   1.0000
     1.0000   1.0000   1.0000   1.0000   1.0000   1.0000   1.0000   1.0000
     1.0000   1.0000   1.0000   1.0000   1.0000   1.0000   1.0000   1.0000
     1.0000   1.0000   1.0000   1.0000   1.0000   1.0000   1.0000   1.0000
     1.0000   1.0000   1.0000   1.0000   1.0000   1.0000   1.0000   1.0000
     1.0000   1.0000   1.0000   1.0000   1.0000   1.0000   1.0000   1.0000
     1.0000   1.0000   1.0000   1.0000   1.0000   1.0000   1.0000   1.0000
     1.0000   1.0000   1.0000   1.0000   1.0000   1.0000   1.0000   1.0000
     1.0000   1.0000   1.0000   1.0000   1.0000   1.0000   1.0000   1.0000
     1.0000   1.0000   1.0000   1.0000   1.0000   1.0000   1.0000   1.0000
     1.0000   1.0000   1.0000   1.0000   1.0000   1.0000   1.0000   1.0000
     1.0000   1.0000   1.0000   1.0000   1.0000   1.0000   1.0000   1.0000
     1.0000   1.0000   1.0000   1.0000   1.0000   1.0000   1.0000   1.0000
     1.0000   1.0000   1.0000   1.0000   1.0000   1.0000   1.0000   1.0000
     1.0000   1.0000   1.0000   1.0000   1.0000   1.0000   1.0000   1.0000
     1.0000   1.0000   1.0000   1.0000   1.0000   1.0000   1.0000   1.0000
     1.0000   1.0000   1.0000   1.0000   1.0000   0.9999   0.9999   0.9999
     0.9998   0.9998   0.9998   0.9997   0.9996   0.9996   0.9994   0.9988
     0.9984   0.9983   0.9980   0.9979   0.9973   0.9963   0.9939   0.9934
     0.9917   0.9915   0.9898   0.9889   0.9884   0.9858   0.9819   0.9816
     0.9788   0.9765   0.9728   0.9578   0.9444   0.9378   0.9342   0.9019
     0.8981   0.8867   0.8846   0.8510   0.8388   0.8288   0.8216   0.8170
     0.7964   0.7844   0.7733   0.7711   0.7303   0.7134   0.7102   0.7076
     0.6720   0.6664   0.6572   0.6530   0.6478   0.6414   0.6360   0.6275
     0.6248   0.6192   0.6145   0.6099   0.5989   0.5867   0.5840   0.5767
     0.5621   0.4943   0.4348   0.1201   0.0498   0.0147   0.0062   0.0053
     0.0000   0.0000   0.0000   0.0000   0.0000   0.0000   0.0000   0.0000
     0.0000   0.0000   0.0000   0.0000   0.0000   0.0000   0.0000   0.0000
     0.0000   0.0000   0.0000   0.0000   0.0000   0.0000   0.0000   0.0000
     0.0000   0.0000

          k = 0.0000 0.2500 0.0000 ( 65257 PWs)   bands (ev):

   -92.8868 -92.8368 -92.7418 -92.6942 -92.6378 -92.5937 -92.5760 -92.4558
   -56.2404 -56.2222 -56.0983 -56.0873 -56.0813 -56.0742 -56.0400 -56.0104
   -55.9949 -55.9936 -55.9879 -55.9444 -55.9250 -55.8884 -55.8689 -55.8377
   -55.8297 -55.7823 -55.7813 -55.7785 -55.7701 -55.7308 -55.7061 -55.6208
   -31.4504 -31.4300 -31.2892 -31.2788 -31.2013 -31.1527 -30.9869 -30.6865
   -30.0319 -29.9877 -29.9634 -29.8541 -15.2268 -15.1852 -15.1117 -14.9775
   -14.8488 -14.6744 -14.5447 -14.3653 -14.3256 -14.3079 -14.2802 -14.2192
   -14.2137 -14.1957 -14.1750 -14.1269 -14.0310 -13.9897 -13.8255 -13.7962
   -13.7579 -13.7191 -13.6577 -13.6300 -13.5780 -13.5188 -13.4791 -13.4179
   -13.3481 -13.3201 -13.2825 -13.2715 -13.2313 -13.1624 -13.1375 -13.1091
   -13.0880 -13.0748 -13.0407 -13.0158 -12.9964 -12.9726 -12.9297 -12.8749
   -12.8465 -12.6465 -12.6231 -12.5889 -12.5775 -12.4211 -12.1979 -12.1340
   -12.0099 -11.9868 -11.9681 -11.9394 -11.9111 -11.8945 -11.8471 -11.8361
   -11.8136 -11.7797 -11.6756 -11.6245 -11.6140  -2.9880  -2.7682  -2.6298
    -2.4473  -2.4040  -2.2416  -2.0179  -1.9382  -1.9250  -1.8602  -1.7627
    -1.7470  -1.7135  -1.6851  -1.6413  -1.4445  -1.3146  -1.3032  -1.2257
    -1.2164  -1.1138  -1.0847  -1.0244  -0.9979  -0.9606  -0.8940  -0.8667
    -0.8354  -0.8042  -0.7868  -0.7547  -0.6800  -0.6304  -0.5490  -0.4436
    -0.4121  -0.3699  -0.2698  -0.2257  -0.1640  -0.1210  -0.0587  -0.0467
    -0.0214   0.0406   0.3439   0.4299   0.4659   0.5508   0.5980   0.6238
     0.7287   0.7479   0.8438   0.8712   0.8952   1.0092   1.1102   1.1263
     1.1537   1.1752   1.1939   1.2532   1.2811   1.3098   1.3553   1.3946
     1.4269   1.5187   1.5570   1.5806   1.6352   1.6896   1.7298   1.7599
     1.7818   1.7946   1.8979   2.0182   2.0921   2.1095   2.1777   2.2246
     2.2675   2.2741   2.3345   2.3713   2.4568   2.5002   2.5152   2.5768
     2.6216   2.6430   2.6838   2.7049   2.7396   2.7632   2.7767   2.7849
     2.7907   2.7997   2.8305   2.8324   2.8500   2.8613   2.8638   2.8835
     2.8995   2.9035   2.9238   2.9351   2.9410   2.9763   2.9917   3.0508
     3.4245   3.4685   3.6996   4.1230   4.2475   4.5499   4.8809   4.9877
     5.5118   5.6533   5.8089   5.9113   5.9576   6.0307   6.0610   6.5453
     7.0238   7.0396   7.2074   7.2400   7.3424   7.4027   7.5435   7.6285
     7.7702   7.9377   8.0608   8.1026   8.2891   8.3155   8.3428   8.3863
     8.6018   8.8177

     occupation numbers 
     1.0000   1.0000   1.0000   1.0000   1.0000   1.0000   1.0000   1.0000
     1.0000   1.0000   1.0000   1.0000   1.0000   1.0000   1.0000   1.0000
     1.0000   1.0000   1.0000   1.0000   1.0000   1.0000   1.0000   1.0000
     1.0000   1.0000   1.0000   1.0000   1.0000   1.0000   1.0000   1.0000
     1.0000   1.0000   1.0000   1.0000   1.0000   1.0000   1.0000   1.0000
     1.0000   1.0000   1.0000   1.0000   1.0000   1.0000   1.0000   1.0000
     1.0000   1.0000   1.0000   1.0000   1.0000   1.0000   1.0000   1.0000
     1.0000   1.0000   1.0000   1.0000   1.0000   1.0000   1.0000   1.0000
     1.0000   1.0000   1.0000   1.0000   1.0000   1.0000   1.0000   1.0000
     1.0000   1.0000   1.0000   1.0000   1.0000   1.0000   1.0000   1.0000
     1.0000   1.0000   1.0000   1.0000   1.0000   1.0000   1.0000   1.0000
     1.0000   1.0000   1.0000   1.0000   1.0000   1.0000   1.0000   1.0000
     1.0000   1.0000   1.0000   1.0000   1.0000   1.0000   1.0000   1.0000
     1.0000   1.0000   1.0000   1.0000   1.0000   1.0000   1.0000   1.0000
     1.0000   1.0000   1.0000   1.0000   1.0000   1.0000   1.0000   1.0000
     1.0000   1.0000   1.0000   1.0000   1.0000   1.0000   1.0000   1.0000
     1.0000   1.0000   1.0000   1.0000   1.0000   1.0000   1.0000   1.0000
     1.0000   1.0000   1.0000   1.0000   1.0000   1.0000   1.0000   1.0000
     1.0000   1.0000   1.0000   1.0000   1.0000   1.0000   1.0000   1.0000
     1.0000   1.0000   1.0000   1.0000   1.0000   0.9999   0.9999   0.9999
     0.9998   0.9998   0.9997   0.9996   0.9996   0.9992   0.9987   0.9986
     0.9984   0.9983   0.9981   0.9975   0.9971   0.9967   0.9960   0.9953
     0.9946   0.9920   0.9907   0.9898   0.9874   0.9845   0.9820   0.9799
     0.9783   0.9773   0.9676   0.9524   0.9405   0.9373   0.9239   0.9134
     0.9029   0.9012   0.8847   0.8737   0.8454   0.8296   0.8239   0.7992
     0.7800   0.7705   0.7517   0.7417   0.7248   0.7130   0.7061   0.7019
     0.6989   0.6942   0.6780   0.6770   0.6676   0.6614   0.6601   0.6493
     0.6405   0.6382   0.6269   0.6205   0.6172   0.5970   0.5882   0.5537
     0.3373   0.3138   0.2037   0.0725   0.0503   0.0183   0.0049   0.0031
     0.0002   0.0001   0.0000   0.0000   0.0000   0.0000   0.0000   0.0000
     0.0000   0.0000   0.0000   0.0000   0.0000   0.0000   0.0000   0.0000
     0.0000   0.0000   0.0000   0.0000   0.0000   0.0000   0.0000   0.0000
     0.0000   0.0000

          k = 0.0000-0.5000 0.0000 ( 65180 PWs)   bands (ev):

   -92.8868 -92.8368 -92.7418 -92.6942 -92.6378 -92.5937 -92.5760 -92.4558
   -56.2404 -56.2222 -56.0983 -56.0873 -56.0813 -56.0742 -56.0400 -56.0104
   -55.9949 -55.9936 -55.9879 -55.9444 -55.9250 -55.8884 -55.8689 -55.8377
   -55.8297 -55.7823 -55.7813 -55.7785 -55.7701 -55.7308 -55.7061 -55.6208
   -31.4502 -31.4299 -31.2894 -31.2785 -31.2014 -31.1529 -30.9868 -30.6867
   -30.0312 -29.9874 -29.9641 -29.8544 -15.1886 -15.1407 -15.0835 -14.9572
   -14.8744 -14.7396 -14.5746 -14.4598 -14.3382 -14.2645 -14.2214 -14.2150
   -14.1625 -14.1501 -14.1007 -14.0697 -14.0546 -14.0193 -13.9717 -13.9349
   -13.7641 -13.7045 -13.6571 -13.6363 -13.5702 -13.5365 -13.4895 -13.4546
   -13.4419 -13.3892 -13.2838 -13.2731 -13.2139 -13.1548 -13.1378 -13.1141
   -13.1006 -13.0559 -13.0059 -12.9857 -12.9344 -12.8798 -12.8418 -12.8262
   -12.8187 -12.6885 -12.6289 -12.5352 -12.4959 -12.4380 -12.2859 -12.2344
   -11.9876 -11.9650 -11.9609 -11.9341 -11.8974 -11.8628 -11.8517 -11.8094
   -11.8056 -11.7609 -11.6976 -11.6846 -11.6710  -2.7724  -2.7153  -2.5645
    -2.4936  -2.2072  -2.1267  -1.9987  -1.8643  -1.8174  -1.8054  -1.7282
    -1.6970  -1.6132  -1.5789  -1.4980  -1.4609  -1.4241  -1.3966  -1.3314
    -1.3006  -1.2513  -1.2167  -1.1842  -1.1512  -1.0407  -0.9971  -0.9584
    -0.9542  -0.8691  -0.8396  -0.8182  -0.7692  -0.6774  -0.6080  -0.5141
    -0.4670  -0.3787  -0.3511  -0.2122  -0.1452  -0.1395  -0.0891   0.0318
     0.0999   0.2090   0.2797   0.2912   0.4152   0.4862   0.5722   0.6991
     0.7997   0.8333   0.8740   0.8914   0.9209   0.9350   0.9678   0.9845
     0.9980   1.1084   1.1694   1.2052   1.2320   1.5052   1.5231   1.5445
     1.6356   1.6603   1.6932   1.7138   1.7307   1.7580   1.7607   1.7839
     1.8245   1.8537   1.8872   1.8874   1.9179   1.9707   2.0647   2.1007
     2.2620   2.4190   2.4282   2.4494   2.4809   2.4949   2.4980   2.5470
     2.5598   2.5785   2.6142   2.6220   2.6373   2.6478   2.7167   2.7397
     2.8017   2.8058   2.8290   2.8337   2.8467   2.8503   2.8557   2.8618
     2.8674   2.8799   2.8943   2.8969   2.9612   2.9645   2.9813   3.0372
     3.9466   3.9654   4.0132   4.0984   4.5579   4.7328   4.8996   5.0163
     5.2812   5.3624   5.4873   5.5981   5.8638   5.8707   6.3537   6.5759
     6.7851   6.8950   7.1366   7.3103   7.5682   7.6416   7.7159   7.7727
     7.7987   7.9518   8.0078   8.1538   8.3407   8.3583   8.4608   8.5197
     8.6851   8.7407

     occupation numbers 
     1.0000   1.0000   1.0000   1.0000   1.0000   1.0000   1.0000   1.0000
     1.0000   1.0000   1.0000   1.0000   1.0000   1.0000   1.0000   1.0000
     1.0000   1.0000   1.0000   1.0000   1.0000   1.0000   1.0000   1.0000
     1.0000   1.0000   1.0000   1.0000   1.0000   1.0000   1.0000   1.0000
     1.0000   1.0000   1.0000   1.0000   1.0000   1.0000   1.0000   1.0000
     1.0000   1.0000   1.0000   1.0000   1.0000   1.0000   1.0000   1.0000
     1.0000   1.0000   1.0000   1.0000   1.0000   1.0000   1.0000   1.0000
     1.0000   1.0000   1.0000   1.0000   1.0000   1.0000   1.0000   1.0000
     1.0000   1.0000   1.0000   1.0000   1.0000   1.0000   1.0000   1.0000
     1.0000   1.0000   1.0000   1.0000   1.0000   1.0000   1.0000   1.0000
     1.0000   1.0000   1.0000   1.0000   1.0000   1.0000   1.0000   1.0000
     1.0000   1.0000   1.0000   1.0000   1.0000   1.0000   1.0000   1.0000
     1.0000   1.0000   1.0000   1.0000   1.0000   1.0000   1.0000   1.0000
     1.0000   1.0000   1.0000   1.0000   1.0000   1.0000   1.0000   1.0000
     1.0000   1.0000   1.0000   1.0000   1.0000   1.0000   1.0000   1.0000
     1.0000   1.0000   1.0000   1.0000   1.0000   1.0000   1.0000   1.0000
     1.0000   1.0000   1.0000   1.0000   1.0000   1.0000   1.0000   1.0000
     1.0000   1.0000   1.0000   1.0000   1.0000   1.0000   1.0000   1.0000
     1.0000   1.0000   1.0000   1.0000   1.0000   1.0000   1.0000   1.0000
     1.0000   1.0000   1.0000   1.0000   1.0000   1.0000   0.9999   0.9999
     0.9997   0.9997   0.9996   0.9996   0.9995   0.9995   0.9994   0.9993
     0.9993   0.9987   0.9983   0.9980   0.9977   0.9925   0.9919   0.9911
     0.9873   0.9861   0.9843   0.9830   0.9819   0.9800   0.9798   0.9781
     0.9748   0.9721   0.9688   0.9687   0.9654   0.9590   0.9451   0.9389
     0.9043   0.8584   0.8553   0.8480   0.8368   0.8316   0.8304   0.8114
     0.8062   0.7985   0.7833   0.7799   0.7731   0.7684   0.7361   0.7248
     0.6932   0.6910   0.6788   0.6763   0.6694   0.6674   0.6645   0.6612
     0.6581   0.6513   0.6434   0.6419   0.6057   0.6038   0.5942   0.5617
     0.1160   0.1107   0.0978   0.0777   0.0177   0.0091   0.0045   0.0027
     0.0007   0.0005   0.0002   0.0001   0.0000   0.0000   0.0000   0.0000
     0.0000   0.0000   0.0000   0.0000   0.0000   0.0000   0.0000   0.0000
     0.0000   0.0000   0.0000   0.0000   0.0000   0.0000   0.0000   0.0000
     0.0000   0.0000

          k = 0.2500 0.2500 0.0000 ( 65198 PWs)   bands (ev):

   -92.8868 -92.8368 -92.7418 -92.6942 -92.6378 -92.5937 -92.5760 -92.4558
   -56.2404 -56.2222 -56.0983 -56.0873 -56.0813 -56.0742 -56.0400 -56.0104
   -55.9949 -55.9936 -55.9879 -55.9444 -55.9250 -55.8884 -55.8689 -55.8377
   -55.8297 -55.7823 -55.7813 -55.7785 -55.7701 -55.7308 -55.7061 -55.6208
   -31.4488 -31.4316 -31.2889 -31.2787 -31.2017 -31.1526 -30.9871 -30.6866
   -30.0309 -29.9886 -29.9630 -29.8545 -15.1976 -15.1502 -15.0835 -14.9673
   -14.8419 -14.7162 -14.6513 -14.4407 -14.2881 -14.2736 -14.2381 -14.2084
   -14.1854 -14.1487 -14.1229 -14.0895 -14.0211 -14.0033 -13.8420 -13.8276
   -13.7974 -13.7787 -13.6987 -13.6861 -13.6070 -13.6017 -13.4726 -13.4275
   -13.4011 -13.3157 -13.2754 -13.2316 -13.2092 -13.1904 -13.1529 -13.1196
   -13.1002 -13.0875 -13.0268 -12.9726 -12.9287 -12.9171 -12.8889 -12.8848
   -12.7981 -12.6367 -12.6271 -12.6209 -12.4895 -12.4501 -12.2186 -12.1834
   -11.9879 -11.9816 -11.9510 -11.9396 -11.9333 -11.8701 -11.8352 -11.8288
   -11.7935 -11.7862 -11.6924 -11.6527 -11.6354  -2.8494  -2.6423  -2.5239
    -2.4274  -2.3091  -2.2448  -2.0424  -1.9022  -1.8840  -1.8482  -1.7570
    -1.7243  -1.6296  -1.6002  -1.5508  -1.4213  -1.3715  -1.2972  -1.2544
    -1.2079  -1.1864  -1.1633  -1.1202  -1.1053  -1.0141  -0.9640  -0.8923
    -0.8456  -0.8170  -0.7705  -0.7546  -0.6900  -0.6406  -0.5728  -0.5457
    -0.4520  -0.4085  -0.3745  -0.3418  -0.2866  -0.2033  -0.1742  -0.1396
    -0.0680  -0.0339   0.2306   0.3843   0.4129   0.4777   0.5171   0.5811
     0.6234   0.6917   0.7293   1.0005   1.0612   1.1350   1.1574   1.2147
     1.2376   1.2758   1.3131   1.3287   1.3559   1.4059   1.4115   1.4299
     1.4763   1.5110   1.5497   1.6169   1.6492   1.6648   1.6924   1.7298
     1.7849   1.8080   1.9349   1.9995   2.0337   2.0518   2.1260   2.1859
     2.2140   2.2493   2.2785   2.2875   2.4000   2.4400   2.5268   2.5744
     2.6179   2.6439   2.6952   2.7116   2.7161   2.7349   2.7489   2.7619
     2.7739   2.7798   2.7920   2.8059   2.8226   2.8351   2.8415   2.8534
     2.8794   2.8868   2.8959   2.9269   3.2267   3.3195   3.3739   3.4386
     3.4571   3.6871   3.7704   4.1293   4.3374   4.5559   4.8037   5.1270
     5.4983   5.5610   5.6207   5.6579   5.7196   6.0880   6.1510   6.1641
     6.8349   7.0708   7.2526   7.3833   7.4510   7.4779   7.5889   7.7573
     7.8116   8.0616   8.1696   8.2063   8.3224   8.3655   8.4393   8.4854
     8.5269   8.7323

     occupation numbers 
     1.0000   1.0000   1.0000   1.0000   1.0000   1.0000   1.0000   1.0000
     1.0000   1.0000   1.0000   1.0000   1.0000   1.0000   1.0000   1.0000
     1.0000   1.0000   1.0000   1.0000   1.0000   1.0000   1.0000   1.0000
     1.0000   1.0000   1.0000   1.0000   1.0000   1.0000   1.0000   1.0000
     1.0000   1.0000   1.0000   1.0000   1.0000   1.0000   1.0000   1.0000
     1.0000   1.0000   1.0000   1.0000   1.0000   1.0000   1.0000   1.0000
     1.0000   1.0000   1.0000   1.0000   1.0000   1.0000   1.0000   1.0000
     1.0000   1.0000   1.0000   1.0000   1.0000   1.0000   1.0000   1.0000
     1.0000   1.0000   1.0000   1.0000   1.0000   1.0000   1.0000   1.0000
     1.0000   1.0000   1.0000   1.0000   1.0000   1.0000   1.0000   1.0000
     1.0000   1.0000   1.0000   1.0000   1.0000   1.0000   1.0000   1.0000
     1.0000   1.0000   1.0000   1.0000   1.0000   1.0000   1.0000   1.0000
     1.0000   1.0000   1.0000   1.0000   1.0000   1.0000   1.0000   1.0000
     1.0000   1.0000   1.0000   1.0000   1.0000   1.0000   1.0000   1.0000
     1.0000   1.0000   1.0000   1.0000   1.0000   1.0000   1.0000   1.0000
     1.0000   1.0000   1.0000   1.0000   1.0000   1.0000   1.0000   1.0000
     1.0000   1.0000   1.0000   1.0000   1.0000   1.0000   1.0000   1.0000
     1.0000   1.0000   1.0000   1.0000   1.0000   1.0000   1.0000   1.0000
     1.0000   1.0000   1.0000   1.0000   1.0000   1.0000   1.0000   1.0000
     1.0000   1.0000   1.0000   1.0000   1.0000   1.0000   1.0000   0.9999
     0.9999   0.9999   0.9998   0.9993   0.9990   0.9986   0.9984   0.9979
     0.9977   0.9972   0.9967   0.9965   0.9960   0.9950   0.9949   0.9945
     0.9933   0.9923   0.9910   0.9882   0.9867   0.9859   0.9843   0.9820
     0.9780   0.9762   0.9634   0.9551   0.9500   0.9472   0.9343   0.9221
     0.9158   0.9074   0.9000   0.8977   0.8646   0.8513   0.8194   0.8002
     0.7817   0.7701   0.7463   0.7385   0.7363   0.7271   0.7202   0.7137
     0.7075   0.7045   0.6982   0.6910   0.6822   0.6756   0.6721   0.6658
     0.6516   0.6475   0.6424   0.6251   0.4498   0.3959   0.3652   0.3297
     0.3198   0.2090   0.1753   0.0713   0.0379   0.0179   0.0068   0.0016
     0.0002   0.0002   0.0001   0.0001   0.0001   0.0000   0.0000   0.0000
     0.0000   0.0000   0.0000   0.0000   0.0000   0.0000   0.0000   0.0000
     0.0000   0.0000   0.0000   0.0000   0.0000   0.0000   0.0000   0.0000
     0.0000   0.0000

          k = 0.2500-0.5000 0.0000 ( 65138 PWs)   bands (ev):

   -92.8868 -92.8368 -92.7418 -92.6942 -92.6378 -92.5937 -92.5760 -92.4558
   -56.2404 -56.2222 -56.0983 -56.0873 -56.0813 -56.0742 -56.0400 -56.0104
   -55.9949 -55.9936 -55.9879 -55.9444 -55.9250 -55.8884 -55.8689 -55.8377
   -55.8297 -55.7823 -55.7813 -55.7785 -55.7701 -55.7308 -55.7060 -55.6208
   -31.4486 -31.4315 -31.2891 -31.2784 -31.2018 -31.1529 -30.9870 -30.6867
   -30.0303 -29.9883 -29.9637 -29.8548 -15.1574 -15.1137 -15.0401 -14.9290
   -14.8964 -14.7802 -14.6815 -14.5567 -14.2538 -14.1975 -14.1733 -14.1476
   -14.1341 -14.1220 -14.0843 -14.0581 -14.0348 -13.9973 -13.9687 -13.9228
   -13.8448 -13.7963 -13.7182 -13.7114 -13.6439 -13.6149 -13.5299 -13.4899
   -13.3800 -13.3149 -13.2963 -13.2147 -13.1873 -13.1637 -13.1505 -13.1195
   -13.1015 -13.0839 -13.0003 -12.9769 -12.9248 -12.8718 -12.8536 -12.8299
   -12.7985 -12.6951 -12.6316 -12.5069 -12.4931 -12.4081 -12.2767 -12.2393
   -11.9874 -11.9584 -11.9456 -11.9351 -11.9081 -11.8767 -11.8480 -11.8071
   -11.7789 -11.7574 -11.7107 -11.6861 -11.6751  -2.6296  -2.5669  -2.4380
    -2.3621  -2.2277  -2.1463  -2.0230  -1.8746  -1.8157  -1.7957  -1.7358
    -1.7232  -1.6241  -1.5585  -1.4742  -1.4209  -1.4116  -1.3511  -1.3042
    -1.2740  -1.2254  -1.1878  -1.1533  -1.1148  -1.1005  -1.0575  -1.0275
    -0.9831  -0.9533  -0.8860  -0.7801  -0.7451  -0.6630  -0.5967  -0.5394
    -0.5033  -0.4880  -0.4205  -0.2718  -0.2611  -0.1373  -0.1247  -0.1167
    -0.0715  -0.0318  -0.0013   0.0325   0.0953   0.3866   0.4875   0.5389
     0.5899   0.8704   0.8805   0.9715   0.9989   1.1585   1.1991   1.2339
     1.2563   1.2689   1.2917   1.3577   1.4102   1.4427   1.5151   1.6224
     1.6523   1.6704   1.6774   1.7159   1.7275   1.7410   1.7827   1.7904
     1.8115   1.8475   1.8581   1.8791   1.9153   1.9709   2.0185   2.0974
     2.2273   2.3715   2.3888   2.4076   2.4377   2.4570   2.4870   2.5075
     2.5210   2.5424   2.5745   2.6143   2.6419   2.6490   2.6986   2.7130
     2.7251   2.7319   2.7500   2.7631   2.7840   2.7914   2.8352   2.8409
     2.8511   2.8574   2.8676   2.8764   3.3961   3.4262   3.5585   3.6135
     3.9491   4.0094   4.0200   4.1479   4.5770   4.7532   4.9191   4.9727
     5.1304   5.3087   5.5050   5.5457   5.6252   5.6709   6.3357   6.4461
     6.4537   6.6703   7.3522   7.5817   7.6587   7.7109   7.7426   7.7790
     7.8979   7.9533   8.1691   8.3360   8.3930   8.4121   8.5477   8.5847
     8.6370   8.6831

     occupation numbers 
     1.0000   1.0000   1.0000   1.0000   1.0000   1.0000   1.0000   1.0000
     1.0000   1.0000   1.0000   1.0000   1.0000   1.0000   1.0000   1.0000
     1.0000   1.0000   1.0000   1.0000   1.0000   1.0000   1.0000   1.0000
     1.0000   1.0000   1.0000   1.0000   1.0000   1.0000   1.0000   1.0000
     1.0000   1.0000   1.0000   1.0000   1.0000   1.0000   1.0000   1.0000
     1.0000   1.0000   1.0000   1.0000   1.0000   1.0000   1.0000   1.0000
     1.0000   1.0000   1.0000   1.0000   1.0000   1.0000   1.0000   1.0000
     1.0000   1.0000   1.0000   1.0000   1.0000   1.0000   1.0000   1.0000
     1.0000   1.0000   1.0000   1.0000   1.0000   1.0000   1.0000   1.0000
     1.0000   1.0000   1.0000   1.0000   1.0000   1.0000   1.0000   1.0000
     1.0000   1.0000   1.0000   1.0000   1.0000   1.0000   1.0000   1.0000
     1.0000   1.0000   1.0000   1.0000   1.0000   1.0000   1.0000   1.0000
     1.0000   1.0000   1.0000   1.0000   1.0000   1.0000   1.0000   1.0000
     1.0000   1.0000   1.0000   1.0000   1.0000   1.0000   1.0000   1.0000
     1.0000   1.0000   1.0000   1.0000   1.0000   1.0000   1.0000   1.0000
     1.0000   1.0000   1.0000   1.0000   1.0000   1.0000   1.0000   1.0000
     1.0000   1.0000   1.0000   1.0000   1.0000   1.0000   1.0000   1.0000
     1.0000   1.0000   1.0000   1.0000   1.0000   1.0000   1.0000   1.0000
     1.0000   1.0000   1.0000   1.0000   1.0000   1.0000   1.0000   1.0000
     1.0000   1.0000   1.0000   1.0000   1.0000   1.0000   1.0000   0.9999
     0.9999   0.9996   0.9996   0.9994   0.9993   0.9984   0.9980   0.9977
     0.9974   0.9973   0.9970   0.9960   0.9949   0.9942   0.9921   0.9880
     0.9865   0.9855   0.9852   0.9829   0.9821   0.9812   0.9782   0.9776
     0.9759   0.9727   0.9717   0.9696   0.9657   0.9589   0.9523   0.9395
     0.9127   0.8736   0.8682   0.8622   0.8521   0.8454   0.8345   0.8269
     0.8217   0.8133   0.8002   0.7832   0.7710   0.7678   0.7447   0.7378
     0.7320   0.7286   0.7196   0.7130   0.7024   0.6985   0.6755   0.6725
     0.6670   0.6636   0.6580   0.6532   0.3528   0.3364   0.2680   0.2418
     0.1153   0.0988   0.0961   0.0676   0.0165   0.0084   0.0042   0.0033
     0.0016   0.0006   0.0002   0.0002   0.0001   0.0001   0.0000   0.0000
     0.0000   0.0000   0.0000   0.0000   0.0000   0.0000   0.0000   0.0000
     0.0000   0.0000   0.0000   0.0000   0.0000   0.0000   0.0000   0.0000
     0.0000   0.0000

          k =-0.5000-0.5000 0.0000 ( 65132 PWs)   bands (ev):

   -92.8868 -92.8368 -92.7418 -92.6942 -92.6378 -92.5937 -92.5760 -92.4558
   -56.2404 -56.2222 -56.0983 -56.0873 -56.0813 -56.0742 -56.0400 -56.0104
   -55.9949 -55.9936 -55.9879 -55.9444 -55.9250 -55.8884 -55.8689 -55.8377
   -55.8297 -55.7823 -55.7813 -55.7785 -55.7701 -55.7308 -55.7060 -55.6208
   -31.4466 -31.4335 -31.2887 -31.2783 -31.2022 -31.1528 -30.9871 -30.6868
   -30.0293 -29.9893 -29.9633 -29.8553 -15.1092 -15.0863 -14.9699 -14.9525
   -14.8591 -14.8258 -14.7898 -14.6561 -14.1639 -14.1507 -14.1175 -14.1002
   -14.0805 -14.0556 -14.0405 -14.0276 -14.0120 -14.0036 -13.9893 -13.9122
   -13.9032 -13.8744 -13.8397 -13.7888 -13.7289 -13.6744 -13.5674 -13.5307
   -13.3300 -13.2947 -13.2236 -13.1993 -13.1763 -13.1646 -13.1570 -13.1475
   -13.1300 -13.0816 -12.9850 -12.9497 -12.9262 -12.9132 -12.8855 -12.7799
   -12.7721 -12.7112 -12.6358 -12.4906 -12.4797 -12.3789 -12.2676 -12.2453
   -11.9872 -11.9545 -11.9428 -11.9249 -11.9077 -11.8730 -11.8545 -11.8203
   -11.7583 -11.7399 -11.7335 -11.6842 -11.6809  -2.4029  -2.3300  -2.3232
    -2.2497  -2.2111  -2.1330  -2.0649  -1.9383  -1.8247  -1.7951  -1.7497
    -1.6983  -1.6268  -1.6109  -1.5417  -1.4991  -1.3808  -1.3474  -1.3019
    -1.2764  -1.2117  -1.1622  -1.1452  -1.1316  -1.0751  -1.0362  -1.0154
    -0.9058  -0.8478  -0.8001  -0.7528  -0.7225  -0.7045  -0.6737  -0.6336
    -0.5931  -0.5842  -0.5014  -0.4345  -0.3932  -0.3612  -0.2923  -0.2247
    -0.2206  -0.1570  -0.1282  -0.1159  -0.0945   0.3634   0.4142   0.4837
     0.5062   0.8927   0.9073   0.9427   0.9805   1.2479   1.2646   1.2725
     1.3177   1.4373   1.5306   1.5587   1.5957   1.6278   1.6400   1.6507
     1.6813   1.6973   1.7200   1.7225   1.7667   1.7707   1.7973   1.8212
     1.8363   1.8519   1.8899   1.9142   1.9296   1.9580   1.9933   2.0517
     2.1194   2.3840   2.4153   2.4324   2.4533   2.4598   2.4894   2.4972
     2.5169   2.5276   2.5437   2.5487   2.5756   2.5979   2.6104   2.6424
     2.6465   2.6535   2.6704   2.6849   2.6980   2.7239   2.7265   2.7335
     2.8400   2.8476   2.8626   2.8755   3.8288   3.8749   3.8818   3.9143
     4.1346   4.2097   4.2340   4.4741   4.5970   4.6793   4.8127   4.9191
     4.9285   5.0256   5.1591   5.2971   5.8059   5.8444   5.8849   6.0179
     6.6227   6.8042   7.0163   7.5438   7.8348   7.8486   7.9295   8.0753
     8.1180   8.1634   8.2163   8.2712   8.3653   8.4504   8.4936   8.5124
     8.5426   8.6004

     occupation numbers 
     1.0000   1.0000   1.0000   1.0000   1.0000   1.0000   1.0000   1.0000
     1.0000   1.0000   1.0000   1.0000   1.0000   1.0000   1.0000   1.0000
     1.0000   1.0000   1.0000   1.0000   1.0000   1.0000   1.0000   1.0000
     1.0000   1.0000   1.0000   1.0000   1.0000   1.0000   1.0000   1.0000
     1.0000   1.0000   1.0000   1.0000   1.0000   1.0000   1.0000   1.0000
     1.0000   1.0000   1.0000   1.0000   1.0000   1.0000   1.0000   1.0000
     1.0000   1.0000   1.0000   1.0000   1.0000   1.0000   1.0000   1.0000
     1.0000   1.0000   1.0000   1.0000   1.0000   1.0000   1.0000   1.0000
     1.0000   1.0000   1.0000   1.0000   1.0000   1.0000   1.0000   1.0000
     1.0000   1.0000   1.0000   1.0000   1.0000   1.0000   1.0000   1.0000
     1.0000   1.0000   1.0000   1.0000   1.0000   1.0000   1.0000   1.0000
     1.0000   1.0000   1.0000   1.0000   1.0000   1.0000   1.0000   1.0000
     1.0000   1.0000   1.0000   1.0000   1.0000   1.0000   1.0000   1.0000
     1.0000   1.0000   1.0000   1.0000   1.0000   1.0000   1.0000   1.0000
     1.0000   1.0000   1.0000   1.0000   1.0000   1.0000   1.0000   1.0000
     1.0000   1.0000   1.0000   1.0000   1.0000   1.0000   1.0000   1.0000
     1.0000   1.0000   1.0000   1.0000   1.0000   1.0000   1.0000   1.0000
     1.0000   1.0000   1.0000   1.0000   1.0000   1.0000   1.0000   1.0000
     1.0000   1.0000   1.0000   1.0000   1.0000   1.0000   1.0000   1.0000
     1.0000   1.0000   1.0000   1.0000   1.0000   1.0000   1.0000   1.0000
     1.0000   0.9996   0.9995   0.9995   0.9993   0.9975   0.9973   0.9972
     0.9966   0.9943   0.9916   0.9906   0.9892   0.9877   0.9871   0.9866
     0.9849   0.9840   0.9826   0.9825   0.9794   0.9791   0.9770   0.9750
     0.9737   0.9723   0.9685   0.9658   0.9641   0.9606   0.9559   0.9472
     0.9355   0.8698   0.8596   0.8539   0.8467   0.8444   0.8336   0.8307
     0.8232   0.8191   0.8127   0.8107   0.7997   0.7903   0.7849   0.7708
     0.7689   0.7658   0.7580   0.7512   0.7450   0.7325   0.7312   0.7278
     0.6729   0.6689   0.6608   0.6537   0.1538   0.1382   0.1359   0.1257
     0.0702   0.0564   0.0524   0.0239   0.0154   0.0112   0.0065   0.0042
     0.0040   0.0026   0.0014   0.0007   0.0000   0.0000   0.0000   0.0000
     0.0000   0.0000   0.0000   0.0000   0.0000   0.0000   0.0000   0.0000
     0.0000   0.0000   0.0000   0.0000   0.0000   0.0000   0.0000   0.0000
     0.0000   0.0000

          k = 0.2500 0.0000 0.0000 ( 65257 PWs)   bands (ev):

   -92.8868 -92.8368 -92.7418 -92.6942 -92.6378 -92.5937 -92.5760 -92.4558
   -56.2404 -56.2222 -56.0983 -56.0873 -56.0813 -56.0742 -56.0400 -56.0104
   -55.9949 -55.9936 -55.9879 -55.9444 -55.9250 -55.8884 -55.8689 -55.8377
   -55.8297 -55.7823 -55.7813 -55.7785 -55.7701 -55.7308 -55.7061 -55.6208
   -31.4490 -31.4318 -31.2887 -31.2789 -31.2015 -31.1524 -30.9872 -30.6865
[...]
     0.6338   0.6206   0.6182   0.6143   0.6102   0.6047   0.5992   0.5255
     0.3526   0.3166   0.2025   0.0765   0.0446   0.0204   0.0049   0.0030
     0.0002   0.0001   0.0000   0.0000   0.0000   0.0000   0.0000   0.0000
     0.0000   0.0000   0.0000   0.0000   0.0000   0.0000   0.0000   0.0000
     0.0000   0.0000   0.0000   0.0000   0.0000   0.0000   0.0000   0.0000
     0.0000   0.0000

          k =-0.5000 0.0000 0.0000 ( 65180 PWs)   bands (ev):

   -92.8868 -92.8368 -92.7418 -92.6942 -92.6378 -92.5937 -92.5760 -92.4558
   -56.2404 -56.2222 -56.0983 -56.0873 -56.0813 -56.0742 -56.0400 -56.0104
   -55.9949 -55.9936 -55.9879 -55.9444 -55.9250 -55.8884 -55.8689 -55.8377
   -55.8297 -55.7823 -55.7813 -55.7785 -55.7701 -55.7308 -55.7061 -55.6208
   -31.4470 -31.4337 -31.2883 -31.2788 -31.2019 -31.1523 -30.9873 -30.6866
   -30.0305 -29.9899 -29.9620 -29.8546 -15.1957 -15.1386 -15.0783 -14.9702
   -14.8680 -14.7250 -14.5701 -14.4335 -14.3129 -14.2964 -14.2895 -14.2226
   -14.1686 -14.1364 -14.0873 -14.0757 -14.0591 -14.0153 -13.9964 -13.8855
   -13.7356 -13.6857 -13.6725 -13.6630 -13.5862 -13.5420 -13.4704 -13.4394
   -13.4154 -13.4025 -13.2485 -13.2275 -13.2131 -13.1903 -13.1807 -13.1289
   -13.1160 -13.0984 -13.0613 -13.0449 -12.9094 -12.8150 -12.8055 -12.7620
   -12.7328 -12.7144 -12.6310 -12.5942 -12.5002 -12.4948 -12.2689 -12.2213
   -11.9872 -11.9623 -11.9396 -11.9339 -11.9181 -11.9001 -11.8590 -11.7967
   -11.7795 -11.7471 -11.6997 -11.6913 -11.6762  -2.7631  -2.7254  -2.5623
    -2.5237  -2.2070  -2.1298  -1.9856  -1.8692  -1.8279  -1.7812  -1.7347
    -1.7123  -1.5877  -1.5445  -1.5261  -1.4451  -1.4116  -1.3906  -1.3637
    -1.3030  -1.2355  -1.2085  -1.1742  -1.0826  -1.0365  -0.9855  -0.9536
    -0.9332  -0.8992  -0.8538  -0.8299  -0.7887  -0.6806  -0.6203  -0.5376
    -0.4800  -0.3205  -0.2832  -0.2383  -0.1793  -0.1308  -0.1180   0.0208
     0.0494   0.0960   0.2578   0.3578   0.4055   0.5039   0.5677   0.6827
     0.6928   0.8283   0.8519   0.9064   0.9447   0.9730   0.9840   1.0295
     1.0537   1.1251   1.1707   1.2176   1.2309   1.5287   1.5388   1.5631
     1.5845   1.6813   1.6978   1.7084   1.7151   1.7491   1.7579   1.7958
     1.8161   1.8403   1.8950   1.9151   1.9646   1.9875   2.0435   2.1549
     2.2521   2.3197   2.3359   2.4160   2.4421   2.4672   2.5293   2.5470
     2.5563   2.5733   2.5948   2.6249   2.6452   2.6564   2.7044   2.7633
     2.7737   2.8178   2.8221   2.8268   2.8335   2.8520   2.8621   2.8747
     2.8812   2.9012   2.9044   2.9249   2.9449   2.9502   3.0806   3.0864
     3.8866   3.9667   4.0192   4.1433   4.6159   4.6980   4.8954   4.9168
     5.3743   5.4028   5.4877   5.5172   5.8585   5.8783   6.2809   6.7268
     6.7300   6.9476   7.1954   7.2579   7.5966   7.6255   7.6779   7.7083
     7.7841   7.8134   8.0405   8.2039   8.3248   8.3645   8.4845   8.5876
     8.6340   8.7256

     occupation numbers 
     1.0000   1.0000   1.0000   1.0000   1.0000   1.0000   1.0000   1.0000
     1.0000   1.0000   1.0000   1.0000   1.0000   1.0000   1.0000   1.0000
     1.0000   1.0000   1.0000   1.0000   1.0000   1.0000   1.0000   1.0000
     1.0000   1.0000   1.0000   1.0000   1.0000   1.0000   1.0000   1.0000
     1.0000   1.0000   1.0000   1.0000   1.0000   1.0000   1.0000   1.0000
     1.0000   1.0000   1.0000   1.0000   1.0000   1.0000   1.0000   1.0000
     1.0000   1.0000   1.0000   1.0000   1.0000   1.0000   1.0000   1.0000
     1.0000   1.0000   1.0000   1.0000   1.0000   1.0000   1.0000   1.0000
     1.0000   1.0000   1.0000   1.0000   1.0000   1.0000   1.0000   1.0000
     1.0000   1.0000   1.0000   1.0000   1.0000   1.0000   1.0000   1.0000
     1.0000   1.0000   1.0000   1.0000   1.0000   1.0000   1.0000   1.0000
     1.0000   1.0000   1.0000   1.0000   1.0000   1.0000   1.0000   1.0000
     1.0000   1.0000   1.0000   1.0000   1.0000   1.0000   1.0000   1.0000
     1.0000   1.0000   1.0000   1.0000   1.0000   1.0000   1.0000   1.0000
     1.0000   1.0000   1.0000   1.0000   1.0000   1.0000   1.0000   1.0000
     1.0000   1.0000   1.0000   1.0000   1.0000   1.0000   1.0000   1.0000
     1.0000   1.0000   1.0000   1.0000   1.0000   1.0000   1.0000   1.0000
     1.0000   1.0000   1.0000   1.0000   1.0000   1.0000   1.0000   1.0000
     1.0000   1.0000   1.0000   1.0000   1.0000   1.0000   1.0000   1.0000
     1.0000   1.0000   1.0000   1.0000   1.0000   1.0000   0.9999   0.9999
     0.9999   0.9997   0.9997   0.9995   0.9994   0.9994   0.9993   0.9991
     0.9990   0.9986   0.9983   0.9979   0.9977   0.9917   0.9913   0.9905
     0.9896   0.9849   0.9840   0.9833   0.9829   0.9807   0.9801   0.9772
     0.9755   0.9733   0.9679   0.9657   0.9598   0.9567   0.9485   0.9286
     0.9067   0.8889   0.8843   0.8594   0.8506   0.8417   0.8184   0.8114
     0.8077   0.8007   0.7917   0.7786   0.7695   0.7645   0.7419   0.7129
     0.7077   0.6848   0.6825   0.6800   0.6764   0.6665   0.6610   0.6542
     0.6506   0.6395   0.6378   0.6263   0.6149   0.6119   0.5362   0.5327
     0.1344   0.1103   0.0963   0.0685   0.0143   0.0104   0.0046   0.0042
     0.0005   0.0004   0.0002   0.0002   0.0000   0.0000   0.0000   0.0000
     0.0000   0.0000   0.0000   0.0000   0.0000   0.0000   0.0000   0.0000
     0.0000   0.0000   0.0000   0.0000   0.0000   0.0000   0.0000   0.0000
     0.0000   0.0000

          k =-0.2500 0.2500 0.0000 ( 65198 PWs)   bands (ev):

   -92.8868 -92.8368 -92.7418 -92.6942 -92.6378 -92.5937 -92.5760 -92.4558
   -56.2404 -56.2222 -56.0983 -56.0873 -56.0813 -56.0742 -56.0400 -56.0104
   -55.9949 -55.9936 -55.9879 -55.9444 -55.9250 -55.8884 -55.8689 -55.8377
   -55.8297 -55.7823 -55.7813 -55.7785 -55.7701 -55.7308 -55.7061 -55.6208
   -31.4488 -31.4316 -31.2889 -31.2787 -31.2017 -31.1526 -30.9871 -30.6866
   -30.0309 -29.9886 -29.9630 -29.8545 -15.1988 -15.1490 -15.0824 -14.9657
   -14.8475 -14.7221 -14.6430 -14.4306 -14.2949 -14.2654 -14.2498 -14.2034
   -14.1793 -14.1555 -14.1290 -14.0972 -14.0164 -14.0041 -13.8496 -13.8254
   -13.7935 -13.7739 -13.6992 -13.6763 -13.6100 -13.5971 -13.4785 -13.4329
   -13.3958 -13.3196 -13.2775 -13.2175 -13.2069 -13.1799 -13.1594 -13.1239
   -13.0999 -13.0791 -13.0489 -12.9924 -12.9449 -12.9267 -12.8902 -12.8658
   -12.7664 -12.6328 -12.6159 -12.5863 -12.5382 -12.4558 -12.2347 -12.1647
   -11.9881 -11.9804 -11.9606 -11.9328 -11.9211 -11.8797 -11.8449 -11.8220
   -11.8009 -11.7784 -11.6921 -11.6480 -11.6387  -2.8478  -2.6412  -2.5200
    -2.4287  -2.3135  -2.2475  -2.0398  -1.8993  -1.8815  -1.8462  -1.7576
    -1.7232  -1.6292  -1.5944  -1.5676  -1.4270  -1.3707  -1.2999  -1.2718
    -1.2109  -1.1936  -1.1531  -1.1246  -1.0839  -1.0203  -0.9723  -0.9030
    -0.8383  -0.8133  -0.7632  -0.7348  -0.6886  -0.6297  -0.5744  -0.5428
    -0.4344  -0.4109  -0.3903  -0.3508  -0.2898  -0.2092  -0.1733  -0.1295
    -0.0631  -0.0371   0.2113   0.3874   0.4203   0.4646   0.5265   0.5810
     0.6273   0.6978   0.7270   1.0087   1.1113   1.1514   1.1846   1.1952
     1.2333   1.2475   1.2942   1.3252   1.3374   1.3629   1.4147   1.4318
     1.4672   1.4938   1.5351   1.6298   1.6427   1.6642   1.6954   1.7260
     1.7675   1.8149   1.9240   2.0306   2.0531   2.1021   2.1221   2.1853
     2.2251   2.2522   2.2786   2.2979   2.4009   2.4375   2.5295   2.5699
     2.6189   2.6432   2.7047   2.7085   2.7233   2.7313   2.7434   2.7590
     2.7649   2.7827   2.7948   2.8046   2.8161   2.8273   2.8370   2.8447
     2.8791   2.8885   2.8948   2.9291   3.2201   3.3012   3.3753   3.4434
     3.4673   3.6709   3.7790   4.1287   4.3344   4.5583   4.8131   5.1272
     5.4997   5.5582   5.6247   5.6530   5.7203   6.1041   6.1363   6.1626
     6.8358   7.1028   7.2106   7.3759   7.4603   7.4840   7.5657   7.7670
     7.8475   7.9964   8.2000   8.2279   8.3228   8.3711   8.4489   8.4885
     8.5450   8.6739

     occupation numbers 
     1.0000   1.0000   1.0000   1.0000   1.0000   1.0000   1.0000   1.0000
     1.0000   1.0000   1.0000   1.0000   1.0000   1.0000   1.0000   1.0000
     1.0000   1.0000   1.0000   1.0000   1.0000   1.0000   1.0000   1.0000
     1.0000   1.0000   1.0000   1.0000   1.0000   1.0000   1.0000   1.0000
     1.0000   1.0000   1.0000   1.0000   1.0000   1.0000   1.0000   1.0000
     1.0000   1.0000   1.0000   1.0000   1.0000   1.0000   1.0000   1.0000
     1.0000   1.0000   1.0000   1.0000   1.0000   1.0000   1.0000   1.0000
     1.0000   1.0000   1.0000   1.0000   1.0000   1.0000   1.0000   1.0000
     1.0000   1.0000   1.0000   1.0000   1.0000   1.0000   1.0000   1.0000
     1.0000   1.0000   1.0000   1.0000   1.0000   1.0000   1.0000   1.0000
     1.0000   1.0000   1.0000   1.0000   1.0000   1.0000   1.0000   1.0000
     1.0000   1.0000   1.0000   1.0000   1.0000   1.0000   1.0000   1.0000
     1.0000   1.0000   1.0000   1.0000   1.0000   1.0000   1.0000   1.0000
     1.0000   1.0000   1.0000   1.0000   1.0000   1.0000   1.0000   1.0000
     1.0000   1.0000   1.0000   1.0000   1.0000   1.0000   1.0000   1.0000
     1.0000   1.0000   1.0000   1.0000   1.0000   1.0000   1.0000   1.0000
     1.0000   1.0000   1.0000   1.0000   1.0000   1.0000   1.0000   1.0000
     1.0000   1.0000   1.0000   1.0000   1.0000   1.0000   1.0000   1.0000
     1.0000   1.0000   1.0000   1.0000   1.0000   1.0000   1.0000   1.0000
     1.0000   1.0000   1.0000   1.0000   1.0000   1.0000   0.9999   0.9999
     0.9999   0.9999   0.9998   0.9992   0.9987   0.9984   0.9982   0.9981
     0.9977   0.9975   0.9970   0.9965   0.9963   0.9959   0.9948   0.9944
     0.9935   0.9928   0.9915   0.9876   0.9870   0.9859   0.9841   0.9822
     0.9794   0.9756   0.9647   0.9505   0.9470   0.9387   0.9350   0.9222
     0.9133   0.9067   0.9000   0.8949   0.8643   0.8521   0.8183   0.8021
     0.7812   0.7705   0.7418   0.7400   0.7328   0.7289   0.7229   0.7151
     0.7121   0.7030   0.6968   0.6917   0.6856   0.6797   0.6745   0.6704
     0.6517   0.6466   0.6431   0.6239   0.4537   0.4064   0.3644   0.3271
     0.3144   0.2160   0.1720   0.0714   0.0383   0.0177   0.0065   0.0016
     0.0002   0.0002   0.0001   0.0001   0.0001   0.0000   0.0000   0.0000
     0.0000   0.0000   0.0000   0.0000   0.0000   0.0000   0.0000   0.0000
     0.0000   0.0000   0.0000   0.0000   0.0000   0.0000   0.0000   0.0000
     0.0000   0.0000

          k =-0.5000 0.2500 0.0000 ( 65138 PWs)   bands (ev):

   -92.8868 -92.8368 -92.7418 -92.6942 -92.6378 -92.5937 -92.5760 -92.4558
   -56.2404 -56.2222 -56.0983 -56.0873 -56.0813 -56.0742 -56.0400 -56.0104
   -55.9949 -55.9936 -55.9879 -55.9444 -55.9250 -55.8884 -55.8689 -55.8377
   -55.8297 -55.7823 -55.7813 -55.7785 -55.7701 -55.7308 -55.7061 -55.6208
   -31.4468 -31.4336 -31.2885 -31.2786 -31.2020 -31.1526 -30.9872 -30.6867
   -30.0299 -29.9896 -29.9626 -29.8549 -15.1621 -15.1127 -15.0350 -14.9370
   -14.8966 -14.7722 -14.6766 -14.5509 -14.2457 -14.2144 -14.2021 -14.1546
   -14.1325 -14.1095 -14.0741 -14.0599 -14.0401 -14.0029 -13.9941 -13.8817
   -13.8161 -13.7678 -13.7590 -13.7219 -13.6449 -13.6299 -13.5161 -13.4744
   -13.3724 -13.3388 -13.2427 -13.2096 -13.1966 -13.1884 -13.1592 -13.1269
   -13.1127 -13.0851 -13.0537 -13.0006 -12.9169 -12.8316 -12.8119 -12.7963
   -12.7889 -12.7126 -12.6311 -12.5295 -12.4950 -12.4320 -12.2671 -12.2321
   -11.9872 -11.9547 -11.9415 -11.9276 -11.9159 -11.8936 -11.8638 -11.7838
   -11.7744 -11.7524 -11.7144 -11.6873 -11.6788  -2.6202  -2.5790  -2.4317
    -2.3900  -2.2269  -2.1484  -2.0098  -1.8750  -1.8153  -1.7896  -1.7509
    -1.7149  -1.6332  -1.5177  -1.4600  -1.4378  -1.4105  -1.3300  -1.3068
    -1.2657  -1.2505  -1.1895  -1.1565  -1.1214  -1.0865  -1.0574  -0.9981
    -0.9711  -0.9303  -0.8931  -0.7876  -0.7622  -0.6620  -0.6135  -0.5753
    -0.5110  -0.4393  -0.4049  -0.3038  -0.2606  -0.2027  -0.1511  -0.1080
    -0.0576  -0.0312   0.0019   0.0506   0.0897   0.4205   0.4829   0.5319
     0.5536   0.8411   0.9054   0.9733   1.0048   1.1738   1.2086   1.2459
     1.2551   1.2734   1.2908   1.3625   1.4084   1.4515   1.4858   1.6047
     1.6472   1.6699   1.6799   1.7164   1.7454   1.7610   1.7704   1.7884
     1.8134   1.8547   1.8707   1.9077   1.9320   1.9667   2.0191   2.1444
     2.2387   2.2683   2.3332   2.3691   2.4324   2.4653   2.4735   2.5166
     2.5339   2.5697   2.5790   2.6171   2.6458   2.6569   2.7000   2.7124
     2.7219   2.7392   2.7585   2.7703   2.7883   2.7982   2.8248   2.8359
     2.8448   2.8535   2.8617   2.8732   3.4079   3.4474   3.5923   3.6115
     3.8959   3.9770   4.0286   4.2259   4.6083   4.7099   4.8845   4.9318
     5.2423   5.2634   5.4879   5.5811   5.6090   5.6534   6.3286   6.3851
     6.4582   6.8366   7.2107   7.5988   7.6706   7.7222   7.7545   7.7833
     7.8810   7.9519   8.1311   8.3120   8.4103   8.4349   8.5059   8.5618
     8.6962   8.7255

     occupation numbers 
     1.0000   1.0000   1.0000   1.0000   1.0000   1.0000   1.0000   1.0000
     1.0000   1.0000   1.0000   1.0000   1.0000   1.0000   1.0000   1.0000
     1.0000   1.0000   1.0000   1.0000   1.0000   1.0000   1.0000   1.0000
     1.0000   1.0000   1.0000   1.0000   1.0000   1.0000   1.0000   1.0000
     1.0000   1.0000   1.0000   1.0000   1.0000   1.0000   1.0000   1.0000
     1.0000   1.0000   1.0000   1.0000   1.0000   1.0000   1.0000   1.0000
     1.0000   1.0000   1.0000   1.0000   1.0000   1.0000   1.0000   1.0000
     1.0000   1.0000   1.0000   1.0000   1.0000   1.0000   1.0000   1.0000
     1.0000   1.0000   1.0000   1.0000   1.0000   1.0000   1.0000   1.0000
     1.0000   1.0000   1.0000   1.0000   1.0000   1.0000   1.0000   1.0000
     1.0000   1.0000   1.0000   1.0000   1.0000   1.0000   1.0000   1.0000
     1.0000   1.0000   1.0000   1.0000   1.0000   1.0000   1.0000   1.0000
     1.0000   1.0000   1.0000   1.0000   1.0000   1.0000   1.0000   1.0000
     1.0000   1.0000   1.0000   1.0000   1.0000   1.0000   1.0000   1.0000
     1.0000   1.0000   1.0000   1.0000   1.0000   1.0000   1.0000   1.0000
     1.0000   1.0000   1.0000   1.0000   1.0000   1.0000   1.0000   1.0000
     1.0000   1.0000   1.0000   1.0000   1.0000   1.0000   1.0000   1.0000
     1.0000   1.0000   1.0000   1.0000   1.0000   1.0000   1.0000   1.0000
     1.0000   1.0000   1.0000   1.0000   1.0000   1.0000   1.0000   1.0000
     1.0000   1.0000   1.0000   1.0000   1.0000   1.0000   1.0000   0.9999
     0.9999   0.9997   0.9996   0.9994   0.9992   0.9983   0.9980   0.9976
     0.9975   0.9972   0.9970   0.9959   0.9950   0.9940   0.9930   0.9888
     0.9868   0.9856   0.9850   0.9829   0.9809   0.9798   0.9791   0.9778
     0.9757   0.9720   0.9704   0.9666   0.9638   0.9595   0.9522   0.9307
     0.9100   0.9027   0.8851   0.8744   0.8539   0.8424   0.8395   0.8234
     0.8166   0.8022   0.7983   0.7820   0.7692   0.7642   0.7441   0.7381
     0.7335   0.7250   0.7153   0.7094   0.7002   0.6950   0.6811   0.6751
     0.6704   0.6657   0.6612   0.6550   0.3464   0.3249   0.2518   0.2428
     0.1314   0.1074   0.0939   0.0537   0.0147   0.0099   0.0048   0.0039
     0.0009   0.0008   0.0002   0.0001   0.0001   0.0001   0.0000   0.0000
     0.0000   0.0000   0.0000   0.0000   0.0000   0.0000   0.0000   0.0000
     0.0000   0.0000   0.0000   0.0000   0.0000   0.0000   0.0000   0.0000
     0.0000   0.0000

     the Fermi energy is     3.1417 ev

!    total energy              =   -4440.30410060 Ry
     estimated scf accuracy    <          6.0E-09 Ry
     smearing contrib. (-TS)   =      -1.20824021 Ry
     internal energy E=F+TS    =   -4439.09586038 Ry

     The total energy is F=E-TS. E is the sum of the following terms:
     one-electron contribution =  -20889.45715799 Ry
     hartree contribution      =   10573.67275833 Ry
     xc contribution           =    -693.24620565 Ry
     ewald contribution        =    6846.12596410 Ry
     one-center paw contrib.   =    -276.19121917 Ry
      -> PAW hartree energy AE =      25.13415551 Ry
      -> PAW hartree energy PS =     -25.01834627 Ry
      -> PAW xc energy AE      =     -16.51340884 Ry
      -> PAW xc energy PS      =       6.87267575 Ry
      -> total E_H with PAW    =   10573.78856756 Ry
      -> total E_XC with PAW   =    -702.88693873 Ry

     convergence has been achieved in  49 iterations

     Writing all to output data dir /bsuhome/zayahcortright/scratch/pwscf.save/
 
     init_run     :      7.48s CPU      8.37s WALL (       1 calls)
     electrons    :    701.10s CPU    734.61s WALL (       1 calls)

     Called by init_run:
     wfcinit      :      6.07s CPU      6.30s WALL (       1 calls)
     wfcinit:atom :      0.05s CPU      0.07s WALL (       5 calls)
     wfcinit:wfcr :      5.74s CPU      5.88s WALL (       5 calls)
     potinit      :      0.16s CPU      0.19s WALL (       1 calls)
     hinit0       :      0.33s CPU      0.71s WALL (       1 calls)

     Called by electrons:
     c_bands      :    556.06s CPU    563.18s WALL (      49 calls)
     sum_band     :    108.74s CPU    123.18s WALL (      49 calls)
     v_of_rho     :      5.27s CPU      5.65s WALL (      50 calls)
     v_h          :      0.44s CPU      0.44s WALL (      50 calls)
     v_xc         :      4.83s CPU      5.21s WALL (      50 calls)
     newd         :     16.34s CPU     27.56s WALL (      50 calls)
     PAW_pot      :      1.66s CPU      1.70s WALL (      50 calls)
     mix_rho      :     12.72s CPU     13.11s WALL (      49 calls)

     Called by c_bands:
     init_us_2    :      6.87s CPU      6.98s WALL (     495 calls)
     init_us_2:cp :      6.86s CPU      6.98s WALL (     495 calls)
     cegterg      :    520.84s CPU    527.56s WALL (     245 calls)

     Called by sum_band:
     sum_band:wei :      0.35s CPU      0.36s WALL (      49 calls)
     sum_band:loo :     89.69s CPU     90.39s WALL (      49 calls)
     sum_band:buf :      1.50s CPU      1.55s WALL (     245 calls)
     sum_band:ini :      3.20s CPU      3.21s WALL (     245 calls)
     sum_band:cal :     19.42s CPU     19.49s WALL (     245 calls)
     sum_band:bec :      0.55s CPU      0.57s WALL (     245 calls)
     addusdens    :     15.66s CPU     29.31s WALL (      49 calls)
                                        0.00s GPU  (      49 calls)
     addusd:skk   :      0.30s CPU      0.99s WALL (     147 calls)
                                        0.00s GPU  (     147 calls)

     Called by *egterg:
     cdiaghg      :     53.07s CPU     53.32s WALL (    1241 calls)
     cegterg:over :     37.76s CPU     37.92s WALL (     996 calls)
     cegterg:upda :     27.33s CPU     27.85s WALL (     996 calls)
     cegterg:last :     58.34s CPU     58.61s WALL (     442 calls)
     cdiaghg:chol :      3.08s CPU      3.11s WALL (    1241 calls)
     cdiaghg:inve :      2.89s CPU      2.91s WALL (    1241 calls)
     cdiaghg:para :      6.87s CPU      6.92s WALL (    2482 calls)
     h_psi        :    289.52s CPU    292.72s WALL (    1246 calls)
     s_psi        :     39.43s CPU     39.60s WALL (    1246 calls)
     g_psi        :      1.05s CPU      1.05s WALL (     996 calls)

     Called by h_psi:
     h_psi:calbec :     44.15s CPU     44.40s WALL (    1246 calls)
     vloc_psi     :    203.26s CPU    205.32s WALL (    1246 calls)
     add_vuspsi   :     39.25s CPU     39.46s WALL (    1246 calls)

     General routines
     calbec       :     63.56s CPU     63.88s WALL (    1491 calls)
     fft          :      4.16s CPU      4.21s WALL (     648 calls)
     ffts         :      4.66s CPU      4.70s WALL (    5331 calls)
     fftw         :    172.90s CPU    174.40s WALL (  329382 calls)
     interpolate  :      0.41s CPU      0.42s WALL (      50 calls)
 
     Parallel routines

     PAW routines
     PAW_pot      :      1.66s CPU      1.70s WALL (      50 calls)
 
     PWSCF        :  11m50.45s CPU  12m27.59s WALL

 
   This run was terminated on:  16:49:20  21Jun2024            

=------------------------------------------------------------------------------=
   JOB DONE.
=------------------------------------------------------------------------------=
