
     Program PWSCF v.7.2 starts on 21Jun2024 at 18:17:52 

     This program is part of the open-source Quantum ESPRESSO suite
     for quantum simulation of materials; please cite
         "P. Giannozzi et al., J. Phys.:Condens. Matter 21 395502 (2009);
         "P. Giannozzi et al., J. Phys.:Condens. Matter 29 465901 (2017);
         "P. Giannozzi et al., J. Chem. Phys. 152 154105 (2020);
          URL http://www.quantum-espresso.org", 
     in publications or presentations arising from this work. More details at
     http://www.quantum-espresso.org/quote

     Parallel version (MPI & OpenMP), running on      48 processor cores
     Number of MPI processes:                48
     Threads/MPI process:                     1

     MPI processes distributed on     1 nodes
     60581 MiB available memory on the printing compute node when the environment starts
 
     Reading input from espresso.pwi
Warning: card &CELL ignored
Warning: card / ignored
Warning: card &FCP ignored
Warning: card / ignored
Warning: card &RISM ignored
Warning: card / ignored

     Current dimensions of program PWSCF are:
     Max number of different atomic species (ntypx) = 10
     Max number of k-points (npk) =  40000
     Max angular momentum in pseudopotentials (lmaxx) =  4
     file O.pbe-n-kjpaw_psl.0.1.UPF: wavefunction(s)  2P renormalized
     signal trapping enabled: kill the code with -SIGUSR1 to stop cleanly the simulation 
 
     K-points division:     npool     =       2
     R & G space division:  proc/nbgrp/npool/nimage =      24
     Subspace diagonalization in iterative solution of the eigenvalue problem:
     one sub-group per band group will be used
     scalapack distributed-memory algorithm (size of sub-group:  3*  3 procs)

 
     Parallelization info
     --------------------
     sticks:   dense  smooth     PW     G-vecs:    dense   smooth      PW
     Min         350     175     47                61430    21716    3036
     Max         351     177     48                61449    21727    3041
     Sum        8421    4205   1137              1474595   521381   72913
 
     Using Slab Decomposition
 


     bravais-lattice index     =            0
     lattice parameter (alat)  =      14.8599  a.u.
     unit-cell volume          =    8305.1283 (a.u.)^3
     number of atoms/cell      =           49
     number of atomic types    =            3
     number of electrons       =       430.00
     number of Kohn-Sham states=          258
     kinetic-energy cutoff     =      60.0000  Ry
     charge density cutoff     =     480.0000  Ry
     scf convergence threshold =      1.0E-08
     mixing beta               =       0.1500
     number of iterations used =            8  local-TF  mixing
     Exchange-correlation= SLA  PW   PBE  PBE
                           (   1   4   3   4   0   0   0)

     celldm(1)=  14.859904  celldm(2)=   0.000000  celldm(3)=   0.000000
     celldm(4)=   0.000000  celldm(5)=   0.000000  celldm(6)=   0.000000

     crystal axes: (cart. coord. in units of alat)
               a(1) = (   1.000000   0.000000   0.000000 )  
               a(2) = (   0.000000   1.000000   0.000000 )  
               a(3) = (   0.000000   0.000000   2.531036 )  

     reciprocal axes: (cart. coord. in units 2 pi/alat)
               b(1) = (  1.000000  0.000000  0.000000 )  
               b(2) = (  0.000000  1.000000  0.000000 )  
               b(3) = (  0.000000  0.000000  0.395095 )  


     PseudoPot. # 1 for Sr read from file:
     /bsuhome/zayahcortright/q-e/pseudo/Sr_pbe_v1.uspp.F.UPF
     MD5 check sum: 6b418c05fbe9db5448babca5e47b7a5b
     Pseudo is Ultrasoft + core correction, Zval = 10.0
     Generated by new atomic code, or converted to UPF format
     Using radial grid of  883 points,  6 beta functions with: 
                l(1) =   0
                l(2) =   0
                l(3) =   1
                l(4) =   1
                l(5) =   2
                l(6) =   2
     Q(r) pseudized with  6 coefficients,  rinner =    1.400   1.400   1.400
                                                       1.400   1.400

     PseudoPot. # 2 for O  read from file:
     /bsuhome/zayahcortright/q-e/pseudo/O.pbe-n-kjpaw_psl.0.1.UPF
     MD5 check sum: 0234752ac141de4415c5fc33072bef88
     Pseudo is Projector augmented-wave + core cor, Zval =  6.0
     Generated using "atomic" code by A. Dal Corso  v.5.0.99 svn rev. 10869
     Shape of augmentation charge: BESSEL
     Using radial grid of 1095 points,  4 beta functions with: 
                l(1) =   0
                l(2) =   0
                l(3) =   1
                l(4) =   1
     Q(r) pseudized with 0 coefficients 


     PseudoPot. # 3 for Co read from file:
     /bsuhome/zayahcortright/q-e/pseudo/Co_pbe_v1.2.uspp.F.UPF
     MD5 check sum: 5f91765df6ddd3222702df6e7b74a16d
     Pseudo is Ultrasoft + core correction, Zval = 17.0
     Generated by new atomic code, or converted to UPF format
     Using radial grid of  863 points,  6 beta functions with: 
                l(1) =   0
                l(2) =   0
                l(3) =   1
                l(4) =   1
                l(5) =   2
                l(6) =   2
     Q(r) pseudized with  8 coefficients,  rinner =    1.200   1.200   1.200
                                                       1.200   1.200

     atomic species   valence    mass     pseudopotential
        Sr            10.00    87.62000     Sr( 1.00)
        O              6.00    15.99900     O ( 1.00)
        Co            17.00    58.93319     Co( 1.00)

     No symmetry found


                                    s                        frac. trans.

      isym =  1     identity                                     

 cryst.   s( 1) = (     1          0          0      )
                  (     0          1          0      )
                  (     0          0          1      )

 cart.    s( 1) = (  1.0000000  0.0000000  0.0000000 )
                  (  0.0000000  1.0000000  0.0000000 )
                  (  0.0000000  0.0000000  1.0000000 )


   Cartesian axes

     site n.     atom                  positions (alat units)
         1           Sr  tau(   1) = (   0.2508693   0.7491307   1.7574407  )
         2           O   tau(   2) = (   0.4985141   0.5014859   1.7715967  )
         3           Sr  tau(   3) = (   0.7482398   0.7454518   1.7648669  )
         4           Sr  tau(   4) = (   0.7441748   0.2558252   1.7667843  )
         5           Sr  tau(   5) = (   0.2508693   0.7491307   1.2696799  )
         6           Sr  tau(   6) = (   0.2508693   0.7491307   0.7632319  )
         7           Co  tau(   7) = (   0.4998914   0.5001086   1.0164559  )
         8           Co  tau(   8) = (   0.4936915   0.5063085   1.5135603  )
         9           O   tau(   9) = (   0.4988895   0.7610401   1.0164559  )
        10           O   tau(  10) = (   0.2389599   0.5011105   1.0164559  )
        11           O   tau(  11) = (   0.0070918   0.7374880   1.0164559  )
        12           O   tau(  12) = (   0.0088340   0.7405089   1.5135603  )
        13           O   tau(  13) = (   0.5066944   0.7415376   1.5135603  )
        14           O   tau(  14) = (   0.2584624   0.4933056   1.5135603  )
        15           O   tau(  15) = (   0.4985141   0.5014859   0.7773880  )
        16           O   tau(  16) = (   0.4985141   0.5014859   1.2555238  )
        17           Sr  tau(  17) = (   0.7482398   0.7454518   0.7706582  )
        18           Sr  tau(  18) = (   0.7482398   0.7454518   1.2622536  )
        19           Sr  tau(  19) = (   0.7441748   0.2558252   0.7725755  )
        20           Sr  tau(  20) = (   0.7441748   0.2558252   1.2603363  )
        21           O   tau(  21) = (   0.7322655   0.0078049   1.5135603  )
        22           O   tau(  22) = (   0.7558175   0.4996027   1.5135603  )
        23           O   tau(  23) = (   0.5003973   0.2441825   1.5135603  )
        24           O   tau(  24) = (   0.7527966   0.4978604   1.0164559  )
        25           O   tau(  25) = (   0.5021396   0.2472034   1.0164559  )
        26           O   tau(  26) = (   0.7517679   0.0000000   1.0164559  )
        27           O   tau(  27) = (   0.0114961   0.4948124   1.7455321  )
        28           O   tau(  28) = (   0.0048226   0.0077944   1.7715967  )
        29           Sr  tau(  29) = (   0.2545482   0.2517602   1.7648669  )
        30           O   tau(  30) = (   0.5048017   0.0015068   1.7786929  )
        31           Co  tau(  31) = (   0.0056869   0.5006215   1.0164559  )
        32           Co  tau(  32) = (   0.0065315   0.4997770   1.5135603  )
        33           Co  tau(  33) = (   0.0061999   0.0064171   1.0164559  )
        34           Co  tau(  34) = (   0.0000000   0.0126169   1.5135603  )
        35           O   tau(  35) = (   0.0114961   0.4948124   1.2815885  )
        36           O   tau(  36) = (   0.0114961   0.4948124   0.7513233  )
        37           O   tau(  37) = (   0.0051979   0.2673486   1.0164559  )
        38           O   tau(  38) = (   0.0130029   0.2478461   1.5135603  )
        39           O   tau(  39) = (   0.0048226   0.0077944   0.7773880  )
        40           O   tau(  40) = (   0.0048226   0.0077944   1.2555238  )
        41           Sr  tau(  41) = (   0.2545482   0.2517602   0.7706582  )
        42           Sr  tau(  42) = (   0.2545482   0.2517602   1.2622536  )
        43           Co  tau(  43) = (   0.4989925   0.0073160   1.5135603  )
        44           Co  tau(  44) = (   0.4998370   0.0064714   1.0164559  )
        45           O   tau(  45) = (   0.5048017   0.0015068   0.7844841  )
        46           O   tau(  46) = (   0.5048017   0.0015068   1.2484277  )
        47           O   tau(  47) = (   0.2621260   0.0059111   1.5135603  )
        48           O   tau(  48) = (   0.2591051   0.0041689   1.0164559  )
        49           O   tau(  49) = (   0.2843291   0.4264937   2.1602013  )

   Crystallographic axes

     site n.     atom                  positions (cryst. coord.)
         1           Sr  tau(   1) = (  0.2508693  0.7491307  0.6943562  )
         2           O   tau(   2) = (  0.4985141  0.5014859  0.6999492  )
         3           Sr  tau(   3) = (  0.7482398  0.7454518  0.6972903  )
         4           Sr  tau(   4) = (  0.7441748  0.2558252  0.6980478  )
         5           Sr  tau(   5) = (  0.2508693  0.7491307  0.5016443  )
         6           Sr  tau(   6) = (  0.2508693  0.7491307  0.3015492  )
         7           Co  tau(   7) = (  0.4998914  0.5001086  0.4015968  )
         8           Co  tau(   8) = (  0.4936915  0.5063085  0.5980003  )
         9           O   tau(   9) = (  0.4988895  0.7610401  0.4015968  )
        10           O   tau(  10) = (  0.2389599  0.5011105  0.4015968  )
        11           O   tau(  11) = (  0.0070918  0.7374880  0.4015968  )
        12           O   tau(  12) = (  0.0088340  0.7405089  0.5980003  )
        13           O   tau(  13) = (  0.5066944  0.7415376  0.5980003  )
        14           O   tau(  14) = (  0.2584624  0.4933056  0.5980003  )
        15           O   tau(  15) = (  0.4985141  0.5014859  0.3071422  )
        16           O   tau(  16) = (  0.4985141  0.5014859  0.4960513  )
        17           Sr  tau(  17) = (  0.7482398  0.7454518  0.3044833  )
        18           Sr  tau(  18) = (  0.7482398  0.7454518  0.4987103  )
        19           Sr  tau(  19) = (  0.7441748  0.2558252  0.3052408  )
        20           Sr  tau(  20) = (  0.7441748  0.2558252  0.4979527  )
        21           O   tau(  21) = (  0.7322655  0.0078049  0.5980003  )
        22           O   tau(  22) = (  0.7558175  0.4996027  0.5980003  )
        23           O   tau(  23) = (  0.5003973  0.2441825  0.5980003  )
        24           O   tau(  24) = (  0.7527966  0.4978604  0.4015968  )
        25           O   tau(  25) = (  0.5021396  0.2472034  0.4015968  )
        26           O   tau(  26) = (  0.7517679  0.0000000  0.4015968  )
        27           O   tau(  27) = (  0.0114961  0.4948124  0.6896512  )
        28           O   tau(  28) = (  0.0048226  0.0077944  0.6999492  )
        29           Sr  tau(  29) = (  0.2545482  0.2517602  0.6972903  )
        30           O   tau(  30) = (  0.5048017  0.0015068  0.7027529  )
        31           Co  tau(  31) = (  0.0056869  0.5006215  0.4015968  )
        32           Co  tau(  32) = (  0.0065315  0.4997770  0.5980003  )
        33           Co  tau(  33) = (  0.0061999  0.0064171  0.4015968  )
        34           Co  tau(  34) = (  0.0000000  0.0126169  0.5980003  )
        35           O   tau(  35) = (  0.0114961  0.4948124  0.5063494  )
        36           O   tau(  36) = (  0.0114961  0.4948124  0.2968442  )
        37           O   tau(  37) = (  0.0051979  0.2673486  0.4015968  )
        38           O   tau(  38) = (  0.0130029  0.2478461  0.5980003  )
        39           O   tau(  39) = (  0.0048226  0.0077944  0.3071422  )
        40           O   tau(  40) = (  0.0048226  0.0077944  0.4960513  )
        41           Sr  tau(  41) = (  0.2545482  0.2517602  0.3044833  )
        42           Sr  tau(  42) = (  0.2545482  0.2517602  0.4987103  )
        43           Co  tau(  43) = (  0.4989925  0.0073160  0.5980003  )
        44           Co  tau(  44) = (  0.4998370  0.0064714  0.4015968  )
        45           O   tau(  45) = (  0.5048017  0.0015068  0.3099459  )
        46           O   tau(  46) = (  0.5048017  0.0015068  0.4932477  )
        47           O   tau(  47) = (  0.2621260  0.0059111  0.5980003  )
        48           O   tau(  48) = (  0.2591051  0.0041689  0.4015968  )
        49           O   tau(  49) = (  0.2843291  0.4264937  0.8534850  )

     number of k points=    10  Gaussian smearing, width (Ry)=  0.0700
                       cart. coord. in units 2pi/alat
        k(    1) = (   0.0000000   0.0000000   0.0000000), wk =   0.1250000
        k(    2) = (   0.0000000   0.2500000   0.0000000), wk =   0.2500000
        k(    3) = (   0.0000000  -0.5000000   0.0000000), wk =   0.1250000
        k(    4) = (   0.2500000   0.2500000   0.0000000), wk =   0.2500000
        k(    5) = (   0.2500000  -0.5000000   0.0000000), wk =   0.2500000
        k(    6) = (  -0.5000000  -0.5000000   0.0000000), wk =   0.1250000
        k(    7) = (   0.2500000   0.0000000   0.0000000), wk =   0.2500000
        k(    8) = (  -0.5000000   0.0000000   0.0000000), wk =   0.1250000
        k(    9) = (  -0.2500000   0.2500000   0.0000000), wk =   0.2500000
        k(   10) = (  -0.5000000   0.2500000   0.0000000), wk =   0.2500000

                       cryst. coord.
        k(    1) = (   0.0000000   0.0000000   0.0000000), wk =   0.1250000
        k(    2) = (   0.0000000   0.2500000   0.0000000), wk =   0.2500000
        k(    3) = (   0.0000000  -0.5000000   0.0000000), wk =   0.1250000
        k(    4) = (   0.2500000   0.2500000   0.0000000), wk =   0.2500000
        k(    5) = (   0.2500000  -0.5000000   0.0000000), wk =   0.2500000
        k(    6) = (  -0.5000000  -0.5000000   0.0000000), wk =   0.1250000
        k(    7) = (   0.2500000   0.0000000   0.0000000), wk =   0.2500000
        k(    8) = (  -0.5000000   0.0000000   0.0000000), wk =   0.1250000
        k(    9) = (  -0.2500000   0.2500000   0.0000000), wk =   0.2500000
        k(   10) = (  -0.5000000   0.2500000   0.0000000), wk =   0.2500000

     Dense  grid:  1474595 G-vectors     FFT dimensions: ( 108, 108, 270)

     Smooth grid:   521381 G-vectors     FFT dimensions: (  75,  75, 192)

     Dynamical RAM for                 wfc:      10.69 MB

     Dynamical RAM for     wfc (w. buffer):      64.13 MB

     Dynamical RAM for           str. fact:       2.81 MB

     Dynamical RAM for           local pot:       0.00 MB

     Dynamical RAM for          nlocal pot:      24.53 MB

     Dynamical RAM for                qrad:       5.27 MB

     Dynamical RAM for          rho,v,vnew:       6.02 MB

     Dynamical RAM for               rhoin:       2.01 MB

     Dynamical RAM for            rho*nmix:      15.00 MB

     Dynamical RAM for           G-vectors:       3.68 MB

     Dynamical RAM for          h,s,v(r/c):       1.35 MB

     Dynamical RAM for          <psi|beta>:       2.33 MB

     Dynamical RAM for                 psi:      21.38 MB

     Dynamical RAM for                hpsi:      21.38 MB

     Dynamical RAM for                spsi:      21.38 MB

     Dynamical RAM for      wfcinit/wfcrot:      34.39 MB

     Dynamical RAM for           addusdens:     101.26 MB

     Estimated static dynamical RAM per process >     117.53 MB

     Estimated max dynamical RAM per process >     233.79 MB

     Estimated total dynamical RAM >      10.61 GB

     Check: negative core charge=   -0.000004

     Initial potential from superposition of free atoms

     starting charge     421.5961, renormalised to     430.0000

     negative rho (up, down):  7.826E-01 0.000E+00
     Starting wfcs are  376 randomized atomic wfcs
     Checking if some PAW data can be deallocated... 
       PAW data deallocated on   19 nodes for type:  2

     total cpu time spent up to now is        9.6 secs

     Self-consistent Calculation

     iteration #  1     ecut=    60.00 Ry     beta= 0.15
     Davidson diagonalization with overlap

---- Real-time Memory Report at c_bands before calling an iterative solver
             0 MiB given to the printing process from OS
             0 MiB allocation reported by mallinfo(arena+hblkhd)
         51474 MiB available memory on the node where the printing process lives
------------------
     ethr =  1.00E-02,  avg # of iterations =  2.0

     negative rho (up, down):  7.717E-01 0.000E+00

     total cpu time spent up to now is       25.0 secs

     total energy              =   -4445.23008877 Ry
     estimated scf accuracy    <      53.93508784 Ry

     iteration #  2     ecut=    60.00 Ry     beta= 0.15
     Davidson diagonalization with overlap

---- Real-time Memory Report at c_bands before calling an iterative solver
             0 MiB given to the printing process from OS
             0 MiB allocation reported by mallinfo(arena+hblkhd)
         51840 MiB available memory on the node where the printing process lives
------------------
     ethr =  1.00E-02,  avg # of iterations =  1.0

     negative rho (up, down):  7.592E-01 0.000E+00

     total cpu time spent up to now is       37.8 secs

     total energy              =   -4441.96002296 Ry
     estimated scf accuracy    <      28.33643370 Ry

     iteration #  3     ecut=    60.00 Ry     beta= 0.15
     Davidson diagonalization with overlap

---- Real-time Memory Report at c_bands before calling an iterative solver
             0 MiB given to the printing process from OS
             0 MiB allocation reported by mallinfo(arena+hblkhd)
         51088 MiB available memory on the node where the printing process lives
------------------
     ethr =  6.59E-03,  avg # of iterations =  1.0

     negative rho (up, down):  7.530E-01 0.000E+00

     total cpu time spent up to now is       50.6 secs

     total energy              =   -4442.59280867 Ry
     estimated scf accuracy    <      29.57160341 Ry

     iteration #  4     ecut=    60.00 Ry     beta= 0.15
     Davidson diagonalization with overlap

---- Real-time Memory Report at c_bands before calling an iterative solver
             0 MiB given to the printing process from OS
             0 MiB allocation reported by mallinfo(arena+hblkhd)
         51039 MiB available memory on the node where the printing process lives
------------------
     ethr =  6.59E-03,  avg # of iterations =  1.0

     negative rho (up, down):  7.534E-01 0.000E+00

     total cpu time spent up to now is       63.3 secs

     total energy              =   -4442.71425194 Ry
     estimated scf accuracy    <      27.82399001 Ry

     iteration #  5     ecut=    60.00 Ry     beta= 0.15
     Davidson diagonalization with overlap

---- Real-time Memory Report at c_bands before calling an iterative solver
             0 MiB given to the printing process from OS
             0 MiB allocation reported by mallinfo(arena+hblkhd)
         51019 MiB available memory on the node where the printing process lives
------------------
     ethr =  6.47E-03,  avg # of iterations =  1.0

     negative rho (up, down):  7.396E-01 0.000E+00

     total cpu time spent up to now is       75.9 secs

     total energy              =   -4442.15109814 Ry
     estimated scf accuracy    <      23.66582843 Ry

     iteration #  6     ecut=    60.00 Ry     beta= 0.15
     Davidson diagonalization with overlap

---- Real-time Memory Report at c_bands before calling an iterative solver
             0 MiB given to the printing process from OS
             0 MiB allocation reported by mallinfo(arena+hblkhd)
         50998 MiB available memory on the node where the printing process lives
------------------
     ethr =  5.50E-03,  avg # of iterations =  1.0

     negative rho (up, down):  7.441E-01 0.000E+00

     total cpu time spent up to now is       88.6 secs

     total energy              =   -4442.85150531 Ry
     estimated scf accuracy    <      55.39925528 Ry

     iteration #  7     ecut=    60.00 Ry     beta= 0.15
     Davidson diagonalization with overlap

---- Real-time Memory Report at c_bands before calling an iterative solver
             0 MiB given to the printing process from OS
             0 MiB allocation reported by mallinfo(arena+hblkhd)
         50979 MiB available memory on the node where the printing process lives
------------------
     ethr =  5.50E-03,  avg # of iterations =  1.0

     negative rho (up, down):  7.511E-01 0.000E+00

     total cpu time spent up to now is      101.3 secs

     total energy              =   -4439.21940907 Ry
     estimated scf accuracy    <      42.81610034 Ry

     iteration #  8     ecut=    60.00 Ry     beta= 0.15
     Davidson diagonalization with overlap

---- Real-time Memory Report at c_bands before calling an iterative solver
             0 MiB given to the printing process from OS
             0 MiB allocation reported by mallinfo(arena+hblkhd)
         50967 MiB available memory on the node where the printing process lives
------------------
     ethr =  5.50E-03,  avg # of iterations =  1.0

     negative rho (up, down):  7.470E-01 0.000E+00

     total cpu time spent up to now is      113.8 secs

     total energy              =   -4440.87920932 Ry
     estimated scf accuracy    <       9.07433113 Ry

     iteration #  9     ecut=    60.00 Ry     beta= 0.15
     Davidson diagonalization with overlap

---- Real-time Memory Report at c_bands before calling an iterative solver
             0 MiB given to the printing process from OS
             0 MiB allocation reported by mallinfo(arena+hblkhd)
         50946 MiB available memory on the node where the printing process lives
------------------
     ethr =  2.11E-03,  avg # of iterations =  1.1

     negative rho (up, down):  7.541E-01 0.000E+00

     total cpu time spent up to now is      126.5 secs

     total energy              =   -4441.22339825 Ry
     estimated scf accuracy    <       5.79198715 Ry

     iteration # 10     ecut=    60.00 Ry     beta= 0.15
     Davidson diagonalization with overlap

---- Real-time Memory Report at c_bands before calling an iterative solver
             0 MiB given to the printing process from OS
             0 MiB allocation reported by mallinfo(arena+hblkhd)
         50921 MiB available memory on the node where the printing process lives
------------------
     ethr =  1.35E-03,  avg # of iterations =  1.6

     negative rho (up, down):  7.730E-01 0.000E+00

     total cpu time spent up to now is      140.5 secs

     total energy              =   -4439.79187336 Ry
     estimated scf accuracy    <      21.33460670 Ry

     iteration # 11     ecut=    60.00 Ry     beta= 0.15
     Davidson diagonalization with overlap

---- Real-time Memory Report at c_bands before calling an iterative solver
             0 MiB given to the printing process from OS
             0 MiB allocation reported by mallinfo(arena+hblkhd)
         50914 MiB available memory on the node where the printing process lives
------------------
     ethr =  1.35E-03,  avg # of iterations =  8.2

     negative rho (up, down):  7.742E-01 0.000E+00

     total cpu time spent up to now is      157.8 secs

     total energy              =   -4440.35002877 Ry
     estimated scf accuracy    <       7.99942280 Ry

     iteration # 12     ecut=    60.00 Ry     beta= 0.15
     Davidson diagonalization with overlap

---- Real-time Memory Report at c_bands before calling an iterative solver
             0 MiB given to the printing process from OS
             0 MiB allocation reported by mallinfo(arena+hblkhd)
         50663 MiB available memory on the node where the printing process lives
------------------
     ethr =  1.35E-03,  avg # of iterations =  1.3

     negative rho (up, down):  7.808E-01 0.000E+00

     total cpu time spent up to now is      171.3 secs

     total energy              =   -4440.51241370 Ry
     estimated scf accuracy    <       1.50180935 Ry

     iteration # 13     ecut=    60.00 Ry     beta= 0.15
     Davidson diagonalization with overlap

---- Real-time Memory Report at c_bands before calling an iterative solver
             0 MiB given to the printing process from OS
             0 MiB allocation reported by mallinfo(arena+hblkhd)
         50673 MiB available memory on the node where the printing process lives
------------------
     ethr =  3.49E-04,  avg # of iterations = 11.8

     negative rho (up, down):  7.873E-01 0.000E+00

     total cpu time spent up to now is      190.3 secs

     total energy              =   -4440.45833918 Ry
     estimated scf accuracy    <       1.18428014 Ry

     iteration # 14     ecut=    60.00 Ry     beta= 0.15
     Davidson diagonalization with overlap

---- Real-time Memory Report at c_bands before calling an iterative solver
             0 MiB given to the printing process from OS
             0 MiB allocation reported by mallinfo(arena+hblkhd)
         50534 MiB available memory on the node where the printing process lives
------------------
     ethr =  2.75E-04,  avg # of iterations =  2.6

     negative rho (up, down):  8.032E-01 0.000E+00

     total cpu time spent up to now is      205.0 secs

     total energy              =   -4440.43966691 Ry
     estimated scf accuracy    <       3.24491713 Ry

     iteration # 15     ecut=    60.00 Ry     beta= 0.15
     Davidson diagonalization with overlap

---- Real-time Memory Report at c_bands before calling an iterative solver
             0 MiB given to the printing process from OS
             0 MiB allocation reported by mallinfo(arena+hblkhd)
         50542 MiB available memory on the node where the printing process lives
------------------
     ethr =  2.75E-04,  avg # of iterations =  2.8

     negative rho (up, down):  8.155E-01 0.000E+00

     total cpu time spent up to now is      219.3 secs

     total energy              =   -4440.43398233 Ry
     estimated scf accuracy    <       1.01167797 Ry

     iteration # 16     ecut=    60.00 Ry     beta= 0.15
     Davidson diagonalization with overlap

---- Real-time Memory Report at c_bands before calling an iterative solver
             0 MiB given to the printing process from OS
             0 MiB allocation reported by mallinfo(arena+hblkhd)
         50535 MiB available memory on the node where the printing process lives
------------------
     ethr =  2.35E-04,  avg # of iterations =  3.8

     negative rho (up, down):  8.258E-01 0.000E+00

     total cpu time spent up to now is      234.0 secs

     total energy              =   -4440.38760752 Ry
     estimated scf accuracy    <       1.23243669 Ry

     iteration # 17     ecut=    60.00 Ry     beta= 0.15
     Davidson diagonalization with overlap

---- Real-time Memory Report at c_bands before calling an iterative solver
             0 MiB given to the printing process from OS
             0 MiB allocation reported by mallinfo(arena+hblkhd)
         50529 MiB available memory on the node where the printing process lives
------------------
     ethr =  2.35E-04,  avg # of iterations = 10.3

     negative rho (up, down):  8.221E-01 0.000E+00

     total cpu time spent up to now is      251.8 secs

     total energy              =   -4440.33941954 Ry
     estimated scf accuracy    <       0.82584093 Ry

     iteration # 18     ecut=    60.00 Ry     beta= 0.15
     Davidson diagonalization with overlap

---- Real-time Memory Report at c_bands before calling an iterative solver
             0 MiB given to the printing process from OS
             0 MiB allocation reported by mallinfo(arena+hblkhd)
         50577 MiB available memory on the node where the printing process lives
------------------
     ethr =  1.92E-04,  avg # of iterations =  2.0

     negative rho (up, down):  8.239E-01 0.000E+00

     total cpu time spent up to now is      265.8 secs

     total energy              =   -4440.35636324 Ry
     estimated scf accuracy    <       0.17534485 Ry

     iteration # 19     ecut=    60.00 Ry     beta= 0.15
     Davidson diagonalization with overlap

---- Real-time Memory Report at c_bands before calling an iterative solver
             0 MiB given to the printing process from OS
             0 MiB allocation reported by mallinfo(arena+hblkhd)
         50541 MiB available memory on the node where the printing process lives
------------------
     ethr =  4.08E-05,  avg # of iterations = 16.9

     negative rho (up, down):  8.181E-01 0.000E+00

     total cpu time spent up to now is      286.0 secs

     total energy              =   -4440.34479855 Ry
     estimated scf accuracy    <       0.16938725 Ry

     iteration # 20     ecut=    60.00 Ry     beta= 0.15
     Davidson diagonalization with overlap

---- Real-time Memory Report at c_bands before calling an iterative solver
             0 MiB given to the printing process from OS
             0 MiB allocation reported by mallinfo(arena+hblkhd)
         50477 MiB available memory on the node where the printing process lives
------------------
     ethr =  3.94E-05,  avg # of iterations =  1.5

     negative rho (up, down):  8.035E-01 0.000E+00

     total cpu time spent up to now is      299.8 secs

     total energy              =   -4440.32338844 Ry
     estimated scf accuracy    <       0.26766052 Ry

     iteration # 21     ecut=    60.00 Ry     beta= 0.15
     Davidson diagonalization with overlap

---- Real-time Memory Report at c_bands before calling an iterative solver
             0 MiB given to the printing process from OS
             0 MiB allocation reported by mallinfo(arena+hblkhd)
         50470 MiB available memory on the node where the printing process lives
------------------
     ethr =  3.94E-05,  avg # of iterations =  3.5

     negative rho (up, down):  8.242E-01 0.000E+00

     total cpu time spent up to now is      314.5 secs

     total energy              =   -4440.31298707 Ry
     estimated scf accuracy    <       0.08039910 Ry

     iteration # 22     ecut=    60.00 Ry     beta= 0.15
     Davidson diagonalization with overlap

---- Real-time Memory Report at c_bands before calling an iterative solver
             0 MiB given to the printing process from OS
             0 MiB allocation reported by mallinfo(arena+hblkhd)
         50509 MiB available memory on the node where the printing process lives
------------------
     ethr =  1.87E-05,  avg # of iterations = 10.7

     negative rho (up, down):  8.279E-01 0.000E+00

     total cpu time spent up to now is      333.1 secs

     total energy              =   -4440.31192457 Ry
     estimated scf accuracy    <       0.04741896 Ry

     iteration # 23     ecut=    60.00 Ry     beta= 0.15
     Davidson diagonalization with overlap

---- Real-time Memory Report at c_bands before calling an iterative solver
             0 MiB given to the printing process from OS
             0 MiB allocation reported by mallinfo(arena+hblkhd)
         50303 MiB available memory on the node where the printing process lives
------------------
     ethr =  1.10E-05,  avg # of iterations =  2.7

     negative rho (up, down):  8.079E-01 0.000E+00

     total cpu time spent up to now is      347.7 secs

     total energy              =   -4440.30798529 Ry
     estimated scf accuracy    <       0.06493555 Ry

     iteration # 24     ecut=    60.00 Ry     beta= 0.15
     Davidson diagonalization with overlap

---- Real-time Memory Report at c_bands before calling an iterative solver
             0 MiB given to the printing process from OS
             0 MiB allocation reported by mallinfo(arena+hblkhd)
         50334 MiB available memory on the node where the printing process lives
------------------
     ethr =  1.10E-05,  avg # of iterations =  5.2

     negative rho (up, down):  8.110E-01 0.000E+00

     total cpu time spent up to now is      363.4 secs

     total energy              =   -4440.30851990 Ry
     estimated scf accuracy    <       0.03552197 Ry

     iteration # 25     ecut=    60.00 Ry     beta= 0.15
     Davidson diagonalization with overlap

---- Real-time Memory Report at c_bands before calling an iterative solver
             0 MiB given to the printing process from OS
             0 MiB allocation reported by mallinfo(arena+hblkhd)
         50365 MiB available memory on the node where the printing process lives
------------------
     c_bands:  1 eigenvalues not converged
     ethr =  8.26E-06,  avg # of iterations =  6.5

     negative rho (up, down):  8.039E-01 0.000E+00

     total cpu time spent up to now is      380.0 secs

     total energy              =   -4440.30668054 Ry
     estimated scf accuracy    <       0.01342474 Ry

     iteration # 26     ecut=    60.00 Ry     beta= 0.15
     Davidson diagonalization with overlap

---- Real-time Memory Report at c_bands before calling an iterative solver
             0 MiB given to the printing process from OS
             0 MiB allocation reported by mallinfo(arena+hblkhd)
         50370 MiB available memory on the node where the printing process lives
------------------
     c_bands:  1 eigenvalues not converged
     ethr =  3.12E-06,  avg # of iterations = 12.2

     negative rho (up, down):  7.971E-01 0.000E+00

     total cpu time spent up to now is      400.1 secs

     total energy              =   -4440.30573657 Ry
     estimated scf accuracy    <       0.01236339 Ry

     iteration # 27     ecut=    60.00 Ry     beta= 0.15
     Davidson diagonalization with overlap

---- Real-time Memory Report at c_bands before calling an iterative solver
             0 MiB given to the printing process from OS
             0 MiB allocation reported by mallinfo(arena+hblkhd)
         50349 MiB available memory on the node where the printing process lives
------------------
     ethr =  2.88E-06,  avg # of iterations =  4.2

     negative rho (up, down):  7.999E-01 0.000E+00

     total cpu time spent up to now is      415.8 secs

     total energy              =   -4440.30569016 Ry
     estimated scf accuracy    <       0.00406921 Ry

     iteration # 28     ecut=    60.00 Ry     beta= 0.15
     Davidson diagonalization with overlap

---- Real-time Memory Report at c_bands before calling an iterative solver
             0 MiB given to the printing process from OS
             0 MiB allocation reported by mallinfo(arena+hblkhd)
         50341 MiB available memory on the node where the printing process lives
------------------
     c_bands:  1 eigenvalues not converged
     c_bands:  1 eigenvalues not converged
     ethr =  9.46E-07,  avg # of iterations = 10.3

     negative rho (up, down):  8.013E-01 0.000E+00

     total cpu time spent up to now is      434.6 secs

     total energy              =   -4440.30571146 Ry
     estimated scf accuracy    <       0.00142532 Ry

     iteration # 29     ecut=    60.00 Ry     beta= 0.15
     Davidson diagonalization with overlap

---- Real-time Memory Report at c_bands before calling an iterative solver
             0 MiB given to the printing process from OS
             0 MiB allocation reported by mallinfo(arena+hblkhd)
         50391 MiB available memory on the node where the printing process lives
------------------
     c_bands:  1 eigenvalues not converged
     c_bands:  1 eigenvalues not converged
     ethr =  3.31E-07,  avg # of iterations =  9.6

     negative rho (up, down):  8.035E-01 0.000E+00

     total cpu time spent up to now is      452.1 secs

     total energy              =   -4440.30577025 Ry
     estimated scf accuracy    <       0.00070333 Ry

     iteration # 30     ecut=    60.00 Ry     beta= 0.15
     Davidson diagonalization with overlap

---- Real-time Memory Report at c_bands before calling an iterative solver
             0 MiB given to the printing process from OS
             0 MiB allocation reported by mallinfo(arena+hblkhd)
         50361 MiB available memory on the node where the printing process lives
------------------
     ethr =  1.64E-07,  avg # of iterations =  6.2

     negative rho (up, down):  8.021E-01 0.000E+00

     total cpu time spent up to now is      468.7 secs

     total energy              =   -4440.30575258 Ry
     estimated scf accuracy    <       0.00039282 Ry

     iteration # 31     ecut=    60.00 Ry     beta= 0.15
     Davidson diagonalization with overlap

---- Real-time Memory Report at c_bands before calling an iterative solver
             0 MiB given to the printing process from OS
             0 MiB allocation reported by mallinfo(arena+hblkhd)
         50361 MiB available memory on the node where the printing process lives
------------------
     ethr =  9.14E-08,  avg # of iterations =  2.0

     negative rho (up, down):  7.952E-01 0.000E+00

     total cpu time spent up to now is      483.6 secs

     total energy              =   -4440.30559543 Ry
     estimated scf accuracy    <       0.00030652 Ry

     iteration # 32     ecut=    60.00 Ry     beta= 0.15
     Davidson diagonalization with overlap

---- Real-time Memory Report at c_bands before calling an iterative solver
             0 MiB given to the printing process from OS
             0 MiB allocation reported by mallinfo(arena+hblkhd)
         50370 MiB available memory on the node where the printing process lives
------------------
     c_bands:  1 eigenvalues not converged
     ethr =  7.13E-08,  avg # of iterations =  8.6

     negative rho (up, down):  7.931E-01 0.000E+00

     total cpu time spent up to now is      502.5 secs

     total energy              =   -4440.30561204 Ry
     estimated scf accuracy    <       0.00010829 Ry

     iteration # 33     ecut=    60.00 Ry     beta= 0.15
     Davidson diagonalization with overlap

---- Real-time Memory Report at c_bands before calling an iterative solver
             0 MiB given to the printing process from OS
             0 MiB allocation reported by mallinfo(arena+hblkhd)
         50361 MiB available memory on the node where the printing process lives
------------------
     ethr =  2.52E-08,  avg # of iterations =  4.1

     negative rho (up, down):  7.928E-01 0.000E+00

     total cpu time spent up to now is      518.4 secs

     total energy              =   -4440.30560231 Ry
     estimated scf accuracy    <       0.00006722 Ry

     iteration # 34     ecut=    60.00 Ry     beta= 0.15
     Davidson diagonalization with overlap

---- Real-time Memory Report at c_bands before calling an iterative solver
             0 MiB given to the printing process from OS
             0 MiB allocation reported by mallinfo(arena+hblkhd)
         50460 MiB available memory on the node where the printing process lives
------------------
     ethr =  1.56E-08,  avg # of iterations =  4.0

     negative rho (up, down):  7.925E-01 0.000E+00

     total cpu time spent up to now is      534.8 secs

     total energy              =   -4440.30560773 Ry
     estimated scf accuracy    <       0.00002104 Ry

     iteration # 35     ecut=    60.00 Ry     beta= 0.15
     Davidson diagonalization with overlap

---- Real-time Memory Report at c_bands before calling an iterative solver
             0 MiB given to the printing process from OS
             0 MiB allocation reported by mallinfo(arena+hblkhd)
         50402 MiB available memory on the node where the printing process lives
------------------
     ethr =  4.89E-09,  avg # of iterations =  2.1

     negative rho (up, down):  7.924E-01 0.000E+00

     total cpu time spent up to now is      549.7 secs

     total energy              =   -4440.30560875 Ry
     estimated scf accuracy    <       0.00001619 Ry

     iteration # 36     ecut=    60.00 Ry     beta= 0.15
     Davidson diagonalization with overlap

---- Real-time Memory Report at c_bands before calling an iterative solver
             0 MiB given to the printing process from OS
             0 MiB allocation reported by mallinfo(arena+hblkhd)
         50410 MiB available memory on the node where the printing process lives
------------------
     ethr =  3.77E-09,  avg # of iterations =  1.9

     negative rho (up, down):  7.924E-01 0.000E+00

     total cpu time spent up to now is      564.2 secs

     total energy              =   -4440.30560863 Ry
     estimated scf accuracy    <       0.00001183 Ry

     iteration # 37     ecut=    60.00 Ry     beta= 0.15
     Davidson diagonalization with overlap

---- Real-time Memory Report at c_bands before calling an iterative solver
             0 MiB given to the printing process from OS
             0 MiB allocation reported by mallinfo(arena+hblkhd)
         50410 MiB available memory on the node where the printing process lives
------------------
     ethr =  2.75E-09,  avg # of iterations =  2.0

     negative rho (up, down):  7.924E-01 0.000E+00

     total cpu time spent up to now is      578.9 secs

     total energy              =   -4440.30560794 Ry
     estimated scf accuracy    <       0.00000984 Ry

     iteration # 38     ecut=    60.00 Ry     beta= 0.15
     Davidson diagonalization with overlap

---- Real-time Memory Report at c_bands before calling an iterative solver
             0 MiB given to the printing process from OS
             0 MiB allocation reported by mallinfo(arena+hblkhd)
         50420 MiB available memory on the node where the printing process lives
------------------
     ethr =  2.29E-09,  avg # of iterations =  1.9

     negative rho (up, down):  7.924E-01 0.000E+00

     total cpu time spent up to now is      593.4 secs

     total energy              =   -4440.30560550 Ry
     estimated scf accuracy    <       0.00000800 Ry

     iteration # 39     ecut=    60.00 Ry     beta= 0.15
     Davidson diagonalization with overlap

---- Real-time Memory Report at c_bands before calling an iterative solver
             0 MiB given to the printing process from OS
             0 MiB allocation reported by mallinfo(arena+hblkhd)
         50423 MiB available memory on the node where the printing process lives
------------------
     ethr =  1.86E-09,  avg # of iterations =  2.0

     negative rho (up, down):  7.923E-01 0.000E+00

     total cpu time spent up to now is      607.6 secs

     total energy              =   -4440.30560497 Ry
     estimated scf accuracy    <       0.00000687 Ry

     iteration # 40     ecut=    60.00 Ry     beta= 0.15
     Davidson diagonalization with overlap

---- Real-time Memory Report at c_bands before calling an iterative solver
             0 MiB given to the printing process from OS
             0 MiB allocation reported by mallinfo(arena+hblkhd)
         50433 MiB available memory on the node where the printing process lives
------------------
     ethr =  1.60E-09,  avg # of iterations =  2.0

     negative rho (up, down):  7.923E-01 0.000E+00

     total cpu time spent up to now is      621.8 secs

     total energy              =   -4440.30560757 Ry
     estimated scf accuracy    <       0.00000506 Ry

     iteration # 41     ecut=    60.00 Ry     beta= 0.15
     Davidson diagonalization with overlap

---- Real-time Memory Report at c_bands before calling an iterative solver
             0 MiB given to the printing process from OS
             0 MiB allocation reported by mallinfo(arena+hblkhd)
         50443 MiB available memory on the node where the printing process lives
------------------
     ethr =  1.18E-09,  avg # of iterations =  2.0

     negative rho (up, down):  7.925E-01 0.000E+00

     total cpu time spent up to now is      635.9 secs

     total energy              =   -4440.30561091 Ry
     estimated scf accuracy    <       0.00000282 Ry

     iteration # 42     ecut=    60.00 Ry     beta= 0.15
     Davidson diagonalization with overlap

---- Real-time Memory Report at c_bands before calling an iterative solver
             0 MiB given to the printing process from OS
             0 MiB allocation reported by mallinfo(arena+hblkhd)
         50452 MiB available memory on the node where the printing process lives
------------------
     ethr =  6.55E-10,  avg # of iterations =  3.5

     negative rho (up, down):  7.926E-01 0.000E+00

     total cpu time spent up to now is      651.3 secs

     total energy              =   -4440.30561127 Ry
     estimated scf accuracy    <       0.00000116 Ry

     iteration # 43     ecut=    60.00 Ry     beta= 0.15
     Davidson diagonalization with overlap

---- Real-time Memory Report at c_bands before calling an iterative solver
             0 MiB given to the printing process from OS
             0 MiB allocation reported by mallinfo(arena+hblkhd)
         50450 MiB available memory on the node where the printing process lives
------------------
     ethr =  2.69E-10,  avg # of iterations =  3.3

     negative rho (up, down):  7.927E-01 0.000E+00

     total cpu time spent up to now is      665.9 secs

     total energy              =   -4440.30561124 Ry
     estimated scf accuracy    <       0.00000080 Ry

     iteration # 44     ecut=    60.00 Ry     beta= 0.15
     Davidson diagonalization with overlap

---- Real-time Memory Report at c_bands before calling an iterative solver
             0 MiB given to the printing process from OS
             0 MiB allocation reported by mallinfo(arena+hblkhd)
         50444 MiB available memory on the node where the printing process lives
------------------
     ethr =  1.87E-10,  avg # of iterations =  2.0

     negative rho (up, down):  7.927E-01 0.000E+00

     total cpu time spent up to now is      680.2 secs

     total energy              =   -4440.30561121 Ry
     estimated scf accuracy    <       0.00000060 Ry

     iteration # 45     ecut=    60.00 Ry     beta= 0.15
     Davidson diagonalization with overlap

---- Real-time Memory Report at c_bands before calling an iterative solver
             0 MiB given to the printing process from OS
             0 MiB allocation reported by mallinfo(arena+hblkhd)
         50450 MiB available memory on the node where the printing process lives
------------------
     ethr =  1.39E-10,  avg # of iterations =  1.6

     negative rho (up, down):  7.926E-01 0.000E+00

     total cpu time spent up to now is      694.0 secs

     total energy              =   -4440.30561124 Ry
     estimated scf accuracy    <       0.00000044 Ry

     iteration # 46     ecut=    60.00 Ry     beta= 0.15
     Davidson diagonalization with overlap

---- Real-time Memory Report at c_bands before calling an iterative solver
             0 MiB given to the printing process from OS
             0 MiB allocation reported by mallinfo(arena+hblkhd)
         50450 MiB available memory on the node where the printing process lives
------------------
     ethr =  1.03E-10,  avg # of iterations =  2.0

     negative rho (up, down):  7.926E-01 0.000E+00

     total cpu time spent up to now is      708.2 secs

     total energy              =   -4440.30561128 Ry
     estimated scf accuracy    <       0.00000032 Ry

     iteration # 47     ecut=    60.00 Ry     beta= 0.15
     Davidson diagonalization with overlap

---- Real-time Memory Report at c_bands before calling an iterative solver
             0 MiB given to the printing process from OS
             0 MiB allocation reported by mallinfo(arena+hblkhd)
         50451 MiB available memory on the node where the printing process lives
------------------
     ethr =  7.43E-11,  avg # of iterations =  1.2

     negative rho (up, down):  7.926E-01 0.000E+00

     total cpu time spent up to now is      721.3 secs

     total energy              =   -4440.30561131 Ry
     estimated scf accuracy    <       0.00000023 Ry

     iteration # 48     ecut=    60.00 Ry     beta= 0.15
     Davidson diagonalization with overlap

---- Real-time Memory Report at c_bands before calling an iterative solver
             0 MiB given to the printing process from OS
             0 MiB allocation reported by mallinfo(arena+hblkhd)
         50457 MiB available memory on the node where the printing process lives
------------------
     ethr =  5.38E-11,  avg # of iterations =  2.0

     negative rho (up, down):  7.926E-01 0.000E+00

     total cpu time spent up to now is      735.8 secs

     total energy              =   -4440.30561136 Ry
     estimated scf accuracy    <       0.00000014 Ry

     iteration # 49     ecut=    60.00 Ry     beta= 0.15
     Davidson diagonalization with overlap

---- Real-time Memory Report at c_bands before calling an iterative solver
             0 MiB given to the printing process from OS
             0 MiB allocation reported by mallinfo(arena+hblkhd)
         50456 MiB available memory on the node where the printing process lives
------------------
     ethr =  3.31E-11,  avg # of iterations =  3.0

     negative rho (up, down):  7.926E-01 0.000E+00

     total cpu time spent up to now is      751.4 secs

     total energy              =   -4440.30561138 Ry
     estimated scf accuracy    <       0.00000002 Ry

     iteration # 50     ecut=    60.00 Ry     beta= 0.15
     Davidson diagonalization with overlap

---- Real-time Memory Report at c_bands before calling an iterative solver
             0 MiB given to the printing process from OS
             0 MiB allocation reported by mallinfo(arena+hblkhd)
         50452 MiB available memory on the node where the printing process lives
------------------
     ethr =  4.11E-12,  avg # of iterations =  3.0

     negative rho (up, down):  7.926E-01 0.000E+00

     total cpu time spent up to now is      766.7 secs

     End of self-consistent calculation

          k = 0.0000 0.0000 0.0000 ( 65197 PWs)   bands (ev):

   -92.8843 -92.8344 -92.7389 -92.6924 -92.6347 -92.5915 -92.5733 -92.4524
   -56.2379 -56.2210 -56.0956 -56.0848 -56.0787 -56.0716 -56.0370 -56.0076
   -55.9921 -55.9915 -55.9853 -55.9416 -55.9234 -55.8858 -55.8658 -55.8336
   -55.8278 -55.7790 -55.7787 -55.7761 -55.7677 -55.7273 -55.7034 -55.6179
   -31.4483 -31.4277 -31.2882 -31.2868 -31.1986 -31.1711 -30.9711 -30.6364
   -30.0302 -29.9853 -29.9604 -29.8511 -15.2604 -15.2089 -15.1345 -15.0039
   -14.8038 -14.6798 -14.3971 -14.3748 -14.3475 -14.3026 -14.2497 -14.2375
   -14.2323 -14.2094 -14.1915 -14.1623 -14.1108 -13.9568 -13.7697 -13.7437
   -13.7147 -13.6765 -13.6618 -13.6033 -13.5702 -13.4904 -13.4226 -13.3062
   -13.2831 -13.2804 -13.2570 -13.2460 -13.2277 -13.1778 -13.1739 -13.1524
   -13.1268 -13.0947 -13.0920 -13.0738 -13.0672 -13.0380 -12.9414 -12.9174
   -12.8899 -12.6730 -12.6567 -12.5769 -12.5139 -12.3678 -12.1294 -12.0549
   -12.0419 -11.9802 -11.9688 -11.9577 -11.9325 -11.9154 -11.8527 -11.8355
   -11.8008 -11.7728 -11.6583 -11.5804 -11.5767  -3.1210  -2.8898  -2.6601
    -2.5119  -2.4503  -2.3088  -2.0004  -1.9858  -1.9680  -1.8802  -1.8616
    -1.7935  -1.7761  -1.7360  -1.6939  -1.5105  -1.2848  -1.2534  -1.1116
    -1.0967  -1.0477  -1.0294  -0.9830  -0.9661  -0.9146  -0.8873  -0.8094
    -0.7993  -0.7277  -0.5921  -0.5790  -0.5512  -0.4719  -0.4389  -0.4095
    -0.3732  -0.3066  -0.2475  -0.2072  -0.1796  -0.1020  -0.0466   0.0014
     0.0241   0.0410   0.2986   0.3128   0.4858   0.5501   0.6167   0.6699
     0.7488   0.7608   0.7766   0.8458   0.8731   0.9058   0.9641   1.0928
     1.1545   1.1758   1.2015   1.2149   1.2717   1.3393   1.4565   1.4703
     1.5346   1.5396   1.5862   1.6017   1.6146   1.6700   1.7351   1.7379
     1.7810   1.8118   1.8494   1.9826   2.0737   2.1101   2.1260   2.2766
     2.2901   2.3301   2.3416   2.4410   2.4781   2.5045   2.5236   2.5400
     2.5686   2.6188   2.6320   2.6503   2.7310   2.7621   2.7716   2.7766
     2.8444   2.8511   2.8716   2.8796   2.8894   2.9005   2.9093   2.9241
     2.9301   2.9398   2.9488   2.9599   2.9760   2.9970   3.0016   3.0143
     3.0451   3.1552   3.2496   3.9370   4.2554   4.6078   4.8273   4.8731
     5.7742   5.8123   5.8300   5.8418   6.1326   6.1795   6.4332   6.4427
     6.9380   6.9837   7.0742   7.1579   7.3907   7.5341   7.5524   7.5737
     7.6432   7.8294   7.8833   7.9468   8.0310   8.1396   8.3019   8.6671
     8.7511   8.9303

     occupation numbers 
     1.0000   1.0000   1.0000   1.0000   1.0000   1.0000   1.0000   1.0000
     1.0000   1.0000   1.0000   1.0000   1.0000   1.0000   1.0000   1.0000
     1.0000   1.0000   1.0000   1.0000   1.0000   1.0000   1.0000   1.0000
     1.0000   1.0000   1.0000   1.0000   1.0000   1.0000   1.0000   1.0000
     1.0000   1.0000   1.0000   1.0000   1.0000   1.0000   1.0000   1.0000
     1.0000   1.0000   1.0000   1.0000   1.0000   1.0000   1.0000   1.0000
     1.0000   1.0000   1.0000   1.0000   1.0000   1.0000   1.0000   1.0000
     1.0000   1.0000   1.0000   1.0000   1.0000   1.0000   1.0000   1.0000
     1.0000   1.0000   1.0000   1.0000   1.0000   1.0000   1.0000   1.0000
     1.0000   1.0000   1.0000   1.0000   1.0000   1.0000   1.0000   1.0000
     1.0000   1.0000   1.0000   1.0000   1.0000   1.0000   1.0000   1.0000
     1.0000   1.0000   1.0000   1.0000   1.0000   1.0000   1.0000   1.0000
     1.0000   1.0000   1.0000   1.0000   1.0000   1.0000   1.0000   1.0000
     1.0000   1.0000   1.0000   1.0000   1.0000   1.0000   1.0000   1.0000
     1.0000   1.0000   1.0000   1.0000   1.0000   1.0000   1.0000   1.0000
     1.0000   1.0000   1.0000   1.0000   1.0000   1.0000   1.0000   1.0000
     1.0000   1.0000   1.0000   1.0000   1.0000   1.0000   1.0000   1.0000
     1.0000   1.0000   1.0000   1.0000   1.0000   1.0000   1.0000   1.0000
     1.0000   1.0000   1.0000   1.0000   1.0000   1.0000   1.0000   1.0000
     1.0000   1.0000   1.0000   1.0000   1.0000   0.9999   0.9999   0.9999
     0.9998   0.9998   0.9998   0.9997   0.9996   0.9996   0.9994   0.9988
     0.9984   0.9983   0.9980   0.9979   0.9973   0.9963   0.9939   0.9935
     0.9916   0.9914   0.9897   0.9890   0.9884   0.9857   0.9818   0.9816
     0.9785   0.9761   0.9727   0.9577   0.9440   0.9377   0.9347   0.9012
     0.8977   0.8867   0.8834   0.8518   0.8387   0.8290   0.8217   0.8152
     0.8037   0.7824   0.7766   0.7684   0.7303   0.7148   0.7100   0.7075
     0.6719   0.6684   0.6572   0.6529   0.6475   0.6413   0.6364   0.6282
     0.6248   0.6193   0.6142   0.6079   0.5987   0.5866   0.5839   0.5765
     0.5586   0.4936   0.4379   0.1196   0.0495   0.0149   0.0062   0.0051
     0.0000   0.0000   0.0000   0.0000   0.0000   0.0000   0.0000   0.0000
     0.0000   0.0000   0.0000   0.0000   0.0000   0.0000   0.0000   0.0000
     0.0000   0.0000   0.0000   0.0000   0.0000   0.0000   0.0000   0.0000
     0.0000   0.0000

          k = 0.0000 0.2500 0.0000 ( 65257 PWs)   bands (ev):

   -92.8843 -92.8344 -92.7389 -92.6924 -92.6347 -92.5915 -92.5733 -92.4524
   -56.2379 -56.2210 -56.0956 -56.0848 -56.0787 -56.0716 -56.0370 -56.0076
   -55.9921 -55.9915 -55.9853 -55.9416 -55.9234 -55.8858 -55.8658 -55.8336
   -55.8278 -55.7790 -55.7787 -55.7761 -55.7677 -55.7273 -55.7034 -55.6179
   -31.4481 -31.4276 -31.2880 -31.2870 -31.1988 -31.1713 -30.9710 -30.6365
   -30.0296 -29.9850 -29.9610 -29.8514 -15.2242 -15.1822 -15.1091 -14.9746
   -14.8466 -14.6715 -14.5421 -14.3629 -14.3234 -14.3052 -14.2781 -14.2162
   -14.2110 -14.1932 -14.1738 -14.1248 -14.0284 -13.9874 -13.8231 -13.7955
   -13.7553 -13.7172 -13.6628 -13.6269 -13.5712 -13.5166 -13.4768 -13.4158
   -13.3493 -13.3179 -13.2808 -13.2718 -13.2365 -13.1623 -13.1380 -13.1085
   -13.0936 -13.0730 -13.0384 -13.0176 -12.9997 -12.9702 -12.9192 -12.8758
   -12.8434 -12.6193 -12.5863 -12.5753 -12.5582 -12.4190 -12.1804 -12.1130
   -12.0073 -11.9804 -11.9656 -11.9367 -11.9085 -11.8917 -11.8444 -11.8335
   -11.8110 -11.7771 -11.6727 -11.6218 -11.6114  -2.9855  -2.7655  -2.6271
    -2.4451  -2.4016  -2.2389  -2.0166  -1.9355  -1.9223  -1.8607  -1.7595
    -1.7443  -1.7117  -1.6826  -1.6391  -1.4417  -1.3121  -1.3007  -1.2240
    -1.2144  -1.1113  -1.0822  -1.0219  -0.9961  -0.9582  -0.8923  -0.8647
    -0.8335  -0.8005  -0.7835  -0.7515  -0.6765  -0.6276  -0.5515  -0.4389
    -0.4149  -0.3755  -0.2653  -0.2153  -0.1649  -0.1178  -0.0588  -0.0439
    -0.0180   0.0475   0.3470   0.4325   0.4688   0.5539   0.6006   0.6279
     0.7308   0.7504   0.8473   0.8743   0.8980   1.0111   1.1122   1.1298
     1.1567   1.1752   1.1961   1.2563   1.2833   1.3128   1.3579   1.3979
     1.4290   1.5213   1.5580   1.5859   1.6364   1.6953   1.7395   1.7654
     1.7839   1.7992   1.9015   2.0222   2.0955   2.1091   2.1801   2.2287
     2.2725   2.2813   2.3366   2.3738   2.4575   2.5022   2.5178   2.5671
     2.6239   2.6542   2.6852   2.7076   2.7419   2.7637   2.7781   2.7863
     2.7942   2.8031   2.8332   2.8346   2.8524   2.8605   2.8662   2.8857
     2.9003   2.9056   2.9264   2.9385   2.9435   2.9794   2.9944   3.0542
     3.4358   3.4692   3.6995   4.1288   4.2519   4.5507   4.8872   4.9890
     5.5157   5.6432   5.8096   5.9126   5.9566   6.0035   6.0634   6.5467
     7.0010   7.0272   7.2013   7.2412   7.3443   7.4045   7.5441   7.6312
     7.7909   7.9316   8.0635   8.1383   8.2779   8.2923   8.3179   8.3627
     8.6819   8.8237

     occupation numbers 
     1.0000   1.0000   1.0000   1.0000   1.0000   1.0000   1.0000   1.0000
     1.0000   1.0000   1.0000   1.0000   1.0000   1.0000   1.0000   1.0000
     1.0000   1.0000   1.0000   1.0000   1.0000   1.0000   1.0000   1.0000
     1.0000   1.0000   1.0000   1.0000   1.0000   1.0000   1.0000   1.0000
     1.0000   1.0000   1.0000   1.0000   1.0000   1.0000   1.0000   1.0000
     1.0000   1.0000   1.0000   1.0000   1.0000   1.0000   1.0000   1.0000
     1.0000   1.0000   1.0000   1.0000   1.0000   1.0000   1.0000   1.0000
     1.0000   1.0000   1.0000   1.0000   1.0000   1.0000   1.0000   1.0000
     1.0000   1.0000   1.0000   1.0000   1.0000   1.0000   1.0000   1.0000
     1.0000   1.0000   1.0000   1.0000   1.0000   1.0000   1.0000   1.0000
     1.0000   1.0000   1.0000   1.0000   1.0000   1.0000   1.0000   1.0000
     1.0000   1.0000   1.0000   1.0000   1.0000   1.0000   1.0000   1.0000
     1.0000   1.0000   1.0000   1.0000   1.0000   1.0000   1.0000   1.0000
     1.0000   1.0000   1.0000   1.0000   1.0000   1.0000   1.0000   1.0000
     1.0000   1.0000   1.0000   1.0000   1.0000   1.0000   1.0000   1.0000
     1.0000   1.0000   1.0000   1.0000   1.0000   1.0000   1.0000   1.0000
     1.0000   1.0000   1.0000   1.0000   1.0000   1.0000   1.0000   1.0000
     1.0000   1.0000   1.0000   1.0000   1.0000   1.0000   1.0000   1.0000
     1.0000   1.0000   1.0000   1.0000   1.0000   1.0000   1.0000   1.0000
     1.0000   1.0000   1.0000   1.0000   1.0000   0.9999   0.9999   0.9999
     0.9998   0.9998   0.9997   0.9996   0.9996   0.9992   0.9987   0.9986
     0.9984   0.9983   0.9981   0.9975   0.9971   0.9967   0.9960   0.9952
     0.9946   0.9920   0.9907   0.9897   0.9874   0.9843   0.9815   0.9797
     0.9783   0.9771   0.9675   0.9522   0.9403   0.9379   0.9239   0.9130
     0.9023   0.9000   0.8848   0.8737   0.8461   0.8298   0.8239   0.8043
     0.7802   0.7666   0.7523   0.7416   0.7249   0.7140   0.7067   0.7025
     0.6984   0.6938   0.6779   0.6772   0.6677   0.6633   0.6602   0.6495
     0.6414   0.6385   0.6269   0.6200   0.6172   0.5967   0.5881   0.5532
     0.3326   0.3147   0.2049   0.0719   0.0500   0.0184   0.0048   0.0031
     0.0002   0.0001   0.0000   0.0000   0.0000   0.0000   0.0000   0.0000
     0.0000   0.0000   0.0000   0.0000   0.0000   0.0000   0.0000   0.0000
     0.0000   0.0000   0.0000   0.0000   0.0000   0.0000   0.0000   0.0000
     0.0000   0.0000

          k = 0.0000-0.5000 0.0000 ( 65180 PWs)   bands (ev):

   -92.8843 -92.8344 -92.7389 -92.6924 -92.6347 -92.5915 -92.5733 -92.4524
   -56.2379 -56.2210 -56.0956 -56.0848 -56.0787 -56.0716 -56.0370 -56.0076
   -55.9921 -55.9915 -55.9853 -55.9415 -55.9234 -55.8858 -55.8658 -55.8336
   -55.8278 -55.7790 -55.7787 -55.7761 -55.7677 -55.7273 -55.7034 -55.6179
   -31.4479 -31.4275 -31.2877 -31.2872 -31.1989 -31.1716 -30.9709 -30.6366
   -30.0290 -29.9847 -29.9617 -29.8518 -15.1859 -15.1381 -15.0805 -14.9543
   -14.8718 -14.7373 -14.5723 -14.4572 -14.3357 -14.2626 -14.2189 -14.2125
   -14.1597 -14.1471 -14.0983 -14.0699 -14.0515 -14.0175 -13.9708 -13.9313
   -13.7614 -13.7021 -13.6643 -13.6340 -13.5602 -13.5344 -13.4873 -13.4522
   -13.4433 -13.3869 -13.2824 -13.2728 -13.2176 -13.1642 -13.1361 -13.1150
   -13.0984 -13.0536 -13.0061 -12.9887 -12.9227 -12.8773 -12.8414 -12.8237
   -12.8129 -12.6859 -12.5807 -12.5226 -12.4939 -12.4273 -12.2625 -12.2062
   -11.9821 -11.9625 -11.9577 -11.9314 -11.8948 -11.8603 -11.8491 -11.8069
   -11.8030 -11.7583 -11.6949 -11.6817 -11.6683  -2.7700  -2.7127  -2.5617
    -2.4909  -2.2057  -2.1244  -1.9961  -1.8616  -1.8183  -1.8027  -1.7259
    -1.6943  -1.6105  -1.5763  -1.4956  -1.4584  -1.4213  -1.3940  -1.3293
    -1.2981  -1.2489  -1.2149  -1.1816  -1.1485  -1.0382  -0.9946  -0.9562
    -0.9527  -0.8672  -0.8380  -0.8153  -0.7664  -0.6771  -0.6031  -0.5103
    -0.4771  -0.3687  -0.3466  -0.2097  -0.1530  -0.1358  -0.0892   0.0366
     0.1122   0.2117   0.2822   0.2933   0.4185   0.4891   0.5714   0.7048
     0.8023   0.8361   0.8771   0.8931   0.9221   0.9377   0.9712   0.9881
     1.0022   1.1134   1.1732   1.2041   1.2283   1.5034   1.5273   1.5509
     1.6402   1.6620   1.6977   1.7208   1.7345   1.7625   1.7718   1.7912
     1.8260   1.8548   1.8877   1.8895   1.9201   1.9739   2.0673   2.1047
     2.2655   2.4217   2.4298   2.4505   2.4849   2.4961   2.5007   2.5499
     2.5632   2.5747   2.6162   2.6267   2.6400   2.6583   2.7196   2.7349
     2.8041   2.8066   2.8299   2.8341   2.8489   2.8528   2.8571   2.8638
     2.8687   2.8830   2.8967   2.9003   2.9640   2.9673   2.9842   3.0410
     3.9482   3.9711   4.0329   4.0943   4.5572   4.7418   4.9024   5.0092
     5.2833   5.3644   5.4889   5.5907   5.8607   5.8733   6.3267   6.5431
     6.7865   6.8966   7.1376   7.3102   7.5679   7.6390   7.7045   7.7740
     7.8106   7.9517   8.0426   8.2043   8.2608   8.3431   8.5174   8.5361
     8.6873   8.7493

     occupation numbers 
     1.0000   1.0000   1.0000   1.0000   1.0000   1.0000   1.0000   1.0000
     1.0000   1.0000   1.0000   1.0000   1.0000   1.0000   1.0000   1.0000
     1.0000   1.0000   1.0000   1.0000   1.0000   1.0000   1.0000   1.0000
     1.0000   1.0000   1.0000   1.0000   1.0000   1.0000   1.0000   1.0000
     1.0000   1.0000   1.0000   1.0000   1.0000   1.0000   1.0000   1.0000
     1.0000   1.0000   1.0000   1.0000   1.0000   1.0000   1.0000   1.0000
     1.0000   1.0000   1.0000   1.0000   1.0000   1.0000   1.0000   1.0000
     1.0000   1.0000   1.0000   1.0000   1.0000   1.0000   1.0000   1.0000
     1.0000   1.0000   1.0000   1.0000   1.0000   1.0000   1.0000   1.0000
     1.0000   1.0000   1.0000   1.0000   1.0000   1.0000   1.0000   1.0000
     1.0000   1.0000   1.0000   1.0000   1.0000   1.0000   1.0000   1.0000
     1.0000   1.0000   1.0000   1.0000   1.0000   1.0000   1.0000   1.0000
     1.0000   1.0000   1.0000   1.0000   1.0000   1.0000   1.0000   1.0000
     1.0000   1.0000   1.0000   1.0000   1.0000   1.0000   1.0000   1.0000
     1.0000   1.0000   1.0000   1.0000   1.0000   1.0000   1.0000   1.0000
     1.0000   1.0000   1.0000   1.0000   1.0000   1.0000   1.0000   1.0000
     1.0000   1.0000   1.0000   1.0000   1.0000   1.0000   1.0000   1.0000
     1.0000   1.0000   1.0000   1.0000   1.0000   1.0000   1.0000   1.0000
     1.0000   1.0000   1.0000   1.0000   1.0000   1.0000   1.0000   1.0000
     1.0000   1.0000   1.0000   1.0000   1.0000   1.0000   0.9999   0.9999
     0.9997   0.9997   0.9996   0.9996   0.9995   0.9995   0.9994   0.9993
     0.9993   0.9987   0.9983   0.9980   0.9978   0.9926   0.9918   0.9910
     0.9872   0.9861   0.9841   0.9827   0.9818   0.9799   0.9792   0.9777
     0.9749   0.9722   0.9690   0.9688   0.9655   0.9589   0.9451   0.9387
     0.9040   0.8584   0.8556   0.8486   0.8363   0.8321   0.8304   0.8113
     0.8059   0.8012   0.7835   0.7789   0.7730   0.7648   0.7359   0.7284
     0.6933   0.6920   0.6797   0.6774   0.6695   0.6675   0.6651   0.6615
     0.6588   0.6510   0.6435   0.6414   0.6056   0.6036   0.5940   0.5610
     0.1163   0.1098   0.0935   0.0792   0.0180   0.0088   0.0045   0.0028
     0.0007   0.0005   0.0002   0.0001   0.0000   0.0000   0.0000   0.0000
     0.0000   0.0000   0.0000   0.0000   0.0000   0.0000   0.0000   0.0000
     0.0000   0.0000   0.0000   0.0000   0.0000   0.0000   0.0000   0.0000
     0.0000   0.0000

          k = 0.2500 0.2500 0.0000 ( 65198 PWs)   bands (ev):

   -92.8843 -92.8344 -92.7389 -92.6924 -92.6347 -92.5915 -92.5733 -92.4524
   -56.2379 -56.2210 -56.0956 -56.0848 -56.0787 -56.0716 -56.0370 -56.0076
   -55.9921 -55.9915 -55.9853 -55.9416 -55.9234 -55.8858 -55.8658 -55.8336
   -55.8278 -55.7790 -55.7787 -55.7761 -55.7677 -55.7273 -55.7034 -55.6179
   -31.4465 -31.4292 -31.2879 -31.2866 -31.1992 -31.1713 -30.9711 -30.6366
   -30.0287 -29.9859 -29.9606 -29.8518 -15.1949 -15.1473 -15.0809 -14.9644
   -14.8401 -14.7127 -14.6488 -14.4386 -14.2858 -14.2710 -14.2359 -14.2057
   -14.1825 -14.1461 -14.1212 -14.0885 -14.0187 -14.0013 -13.8395 -13.8252
   -13.7954 -13.7763 -13.7051 -13.6855 -13.6005 -13.5964 -13.4684 -13.4271
   -13.3989 -13.3136 -13.2734 -13.2353 -13.2124 -13.1886 -13.1540 -13.1178
   -13.1067 -13.0879 -13.0327 -12.9790 -12.9198 -12.9137 -12.8854 -12.8724
   -12.7930 -12.6244 -12.6199 -12.5777 -12.4685 -12.4480 -12.1985 -12.1613
   -11.9835 -11.9772 -11.9484 -11.9369 -11.9309 -11.8674 -11.8326 -11.8262
   -11.7908 -11.7839 -11.6895 -11.6499 -11.6328  -2.8470  -2.6396  -2.5209
    -2.4258  -2.3063  -2.2421  -2.0412  -1.8995  -1.8815  -1.8481  -1.7542
    -1.7225  -1.6272  -1.5976  -1.5483  -1.4185  -1.3686  -1.2956  -1.2520
    -1.2059  -1.1844  -1.1610  -1.1176  -1.1028  -1.0118  -0.9614  -0.8914
    -0.8434  -0.8135  -0.7678  -0.7514  -0.6870  -0.6384  -0.5734  -0.5443
    -0.4533  -0.4050  -0.3745  -0.3401  -0.2848  -0.1922  -0.1718  -0.1417
    -0.0621  -0.0330   0.2330   0.3864   0.4156   0.4808   0.5234   0.5830
     0.6264   0.6958   0.7315   1.0018   1.0638   1.1373   1.1606   1.2157
     1.2402   1.2781   1.3157   1.3317   1.3588   1.4093   1.4144   1.4305
     1.4755   1.5118   1.5514   1.6259   1.6554   1.6677   1.7005   1.7357
     1.7878   1.8137   1.9381   2.0034   2.0374   2.0544   2.1262   2.1897
     2.2172   2.2519   2.2831   2.2937   2.4015   2.4414   2.5313   2.5621
     2.6191   2.6513   2.6979   2.7131   2.7183   2.7385   2.7529   2.7652
     2.7765   2.7827   2.7942   2.8089   2.8216   2.8372   2.8435   2.8557
     2.8793   2.8890   2.8988   2.9296   3.2291   3.3225   3.3722   3.4431
     3.4725   3.6842   3.7732   4.1376   4.3402   4.5543   4.8116   5.1286
     5.5026   5.5621   5.6074   5.6590   5.7213   6.0868   6.1272   6.1577
     6.8355   7.0371   7.2520   7.3866   7.4535   7.4801   7.5913   7.7586
     7.8396   8.0785   8.1236   8.2075   8.3246   8.3869   8.4374   8.4672
     8.5377   8.7509

     occupation numbers 
     1.0000   1.0000   1.0000   1.0000   1.0000   1.0000   1.0000   1.0000
     1.0000   1.0000   1.0000   1.0000   1.0000   1.0000   1.0000   1.0000
     1.0000   1.0000   1.0000   1.0000   1.0000   1.0000   1.0000   1.0000
     1.0000   1.0000   1.0000   1.0000   1.0000   1.0000   1.0000   1.0000
     1.0000   1.0000   1.0000   1.0000   1.0000   1.0000   1.0000   1.0000
     1.0000   1.0000   1.0000   1.0000   1.0000   1.0000   1.0000   1.0000
     1.0000   1.0000   1.0000   1.0000   1.0000   1.0000   1.0000   1.0000
     1.0000   1.0000   1.0000   1.0000   1.0000   1.0000   1.0000   1.0000
     1.0000   1.0000   1.0000   1.0000   1.0000   1.0000   1.0000   1.0000
     1.0000   1.0000   1.0000   1.0000   1.0000   1.0000   1.0000   1.0000
     1.0000   1.0000   1.0000   1.0000   1.0000   1.0000   1.0000   1.0000
     1.0000   1.0000   1.0000   1.0000   1.0000   1.0000   1.0000   1.0000
     1.0000   1.0000   1.0000   1.0000   1.0000   1.0000   1.0000   1.0000
     1.0000   1.0000   1.0000   1.0000   1.0000   1.0000   1.0000   1.0000
     1.0000   1.0000   1.0000   1.0000   1.0000   1.0000   1.0000   1.0000
     1.0000   1.0000   1.0000   1.0000   1.0000   1.0000   1.0000   1.0000
     1.0000   1.0000   1.0000   1.0000   1.0000   1.0000   1.0000   1.0000
     1.0000   1.0000   1.0000   1.0000   1.0000   1.0000   1.0000   1.0000
     1.0000   1.0000   1.0000   1.0000   1.0000   1.0000   1.0000   1.0000
     1.0000   1.0000   1.0000   1.0000   1.0000   1.0000   1.0000   0.9999
     0.9999   0.9999   0.9998   0.9993   0.9990   0.9986   0.9984   0.9979
     0.9977   0.9972   0.9967   0.9964   0.9960   0.9950   0.9949   0.9945
     0.9934   0.9923   0.9910   0.9879   0.9865   0.9858   0.9840   0.9818
     0.9780   0.9759   0.9634   0.9549   0.9499   0.9472   0.9347   0.9218
     0.9157   0.9074   0.8995   0.8967   0.8650   0.8517   0.8187   0.8063
     0.7823   0.7679   0.7463   0.7390   0.7365   0.7266   0.7195   0.7132
     0.7075   0.7043   0.6984   0.6908   0.6841   0.6758   0.6724   0.6659
     0.6531   0.6477   0.6423   0.6251   0.4499   0.3956   0.3675   0.3286
     0.3130   0.2114   0.1752   0.0701   0.0379   0.0181   0.0066   0.0016
     0.0002   0.0002   0.0001   0.0001   0.0001   0.0000   0.0000   0.0000
     0.0000   0.0000   0.0000   0.0000   0.0000   0.0000   0.0000   0.0000
     0.0000   0.0000   0.0000   0.0000   0.0000   0.0000   0.0000   0.0000
     0.0000   0.0000

          k = 0.2500-0.5000 0.0000 ( 65138 PWs)   bands (ev):

   -92.8843 -92.8344 -92.7389 -92.6924 -92.6347 -92.5915 -92.5733 -92.4524
   -56.2379 -56.2210 -56.0956 -56.0848 -56.0787 -56.0716 -56.0370 -56.0076
   -55.9921 -55.9915 -55.9853 -55.9415 -55.9234 -55.8858 -55.8658 -55.8336
   -55.8278 -55.7790 -55.7787 -55.7761 -55.7677 -55.7273 -55.7034 -55.6179
   -31.4463 -31.4290 -31.2876 -31.2868 -31.1993 -31.1715 -30.9710 -30.6367
   -30.0281 -29.9856 -29.9613 -29.8522 -15.1547 -15.1111 -15.0370 -14.9261
   -14.8939 -14.7778 -14.6792 -14.5540 -14.2514 -14.1952 -14.1707 -14.1446
   -14.1315 -14.1192 -14.0820 -14.0582 -14.0330 -13.9950 -13.9675 -13.9196
   -13.8423 -13.7938 -13.7216 -13.7140 -13.6415 -13.6030 -13.5263 -13.4928
   -13.3775 -13.3125 -13.2947 -13.2162 -13.1908 -13.1631 -13.1503 -13.1216
   -13.1081 -13.0820 -13.0002 -12.9780 -12.9130 -12.8697 -12.8466 -12.8273
   -12.7960 -12.6925 -12.5841 -12.4959 -12.4904 -12.3990 -12.2536 -12.2098
   -11.9816 -11.9558 -11.9428 -11.9325 -11.9056 -11.8742 -11.8454 -11.8045
   -11.7760 -11.7548 -11.7079 -11.6834 -11.6724  -2.6274  -2.5643  -2.4352
    -2.3594  -2.2261  -2.1441  -2.0204  -1.8722  -1.8151  -1.7940  -1.7332
    -1.7207  -1.6214  -1.5559  -1.4714  -1.4185  -1.4091  -1.3487  -1.3021
    -1.2715  -1.2233  -1.1857  -1.1508  -1.1122  -1.0981  -1.0550  -1.0248
    -0.9815  -0.9507  -0.8840  -0.7797  -0.7423  -0.6611  -0.5941  -0.5387
    -0.5023  -0.4854  -0.4185  -0.2675  -0.2543  -0.1434  -0.1223  -0.1152
    -0.0707  -0.0276   0.0024   0.0381   0.0984   0.3891   0.4964   0.5396
     0.5920   0.8735   0.8843   0.9733   1.0014   1.1606   1.1993   1.2366
     1.2594   1.2717   1.2940   1.3588   1.4102   1.4428   1.5162   1.6298
     1.6578   1.6745   1.6806   1.7219   1.7298   1.7507   1.7895   1.7946
     1.8178   1.8465   1.8616   1.8817   1.9178   1.9739   2.0210   2.0999
     2.2307   2.3739   2.3911   2.4096   2.4401   2.4593   2.4889   2.5099
     2.5243   2.5444   2.5715   2.6186   2.6455   2.6560   2.7008   2.7155
     2.7230   2.7338   2.7526   2.7658   2.7869   2.7959   2.8332   2.8395
     2.8541   2.8602   2.8694   2.8791   3.3983   3.4292   3.5611   3.6194
     3.9535   4.0116   4.0341   4.1480   4.5767   4.7614   4.9217   4.9707
     5.1328   5.3068   5.5056   5.5350   5.6264   5.6724   6.3361   6.4167
     6.4499   6.6293   7.3732   7.5832   7.6605   7.7126   7.7512   7.7831
     7.9070   7.9849   8.1512   8.3251   8.3949   8.4161   8.5501   8.5866
     8.6358   8.6929

     occupation numbers 
     1.0000   1.0000   1.0000   1.0000   1.0000   1.0000   1.0000   1.0000
     1.0000   1.0000   1.0000   1.0000   1.0000   1.0000   1.0000   1.0000
     1.0000   1.0000   1.0000   1.0000   1.0000   1.0000   1.0000   1.0000
     1.0000   1.0000   1.0000   1.0000   1.0000   1.0000   1.0000   1.0000
     1.0000   1.0000   1.0000   1.0000   1.0000   1.0000   1.0000   1.0000
     1.0000   1.0000   1.0000   1.0000   1.0000   1.0000   1.0000   1.0000
     1.0000   1.0000   1.0000   1.0000   1.0000   1.0000   1.0000   1.0000
     1.0000   1.0000   1.0000   1.0000   1.0000   1.0000   1.0000   1.0000
     1.0000   1.0000   1.0000   1.0000   1.0000   1.0000   1.0000   1.0000
     1.0000   1.0000   1.0000   1.0000   1.0000   1.0000   1.0000   1.0000
     1.0000   1.0000   1.0000   1.0000   1.0000   1.0000   1.0000   1.0000
     1.0000   1.0000   1.0000   1.0000   1.0000   1.0000   1.0000   1.0000
     1.0000   1.0000   1.0000   1.0000   1.0000   1.0000   1.0000   1.0000
     1.0000   1.0000   1.0000   1.0000   1.0000   1.0000   1.0000   1.0000
     1.0000   1.0000   1.0000   1.0000   1.0000   1.0000   1.0000   1.0000
     1.0000   1.0000   1.0000   1.0000   1.0000   1.0000   1.0000   1.0000
     1.0000   1.0000   1.0000   1.0000   1.0000   1.0000   1.0000   1.0000
     1.0000   1.0000   1.0000   1.0000   1.0000   1.0000   1.0000   1.0000
     1.0000   1.0000   1.0000   1.0000   1.0000   1.0000   1.0000   1.0000
     1.0000   1.0000   1.0000   1.0000   1.0000   1.0000   1.0000   0.9999
     0.9999   0.9996   0.9996   0.9994   0.9993   0.9984   0.9981   0.9977
     0.9974   0.9973   0.9970   0.9960   0.9950   0.9942   0.9922   0.9877
     0.9864   0.9855   0.9851   0.9827   0.9822   0.9807   0.9779   0.9775
     0.9756   0.9730   0.9716   0.9696   0.9657   0.9589   0.9523   0.9395
     0.9126   0.8737   0.8683   0.8623   0.8522   0.8455   0.8348   0.8269
     0.8214   0.8135   0.8025   0.7825   0.7706   0.7658   0.7449   0.7379
     0.7342   0.7289   0.7196   0.7130   0.7022   0.6976   0.6779   0.6746
     0.6667   0.6635   0.6584   0.6532   0.3530   0.3362   0.2680   0.2402
     0.1148   0.0989   0.0932   0.0681   0.0167   0.0082   0.0042   0.0033
     0.0016   0.0007   0.0002   0.0002   0.0001   0.0001   0.0000   0.0000
     0.0000   0.0000   0.0000   0.0000   0.0000   0.0000   0.0000   0.0000
     0.0000   0.0000   0.0000   0.0000   0.0000   0.0000   0.0000   0.0000
     0.0000   0.0000

          k =-0.5000-0.5000 0.0000 ( 65132 PWs)   bands (ev):

   -92.8843 -92.8344 -92.7389 -92.6924 -92.6347 -92.5915 -92.5733 -92.4524
   -56.2379 -56.2210 -56.0955 -56.0848 -56.0787 -56.0716 -56.0370 -56.0076
   -55.9921 -55.9915 -55.9853 -55.9415 -55.9234 -55.8858 -55.8658 -55.8336
   -55.8278 -55.7790 -55.7787 -55.7761 -55.7677 -55.7273 -55.7034 -55.6179
   -31.4444 -31.4310 -31.2876 -31.2864 -31.1997 -31.1715 -30.9711 -30.6367
   -30.0271 -29.9866 -29.9609 -29.8526 -15.1064 -15.0838 -14.9668 -14.9496
   -14.8571 -14.8230 -14.7877 -14.6531 -14.1615 -14.1471 -14.1146 -14.0981
   -14.0780 -14.0555 -14.0382 -14.0251 -14.0099 -14.0018 -13.9874 -13.9099
   -13.9005 -13.8736 -13.8373 -13.7975 -13.7277 -13.6600 -13.5612 -13.5358
   -13.3274 -13.2931 -13.2214 -13.1970 -13.1846 -13.1634 -13.1547 -13.1450
   -13.1280 -13.0975 -12.9873 -12.9491 -12.9162 -12.9074 -12.8760 -12.7773
   -12.7696 -12.7085 -12.5882 -12.4883 -12.4694 -12.3717 -12.2455 -12.2133
   -11.9813 -11.9518 -11.9403 -11.9225 -11.9051 -11.8706 -11.8516 -11.8178
   -11.7552 -11.7374 -11.7308 -11.6815 -11.6782  -2.4014  -2.3273  -2.3200
    -2.2477  -2.2087  -2.1305  -2.0621  -1.9367  -1.8225  -1.7924  -1.7496
    -1.6955  -1.6243  -1.6083  -1.5387  -1.4967  -1.3787  -1.3453  -1.3005
    -1.2739  -1.2092  -1.1596  -1.1422  -1.1286  -1.0738  -1.0337  -1.0140
    -0.9035  -0.8452  -0.7969  -0.7494  -0.7210  -0.7055  -0.6725  -0.6300
    -0.5908  -0.5842  -0.4994  -0.4296  -0.3905  -0.3572  -0.2893  -0.2201
    -0.2148  -0.1499  -0.1242  -0.1180  -0.1041   0.3613   0.4317   0.4855
     0.5069   0.8973   0.9116   0.9434   0.9801   1.2491   1.2664   1.2745
     1.3157   1.4398   1.5333   1.5612   1.5987   1.6328   1.6430   1.6541
     1.6853   1.7020   1.7237   1.7348   1.7676   1.7742   1.7994   1.8311
     1.8391   1.8535   1.8955   1.9167   1.9315   1.9625   1.9933   2.0543
     2.1215   2.3862   2.4178   2.4363   2.4554   2.4600   2.4935   2.4989
     2.5173   2.5313   2.5432   2.5523   2.5765   2.5990   2.6163   2.6466
     2.6502   2.6585   2.6713   2.6885   2.6988   2.7199   2.7285   2.7425
     2.8369   2.8469   2.8655   2.8772   3.8250   3.8755   3.8865   3.9397
     4.1368   4.2112   4.2364   4.4768   4.5997   4.6819   4.8152   4.9193
     4.9392   5.0271   5.1639   5.2702   5.8105   5.8428   5.8891   6.0147
     6.5605   6.7458   7.0631   7.6150   7.8374   7.8508   7.9325   8.0726
     8.1147   8.1641   8.2120   8.2847   8.3315   8.4519   8.4958   8.5034
     8.5389   8.5956

     occupation numbers 
     1.0000   1.0000   1.0000   1.0000   1.0000   1.0000   1.0000   1.0000
     1.0000   1.0000   1.0000   1.0000   1.0000   1.0000   1.0000   1.0000
     1.0000   1.0000   1.0000   1.0000   1.0000   1.0000   1.0000   1.0000
     1.0000   1.0000   1.0000   1.0000   1.0000   1.0000   1.0000   1.0000
     1.0000   1.0000   1.0000   1.0000   1.0000   1.0000   1.0000   1.0000
     1.0000   1.0000   1.0000   1.0000   1.0000   1.0000   1.0000   1.0000
     1.0000   1.0000   1.0000   1.0000   1.0000   1.0000   1.0000   1.0000
     1.0000   1.0000   1.0000   1.0000   1.0000   1.0000   1.0000   1.0000
     1.0000   1.0000   1.0000   1.0000   1.0000   1.0000   1.0000   1.0000
     1.0000   1.0000   1.0000   1.0000   1.0000   1.0000   1.0000   1.0000
     1.0000   1.0000   1.0000   1.0000   1.0000   1.0000   1.0000   1.0000
     1.0000   1.0000   1.0000   1.0000   1.0000   1.0000   1.0000   1.0000
     1.0000   1.0000   1.0000   1.0000   1.0000   1.0000   1.0000   1.0000
     1.0000   1.0000   1.0000   1.0000   1.0000   1.0000   1.0000   1.0000
     1.0000   1.0000   1.0000   1.0000   1.0000   1.0000   1.0000   1.0000
     1.0000   1.0000   1.0000   1.0000   1.0000   1.0000   1.0000   1.0000
     1.0000   1.0000   1.0000   1.0000   1.0000   1.0000   1.0000   1.0000
     1.0000   1.0000   1.0000   1.0000   1.0000   1.0000   1.0000   1.0000
     1.0000   1.0000   1.0000   1.0000   1.0000   1.0000   1.0000   1.0000
     1.0000   1.0000   1.0000   1.0000   1.0000   1.0000   1.0000   1.0000
     1.0000   0.9996   0.9995   0.9995   0.9993   0.9976   0.9974   0.9973
     0.9967   0.9943   0.9916   0.9906   0.9891   0.9876   0.9871   0.9865
     0.9849   0.9839   0.9825   0.9818   0.9795   0.9790   0.9771   0.9744
     0.9737   0.9724   0.9682   0.9658   0.9641   0.9604   0.9563   0.9472
     0.9356   0.8699   0.8597   0.8534   0.8468   0.8452   0.8331   0.8311
     0.8241   0.8186   0.8139   0.8103   0.8004   0.7910   0.7835   0.7701
     0.7685   0.7647   0.7588   0.7507   0.7459   0.7357   0.7315   0.7246
     0.6760   0.6706   0.6605   0.6542   0.1561   0.1388   0.1352   0.1188
[...]
     0.6332   0.6208   0.6178   0.6138   0.6105   0.6045   0.5993   0.5228
     0.3526   0.3173   0.2022   0.0752   0.0446   0.0207   0.0048   0.0030
     0.0002   0.0001   0.0000   0.0000   0.0000   0.0000   0.0000   0.0000
     0.0000   0.0000   0.0000   0.0000   0.0000   0.0000   0.0000   0.0000
     0.0000   0.0000   0.0000   0.0000   0.0000   0.0000   0.0000   0.0000
     0.0000   0.0000

          k =-0.5000 0.0000 0.0000 ( 65180 PWs)   bands (ev):

   -92.8843 -92.8344 -92.7389 -92.6924 -92.6347 -92.5915 -92.5733 -92.4524
   -56.2379 -56.2210 -56.0956 -56.0848 -56.0787 -56.0716 -56.0370 -56.0076
   -55.9921 -55.9915 -55.9853 -55.9416 -55.9234 -55.8858 -55.8658 -55.8336
   -55.8278 -55.7790 -55.7787 -55.7761 -55.7677 -55.7273 -55.7034 -55.6179
   -31.4447 -31.4313 -31.2881 -31.2860 -31.1994 -31.1710 -30.9713 -30.6365
   -30.0283 -29.9872 -29.9596 -29.8519 -15.1930 -15.1360 -15.0750 -14.9688
   -14.8646 -14.7228 -14.5651 -14.4336 -14.3104 -14.2951 -14.2870 -14.2185
   -14.1653 -14.1327 -14.0846 -14.0759 -14.0573 -14.0134 -13.9969 -13.8821
   -13.7329 -13.6887 -13.6706 -13.6640 -13.5760 -13.5396 -13.4638 -13.4370
   -13.4130 -13.4012 -13.2574 -13.2252 -13.2114 -13.1890 -13.1791 -13.1343
   -13.1158 -13.0971 -13.0733 -13.0575 -12.8984 -12.8125 -12.8030 -12.7474
   -12.7120 -12.7081 -12.5919 -12.5804 -12.4986 -12.4955 -12.2442 -12.1926
   -11.9812 -11.9599 -11.9371 -11.9313 -11.9153 -11.8972 -11.8562 -11.7941
   -11.7771 -11.7449 -11.6967 -11.6883 -11.6734  -2.7606  -2.7230  -2.5597
    -2.5210  -2.2048  -2.1290  -1.9826  -1.8666  -1.8260  -1.7805  -1.7324
    -1.7098  -1.5851  -1.5418  -1.5240  -1.4428  -1.4092  -1.3885  -1.3613
    -1.3006  -1.2329  -1.2059  -1.1726  -1.0795  -1.0337  -0.9830  -0.9507
    -0.9304  -0.8984  -0.8515  -0.8273  -0.7840  -0.6815  -0.6174  -0.5389
    -0.4819  -0.3105  -0.2847  -0.2351  -0.1845  -0.1247  -0.1116   0.0259
     0.0531   0.0946   0.2611   0.3608   0.4092   0.4989   0.5785   0.6836
     0.6980   0.8346   0.8553   0.9085   0.9421   0.9737   0.9888   1.0310
     1.0565   1.1299   1.1723   1.2194   1.2295   1.5330   1.5433   1.5684
     1.5881   1.6884   1.7008   1.7141   1.7196   1.7505   1.7616   1.8016
     1.8181   1.8452   1.8977   1.9191   1.9662   1.9902   2.0456   2.1530
     2.2620   2.3227   2.3402   2.4181   2.4446   2.4700   2.5291   2.5497
     2.5587   2.5762   2.5922   2.6223   2.6478   2.6585   2.7099   2.7589
     2.7815   2.8196   2.8251   2.8253   2.8370   2.8536   2.8633   2.8779
     2.8826   2.9059   2.9074   2.9280   2.9474   2.9537   3.0849   3.0898
     3.8844   3.9701   4.0279   4.1519   4.6193   4.7057   4.8878   4.9201
     5.3722   5.4066   5.4928   5.5130   5.8631   5.8708   6.2196   6.7345
     6.7707   6.9457   7.1983   7.2585   7.5866   7.6290   7.6375   7.7172
     7.7594   7.7852   8.0754   8.2217   8.2682   8.3678   8.4875   8.6354
     8.6973   8.7204

     occupation numbers 
     1.0000   1.0000   1.0000   1.0000   1.0000   1.0000   1.0000   1.0000
     1.0000   1.0000   1.0000   1.0000   1.0000   1.0000   1.0000   1.0000
     1.0000   1.0000   1.0000   1.0000   1.0000   1.0000   1.0000   1.0000
     1.0000   1.0000   1.0000   1.0000   1.0000   1.0000   1.0000   1.0000
     1.0000   1.0000   1.0000   1.0000   1.0000   1.0000   1.0000   1.0000
     1.0000   1.0000   1.0000   1.0000   1.0000   1.0000   1.0000   1.0000
     1.0000   1.0000   1.0000   1.0000   1.0000   1.0000   1.0000   1.0000
     1.0000   1.0000   1.0000   1.0000   1.0000   1.0000   1.0000   1.0000
     1.0000   1.0000   1.0000   1.0000   1.0000   1.0000   1.0000   1.0000
     1.0000   1.0000   1.0000   1.0000   1.0000   1.0000   1.0000   1.0000
     1.0000   1.0000   1.0000   1.0000   1.0000   1.0000   1.0000   1.0000
     1.0000   1.0000   1.0000   1.0000   1.0000   1.0000   1.0000   1.0000
     1.0000   1.0000   1.0000   1.0000   1.0000   1.0000   1.0000   1.0000
     1.0000   1.0000   1.0000   1.0000   1.0000   1.0000   1.0000   1.0000
     1.0000   1.0000   1.0000   1.0000   1.0000   1.0000   1.0000   1.0000
     1.0000   1.0000   1.0000   1.0000   1.0000   1.0000   1.0000   1.0000
     1.0000   1.0000   1.0000   1.0000   1.0000   1.0000   1.0000   1.0000
     1.0000   1.0000   1.0000   1.0000   1.0000   1.0000   1.0000   1.0000
     1.0000   1.0000   1.0000   1.0000   1.0000   1.0000   1.0000   1.0000
     1.0000   1.0000   1.0000   1.0000   1.0000   1.0000   0.9999   0.9999
     0.9999   0.9997   0.9997   0.9995   0.9995   0.9994   0.9993   0.9991
     0.9990   0.9986   0.9983   0.9979   0.9978   0.9916   0.9913   0.9904
     0.9896   0.9847   0.9840   0.9832   0.9828   0.9808   0.9800   0.9769
     0.9755   0.9731   0.9679   0.9656   0.9599   0.9567   0.9486   0.9295
     0.9049   0.8888   0.8838   0.8596   0.8506   0.8417   0.8195   0.8114
     0.8077   0.8006   0.7938   0.7809   0.7695   0.7647   0.7406   0.7164
     0.7050   0.6852   0.6823   0.6822   0.6759   0.6670   0.6618   0.6538
     0.6512   0.6383   0.6375   0.6260   0.6150   0.6114   0.5352   0.5322
     0.1359   0.1101   0.0948   0.0673   0.0143   0.0102   0.0048   0.0042
     0.0005   0.0004   0.0002   0.0002   0.0000   0.0000   0.0000   0.0000
     0.0000   0.0000   0.0000   0.0000   0.0000   0.0000   0.0000   0.0000
     0.0000   0.0000   0.0000   0.0000   0.0000   0.0000   0.0000   0.0000
     0.0000   0.0000

          k =-0.2500 0.2500 0.0000 ( 65198 PWs)   bands (ev):

   -92.8843 -92.8344 -92.7389 -92.6924 -92.6347 -92.5915 -92.5733 -92.4524
   -56.2379 -56.2210 -56.0956 -56.0848 -56.0787 -56.0716 -56.0370 -56.0076
   -55.9921 -55.9915 -55.9853 -55.9416 -55.9234 -55.8858 -55.8658 -55.8336
   -55.8278 -55.7790 -55.7787 -55.7761 -55.7677 -55.7273 -55.7034 -55.6179
   -31.4465 -31.4292 -31.2879 -31.2866 -31.1992 -31.1713 -30.9711 -30.6366
   -30.0287 -29.9859 -29.9606 -29.8518 -15.1962 -15.1461 -15.0798 -14.9628
   -14.8459 -14.7183 -14.6405 -14.4284 -14.2925 -14.2627 -14.2477 -14.2005
   -14.1765 -14.1534 -14.1285 -14.0944 -14.0142 -14.0021 -13.8469 -13.8232
   -13.7915 -13.7717 -13.7073 -13.6736 -13.6078 -13.5865 -13.4738 -13.4356
   -13.3936 -13.3173 -13.2757 -13.2216 -13.2079 -13.1794 -13.1584 -13.1246
   -13.0977 -13.0875 -13.0532 -13.0015 -12.9424 -12.9163 -12.8823 -12.8633
   -12.7524 -12.6133 -12.5846 -12.5724 -12.5229 -12.4537 -12.2164 -12.1399
   -11.9835 -11.9764 -11.9580 -11.9300 -11.9184 -11.8771 -11.8422 -11.8192
   -11.7985 -11.7758 -11.6893 -11.6454 -11.6360  -2.8454  -2.6385  -2.5170
    -2.4271  -2.3106  -2.2449  -2.0387  -1.8965  -1.8790  -1.8462  -1.7548
    -1.7214  -1.6265  -1.5922  -1.5650  -1.4242  -1.3680  -1.2982  -1.2693
    -1.2090  -1.1910  -1.1508  -1.1222  -1.0814  -1.0180  -0.9698  -0.9025
    -0.8360  -0.8096  -0.7601  -0.7319  -0.6855  -0.6277  -0.5754  -0.5413
    -0.4338  -0.4082  -0.3904  -0.3514  -0.2872  -0.1989  -0.1693  -0.1317
    -0.0563  -0.0375   0.2142   0.3884   0.4236   0.4674   0.5333   0.5832
     0.6299   0.7022   0.7289   1.0102   1.1137   1.1542   1.1873   1.1953
     1.2361   1.2505   1.2967   1.3279   1.3404   1.3656   1.4175   1.4346
     1.4688   1.4924   1.5353   1.6411   1.6473   1.6674   1.7023   1.7313
     1.7726   1.8195   1.9284   2.0343   2.0553   2.1038   2.1233   2.1890
     2.2284   2.2554   2.2845   2.3018   2.4022   2.4400   2.5312   2.5619
     2.6186   2.6516   2.7064   2.7121   2.7251   2.7343   2.7458   2.7624
     2.7683   2.7852   2.7951   2.8077   2.8172   2.8298   2.8389   2.8464
     2.8804   2.8897   2.8976   2.9315   3.2225   3.3039   3.3740   3.4455
     3.4847   3.6680   3.7820   4.1368   4.3376   4.5565   4.8207   5.1288
     5.5042   5.5585   5.6107   5.6550   5.7221   6.1041   6.1230   6.1447
     6.8363   7.0611   7.2192   7.3818   7.4633   7.4861   7.5685   7.7683
     7.8459   8.0578   8.1931   8.2047   8.3223   8.3373   8.4477   8.4633
     8.5296   8.7720

     occupation numbers 
     1.0000   1.0000   1.0000   1.0000   1.0000   1.0000   1.0000   1.0000
     1.0000   1.0000   1.0000   1.0000   1.0000   1.0000   1.0000   1.0000
     1.0000   1.0000   1.0000   1.0000   1.0000   1.0000   1.0000   1.0000
     1.0000   1.0000   1.0000   1.0000   1.0000   1.0000   1.0000   1.0000
     1.0000   1.0000   1.0000   1.0000   1.0000   1.0000   1.0000   1.0000
     1.0000   1.0000   1.0000   1.0000   1.0000   1.0000   1.0000   1.0000
     1.0000   1.0000   1.0000   1.0000   1.0000   1.0000   1.0000   1.0000
     1.0000   1.0000   1.0000   1.0000   1.0000   1.0000   1.0000   1.0000
     1.0000   1.0000   1.0000   1.0000   1.0000   1.0000   1.0000   1.0000
     1.0000   1.0000   1.0000   1.0000   1.0000   1.0000   1.0000   1.0000
     1.0000   1.0000   1.0000   1.0000   1.0000   1.0000   1.0000   1.0000
     1.0000   1.0000   1.0000   1.0000   1.0000   1.0000   1.0000   1.0000
     1.0000   1.0000   1.0000   1.0000   1.0000   1.0000   1.0000   1.0000
     1.0000   1.0000   1.0000   1.0000   1.0000   1.0000   1.0000   1.0000
     1.0000   1.0000   1.0000   1.0000   1.0000   1.0000   1.0000   1.0000
     1.0000   1.0000   1.0000   1.0000   1.0000   1.0000   1.0000   1.0000
     1.0000   1.0000   1.0000   1.0000   1.0000   1.0000   1.0000   1.0000
     1.0000   1.0000   1.0000   1.0000   1.0000   1.0000   1.0000   1.0000
     1.0000   1.0000   1.0000   1.0000   1.0000   1.0000   1.0000   1.0000
     1.0000   1.0000   1.0000   1.0000   1.0000   1.0000   0.9999   0.9999
     0.9999   0.9999   0.9998   0.9992   0.9987   0.9984   0.9982   0.9981
     0.9977   0.9975   0.9970   0.9965   0.9963   0.9959   0.9948   0.9944
     0.9936   0.9929   0.9916   0.9872   0.9869   0.9859   0.9839   0.9821
     0.9792   0.9754   0.9645   0.9503   0.9471   0.9388   0.9352   0.9220
     0.9131   0.9066   0.8992   0.8946   0.8648   0.8522   0.8187   0.8064
     0.7825   0.7678   0.7422   0.7395   0.7332   0.7287   0.7230   0.7147
     0.7117   0.7030   0.6980   0.6914   0.6864   0.6797   0.6749   0.6709
     0.6524   0.6473   0.6429   0.6240   0.4538   0.4063   0.3665   0.3274
     0.3066   0.2184   0.1718   0.0703   0.0382   0.0180   0.0064   0.0016
     0.0002   0.0002   0.0001   0.0001   0.0001   0.0000   0.0000   0.0000
     0.0000   0.0000   0.0000   0.0000   0.0000   0.0000   0.0000   0.0000
     0.0000   0.0000   0.0000   0.0000   0.0000   0.0000   0.0000   0.0000
     0.0000   0.0000

          k =-0.5000 0.2500 0.0000 ( 65138 PWs)   bands (ev):

   -92.8843 -92.8344 -92.7389 -92.6924 -92.6347 -92.5915 -92.5733 -92.4524
   -56.2379 -56.2210 -56.0956 -56.0848 -56.0787 -56.0716 -56.0370 -56.0076
   -55.9921 -55.9915 -55.9853 -55.9416 -55.9234 -55.8858 -55.8658 -55.8336
   -55.8278 -55.7790 -55.7787 -55.7761 -55.7677 -55.7273 -55.7034 -55.6179
   -31.4446 -31.4311 -31.2878 -31.2862 -31.1995 -31.1712 -30.9712 -30.6366
   -30.0277 -29.9869 -29.9603 -29.8523 -15.1593 -15.1102 -15.0318 -14.9351
   -14.8939 -14.7698 -14.6725 -14.5494 -14.2435 -14.2119 -14.1997 -14.1507
   -14.1299 -14.1064 -14.0714 -14.0611 -14.0377 -14.0017 -13.9930 -13.8793
   -13.8135 -13.7652 -13.7572 -13.7295 -13.6425 -13.6173 -13.5107 -13.4765
   -13.3698 -13.3366 -13.2417 -13.2162 -13.1956 -13.1863 -13.1591 -13.1273
   -13.1108 -13.0928 -13.0598 -13.0090 -12.9052 -12.8230 -12.7979 -12.7921
   -12.7859 -12.7099 -12.5835 -12.5209 -12.4930 -12.4261 -12.2434 -12.2024
   -11.9813 -11.9522 -11.9389 -11.9251 -11.9135 -11.8907 -11.8611 -11.7814
   -11.7717 -11.7501 -11.7115 -11.6845 -11.6761  -2.6176  -2.5767  -2.4291
    -2.3873  -2.2244  -2.1475  -2.0069  -1.8727  -1.8139  -1.7884  -1.7488
    -1.7120  -1.6305  -1.5152  -1.4574  -1.4353  -1.4087  -1.3277  -1.3045
    -1.2630  -1.2479  -1.1868  -1.1547  -1.1190  -1.0840  -1.0548  -0.9958
    -0.9686  -0.9275  -0.8911  -0.7862  -0.7581  -0.6631  -0.6111  -0.5738
    -0.5137  -0.4365  -0.4006  -0.3020  -0.2518  -0.2021  -0.1429  -0.1136
    -0.0524  -0.0299   0.0022   0.0527   0.0934   0.4168   0.4979   0.5355
     0.5542   0.8475   0.9048   0.9754   1.0051   1.1752   1.2109   1.2482
     1.2573   1.2758   1.2934   1.3655   1.4095   1.4558   1.4834   1.6167
     1.6525   1.6718   1.6806   1.7241   1.7505   1.7639   1.7745   1.7937
     1.8194   1.8586   1.8736   1.9107   1.9336   1.9695   2.0205   2.1448
     2.2429   2.2734   2.3380   2.3715   2.4345   2.4680   2.4761   2.5177
     2.5322   2.5712   2.5768   2.6206   2.6504   2.6593   2.7018   2.7146
     2.7272   2.7404   2.7609   2.7729   2.7922   2.8016   2.8256   2.8363
     2.8468   2.8534   2.8637   2.8751   3.4061   3.4604   3.5931   3.6153
     3.8933   3.9891   4.0302   4.2322   4.6115   4.7171   4.8800   4.9347
     5.2397   5.2661   5.4941   5.5726   5.6135   5.6460   6.3230   6.3338
     6.4559   6.8821   7.1537   7.6018   7.6720   7.7310   7.7448   7.8072
     7.9014   7.9943   8.0911   8.2891   8.4073   8.4262   8.5076   8.5640
     8.6976   8.7659

     occupation numbers 
     1.0000   1.0000   1.0000   1.0000   1.0000   1.0000   1.0000   1.0000
     1.0000   1.0000   1.0000   1.0000   1.0000   1.0000   1.0000   1.0000
     1.0000   1.0000   1.0000   1.0000   1.0000   1.0000   1.0000   1.0000
     1.0000   1.0000   1.0000   1.0000   1.0000   1.0000   1.0000   1.0000
     1.0000   1.0000   1.0000   1.0000   1.0000   1.0000   1.0000   1.0000
     1.0000   1.0000   1.0000   1.0000   1.0000   1.0000   1.0000   1.0000
     1.0000   1.0000   1.0000   1.0000   1.0000   1.0000   1.0000   1.0000
     1.0000   1.0000   1.0000   1.0000   1.0000   1.0000   1.0000   1.0000
     1.0000   1.0000   1.0000   1.0000   1.0000   1.0000   1.0000   1.0000
     1.0000   1.0000   1.0000   1.0000   1.0000   1.0000   1.0000   1.0000
     1.0000   1.0000   1.0000   1.0000   1.0000   1.0000   1.0000   1.0000
     1.0000   1.0000   1.0000   1.0000   1.0000   1.0000   1.0000   1.0000
     1.0000   1.0000   1.0000   1.0000   1.0000   1.0000   1.0000   1.0000
     1.0000   1.0000   1.0000   1.0000   1.0000   1.0000   1.0000   1.0000
     1.0000   1.0000   1.0000   1.0000   1.0000   1.0000   1.0000   1.0000
     1.0000   1.0000   1.0000   1.0000   1.0000   1.0000   1.0000   1.0000
     1.0000   1.0000   1.0000   1.0000   1.0000   1.0000   1.0000   1.0000
     1.0000   1.0000   1.0000   1.0000   1.0000   1.0000   1.0000   1.0000
     1.0000   1.0000   1.0000   1.0000   1.0000   1.0000   1.0000   1.0000
     1.0000   1.0000   1.0000   1.0000   1.0000   1.0000   1.0000   0.9999
     0.9999   0.9997   0.9996   0.9994   0.9993   0.9983   0.9980   0.9976
     0.9975   0.9972   0.9970   0.9959   0.9950   0.9939   0.9932   0.9883
     0.9866   0.9856   0.9851   0.9825   0.9808   0.9798   0.9790   0.9775
     0.9754   0.9719   0.9704   0.9665   0.9639   0.9595   0.9524   0.9311
     0.9096   0.9020   0.8844   0.8744   0.8540   0.8424   0.8395   0.8239
     0.8183   0.8026   0.8003   0.7816   0.7684   0.7643   0.7445   0.7383
     0.7321   0.7256   0.7154   0.7094   0.6995   0.6946   0.6820   0.6763
     0.6707   0.6671   0.6615   0.6553   0.3488   0.3194   0.2526   0.2421
     0.1330   0.1049   0.0942   0.0531   0.0147   0.0098   0.0050   0.0039
     0.0009   0.0008   0.0002   0.0002   0.0001   0.0001   0.0000   0.0000
     0.0000   0.0000   0.0000   0.0000   0.0000   0.0000   0.0000   0.0000
     0.0000   0.0000   0.0000   0.0000   0.0000   0.0000   0.0000   0.0000
     0.0000   0.0000

     the Fermi energy is     3.1443 ev

!    total energy              =   -4440.30561135 Ry
     estimated scf accuracy    <          8.6E-09 Ry
     smearing contrib. (-TS)   =      -1.20793732 Ry
     internal energy E=F+TS    =   -4439.09767403 Ry

     The total energy is F=E-TS. E is the sum of the following terms:
     one-electron contribution =  -20890.24597193 Ry
     hartree contribution      =   10574.12568851 Ry
     xc contribution           =    -693.24780749 Ry
     ewald contribution        =    6846.46159444 Ry
     one-center paw contrib.   =    -276.19117756 Ry
      -> PAW hartree energy AE =      25.07945530 Ry
      -> PAW hartree energy PS =     -24.96428429 Ry
      -> PAW xc energy AE      =     -16.50548748 Ry
      -> PAW xc energy PS      =       6.86442405 Ry
      -> total E_H with PAW    =   10574.24085952 Ry
      -> total E_XC with PAW   =    -702.88887092 Ry

     convergence has been achieved in  50 iterations

     Writing all to output data dir /bsuhome/zayahcortright/scratch/pwscf.save/
 
     init_run     :      7.91s CPU      8.91s WALL (       1 calls)
     electrons    :    722.90s CPU    757.32s WALL (       1 calls)

     Called by init_run:
     wfcinit      :      6.59s CPU      6.81s WALL (       1 calls)
     wfcinit:atom :      0.05s CPU      0.07s WALL (       5 calls)
     wfcinit:wfcr :      6.27s CPU      6.41s WALL (       5 calls)
     potinit      :      0.16s CPU      0.19s WALL (       1 calls)
     hinit0       :      0.30s CPU      0.79s WALL (       1 calls)

     Called by electrons:
     c_bands      :    573.63s CPU    580.78s WALL (      50 calls)
     sum_band     :    111.94s CPU    127.04s WALL (      50 calls)
     v_of_rho     :      5.42s CPU      5.81s WALL (      51 calls)
     v_h          :      0.48s CPU      0.48s WALL (      51 calls)
     v_xc         :      4.93s CPU      5.32s WALL (      51 calls)
     newd         :     16.76s CPU     28.13s WALL (      51 calls)
     PAW_pot      :      1.62s CPU      1.68s WALL (      51 calls)
     mix_rho      :     13.08s CPU     13.50s WALL (      50 calls)

     Called by c_bands:
     init_us_2    :      7.09s CPU      7.18s WALL (     505 calls)
     init_us_2:cp :      7.08s CPU      7.17s WALL (     505 calls)
     cegterg      :    539.33s CPU    546.15s WALL (     250 calls)

     Called by sum_band:
     sum_band:wei :      0.36s CPU      0.36s WALL (      50 calls)
     sum_band:loo :     93.48s CPU     94.21s WALL (      50 calls)
     sum_band:buf :      1.51s CPU      1.58s WALL (     250 calls)
     sum_band:ini :      3.32s CPU      3.33s WALL (     250 calls)
     sum_band:cal :     19.78s CPU     19.84s WALL (     250 calls)
     sum_band:bec :      0.55s CPU      0.56s WALL (     250 calls)
     addusdens    :     16.10s CPU     30.40s WALL (      50 calls)
                                        0.00s GPU  (      50 calls)
     addusd:skk   :      0.32s CPU      0.98s WALL (     150 calls)
                                        0.00s GPU  (     150 calls)

     Called by *egterg:
     cdiaghg      :     54.94s CPU     55.19s WALL (    1288 calls)
     cegterg:over :     39.07s CPU     39.24s WALL (    1038 calls)
     cegterg:upda :     28.80s CPU     29.37s WALL (    1038 calls)
     cegterg:last :     58.24s CPU     58.49s WALL (     443 calls)
     cdiaghg:chol :      3.10s CPU      3.12s WALL (    1288 calls)
     cdiaghg:inve :      2.75s CPU      2.77s WALL (    1288 calls)
     cdiaghg:para :      6.64s CPU      6.68s WALL (    2576 calls)
     h_psi        :    302.01s CPU    305.31s WALL (    1293 calls)
     s_psi        :     40.75s CPU     40.88s WALL (    1293 calls)
     g_psi        :      1.08s CPU      1.08s WALL (    1038 calls)

     Called by h_psi:
     h_psi:calbec :     45.58s CPU     45.81s WALL (    1293 calls)
     vloc_psi     :    212.93s CPU    215.09s WALL (    1293 calls)
     add_vuspsi   :     40.60s CPU     40.81s WALL (    1293 calls)

     General routines
     calbec       :     65.35s CPU     65.64s WALL (    1543 calls)
     fft          :      3.66s CPU      3.72s WALL (     661 calls)
     ffts         :      4.72s CPU      4.79s WALL (    5386 calls)
     fftw         :    178.28s CPU    179.84s WALL (  336812 calls)
     interpolate  :      0.41s CPU      0.42s WALL (      51 calls)
 
     Parallel routines

     PAW routines
     PAW_pot      :      1.62s CPU      1.68s WALL (      51 calls)
 
     PWSCF        :  12m12.48s CPU  12m51.15s WALL

 
   This run was terminated on:  18:30:43  21Jun2024            

=------------------------------------------------------------------------------=
   JOB DONE.
=------------------------------------------------------------------------------=
