
     Program PWSCF v.7.2 starts on 21Jun2024 at 17:54: 7 

     This program is part of the open-source Quantum ESPRESSO suite
     for quantum simulation of materials; please cite
         "P. Giannozzi et al., J. Phys.:Condens. Matter 21 395502 (2009);
         "P. Giannozzi et al., J. Phys.:Condens. Matter 29 465901 (2017);
         "P. Giannozzi et al., J. Chem. Phys. 152 154105 (2020);
          URL http://www.quantum-espresso.org", 
     in publications or presentations arising from this work. More details at
     http://www.quantum-espresso.org/quote

     Parallel version (MPI & OpenMP), running on      48 processor cores
     Number of MPI processes:                48
     Threads/MPI process:                     1

     MPI processes distributed on     1 nodes
     33234 MiB available memory on the printing compute node when the environment starts
 
     Reading input from espresso.pwi
Warning: card &CELL ignored
Warning: card / ignored
Warning: card &FCP ignored
Warning: card / ignored
Warning: card &RISM ignored
Warning: card / ignored

     Current dimensions of program PWSCF are:
     Max number of different atomic species (ntypx) = 10
     Max number of k-points (npk) =  40000
     Max angular momentum in pseudopotentials (lmaxx) =  4
     file O.pbe-n-kjpaw_psl.0.1.UPF: wavefunction(s)  2P renormalized
     signal trapping enabled: kill the code with -SIGUSR1 to stop cleanly the simulation 
 
     K-points division:     npool     =       2
     R & G space division:  proc/nbgrp/npool/nimage =      24
     Subspace diagonalization in iterative solution of the eigenvalue problem:
     one sub-group per band group will be used
     scalapack distributed-memory algorithm (size of sub-group:  3*  3 procs)

 
     Parallelization info
     --------------------
     sticks:   dense  smooth     PW     G-vecs:    dense   smooth      PW
     Min         350     175     47                61430    21716    3036
     Max         351     177     48                61449    21727    3041
     Sum        8421    4205   1137              1474595   521381   72913
 
     Using Slab Decomposition
 


     bravais-lattice index     =            0
     lattice parameter (alat)  =      14.8599  a.u.
     unit-cell volume          =    8305.1283 (a.u.)^3
     number of atoms/cell      =           50
     number of atomic types    =            4
     number of electrons       =       431.00
     number of Kohn-Sham states=          259
     kinetic-energy cutoff     =      60.0000  Ry
     charge density cutoff     =     480.0000  Ry
     scf convergence threshold =      1.0E-08
     mixing beta               =       0.1500
     number of iterations used =            8  local-TF  mixing
     Exchange-correlation= PBE
                           (   1   4   3   4   0   0   0)

     celldm(1)=  14.859904  celldm(2)=   0.000000  celldm(3)=   0.000000
     celldm(4)=   0.000000  celldm(5)=   0.000000  celldm(6)=   0.000000

     crystal axes: (cart. coord. in units of alat)
               a(1) = (   1.000000   0.000000   0.000000 )  
               a(2) = (   0.000000   1.000000   0.000000 )  
               a(3) = (   0.000000   0.000000   2.531036 )  

     reciprocal axes: (cart. coord. in units 2 pi/alat)
               b(1) = (  1.000000  0.000000  0.000000 )  
               b(2) = (  0.000000  1.000000  0.000000 )  
               b(3) = (  0.000000  0.000000  0.395095 )  


     PseudoPot. # 1 for Sr read from file:
     /bsuhome/zayahcortright/q-e/pseudo/Sr_pbe_v1.uspp.F.UPF
     MD5 check sum: 6b418c05fbe9db5448babca5e47b7a5b
     Pseudo is Ultrasoft + core correction, Zval = 10.0
     Generated by new atomic code, or converted to UPF format
     Using radial grid of  883 points,  6 beta functions with: 
                l(1) =   0
                l(2) =   0
                l(3) =   1
                l(4) =   1
                l(5) =   2
                l(6) =   2
     Q(r) pseudized with  6 coefficients,  rinner =    1.400   1.400   1.400
                                                       1.400   1.400

     PseudoPot. # 2 for O  read from file:
     /bsuhome/zayahcortright/q-e/pseudo/O.pbe-n-kjpaw_psl.0.1.UPF
     MD5 check sum: 0234752ac141de4415c5fc33072bef88
     Pseudo is Projector augmented-wave + core cor, Zval =  6.0
     Generated using "atomic" code by A. Dal Corso  v.5.0.99 svn rev. 10869
     Shape of augmentation charge: BESSEL
     Using radial grid of 1095 points,  4 beta functions with: 
                l(1) =   0
                l(2) =   0
                l(3) =   1
                l(4) =   1
     Q(r) pseudized with 0 coefficients 


     PseudoPot. # 3 for Co read from file:
     /bsuhome/zayahcortright/q-e/pseudo/Co_pbe_v1.2.uspp.F.UPF
     MD5 check sum: 5f91765df6ddd3222702df6e7b74a16d
     Pseudo is Ultrasoft + core correction, Zval = 17.0
     Generated by new atomic code, or converted to UPF format
     Using radial grid of  863 points,  6 beta functions with: 
                l(1) =   0
                l(2) =   0
                l(3) =   1
                l(4) =   1
                l(5) =   2
                l(6) =   2
     Q(r) pseudized with  8 coefficients,  rinner =    1.200   1.200   1.200
                                                       1.200   1.200

     PseudoPot. # 4 for H  read from file:
     /bsuhome/zayahcortright/q-e/pseudo/H.pbe-rrkjus_psl.1.0.0.UPF
     MD5 check sum: f52b6d4d1c606e5624b1dc7b2218f220
     Pseudo is Ultrasoft, Zval =  1.0
     Generated using "atomic" code by A. Dal Corso  v.5.1
     Using radial grid of  929 points,  2 beta functions with: 
                l(1) =   0
                l(2) =   0
     Q(r) pseudized with 0 coefficients 


     atomic species   valence    mass     pseudopotential
        Sr            10.00    87.62000     Sr( 1.00)
        O              6.00    15.99900     O ( 1.00)
        Co            17.00    58.93319     Co( 1.00)
        H              1.00     1.00800     H ( 1.00)

     No symmetry found


                                    s                        frac. trans.

      isym =  1     identity                                     

 cryst.   s( 1) = (     1          0          0      )
                  (     0          1          0      )
                  (     0          0          1      )

 cart.    s( 1) = (  1.0000000  0.0000000  0.0000000 )
                  (  0.0000000  1.0000000  0.0000000 )
                  (  0.0000000  0.0000000  1.0000000 )


   Cartesian axes

     site n.     atom                  positions (alat units)
         1           Sr  tau(   1) = (   0.2508693   0.7491307   1.7574407  )
         2           O   tau(   2) = (   0.4985141   0.5014859   1.7715967  )
         3           Sr  tau(   3) = (   0.7482398   0.7454518   1.7648669  )
         4           Sr  tau(   4) = (   0.7441748   0.2558252   1.7667843  )
         5           Sr  tau(   5) = (   0.2508693   0.7491307   1.2696799  )
         6           Sr  tau(   6) = (   0.2508693   0.7491307   0.7632319  )
         7           Co  tau(   7) = (   0.4998914   0.5001086   1.0164559  )
         8           Co  tau(   8) = (   0.4936915   0.5063085   1.5135603  )
         9           O   tau(   9) = (   0.4988895   0.7610401   1.0164559  )
        10           O   tau(  10) = (   0.2389599   0.5011105   1.0164559  )
        11           O   tau(  11) = (   0.0070918   0.7374880   1.0164559  )
        12           O   tau(  12) = (   0.0088340   0.7405089   1.5135603  )
        13           O   tau(  13) = (   0.5066944   0.7415376   1.5135603  )
        14           O   tau(  14) = (   0.2584624   0.4933056   1.5135603  )
        15           O   tau(  15) = (   0.4985141   0.5014859   0.7773880  )
        16           O   tau(  16) = (   0.4985141   0.5014859   1.2555238  )
        17           Sr  tau(  17) = (   0.7482398   0.7454518   0.7706582  )
        18           Sr  tau(  18) = (   0.7482398   0.7454518   1.2622536  )
        19           Sr  tau(  19) = (   0.7441748   0.2558252   0.7725755  )
        20           Sr  tau(  20) = (   0.7441748   0.2558252   1.2603363  )
        21           O   tau(  21) = (   0.7322655   0.0078049   1.5135603  )
        22           O   tau(  22) = (   0.7558175   0.4996027   1.5135603  )
        23           O   tau(  23) = (   0.5003973   0.2441825   1.5135603  )
        24           O   tau(  24) = (   0.7527966   0.4978604   1.0164559  )
        25           O   tau(  25) = (   0.5021396   0.2472034   1.0164559  )
        26           O   tau(  26) = (   0.7517679   0.0000000   1.0164559  )
        27           O   tau(  27) = (   0.0114961   0.4948124   1.7455321  )
        28           O   tau(  28) = (   0.0048226   0.0077944   1.7715967  )
        29           Sr  tau(  29) = (   0.2545482   0.2517602   1.7648669  )
        30           O   tau(  30) = (   0.5048017   0.0015068   1.7786929  )
        31           Co  tau(  31) = (   0.0056869   0.5006215   1.0164559  )
        32           Co  tau(  32) = (   0.0065315   0.4997770   1.5135603  )
        33           Co  tau(  33) = (   0.0061999   0.0064171   1.0164559  )
        34           Co  tau(  34) = (   0.0000000   0.0126169   1.5135603  )
        35           O   tau(  35) = (   0.0114961   0.4948124   1.2815885  )
        36           O   tau(  36) = (   0.0114961   0.4948124   0.7513233  )
        37           O   tau(  37) = (   0.0051979   0.2673486   1.0164559  )
        38           O   tau(  38) = (   0.0130029   0.2478461   1.5135603  )
        39           O   tau(  39) = (   0.0048226   0.0077944   0.7773880  )
        40           O   tau(  40) = (   0.0048226   0.0077944   1.2555238  )
        41           Sr  tau(  41) = (   0.2545482   0.2517602   0.7706582  )
        42           Sr  tau(  42) = (   0.2545482   0.2517602   1.2622536  )
        43           Co  tau(  43) = (   0.4989925   0.0073160   1.5135603  )
        44           Co  tau(  44) = (   0.4998370   0.0064714   1.0164559  )
        45           O   tau(  45) = (   0.5048017   0.0015068   0.7844841  )
        46           O   tau(  46) = (   0.5048017   0.0015068   1.2484277  )
        47           O   tau(  47) = (   0.2621260   0.0059111   1.5135603  )
        48           O   tau(  48) = (   0.2591051   0.0041689   1.0164559  )
        49           O   tau(  49) = (   0.1421646   0.9951520   2.1602013  )
        50           H   tau(  50) = (   0.1421646   0.9951520   2.2847091  )

   Crystallographic axes

     site n.     atom                  positions (cryst. coord.)
         1           Sr  tau(   1) = (  0.2508693  0.7491307  0.6943562  )
         2           O   tau(   2) = (  0.4985141  0.5014859  0.6999492  )
         3           Sr  tau(   3) = (  0.7482398  0.7454518  0.6972903  )
         4           Sr  tau(   4) = (  0.7441748  0.2558252  0.6980478  )
         5           Sr  tau(   5) = (  0.2508693  0.7491307  0.5016443  )
         6           Sr  tau(   6) = (  0.2508693  0.7491307  0.3015492  )
         7           Co  tau(   7) = (  0.4998914  0.5001086  0.4015968  )
         8           Co  tau(   8) = (  0.4936915  0.5063085  0.5980003  )
         9           O   tau(   9) = (  0.4988895  0.7610401  0.4015968  )
        10           O   tau(  10) = (  0.2389599  0.5011105  0.4015968  )
        11           O   tau(  11) = (  0.0070918  0.7374880  0.4015968  )
        12           O   tau(  12) = (  0.0088340  0.7405089  0.5980003  )
        13           O   tau(  13) = (  0.5066944  0.7415376  0.5980003  )
        14           O   tau(  14) = (  0.2584624  0.4933056  0.5980003  )
        15           O   tau(  15) = (  0.4985141  0.5014859  0.3071422  )
        16           O   tau(  16) = (  0.4985141  0.5014859  0.4960513  )
        17           Sr  tau(  17) = (  0.7482398  0.7454518  0.3044833  )
        18           Sr  tau(  18) = (  0.7482398  0.7454518  0.4987103  )
        19           Sr  tau(  19) = (  0.7441748  0.2558252  0.3052408  )
        20           Sr  tau(  20) = (  0.7441748  0.2558252  0.4979527  )
        21           O   tau(  21) = (  0.7322655  0.0078049  0.5980003  )
        22           O   tau(  22) = (  0.7558175  0.4996027  0.5980003  )
        23           O   tau(  23) = (  0.5003973  0.2441825  0.5980003  )
        24           O   tau(  24) = (  0.7527966  0.4978604  0.4015968  )
        25           O   tau(  25) = (  0.5021396  0.2472034  0.4015968  )
        26           O   tau(  26) = (  0.7517679  0.0000000  0.4015968  )
        27           O   tau(  27) = (  0.0114961  0.4948124  0.6896512  )
        28           O   tau(  28) = (  0.0048226  0.0077944  0.6999492  )
        29           Sr  tau(  29) = (  0.2545482  0.2517602  0.6972903  )
        30           O   tau(  30) = (  0.5048017  0.0015068  0.7027529  )
        31           Co  tau(  31) = (  0.0056869  0.5006215  0.4015968  )
        32           Co  tau(  32) = (  0.0065315  0.4997770  0.5980003  )
        33           Co  tau(  33) = (  0.0061999  0.0064171  0.4015968  )
        34           Co  tau(  34) = (  0.0000000  0.0126169  0.5980003  )
        35           O   tau(  35) = (  0.0114961  0.4948124  0.5063494  )
        36           O   tau(  36) = (  0.0114961  0.4948124  0.2968442  )
        37           O   tau(  37) = (  0.0051979  0.2673486  0.4015968  )
        38           O   tau(  38) = (  0.0130029  0.2478461  0.5980003  )
        39           O   tau(  39) = (  0.0048226  0.0077944  0.3071422  )
        40           O   tau(  40) = (  0.0048226  0.0077944  0.4960513  )
        41           Sr  tau(  41) = (  0.2545482  0.2517602  0.3044833  )
        42           Sr  tau(  42) = (  0.2545482  0.2517602  0.4987103  )
        43           Co  tau(  43) = (  0.4989925  0.0073160  0.5980003  )
        44           Co  tau(  44) = (  0.4998370  0.0064714  0.4015968  )
        45           O   tau(  45) = (  0.5048017  0.0015068  0.3099459  )
        46           O   tau(  46) = (  0.5048017  0.0015068  0.4932477  )
        47           O   tau(  47) = (  0.2621260  0.0059111  0.5980003  )
        48           O   tau(  48) = (  0.2591051  0.0041689  0.4015968  )
        49           O   tau(  49) = (  0.1421646  0.9951520  0.8534850  )
        50           H   tau(  50) = (  0.1421646  0.9951520  0.9026774  )

     number of k points=    10  Gaussian smearing, width (Ry)=  0.0700
                       cart. coord. in units 2pi/alat
        k(    1) = (   0.0000000   0.0000000   0.0000000), wk =   0.1250000
        k(    2) = (   0.0000000   0.2500000   0.0000000), wk =   0.2500000
        k(    3) = (   0.0000000  -0.5000000   0.0000000), wk =   0.1250000
        k(    4) = (   0.2500000   0.2500000   0.0000000), wk =   0.2500000
        k(    5) = (   0.2500000  -0.5000000   0.0000000), wk =   0.2500000
        k(    6) = (  -0.5000000  -0.5000000   0.0000000), wk =   0.1250000
        k(    7) = (   0.2500000   0.0000000   0.0000000), wk =   0.2500000
        k(    8) = (  -0.5000000   0.0000000   0.0000000), wk =   0.1250000
        k(    9) = (  -0.2500000   0.2500000   0.0000000), wk =   0.2500000
        k(   10) = (  -0.5000000   0.2500000   0.0000000), wk =   0.2500000

                       cryst. coord.
        k(    1) = (   0.0000000   0.0000000   0.0000000), wk =   0.1250000
        k(    2) = (   0.0000000   0.2500000   0.0000000), wk =   0.2500000
        k(    3) = (   0.0000000  -0.5000000   0.0000000), wk =   0.1250000
        k(    4) = (   0.2500000   0.2500000   0.0000000), wk =   0.2500000
        k(    5) = (   0.2500000  -0.5000000   0.0000000), wk =   0.2500000
        k(    6) = (  -0.5000000  -0.5000000   0.0000000), wk =   0.1250000
        k(    7) = (   0.2500000   0.0000000   0.0000000), wk =   0.2500000
        k(    8) = (  -0.5000000   0.0000000   0.0000000), wk =   0.1250000
        k(    9) = (  -0.2500000   0.2500000   0.0000000), wk =   0.2500000
        k(   10) = (  -0.5000000   0.2500000   0.0000000), wk =   0.2500000

     Dense  grid:  1474595 G-vectors     FFT dimensions: ( 108, 108, 270)

     Smooth grid:   521381 G-vectors     FFT dimensions: (  75,  75, 192)

     Dynamical RAM for                 wfc:      10.73 MB

     Dynamical RAM for     wfc (w. buffer):      64.38 MB

     Dynamical RAM for           str. fact:       3.75 MB

     Dynamical RAM for           local pot:       0.00 MB

     Dynamical RAM for          nlocal pot:      24.61 MB

     Dynamical RAM for                qrad:       7.03 MB

     Dynamical RAM for          rho,v,vnew:       6.02 MB

     Dynamical RAM for               rhoin:       2.01 MB

     Dynamical RAM for            rho*nmix:      15.00 MB

     Dynamical RAM for           G-vectors:       3.68 MB

     Dynamical RAM for          h,s,v(r/c):       1.35 MB

     Dynamical RAM for          <psi|beta>:       2.35 MB

     Dynamical RAM for                 psi:      21.46 MB

     Dynamical RAM for                hpsi:      21.46 MB

     Dynamical RAM for                spsi:      21.46 MB

     Dynamical RAM for      wfcinit/wfcrot:      34.49 MB

     Dynamical RAM for           addusdens:     101.26 MB

     Estimated static dynamical RAM per process >     121.50 MB

     Estimated max dynamical RAM per process >     237.76 MB

     Estimated total dynamical RAM >      10.79 GB

     Check: negative core charge=   -0.000004

     Initial potential from superposition of free atoms

     starting charge     422.5961, renormalised to     431.0000

     negative rho (up, down):  7.820E-01 0.000E+00
     Starting wfcs are  377 randomized atomic wfcs
     Checking if some PAW data can be deallocated... 
       PAW data deallocated on   19 nodes for type:  2

     total cpu time spent up to now is        9.3 secs

     Self-consistent Calculation

     iteration #  1     ecut=    60.00 Ry     beta= 0.15
     Davidson diagonalization with overlap

---- Real-time Memory Report at c_bands before calling an iterative solver
             0 MiB given to the printing process from OS
             0 MiB allocation reported by mallinfo(arena+hblkhd)
         23989 MiB available memory on the node where the printing process lives
------------------
     ethr =  1.00E-02,  avg # of iterations =  2.0

     negative rho (up, down):  7.717E-01 0.000E+00

     total cpu time spent up to now is       26.3 secs

     total energy              =   -4446.66839466 Ry
     estimated scf accuracy    <      44.80814192 Ry

     iteration #  2     ecut=    60.00 Ry     beta= 0.15
     Davidson diagonalization with overlap

---- Real-time Memory Report at c_bands before calling an iterative solver
             0 MiB given to the printing process from OS
             0 MiB allocation reported by mallinfo(arena+hblkhd)
         24259 MiB available memory on the node where the printing process lives
------------------
     ethr =  1.00E-02,  avg # of iterations =  1.0

     negative rho (up, down):  7.581E-01 0.000E+00

     total cpu time spent up to now is       40.9 secs

     total energy              =   -4443.24855141 Ry
     estimated scf accuracy    <      29.81930256 Ry

     iteration #  3     ecut=    60.00 Ry     beta= 0.15
     Davidson diagonalization with overlap

---- Real-time Memory Report at c_bands before calling an iterative solver
             0 MiB given to the printing process from OS
             0 MiB allocation reported by mallinfo(arena+hblkhd)
         23425 MiB available memory on the node where the printing process lives
------------------
     ethr =  6.92E-03,  avg # of iterations =  1.0

     negative rho (up, down):  7.554E-01 0.000E+00

     total cpu time spent up to now is       55.6 secs

     total energy              =   -4444.26373089 Ry
     estimated scf accuracy    <      28.99396827 Ry

     iteration #  4     ecut=    60.00 Ry     beta= 0.15
     Davidson diagonalization with overlap

---- Real-time Memory Report at c_bands before calling an iterative solver
             0 MiB given to the printing process from OS
             0 MiB allocation reported by mallinfo(arena+hblkhd)
         23398 MiB available memory on the node where the printing process lives
------------------
     ethr =  6.73E-03,  avg # of iterations =  1.0

     negative rho (up, down):  7.494E-01 0.000E+00

     total cpu time spent up to now is       70.2 secs

     total energy              =   -4443.06899962 Ry
     estimated scf accuracy    <      20.95807508 Ry

     iteration #  5     ecut=    60.00 Ry     beta= 0.15
     Davidson diagonalization with overlap

---- Real-time Memory Report at c_bands before calling an iterative solver
             0 MiB given to the printing process from OS
             0 MiB allocation reported by mallinfo(arena+hblkhd)
         23385 MiB available memory on the node where the printing process lives
------------------
     ethr =  4.86E-03,  avg # of iterations =  1.0

     negative rho (up, down):  7.405E-01 0.000E+00

     total cpu time spent up to now is       85.0 secs

     total energy              =   -4442.57625376 Ry
     estimated scf accuracy    <      10.40879287 Ry

     iteration #  6     ecut=    60.00 Ry     beta= 0.15
     Davidson diagonalization with overlap

---- Real-time Memory Report at c_bands before calling an iterative solver
             0 MiB given to the printing process from OS
             0 MiB allocation reported by mallinfo(arena+hblkhd)
         23362 MiB available memory on the node where the printing process lives
------------------
     ethr =  2.42E-03,  avg # of iterations =  1.1

     negative rho (up, down):  7.428E-01 0.000E+00

     total cpu time spent up to now is      100.1 secs

     total energy              =   -4442.80977027 Ry
     estimated scf accuracy    <       4.90294477 Ry

     iteration #  7     ecut=    60.00 Ry     beta= 0.15
     Davidson diagonalization with overlap

---- Real-time Memory Report at c_bands before calling an iterative solver
             0 MiB given to the printing process from OS
             0 MiB allocation reported by mallinfo(arena+hblkhd)
         23348 MiB available memory on the node where the printing process lives
------------------
     ethr =  1.14E-03,  avg # of iterations =  1.7

     negative rho (up, down):  7.655E-01 0.000E+00

     total cpu time spent up to now is      115.5 secs

     total energy              =   -4441.63608903 Ry
     estimated scf accuracy    <       3.95000628 Ry

     iteration #  8     ecut=    60.00 Ry     beta= 0.15
     Davidson diagonalization with overlap

---- Real-time Memory Report at c_bands before calling an iterative solver
             0 MiB given to the printing process from OS
             0 MiB allocation reported by mallinfo(arena+hblkhd)
         23329 MiB available memory on the node where the printing process lives
------------------
     ethr =  9.16E-04,  avg # of iterations =  5.5

     negative rho (up, down):  7.721E-01 0.000E+00

     total cpu time spent up to now is      135.6 secs

     total energy              =   -4441.52872299 Ry
     estimated scf accuracy    <      14.95386365 Ry

     iteration #  9     ecut=    60.00 Ry     beta= 0.15
     Davidson diagonalization with overlap

---- Real-time Memory Report at c_bands before calling an iterative solver
             0 MiB given to the printing process from OS
             0 MiB allocation reported by mallinfo(arena+hblkhd)
         23152 MiB available memory on the node where the printing process lives
------------------
     ethr =  9.16E-04,  avg # of iterations =  9.7

     negative rho (up, down):  7.703E-01 0.000E+00

     total cpu time spent up to now is      156.8 secs

     total energy              =   -4441.78383028 Ry
     estimated scf accuracy    <       2.41375508 Ry

     iteration # 10     ecut=    60.00 Ry     beta= 0.15
     Davidson diagonalization with overlap

---- Real-time Memory Report at c_bands before calling an iterative solver
             0 MiB given to the printing process from OS
             0 MiB allocation reported by mallinfo(arena+hblkhd)
         22865 MiB available memory on the node where the printing process lives
------------------
     ethr =  5.60E-04,  avg # of iterations =  2.6

     negative rho (up, down):  7.780E-01 0.000E+00

     total cpu time spent up to now is      173.4 secs

     total energy              =   -4441.92066230 Ry
     estimated scf accuracy    <       1.15125910 Ry

     iteration # 11     ecut=    60.00 Ry     beta= 0.15
     Davidson diagonalization with overlap

---- Real-time Memory Report at c_bands before calling an iterative solver
             0 MiB given to the printing process from OS
             0 MiB allocation reported by mallinfo(arena+hblkhd)
         22842 MiB available memory on the node where the printing process lives
------------------
     ethr =  2.67E-04,  avg # of iterations =  3.6

     negative rho (up, down):  8.108E-01 0.000E+00

     total cpu time spent up to now is      191.5 secs

     total energy              =   -4441.69585189 Ry
     estimated scf accuracy    <       1.40016241 Ry

     iteration # 12     ecut=    60.00 Ry     beta= 0.15
     Davidson diagonalization with overlap

---- Real-time Memory Report at c_bands before calling an iterative solver
             0 MiB given to the printing process from OS
             0 MiB allocation reported by mallinfo(arena+hblkhd)
         22833 MiB available memory on the node where the printing process lives
------------------
     ethr =  2.67E-04,  avg # of iterations = 10.3

     negative rho (up, down):  8.158E-01 0.000E+00

     total cpu time spent up to now is      211.5 secs

     total energy              =   -4441.84476918 Ry
     estimated scf accuracy    <       1.15789846 Ry

     iteration # 13     ecut=    60.00 Ry     beta= 0.15
     Davidson diagonalization with overlap

---- Real-time Memory Report at c_bands before calling an iterative solver
             0 MiB given to the printing process from OS
             0 MiB allocation reported by mallinfo(arena+hblkhd)
         22719 MiB available memory on the node where the printing process lives
------------------
     ethr =  2.67E-04,  avg # of iterations =  1.2

     negative rho (up, down):  8.182E-01 0.000E+00

     total cpu time spent up to now is      226.6 secs

     total energy              =   -4441.78445832 Ry
     estimated scf accuracy    <       0.72541240 Ry

     iteration # 14     ecut=    60.00 Ry     beta= 0.15
     Davidson diagonalization with overlap

---- Real-time Memory Report at c_bands before calling an iterative solver
             0 MiB given to the printing process from OS
             0 MiB allocation reported by mallinfo(arena+hblkhd)
         22728 MiB available memory on the node where the printing process lives
------------------
     ethr =  1.68E-04,  avg # of iterations =  2.6

     negative rho (up, down):  8.249E-01 0.000E+00

     total cpu time spent up to now is      243.4 secs

     total energy              =   -4441.73240309 Ry
     estimated scf accuracy    <       0.35269346 Ry

     iteration # 15     ecut=    60.00 Ry     beta= 0.15
     Davidson diagonalization with overlap

---- Real-time Memory Report at c_bands before calling an iterative solver
             0 MiB given to the printing process from OS
             0 MiB allocation reported by mallinfo(arena+hblkhd)
         22726 MiB available memory on the node where the printing process lives
------------------
     ethr =  8.18E-05,  avg # of iterations = 14.3

     negative rho (up, down):  8.336E-01 0.000E+00

     total cpu time spent up to now is      267.0 secs

     total energy              =   -4441.71939633 Ry
     estimated scf accuracy    <       0.30304971 Ry

     iteration # 16     ecut=    60.00 Ry     beta= 0.15
     Davidson diagonalization with overlap

---- Real-time Memory Report at c_bands before calling an iterative solver
             0 MiB given to the printing process from OS
             0 MiB allocation reported by mallinfo(arena+hblkhd)
         22686 MiB available memory on the node where the printing process lives
------------------
     ethr =  7.03E-05,  avg # of iterations =  4.9

     negative rho (up, down):  8.312E-01 0.000E+00

     total cpu time spent up to now is      285.1 secs

     total energy              =   -4441.71135091 Ry
     estimated scf accuracy    <       0.26400991 Ry

     iteration # 17     ecut=    60.00 Ry     beta= 0.15
     Davidson diagonalization with overlap

---- Real-time Memory Report at c_bands before calling an iterative solver
             0 MiB given to the printing process from OS
             0 MiB allocation reported by mallinfo(arena+hblkhd)
         22683 MiB available memory on the node where the printing process lives
------------------
     ethr =  6.13E-05,  avg # of iterations =  1.0

     negative rho (up, down):  8.165E-01 0.000E+00

     total cpu time spent up to now is      299.8 secs

     total energy              =   -4441.69145759 Ry
     estimated scf accuracy    <       0.18494573 Ry

     iteration # 18     ecut=    60.00 Ry     beta= 0.15
     Davidson diagonalization with overlap

---- Real-time Memory Report at c_bands before calling an iterative solver
             0 MiB given to the printing process from OS
             0 MiB allocation reported by mallinfo(arena+hblkhd)
         22686 MiB available memory on the node where the printing process lives
------------------
     c_bands:  1 eigenvalues not converged
     ethr =  4.29E-05,  avg # of iterations =  9.1

     negative rho (up, down):  8.131E-01 0.000E+00

     total cpu time spent up to now is      320.4 secs

     total energy              =   -4441.66707028 Ry
     estimated scf accuracy    <       0.13447756 Ry

     iteration # 19     ecut=    60.00 Ry     beta= 0.15
     Davidson diagonalization with overlap

---- Real-time Memory Report at c_bands before calling an iterative solver
             0 MiB given to the printing process from OS
             0 MiB allocation reported by mallinfo(arena+hblkhd)
         22683 MiB available memory on the node where the printing process lives
------------------
     ethr =  3.12E-05,  avg # of iterations = 10.5

     negative rho (up, down):  8.157E-01 0.000E+00

     total cpu time spent up to now is      342.1 secs

     total energy              =   -4441.65985289 Ry
     estimated scf accuracy    <       0.08788629 Ry

     iteration # 20     ecut=    60.00 Ry     beta= 0.15
     Davidson diagonalization with overlap

---- Real-time Memory Report at c_bands before calling an iterative solver
             0 MiB given to the printing process from OS
             0 MiB allocation reported by mallinfo(arena+hblkhd)
         22623 MiB available memory on the node where the printing process lives
------------------
     ethr =  2.04E-05,  avg # of iterations = 10.1

     negative rho (up, down):  8.289E-01 0.000E+00

     total cpu time spent up to now is      363.5 secs

     total energy              =   -4441.65935676 Ry
     estimated scf accuracy    <       0.03788291 Ry

     iteration # 21     ecut=    60.00 Ry     beta= 0.15
     Davidson diagonalization with overlap

---- Real-time Memory Report at c_bands before calling an iterative solver
             0 MiB given to the printing process from OS
             0 MiB allocation reported by mallinfo(arena+hblkhd)
         22538 MiB available memory on the node where the printing process lives
------------------
     ethr =  8.79E-06,  avg # of iterations = 12.1

     negative rho (up, down):  8.219E-01 0.000E+00

     total cpu time spent up to now is      385.8 secs

     total energy              =   -4441.65932092 Ry
     estimated scf accuracy    <       0.02465487 Ry

     iteration # 22     ecut=    60.00 Ry     beta= 0.15
     Davidson diagonalization with overlap

---- Real-time Memory Report at c_bands before calling an iterative solver
             0 MiB given to the printing process from OS
             0 MiB allocation reported by mallinfo(arena+hblkhd)
         22522 MiB available memory on the node where the printing process lives
------------------
     ethr =  5.72E-06,  avg # of iterations =  2.0

     negative rho (up, down):  7.925E-01 0.000E+00

     total cpu time spent up to now is      401.2 secs

     total energy              =   -4441.65460663 Ry
     estimated scf accuracy    <       0.02022221 Ry

     iteration # 23     ecut=    60.00 Ry     beta= 0.15
     Davidson diagonalization with overlap

---- Real-time Memory Report at c_bands before calling an iterative solver
             0 MiB given to the printing process from OS
             0 MiB allocation reported by mallinfo(arena+hblkhd)
         22551 MiB available memory on the node where the printing process lives
------------------
     ethr =  4.69E-06,  avg # of iterations =  5.4

     negative rho (up, down):  7.931E-01 0.000E+00

     total cpu time spent up to now is      419.3 secs

     total energy              =   -4441.65337371 Ry
     estimated scf accuracy    <       0.00978470 Ry

     iteration # 24     ecut=    60.00 Ry     beta= 0.15
     Davidson diagonalization with overlap

---- Real-time Memory Report at c_bands before calling an iterative solver
             0 MiB given to the printing process from OS
             0 MiB allocation reported by mallinfo(arena+hblkhd)
         22572 MiB available memory on the node where the printing process lives
------------------
     c_bands:  1 eigenvalues not converged
     c_bands:  1 eigenvalues not converged
     ethr =  2.27E-06,  avg # of iterations = 13.0

     negative rho (up, down):  7.990E-01 0.000E+00

     total cpu time spent up to now is      442.5 secs

     total energy              =   -4441.65334939 Ry
     estimated scf accuracy    <       0.00466778 Ry

     iteration # 25     ecut=    60.00 Ry     beta= 0.15
     Davidson diagonalization with overlap

---- Real-time Memory Report at c_bands before calling an iterative solver
             0 MiB given to the printing process from OS
             0 MiB allocation reported by mallinfo(arena+hblkhd)
         22495 MiB available memory on the node where the printing process lives
------------------
     ethr =  1.08E-06,  avg # of iterations =  7.0

     negative rho (up, down):  7.998E-01 0.000E+00

     total cpu time spent up to now is      461.9 secs

     total energy              =   -4441.65336079 Ry
     estimated scf accuracy    <       0.00240198 Ry

     iteration # 26     ecut=    60.00 Ry     beta= 0.15
     Davidson diagonalization with overlap

---- Real-time Memory Report at c_bands before calling an iterative solver
             0 MiB given to the printing process from OS
             0 MiB allocation reported by mallinfo(arena+hblkhd)
         22453 MiB available memory on the node where the printing process lives
------------------
     ethr =  5.57E-07,  avg # of iterations =  7.2

     negative rho (up, down):  7.981E-01 0.000E+00

     total cpu time spent up to now is      480.7 secs

     total energy              =   -4441.65324265 Ry
     estimated scf accuracy    <       0.00154730 Ry

     iteration # 27     ecut=    60.00 Ry     beta= 0.15
     Davidson diagonalization with overlap

---- Real-time Memory Report at c_bands before calling an iterative solver
             0 MiB given to the printing process from OS
             0 MiB allocation reported by mallinfo(arena+hblkhd)
         22476 MiB available memory on the node where the printing process lives
------------------
     c_bands:  1 eigenvalues not converged
     ethr =  3.59E-07,  avg # of iterations = 10.3

     negative rho (up, down):  7.969E-01 0.000E+00

     total cpu time spent up to now is      501.8 secs

     total energy              =   -4441.65322629 Ry
     estimated scf accuracy    <       0.00070862 Ry

     iteration # 28     ecut=    60.00 Ry     beta= 0.15
     Davidson diagonalization with overlap

---- Real-time Memory Report at c_bands before calling an iterative solver
             0 MiB given to the printing process from OS
             0 MiB allocation reported by mallinfo(arena+hblkhd)
         22506 MiB available memory on the node where the printing process lives
------------------
     ethr =  1.64E-07,  avg # of iterations =  5.1

     negative rho (up, down):  7.947E-01 0.000E+00

     total cpu time spent up to now is      521.5 secs

     total energy              =   -4441.65325098 Ry
     estimated scf accuracy    <       0.00029021 Ry

     iteration # 29     ecut=    60.00 Ry     beta= 0.15
     Davidson diagonalization with overlap

---- Real-time Memory Report at c_bands before calling an iterative solver
             0 MiB given to the printing process from OS
             0 MiB allocation reported by mallinfo(arena+hblkhd)
         22439 MiB available memory on the node where the printing process lives
------------------
     ethr =  6.73E-08,  avg # of iterations =  3.7

     negative rho (up, down):  7.935E-01 0.000E+00

     total cpu time spent up to now is      539.5 secs

     total energy              =   -4441.65325564 Ry
     estimated scf accuracy    <       0.00011717 Ry

     iteration # 30     ecut=    60.00 Ry     beta= 0.15
     Davidson diagonalization with overlap

---- Real-time Memory Report at c_bands before calling an iterative solver
             0 MiB given to the printing process from OS
             0 MiB allocation reported by mallinfo(arena+hblkhd)
         22427 MiB available memory on the node where the printing process lives
------------------
     ethr =  2.72E-08,  avg # of iterations =  2.3

     negative rho (up, down):  7.927E-01 0.000E+00

     total cpu time spent up to now is      556.7 secs

     total energy              =   -4441.65325647 Ry
     estimated scf accuracy    <       0.00005045 Ry

     iteration # 31     ecut=    60.00 Ry     beta= 0.15
     Davidson diagonalization with overlap

---- Real-time Memory Report at c_bands before calling an iterative solver
             0 MiB given to the printing process from OS
             0 MiB allocation reported by mallinfo(arena+hblkhd)
         22427 MiB available memory on the node where the printing process lives
------------------
     ethr =  1.17E-08,  avg # of iterations =  2.2

     negative rho (up, down):  7.924E-01 0.000E+00

     total cpu time spent up to now is      573.8 secs

     total energy              =   -4441.65325780 Ry
     estimated scf accuracy    <       0.00002105 Ry

     iteration # 32     ecut=    60.00 Ry     beta= 0.15
     Davidson diagonalization with overlap

---- Real-time Memory Report at c_bands before calling an iterative solver
             0 MiB given to the printing process from OS
             0 MiB allocation reported by mallinfo(arena+hblkhd)
         22441 MiB available memory on the node where the printing process lives
------------------
     ethr =  4.88E-09,  avg # of iterations =  3.1

     negative rho (up, down):  7.924E-01 0.000E+00

     total cpu time spent up to now is      591.6 secs

     total energy              =   -4441.65326000 Ry
     estimated scf accuracy    <       0.00000569 Ry

     iteration # 33     ecut=    60.00 Ry     beta= 0.15
     Davidson diagonalization with overlap

---- Real-time Memory Report at c_bands before calling an iterative solver
             0 MiB given to the printing process from OS
             0 MiB allocation reported by mallinfo(arena+hblkhd)
         22451 MiB available memory on the node where the printing process lives
------------------
     ethr =  1.32E-09,  avg # of iterations =  2.2

     negative rho (up, down):  7.924E-01 0.000E+00

     total cpu time spent up to now is      608.6 secs

     total energy              =   -4441.65326038 Ry
     estimated scf accuracy    <       0.00000316 Ry

     iteration # 34     ecut=    60.00 Ry     beta= 0.15
     Davidson diagonalization with overlap

---- Real-time Memory Report at c_bands before calling an iterative solver
             0 MiB given to the printing process from OS
             0 MiB allocation reported by mallinfo(arena+hblkhd)
         22458 MiB available memory on the node where the printing process lives
------------------
     ethr =  7.33E-10,  avg # of iterations =  2.2

     negative rho (up, down):  7.924E-01 0.000E+00

     total cpu time spent up to now is      625.6 secs

     total energy              =   -4441.65326071 Ry
     estimated scf accuracy    <       0.00000242 Ry

     iteration # 35     ecut=    60.00 Ry     beta= 0.15
     Davidson diagonalization with overlap

---- Real-time Memory Report at c_bands before calling an iterative solver
             0 MiB given to the printing process from OS
             0 MiB allocation reported by mallinfo(arena+hblkhd)
         22466 MiB available memory on the node where the printing process lives
------------------
     ethr =  5.61E-10,  avg # of iterations =  2.8

     negative rho (up, down):  7.924E-01 0.000E+00

     total cpu time spent up to now is      642.7 secs

     total energy              =   -4441.65326076 Ry
     estimated scf accuracy    <       0.00000159 Ry

     iteration # 36     ecut=    60.00 Ry     beta= 0.15
     Davidson diagonalization with overlap

---- Real-time Memory Report at c_bands before calling an iterative solver
             0 MiB given to the printing process from OS
             0 MiB allocation reported by mallinfo(arena+hblkhd)
         22473 MiB available memory on the node where the printing process lives
------------------
     ethr =  3.68E-10,  avg # of iterations =  2.8

     negative rho (up, down):  7.924E-01 0.000E+00

     total cpu time spent up to now is      659.7 secs

     total energy              =   -4441.65326073 Ry
     estimated scf accuracy    <       0.00000115 Ry

     iteration # 37     ecut=    60.00 Ry     beta= 0.15
     Davidson diagonalization with overlap

---- Real-time Memory Report at c_bands before calling an iterative solver
             0 MiB given to the printing process from OS
             0 MiB allocation reported by mallinfo(arena+hblkhd)
         22475 MiB available memory on the node where the printing process lives
------------------
     ethr =  2.68E-10,  avg # of iterations =  2.2

     negative rho (up, down):  7.924E-01 0.000E+00

     total cpu time spent up to now is      676.5 secs

     total energy              =   -4441.65326078 Ry
     estimated scf accuracy    <       0.00000079 Ry

     iteration # 38     ecut=    60.00 Ry     beta= 0.15
     Davidson diagonalization with overlap

---- Real-time Memory Report at c_bands before calling an iterative solver
             0 MiB given to the printing process from OS
             0 MiB allocation reported by mallinfo(arena+hblkhd)
         22478 MiB available memory on the node where the printing process lives
------------------
     ethr =  1.82E-10,  avg # of iterations =  2.1

     negative rho (up, down):  7.924E-01 0.000E+00

     total cpu time spent up to now is      693.2 secs

     total energy              =   -4441.65326095 Ry
     estimated scf accuracy    <       0.00000066 Ry

     iteration # 39     ecut=    60.00 Ry     beta= 0.15
     Davidson diagonalization with overlap

---- Real-time Memory Report at c_bands before calling an iterative solver
             0 MiB given to the printing process from OS
             0 MiB allocation reported by mallinfo(arena+hblkhd)
         22479 MiB available memory on the node where the printing process lives
------------------
     ethr =  1.54E-10,  avg # of iterations =  2.1

     negative rho (up, down):  7.925E-01 0.000E+00

     total cpu time spent up to now is      709.9 secs

     total energy              =   -4441.65326104 Ry
     estimated scf accuracy    <       0.00000049 Ry

     iteration # 40     ecut=    60.00 Ry     beta= 0.15
     Davidson diagonalization with overlap

---- Real-time Memory Report at c_bands before calling an iterative solver
             0 MiB given to the printing process from OS
             0 MiB allocation reported by mallinfo(arena+hblkhd)
         22489 MiB available memory on the node where the printing process lives
------------------
     ethr =  1.14E-10,  avg # of iterations =  3.0

     negative rho (up, down):  7.925E-01 0.000E+00

     total cpu time spent up to now is      727.5 secs

     total energy              =   -4441.65326100 Ry
     estimated scf accuracy    <       0.00000025 Ry

     iteration # 41     ecut=    60.00 Ry     beta= 0.15
     Davidson diagonalization with overlap

---- Real-time Memory Report at c_bands before calling an iterative solver
             0 MiB given to the printing process from OS
             0 MiB allocation reported by mallinfo(arena+hblkhd)
         22481 MiB available memory on the node where the printing process lives
------------------
     ethr =  5.91E-11,  avg # of iterations =  3.0

     negative rho (up, down):  7.925E-01 0.000E+00

     total cpu time spent up to now is      745.1 secs

     total energy              =   -4441.65326097 Ry
     estimated scf accuracy    <       0.00000015 Ry

     iteration # 42     ecut=    60.00 Ry     beta= 0.15
     Davidson diagonalization with overlap

---- Real-time Memory Report at c_bands before calling an iterative solver
             0 MiB given to the printing process from OS
             0 MiB allocation reported by mallinfo(arena+hblkhd)
         22480 MiB available memory on the node where the printing process lives
------------------
     ethr =  3.42E-11,  avg # of iterations =  2.7

     negative rho (up, down):  7.925E-01 0.000E+00

     total cpu time spent up to now is      762.3 secs

     total energy              =   -4441.65326098 Ry
     estimated scf accuracy    <       0.00000006 Ry

     iteration # 43     ecut=    60.00 Ry     beta= 0.15
     Davidson diagonalization with overlap

---- Real-time Memory Report at c_bands before calling an iterative solver
             0 MiB given to the printing process from OS
             0 MiB allocation reported by mallinfo(arena+hblkhd)
         22479 MiB available memory on the node where the printing process lives
------------------
     ethr =  1.34E-11,  avg # of iterations =  2.1

     negative rho (up, down):  7.925E-01 0.000E+00

     total cpu time spent up to now is      779.4 secs

     total energy              =   -4441.65326101 Ry
     estimated scf accuracy    <       0.00000003 Ry

     iteration # 44     ecut=    60.00 Ry     beta= 0.15
     Davidson diagonalization with overlap

---- Real-time Memory Report at c_bands before calling an iterative solver
             0 MiB given to the printing process from OS
             0 MiB allocation reported by mallinfo(arena+hblkhd)
         22480 MiB available memory on the node where the printing process lives
------------------
     ethr =  6.20E-12,  avg # of iterations =  2.4

     negative rho (up, down):  7.925E-01 0.000E+00

     total cpu time spent up to now is      796.1 secs

     total energy              =   -4441.65326102 Ry
     estimated scf accuracy    <       0.00000001 Ry

     iteration # 45     ecut=    60.00 Ry     beta= 0.15
     Davidson diagonalization with overlap

---- Real-time Memory Report at c_bands before calling an iterative solver
             0 MiB given to the printing process from OS
             0 MiB allocation reported by mallinfo(arena+hblkhd)
         22481 MiB available memory on the node where the printing process lives
------------------
     ethr =  3.26E-12,  avg # of iterations =  2.2

     negative rho (up, down):  7.925E-01 0.000E+00

     total cpu time spent up to now is      812.1 secs

     End of self-consistent calculation

          k = 0.0000 0.0000 0.0000 ( 65197 PWs)   bands (ev):

   -92.6832 -92.6308 -92.5370 -92.4906 -92.4314 -92.3894 -92.3728 -92.2533
   -56.0366 -56.0176 -55.8944 -55.8839 -55.8777 -55.8707 -55.8356 -55.8063
   -55.7915 -55.7888 -55.7806 -55.7392 -55.7209 -55.6827 -55.6634 -55.6311
   -55.6263 -55.5782 -55.5772 -55.5747 -55.5663 -55.5283 -55.5029 -55.4200
   -31.2610 -31.2414 -31.1000 -31.0936 -31.0129 -31.0100 -30.7633 -30.6509
   -29.8311 -29.7870 -29.7621 -29.6528 -15.0637 -15.0177 -14.9393 -14.8086
   -14.6163 -14.4917 -14.2015 -14.1815 -14.1521 -14.1072 -14.0607 -14.0511
   -14.0399 -14.0223 -13.9986 -13.9698 -13.9402 -13.9121 -13.7617 -13.5845
   -13.5498 -13.5192 -13.4890 -13.4711 -13.4172 -13.3839 -13.3055 -13.2336
   -13.1184 -13.0973 -13.0928 -13.0727 -13.0576 -13.0401 -12.9925 -12.9853
   -12.9559 -12.9378 -12.9109 -12.9058 -12.8891 -12.8815 -12.8628 -12.7601
   -12.7342 -12.6970 -12.5943 -12.5746 -12.5530 -12.3253 -12.1798 -11.9942
   -11.9172 -11.8440 -11.7700 -11.7591 -11.7358 -11.7183 -11.6547 -11.6375
   -11.6027 -11.5742 -11.4616 -11.3822 -11.3785  -2.9236  -2.6914  -2.4617
    -2.3151  -2.2519  -2.1099  -1.8029  -1.7888  -1.7690  -1.6850  -1.6650
    -1.5971  -1.5808  -1.5402  -1.4942  -1.3136  -1.0921  -1.0815  -1.0556
    -0.9133  -0.8986  -0.8519  -0.8342  -0.7879  -0.7721  -0.7158  -0.6896
    -0.6174  -0.6022  -0.5293  -0.3980  -0.3848  -0.3558  -0.2749  -0.2585
    -0.2488  -0.1794  -0.1102  -0.0672  -0.0118   0.0144   0.0858   0.1643
     0.1990   0.2252   0.2489   0.4899   0.5048   0.6787   0.7427   0.8088
     0.8728   0.9467   0.9610   0.9835   1.0399   1.0672   1.1025   1.1595
     1.2912   1.3502   1.3731   1.3942   1.4025   1.4679   1.5391   1.6438
     1.6580   1.7213   1.7331   1.7752   1.7980   1.8026   1.8616   1.9148
     1.9324   1.9677   2.0257   2.0464   2.1771   2.2581   2.3018   2.3280
     2.4524   2.4838   2.4938   2.5168   2.5299   2.5344   2.6490   2.6758
     2.7043   2.7224   2.7358   2.8166   2.9251   2.9564   2.9688   2.9755
     3.0430   3.0465   3.0714   3.0791   3.0884   3.1020   3.1067   3.1206
     3.1261   3.1395   3.1481   3.1557   3.1745   3.1953   3.2008   3.2123
     3.2382   3.3533   3.4359   4.1277   4.4481   4.7836   4.8762   5.0645
     5.7394   5.9498   6.0014   6.0351   6.3316   6.3790   6.4927   6.4997
     6.7291   7.0187   7.1067   7.3318   7.4849   7.5459   7.6575   7.6783
     7.6948   7.8440   7.9532   8.0559   8.1252   8.1737   8.3513   8.4253
     8.7286   8.8565   8.9133

     occupation numbers 
     1.0000   1.0000   1.0000   1.0000   1.0000   1.0000   1.0000   1.0000
     1.0000   1.0000   1.0000   1.0000   1.0000   1.0000   1.0000   1.0000
     1.0000   1.0000   1.0000   1.0000   1.0000   1.0000   1.0000   1.0000
     1.0000   1.0000   1.0000   1.0000   1.0000   1.0000   1.0000   1.0000
     1.0000   1.0000   1.0000   1.0000   1.0000   1.0000   1.0000   1.0000
     1.0000   1.0000   1.0000   1.0000   1.0000   1.0000   1.0000   1.0000
     1.0000   1.0000   1.0000   1.0000   1.0000   1.0000   1.0000   1.0000
     1.0000   1.0000   1.0000   1.0000   1.0000   1.0000   1.0000   1.0000
     1.0000   1.0000   1.0000   1.0000   1.0000   1.0000   1.0000   1.0000
     1.0000   1.0000   1.0000   1.0000   1.0000   1.0000   1.0000   1.0000
     1.0000   1.0000   1.0000   1.0000   1.0000   1.0000   1.0000   1.0000
     1.0000   1.0000   1.0000   1.0000   1.0000   1.0000   1.0000   1.0000
     1.0000   1.0000   1.0000   1.0000   1.0000   1.0000   1.0000   1.0000
     1.0000   1.0000   1.0000   1.0000   1.0000   1.0000   1.0000   1.0000
     1.0000   1.0000   1.0000   1.0000   1.0000   1.0000   1.0000   1.0000
     1.0000   1.0000   1.0000   1.0000   1.0000   1.0000   1.0000   1.0000
     1.0000   1.0000   1.0000   1.0000   1.0000   1.0000   1.0000   1.0000
     1.0000   1.0000   1.0000   1.0000   1.0000   1.0000   1.0000   1.0000
     1.0000   1.0000   1.0000   1.0000   1.0000   1.0000   1.0000   1.0000
     1.0000   1.0000   1.0000   1.0000   1.0000   1.0000   0.9999   0.9999
     0.9999   0.9998   0.9998   0.9998   0.9997   0.9996   0.9996   0.9994
     0.9989   0.9985   0.9983   0.9981   0.9980   0.9973   0.9963   0.9942
     0.9939   0.9920   0.9916   0.9901   0.9892   0.9890   0.9862   0.9831
     0.9820   0.9795   0.9749   0.9730   0.9585   0.9466   0.9392   0.9344
     0.9073   0.8994   0.8967   0.8905   0.8868   0.8855   0.8491   0.8396
     0.8291   0.8222   0.8169   0.7834   0.7333   0.7178   0.7115   0.7081
     0.6728   0.6709   0.6575   0.6532   0.6481   0.6406   0.6380   0.6302
     0.6271   0.6196   0.6147   0.6104   0.5996   0.5877   0.5845   0.5778
     0.5627   0.4948   0.4460   0.1224   0.0506   0.0163   0.0115   0.0053
     0.0002   0.0001   0.0000   0.0000   0.0000   0.0000   0.0000   0.0000
     0.0000   0.0000   0.0000   0.0000   0.0000   0.0000   0.0000   0.0000
     0.0000   0.0000   0.0000   0.0000   0.0000   0.0000   0.0000   0.0000
     0.0000   0.0000   0.0000

          k = 0.0000 0.2500 0.0000 ( 65257 PWs)   bands (ev):

   -92.6832 -92.6308 -92.5370 -92.4906 -92.4314 -92.3894 -92.3728 -92.2533
   -56.0366 -56.0176 -55.8944 -55.8839 -55.8777 -55.8707 -55.8356 -55.8063
   -55.7915 -55.7888 -55.7806 -55.7392 -55.7209 -55.6828 -55.6634 -55.6311
   -55.6263 -55.5782 -55.5772 -55.5747 -55.5663 -55.5283 -55.5029 -55.4200
   -31.2608 -31.2413 -31.1002 -31.0932 -31.0130 -31.0104 -30.7630 -30.6512
   -29.8304 -29.7867 -29.7627 -29.6531 -15.0272 -14.9914 -14.9140 -14.7794
   -14.6565 -14.4832 -14.3465 -14.1677 -14.1317 -14.1123 -14.0837 -14.0245
   -14.0189 -14.0031 -13.9847 -13.9467 -13.9340 -13.8308 -13.7921 -13.6305
   -13.6096 -13.5608 -13.5248 -13.4798 -13.4367 -13.3949 -13.3257 -13.2911
   -13.2275 -13.1507 -13.1302 -13.0933 -13.0840 -13.0534 -12.9788 -12.9563
   -12.9259 -12.9131 -12.8847 -12.8498 -12.8292 -12.8027 -12.7815 -12.7427
   -12.7196 -12.6752 -12.5929 -12.4949 -12.4297 -12.3867 -12.2310 -12.0503
   -11.9829 -11.8094 -11.7668 -11.7389 -11.7107 -11.6940 -11.6465 -11.6353
   -11.6129 -11.5786 -11.4760 -11.4238 -11.4132  -2.7883  -2.5670  -2.4292
    -2.2475  -2.2040  -2.0403  -1.8214  -1.7364  -1.7235  -1.6661  -1.5636
    -1.5471  -1.5126  -1.4866  -1.4427  -1.2451  -1.1168  -1.1090  -1.0759
    -1.0273  -1.0173  -0.9128  -0.8840  -0.8261  -0.8008  -0.7601  -0.6961
    -0.6695  -0.6374  -0.6053  -0.5875  -0.5558  -0.4828  -0.4309  -0.3634
    -0.2553  -0.2347  -0.1926  -0.0746  -0.0403   0.0298   0.0735   0.1454
     0.1731   0.1865   0.2390   0.5403   0.6250   0.6536   0.7486   0.7943
     0.8316   0.9316   0.9554   1.0437   1.0692   1.0946   1.2105   1.3036
     1.3251   1.3486   1.3687   1.3936   1.4530   1.4805   1.5067   1.5552
     1.5910   1.6200   1.7016   1.7365   1.7791   1.8285   1.8803   1.9244
     1.9576   1.9883   1.9984   2.1015   2.2092   2.2841   2.3101   2.3773
     2.4238   2.4580   2.4717   2.4774   2.5208   2.5376   2.5723   2.6661
     2.6971   2.7134   2.8829   2.9051   2.9374   2.9592   2.9762   2.9845
     2.9919   3.0017   3.0309   3.0341   3.0524   3.0556   3.0661   3.0838
     3.0954   3.1032   3.1258   3.1367   3.1416   3.1761   3.1925   3.2541
     3.6210   3.6599   3.9013   4.3215   4.4421   4.7239   5.0286   5.0904
     5.6550   5.8134   5.9194   5.9971   6.0995   6.1261   6.1999   6.6081
     6.8270   7.0722   7.1380   7.3431   7.4965   7.5111   7.5768   7.6589
     7.8453   7.9529   8.0194   8.1796   8.2485   8.3222   8.3754   8.4228
     8.6195   8.8424   8.9445

     occupation numbers 
     1.0000   1.0000   1.0000   1.0000   1.0000   1.0000   1.0000   1.0000
     1.0000   1.0000   1.0000   1.0000   1.0000   1.0000   1.0000   1.0000
     1.0000   1.0000   1.0000   1.0000   1.0000   1.0000   1.0000   1.0000
     1.0000   1.0000   1.0000   1.0000   1.0000   1.0000   1.0000   1.0000
     1.0000   1.0000   1.0000   1.0000   1.0000   1.0000   1.0000   1.0000
     1.0000   1.0000   1.0000   1.0000   1.0000   1.0000   1.0000   1.0000
     1.0000   1.0000   1.0000   1.0000   1.0000   1.0000   1.0000   1.0000
     1.0000   1.0000   1.0000   1.0000   1.0000   1.0000   1.0000   1.0000
     1.0000   1.0000   1.0000   1.0000   1.0000   1.0000   1.0000   1.0000
     1.0000   1.0000   1.0000   1.0000   1.0000   1.0000   1.0000   1.0000
     1.0000   1.0000   1.0000   1.0000   1.0000   1.0000   1.0000   1.0000
     1.0000   1.0000   1.0000   1.0000   1.0000   1.0000   1.0000   1.0000
     1.0000   1.0000   1.0000   1.0000   1.0000   1.0000   1.0000   1.0000
     1.0000   1.0000   1.0000   1.0000   1.0000   1.0000   1.0000   1.0000
     1.0000   1.0000   1.0000   1.0000   1.0000   1.0000   1.0000   1.0000
     1.0000   1.0000   1.0000   1.0000   1.0000   1.0000   1.0000   1.0000
     1.0000   1.0000   1.0000   1.0000   1.0000   1.0000   1.0000   1.0000
     1.0000   1.0000   1.0000   1.0000   1.0000   1.0000   1.0000   1.0000
     1.0000   1.0000   1.0000   1.0000   1.0000   1.0000   1.0000   1.0000
     1.0000   1.0000   1.0000   1.0000   1.0000   1.0000   0.9999   0.9999
     0.9999   0.9998   0.9998   0.9997   0.9996   0.9996   0.9992   0.9988
     0.9986   0.9985   0.9983   0.9981   0.9975   0.9972   0.9968   0.9961
     0.9954   0.9948   0.9926   0.9915   0.9899   0.9878   0.9852   0.9825
     0.9803   0.9780   0.9772   0.9675   0.9541   0.9423   0.9377   0.9245
     0.9142   0.9060   0.9025   0.9010   0.8894   0.8846   0.8742   0.8431
     0.8318   0.8256   0.7534   0.7429   0.7272   0.7164   0.7077   0.7035
     0.6997   0.6946   0.6793   0.6776   0.6678   0.6660   0.6603   0.6506
     0.6443   0.6399   0.6273   0.6212   0.6184   0.5987   0.5893   0.5534
     0.3407   0.3197   0.2041   0.0734   0.0516   0.0203   0.0062   0.0048
     0.0003   0.0001   0.0001   0.0000   0.0000   0.0000   0.0000   0.0000
     0.0000   0.0000   0.0000   0.0000   0.0000   0.0000   0.0000   0.0000
     0.0000   0.0000   0.0000   0.0000   0.0000   0.0000   0.0000   0.0000
     0.0000   0.0000   0.0000

          k = 0.0000-0.5000 0.0000 ( 65180 PWs)   bands (ev):

   -92.6832 -92.6308 -92.5370 -92.4906 -92.4314 -92.3894 -92.3728 -92.2533
   -56.0366 -56.0176 -55.8944 -55.8839 -55.8777 -55.8707 -55.8356 -55.8063
   -55.7915 -55.7888 -55.7806 -55.7392 -55.7209 -55.6828 -55.6634 -55.6311
   -55.6263 -55.5782 -55.5772 -55.5747 -55.5663 -55.5283 -55.5029 -55.4200
   -31.2606 -31.2411 -31.1004 -31.0929 -31.0132 -31.0108 -30.7627 -30.6515
   -29.8298 -29.7864 -29.7634 -29.6535 -14.9912 -14.9428 -14.8888 -14.7607
   -14.6781 -14.5402 -14.3875 -14.2627 -14.1399 -14.0693 -14.0250 -14.0202
   -13.9699 -13.9532 -13.9415 -13.9042 -13.8829 -13.8587 -13.8246 -13.7867
   -13.7455 -13.5661 -13.5075 -13.4865 -13.4389 -13.3990 -13.3410 -13.2939
   -13.2663 -13.2334 -13.2010 -13.0947 -13.0848 -13.0328 -12.9973 -12.9491
   -12.9331 -12.9117 -12.8650 -12.8119 -12.7958 -12.7446 -12.7073 -12.6884
   -12.6543 -12.6350 -12.5964 -12.4977 -12.3668 -12.3061 -12.2340 -12.1552
   -12.1086 -11.7637 -11.7611 -11.7337 -11.6967 -11.6623 -11.6512 -11.6084
   -11.6045 -11.5599 -11.4979 -11.4843 -11.4702  -2.5740  -2.5136  -2.3639
    -2.2920  -2.0109  -1.9266  -1.7997  -1.6625  -1.6252  -1.6057  -1.5261
    -1.4956  -1.4136  -1.3784  -1.3010  -1.2616  -1.2227  -1.1956  -1.1356
    -1.1011  -1.0806  -1.0525  -1.0164  -0.9841  -0.9481  -0.8408  -0.7960
    -0.7605  -0.7593  -0.6733  -0.6402  -0.6187  -0.5662  -0.4839  -0.4136
    -0.3280  -0.3010  -0.1983  -0.1481  -0.0112   0.0297   0.0514   0.1273
     0.2576   0.2841   0.4096   0.4791   0.4870   0.6130   0.6619   0.8082
     0.8917   1.0039   1.0328   1.0707   1.0750   1.1244   1.1346   1.1668
     1.1862   1.1938   1.3042   1.3659   1.3969   1.4234   1.6800   1.7138
     1.7388   1.8343   1.8704   1.8834   1.9009   1.9298   1.9429   1.9668
     1.9905   2.0210   2.0542   2.0875   2.0913   2.1223   2.1719   2.2556
     2.2825   2.4573   2.4724   2.5172   2.6212   2.6327   2.6615   2.6861
     2.6914   2.7010   2.7512   2.7630   2.8168   2.8392   2.9164   2.9296
     2.9964   3.0060   3.0271   3.0302   3.0484   3.0553   3.0592   3.0610
     3.0650   3.0770   3.0958   3.0970   3.1613   3.1666   3.1822   3.2362
     4.1615   4.1719   4.1950   4.2739   4.7704   4.9165   5.0412   5.1786
     5.4291   5.4806   5.5970   5.7425   6.0424   6.0676   6.2553   6.4777
     6.8643   6.9646   7.2278   7.3171   7.3594   7.4819   7.6879   7.7727
     7.9245   8.0154   8.1924   8.2354   8.2865   8.4600   8.5252   8.6882
     8.8157   8.8293   8.8841

     occupation numbers 
     1.0000   1.0000   1.0000   1.0000   1.0000   1.0000   1.0000   1.0000
     1.0000   1.0000   1.0000   1.0000   1.0000   1.0000   1.0000   1.0000
     1.0000   1.0000   1.0000   1.0000   1.0000   1.0000   1.0000   1.0000
     1.0000   1.0000   1.0000   1.0000   1.0000   1.0000   1.0000   1.0000
     1.0000   1.0000   1.0000   1.0000   1.0000   1.0000   1.0000   1.0000
     1.0000   1.0000   1.0000   1.0000   1.0000   1.0000   1.0000   1.0000
     1.0000   1.0000   1.0000   1.0000   1.0000   1.0000   1.0000   1.0000
     1.0000   1.0000   1.0000   1.0000   1.0000   1.0000   1.0000   1.0000
     1.0000   1.0000   1.0000   1.0000   1.0000   1.0000   1.0000   1.0000
     1.0000   1.0000   1.0000   1.0000   1.0000   1.0000   1.0000   1.0000
     1.0000   1.0000   1.0000   1.0000   1.0000   1.0000   1.0000   1.0000
     1.0000   1.0000   1.0000   1.0000   1.0000   1.0000   1.0000   1.0000
     1.0000   1.0000   1.0000   1.0000   1.0000   1.0000   1.0000   1.0000
     1.0000   1.0000   1.0000   1.0000   1.0000   1.0000   1.0000   1.0000
     1.0000   1.0000   1.0000   1.0000   1.0000   1.0000   1.0000   1.0000
     1.0000   1.0000   1.0000   1.0000   1.0000   1.0000   1.0000   1.0000
     1.0000   1.0000   1.0000   1.0000   1.0000   1.0000   1.0000   1.0000
     1.0000   1.0000   1.0000   1.0000   1.0000   1.0000   1.0000   1.0000
     1.0000   1.0000   1.0000   1.0000   1.0000   1.0000   1.0000   1.0000
     1.0000   1.0000   1.0000   1.0000   1.0000   1.0000   1.0000   0.9999
     0.9999   0.9997   0.9997   0.9996   0.9996   0.9995   0.9995   0.9994
     0.9993   0.9993   0.9988   0.9983   0.9981   0.9978   0.9933   0.9923
     0.9914   0.9875   0.9857   0.9850   0.9840   0.9822   0.9813   0.9796
     0.9778   0.9753   0.9723   0.9690   0.9686   0.9652   0.9592   0.9470
     0.9426   0.9061   0.9023   0.8903   0.8586   0.8547   0.8447   0.8359
     0.8339   0.8303   0.8108   0.8060   0.7833   0.7734   0.7375   0.7311
     0.6974   0.6924   0.6813   0.6796   0.6699   0.6662   0.6641   0.6631
     0.6609   0.6544   0.6440   0.6434   0.6072   0.6041   0.5952   0.5639
     0.1125   0.1096   0.1033   0.0838   0.0171   0.0098   0.0059   0.0032
     0.0010   0.0008   0.0004   0.0002   0.0000   0.0000   0.0000   0.0000
     0.0000   0.0000   0.0000   0.0000   0.0000   0.0000   0.0000   0.0000
     0.0000   0.0000   0.0000   0.0000   0.0000   0.0000   0.0000   0.0000
     0.0000   0.0000   0.0000

          k = 0.2500 0.2500 0.0000 ( 65198 PWs)   bands (ev):

   -92.6832 -92.6308 -92.5370 -92.4906 -92.4314 -92.3894 -92.3728 -92.2533
   -56.0366 -56.0176 -55.8944 -55.8839 -55.8777 -55.8707 -55.8356 -55.8063
   -55.7915 -55.7888 -55.7806 -55.7392 -55.7209 -55.6827 -55.6634 -55.6311
   -55.6263 -55.5782 -55.5772 -55.5747 -55.5663 -55.5283 -55.5029 -55.4200
   -31.2591 -31.2430 -31.0998 -31.0931 -31.0134 -31.0103 -30.7631 -30.6513
   -29.8295 -29.7877 -29.7623 -29.6536 -14.9983 -14.9563 -14.8860 -14.7690
   -14.6495 -14.5233 -14.4525 -14.2459 -14.0913 -14.0780 -14.0418 -14.0122
   -13.9893 -13.9608 -13.9413 -13.9292 -13.9044 -13.8223 -13.8058 -13.6466
   -13.6317 -13.6022 -13.5829 -13.5305 -13.4933 -13.4330 -13.4093 -13.2780
   -13.2290 -13.2114 -13.1255 -13.0859 -13.0464 -13.0264 -13.0011 -12.9731
   -12.9333 -12.9279 -12.9012 -12.8544 -12.8089 -12.7276 -12.7163 -12.6982
   -12.6944 -12.6486 -12.5936 -12.4573 -12.4352 -12.3444 -12.2601 -12.0782
   -12.0294 -11.7818 -11.7501 -11.7393 -11.7324 -11.6695 -11.6350 -11.6282
   -11.5927 -11.5853 -11.4926 -11.4520 -11.4345  -2.6500  -2.4413  -2.3232
    -2.2294  -2.1083  -2.0435  -1.8461  -1.7011  -1.6821  -1.6528  -1.5586
    -1.5228  -1.4298  -1.4019  -1.3523  -1.2221  -1.1722  -1.1017  -1.0767
    -1.0537  -1.0108  -0.9870  -0.9630  -0.9204  -0.9049  -0.8139  -0.7638
    -0.6992  -0.6497  -0.6197  -0.5698  -0.5545  -0.4925  -0.4439  -0.3857
    -0.3518  -0.2670  -0.2141  -0.1848  -0.1463  -0.0908  -0.0187   0.0204
     0.0510   0.1296   0.1859   0.4273   0.5739   0.6092   0.6691   0.7093
     0.7916   0.8559   0.8860   0.9218   1.1932   1.2589   1.3326   1.3566
     1.4068   1.4380   1.4730   1.5092   1.5274   1.5538   1.5982   1.6071
     1.6215   1.6683   1.7128   1.7461   1.8007   1.8452   1.8519   1.8914
     1.9237   1.9820   2.0131   2.1400   2.1942   2.2272   2.2536   2.3236
     2.3890   2.4142   2.4484   2.4652   2.4796   2.4899   2.5148   2.6110
     2.6373   2.7260   2.8940   2.9108   2.9171   2.9332   2.9474   2.9610
     2.9738   2.9810   2.9918   3.0049   3.0177   3.0361   3.0427   3.0540
     3.0760   3.0877   3.0965   3.1286   3.4291   3.5228   3.5642   3.6361
     3.6644   3.8795   3.9724   4.3259   4.5319   4.7340   5.0019   5.1767
     5.6610   5.7175   5.7796   5.8535   5.9116   6.0630   6.1698   6.2273
     6.9019   6.9110   7.1425   7.2271   7.5651   7.6195   7.7263   7.8531
     7.8834   8.0037   8.1700   8.2153   8.2736   8.3508   8.4570   8.4617
     8.5609   8.7670   8.9227

     occupation numbers 
     1.0000   1.0000   1.0000   1.0000   1.0000   1.0000   1.0000   1.0000
     1.0000   1.0000   1.0000   1.0000   1.0000   1.0000   1.0000   1.0000
     1.0000   1.0000   1.0000   1.0000   1.0000   1.0000   1.0000   1.0000
     1.0000   1.0000   1.0000   1.0000   1.0000   1.0000   1.0000   1.0000
     1.0000   1.0000   1.0000   1.0000   1.0000   1.0000   1.0000   1.0000
     1.0000   1.0000   1.0000   1.0000   1.0000   1.0000   1.0000   1.0000
     1.0000   1.0000   1.0000   1.0000   1.0000   1.0000   1.0000   1.0000
     1.0000   1.0000   1.0000   1.0000   1.0000   1.0000   1.0000   1.0000
     1.0000   1.0000   1.0000   1.0000   1.0000   1.0000   1.0000   1.0000
     1.0000   1.0000   1.0000   1.0000   1.0000   1.0000   1.0000   1.0000
     1.0000   1.0000   1.0000   1.0000   1.0000   1.0000   1.0000   1.0000
     1.0000   1.0000   1.0000   1.0000   1.0000   1.0000   1.0000   1.0000
     1.0000   1.0000   1.0000   1.0000   1.0000   1.0000   1.0000   1.0000
     1.0000   1.0000   1.0000   1.0000   1.0000   1.0000   1.0000   1.0000
     1.0000   1.0000   1.0000   1.0000   1.0000   1.0000   1.0000   1.0000
     1.0000   1.0000   1.0000   1.0000   1.0000   1.0000   1.0000   1.0000
     1.0000   1.0000   1.0000   1.0000   1.0000   1.0000   1.0000   1.0000
     1.0000   1.0000   1.0000   1.0000   1.0000   1.0000   1.0000   1.0000
     1.0000   1.0000   1.0000   1.0000   1.0000   1.0000   1.0000   1.0000
     1.0000   1.0000   1.0000   1.0000   1.0000   1.0000   1.0000   1.0000
     0.9999   0.9999   0.9999   0.9998   0.9993   0.9990   0.9986   0.9984
     0.9980   0.9977   0.9973   0.9968   0.9965   0.9961   0.9952   0.9951
     0.9947   0.9936   0.9923   0.9912   0.9891   0.9870   0.9867   0.9845
     0.9826   0.9785   0.9760   0.9631   0.9562   0.9514   0.9474   0.9352
     0.9220   0.9164   0.9083   0.9042   0.9005   0.8978   0.8910   0.8619
     0.8532   0.8208   0.7482   0.7402   0.7372   0.7293   0.7223   0.7155
     0.7090   0.7053   0.6998   0.6930   0.6863   0.6765   0.6730   0.6669
     0.6549   0.6485   0.6436   0.6257   0.4500   0.3956   0.3721   0.3325
     0.3173   0.2135   0.1756   0.0725   0.0389   0.0195   0.0069   0.0033
     0.0003   0.0002   0.0001   0.0001   0.0001   0.0000   0.0000   0.0000
     0.0000   0.0000   0.0000   0.0000   0.0000   0.0000   0.0000   0.0000
     0.0000   0.0000   0.0000   0.0000   0.0000   0.0000   0.0000   0.0000
     0.0000   0.0000   0.0000

          k = 0.2500-0.5000 0.0000 ( 65138 PWs)   bands (ev):

   -92.6832 -92.6308 -92.5370 -92.4906 -92.4314 -92.3894 -92.3728 -92.2533
   -56.0366 -56.0175 -55.8944 -55.8839 -55.8777 -55.8707 -55.8356 -55.8063
   -55.7915 -55.7888 -55.7806 -55.7392 -55.7209 -55.6828 -55.6634 -55.6311
   -55.6263 -55.5782 -55.5772 -55.5747 -55.5663 -55.5283 -55.5029 -55.4200
   -31.2589 -31.2428 -31.1000 -31.0928 -31.0136 -31.0107 -30.7628 -30.6516
   -29.8289 -29.7874 -29.7630 -29.6539 -14.9603 -14.9159 -14.8455 -14.7311
   -14.7010 -14.5808 -14.4910 -14.3602 -14.0558 -14.0026 -13.9759 -13.9543
   -13.9415 -13.9389 -13.9251 -13.8886 -13.8713 -13.8385 -13.8020 -13.7743
   -13.7389 -13.6486 -13.6001 -13.5474 -13.5207 -13.4569 -13.4448 -13.3350
   -13.2806 -13.1897 -13.1253 -13.1058 -13.0268 -13.0022 -12.9844 -12.9672
   -12.9446 -12.9247 -12.8943 -12.8139 -12.7909 -12.7418 -12.7223 -12.6666
   -12.6391 -12.6113 -12.5971 -12.5043 -12.3467 -12.3035 -12.2092 -12.1446
   -12.1128 -11.7575 -11.7454 -11.7345 -11.7075 -11.6759 -11.6476 -11.6062
   -11.5785 -11.5564 -11.5109 -11.4856 -11.4742  -2.4323  -2.3653  -2.2377
    -2.1608  -2.0313  -1.9464  -1.8241  -1.6738  -1.6201  -1.5979  -1.5345
    -1.5215  -1.4244  -1.3576  -1.2729  -1.2228  -1.2137  -1.1507  -1.1069
    -1.0799  -1.0724  -1.0254  -0.9889  -0.9538  -0.9136  -0.9021  -0.8564
    -0.8274  -0.7864  -0.7544  -0.6880  -0.5862  -0.5436  -0.4685  -0.4036
    -0.3545  -0.3120  -0.2909  -0.2393  -0.0779  -0.0661   0.0414   0.0769
     0.0884   0.1363   0.1602   0.2094   0.2279   0.2926   0.5630   0.6588
     0.7615   0.8324   1.0511   1.0818   1.1651   1.1909   1.3558   1.3899
     1.4321   1.4524   1.4698   1.4896   1.5528   1.5985   1.6341   1.7215
     1.8009   1.8444   1.8657   1.8799   1.9117   1.9255   1.9299   1.9783
     1.9893   2.0070   2.0535   2.0628   2.0791   2.1208   2.1725   2.2099
     2.2884   2.4351   2.4573   2.5099   2.5750   2.5952   2.6166   2.6370
     2.6612   2.6891   2.7097   2.7254   2.7484   2.8452   2.8935   2.9128
     2.9172   2.9304   2.9508   2.9649   2.9836   2.9914   3.0233   3.0358
     3.0498   3.0602   3.0693   3.0788   3.6077   3.6123   3.7605   3.8103
     4.1659   4.2002   4.2157   4.3325   4.7885   4.9391   5.0793   5.1509
     5.3227   5.4470   5.6195   5.6518   5.7846   5.8039   6.3428   6.4096
     6.5013   6.6079   7.2550   7.3479   7.5677   7.7172   7.8118   7.8404
     7.8961   8.0557   8.2299   8.4071   8.4459   8.5291   8.5609   8.5802
     8.7258   8.7417   8.8139

     occupation numbers 
     1.0000   1.0000   1.0000   1.0000   1.0000   1.0000   1.0000   1.0000
     1.0000   1.0000   1.0000   1.0000   1.0000   1.0000   1.0000   1.0000
     1.0000   1.0000   1.0000   1.0000   1.0000   1.0000   1.0000   1.0000
     1.0000   1.0000   1.0000   1.0000   1.0000   1.0000   1.0000   1.0000
     1.0000   1.0000   1.0000   1.0000   1.0000   1.0000   1.0000   1.0000
     1.0000   1.0000   1.0000   1.0000   1.0000   1.0000   1.0000   1.0000
     1.0000   1.0000   1.0000   1.0000   1.0000   1.0000   1.0000   1.0000
     1.0000   1.0000   1.0000   1.0000   1.0000   1.0000   1.0000   1.0000
     1.0000   1.0000   1.0000   1.0000   1.0000   1.0000   1.0000   1.0000
     1.0000   1.0000   1.0000   1.0000   1.0000   1.0000   1.0000   1.0000
     1.0000   1.0000   1.0000   1.0000   1.0000   1.0000   1.0000   1.0000
     1.0000   1.0000   1.0000   1.0000   1.0000   1.0000   1.0000   1.0000
     1.0000   1.0000   1.0000   1.0000   1.0000   1.0000   1.0000   1.0000
     1.0000   1.0000   1.0000   1.0000   1.0000   1.0000   1.0000   1.0000
     1.0000   1.0000   1.0000   1.0000   1.0000   1.0000   1.0000   1.0000
     1.0000   1.0000   1.0000   1.0000   1.0000   1.0000   1.0000   1.0000
     1.0000   1.0000   1.0000   1.0000   1.0000   1.0000   1.0000   1.0000
     1.0000   1.0000   1.0000   1.0000   1.0000   1.0000   1.0000   1.0000
     1.0000   1.0000   1.0000   1.0000   1.0000   1.0000   1.0000   1.0000
     1.0000   1.0000   1.0000   1.0000   1.0000   1.0000   1.0000   1.0000
     0.9999   0.9999   0.9997   0.9996   0.9994   0.9993   0.9984   0.9981
     0.9977   0.9975   0.9973   0.9971   0.9961   0.9952   0.9945   0.9920
     0.9890   0.9870   0.9859   0.9852   0.9833   0.9824   0.9822   0.9787
     0.9779   0.9765   0.9724   0.9715   0.9699   0.9654   0.9591   0.9540
     0.9416   0.9115   0.9061   0.8924   0.8734   0.8671   0.8601   0.8532
     0.8449   0.8347   0.8270   0.8210   0.8119   0.7708   0.7484   0.7393
     0.7371   0.7307   0.7206   0.7135   0.7040   0.6999   0.6833   0.6766
     0.6691   0.6635   0.6586   0.6534   0.3479   0.3454   0.2684   0.2445
     0.1113   0.1019   0.0979   0.0712   0.0160   0.0089   0.0050   0.0037
     0.0017   0.0009   0.0004   0.0003   0.0001   0.0001   0.0000   0.0000
     0.0000   0.0000   0.0000   0.0000   0.0000   0.0000   0.0000   0.0000
     0.0000   0.0000   0.0000   0.0000   0.0000   0.0000   0.0000   0.0000
     0.0000   0.0000   0.0000

          k =-0.5000-0.5000 0.0000 ( 65132 PWs)   bands (ev):

   -92.6832 -92.6308 -92.5370 -92.4906 -92.4314 -92.3894 -92.3728 -92.2533
   -56.0366 -56.0176 -55.8944 -55.8839 -55.8777 -55.8707 -55.8356 -55.8063
   -55.7915 -55.7888 -55.7806 -55.7392 -55.7209 -55.6828 -55.6634 -55.6311
   -55.6263 -55.5781 -55.5772 -55.5747 -55.5663 -55.5283 -55.5029 -55.4200
   -31.2568 -31.2450 -31.0997 -31.0927 -31.0139 -31.0106 -30.7629 -30.6517
   -29.8279 -29.7884 -29.7626 -29.6543 -14.9129 -14.8889 -14.7712 -14.7581
   -14.6643 -14.6273 -14.5955 -14.4600 -13.9658 -13.9554 -13.9413 -13.9193
   -13.9032 -13.8834 -13.8689 -13.8417 -13.8287 -13.8172 -13.8088 -13.7942
   -13.7161 -13.7084 -13.6812 -13.6451 -13.6343 -13.5415 -13.5167 -13.3763
   -13.3191 -13.1398 -13.1036 -13.0338 -13.0086 -12.9944 -12.9785 -12.9669
   -12.9576 -12.9415 -12.9308 -12.8170 -12.7789 -12.7462 -12.7247 -12.6852
   -12.6133 -12.5866 -12.5782 -12.5206 -12.3280 -12.2998 -12.1821 -12.1311
   -12.1225 -11.7538 -11.7419 -11.7240 -11.7071 -11.6722 -11.6539 -11.6202
   -11.5586 -11.5391 -11.5331 -11.4833 -11.4800  -2.2080  -2.1330  -2.1223
    -2.0482  -2.0113  -1.9333  -1.8656  -1.7397  -1.6242  -1.5940  -1.5544
    -1.4969  -1.4255  -1.4109  -1.3404  -1.2973  -1.1810  -1.1512  -1.1030
    -1.0779  -1.0742  -1.0101  -0.9640  -0.9450  -0.9328  -0.8788  -0.8351
    -0.8203  -0.7062  -0.6472  -0.6013  -0.5534  -0.5241  -0.5136  -0.4791
    -0.4357  -0.4017  -0.3909  -0.3032  -0.2391  -0.1925  -0.1668  -0.0936
    -0.0381  -0.0212   0.0340   0.0634   0.0743   0.1066   0.5348   0.5758
     0.6971   0.7752   1.0862   1.0989   1.1293   1.1698   1.4411   1.4611
     1.4682   1.5084   1.6345   1.7306   1.7568   1.7930   1.8127   1.8427
     1.8474   1.8765   1.8859   1.9025   1.9154   1.9666   1.9700   1.9997
     2.0211   2.0379   2.0511   2.0888   2.1116   2.1309   2.1634   2.1929
     2.2490   2.3205   2.4578   2.5029   2.5910   2.6183   2.6397   2.6555
     2.6730   2.6969   2.7000   2.7202   2.7312   2.7481   2.7690   2.7800
     2.8461   2.8484   2.8701   2.8851   2.8955   2.9154   2.9201   2.9296
     3.0321   3.0365   3.0661   3.0765   4.0448   4.0616   4.0847   4.0907
     4.3387   4.4152   4.4362   4.6770   4.7993   4.8820   5.0106   5.0960
     5.1183   5.2239   5.3176   5.4241   5.8656   5.8937   5.9721   6.0427
     6.5031   6.8738   6.9438   7.1152   7.9001   7.9285   7.9414   7.9617
     7.9940   8.0348   8.1051   8.2776   8.3786   8.6025   8.6303   8.6465
     8.6787   8.7492   8.7624

     occupation numbers 
     1.0000   1.0000   1.0000   1.0000   1.0000   1.0000   1.0000   1.0000
     1.0000   1.0000   1.0000   1.0000   1.0000   1.0000   1.0000   1.0000
     1.0000   1.0000   1.0000   1.0000   1.0000   1.0000   1.0000   1.0000
     1.0000   1.0000   1.0000   1.0000   1.0000   1.0000   1.0000   1.0000
     1.0000   1.0000   1.0000   1.0000   1.0000   1.0000   1.0000   1.0000
     1.0000   1.0000   1.0000   1.0000   1.0000   1.0000   1.0000   1.0000
     1.0000   1.0000   1.0000   1.0000   1.0000   1.0000   1.0000   1.0000
     1.0000   1.0000   1.0000   1.0000   1.0000   1.0000   1.0000   1.0000
     1.0000   1.0000   1.0000   1.0000   1.0000   1.0000   1.0000   1.0000
     1.0000   1.0000   1.0000   1.0000   1.0000   1.0000   1.0000   1.0000
     1.0000   1.0000   1.0000   1.0000   1.0000   1.0000   1.0000   1.0000
     1.0000   1.0000   1.0000   1.0000   1.0000   1.0000   1.0000   1.0000
     1.0000   1.0000   1.0000   1.0000   1.0000   1.0000   1.0000   1.0000
     1.0000   1.0000   1.0000   1.0000   1.0000   1.0000   1.0000   1.0000
     1.0000   1.0000   1.0000   1.0000   1.0000   1.0000   1.0000   1.0000
     1.0000   1.0000   1.0000   1.0000   1.0000   1.0000   1.0000   1.0000
     1.0000   1.0000   1.0000   1.0000   1.0000   1.0000   1.0000   1.0000
     1.0000   1.0000   1.0000   1.0000   1.0000   1.0000   1.0000   1.0000
     1.0000   1.0000   1.0000   1.0000   1.0000   1.0000   1.0000   1.0000
     1.0000   1.0000   1.0000   1.0000   1.0000   1.0000   1.0000   1.0000
     1.0000   0.9999   0.9996   0.9996   0.9995   0.9994   0.9976   0.9974
     0.9973   0.9968   0.9944   0.9917   0.9908   0.9894   0.9885   0.9871
     0.9869   0.9854   0.9848   0.9839   0.9831   0.9796   0.9794   0.9771
     0.9753   0.9738   0.9726   0.9689   0.9664   0.9642   0.9603   0.9564
     0.9481   0.9358   0.9060   0.8943   0.8684   0.8595   0.8523   0.8469
     0.8406   0.8319   0.8307   0.8230   0.8187   0.8121   0.8036   0.7990
     0.7704   0.7693   0.7594   0.7524   0.7475   0.7380   0.7357   0.7310
     0.6786   0.6763   0.6603   0.6547   0.1492   0.1435   0.1359   0.1339
     0.0699   0.0559   0.0525   0.0239   0.0154   0.0112   0.0067   0.0047
     0.0042   0.0026   0.0017   0.0010   0.0001   0.0001   0.0000   0.0000
     0.0000   0.0000   0.0000   0.0000   0.0000   0.0000   0.0000   0.0000
     0.0000   0.0000   0.0000   0.0000   0.0000   0.0000   0.0000   0.0000
     0.0000   0.0000   0.0000

          k = 0.2500 0.0000 0.0000 ( 65257 PWs)   bands (ev):

   -92.6832 -92.6308 -92.5370 -92.4906 -92.4314 -92.3894 -92.3728 -92.2533
   -56.0366 -56.0176 -55.8944 -55.8839 -55.8777 -55.8707 -55.8356 -55.8063
   -55.7915 -55.7888 -55.7806 -55.7392 -55.7209 -55.6828 -55.6634 -55.6311
   -55.6263 -55.5782 -55.5772 -55.5747 -55.5663 -55.5283 -55.5029 -55.4200
   -31.2593 -31.2431 -31.0996 -31.0935 -31.0133 -31.0100 -30.7634 -30.6510
   -29.8301 -29.7880 -29.7617 -29.6532 -15.0309 -14.9863 -14.9198 -14.7721
   -14.6666 -14.4689 -14.3389 -14.1583 -14.1413 -14.1120 -14.0806 -14.0551
   -14.0203 -14.0060 -13.9850 -13.9476 -13.9369 -13.8227 -13.7926 -13.6422
   -13.5750 -13.5632 -13.5020 -13.4751 -13.4625 -13.4073 -13.3285 -13.2960
   -13.2023 -13.1423 -13.1244 -13.0832 -13.0434 -13.0272 -13.0105 -12.9956
   -12.9603 -12.9325 -12.9162 -12.8908 -12.8759 -12.8027 -12.7544 -12.7031
   -12.6146 -12.5983 -12.5842 -12.5497 -12.4964 -12.3888 -12.2320 -12.0455
   -11.9798 -11.8089 -11.7572 -11.7398 -11.7260 -11.6995 -11.6491 -11.6258
   -11.6178 -11.5676 -11.4774 -11.4220 -11.4161  -2.7878  -2.5662  -2.4362
    -2.2637  -2.1997  -2.0300  -1.8227  -1.7455  -1.7015  -1.6668  -1.5662
    -1.5515  -1.5159  -1.4968  -1.4286  -1.2476  -1.1393  -1.1022  -1.0775
    -1.0027  -0.9900  -0.9117  -0.8849  -0.8338  -0.7929  -0.7407  -0.7124
    -0.6630  -0.6363  -0.6180  -0.5619  -0.5455  -0.4570  -0.4477  -0.3842
    -0.2857  -0.2351  -0.1147  -0.0991  -0.0374   0.0074   0.0648   0.0885
     0.1247   0.2048   0.2456   0.5140   0.6480   0.6867   0.7655   0.7983
     0.8418   0.8621   0.9260   1.0411   1.0844   1.1104   1.1475   1.2988
     1.3288   1.3630   1.3694   1.4090   1.4552   1.4983   1.5325   1.5841
     1.6359   1.6524   1.7072   1.7470   1.7914   1.8112   1.8997   1.9054
     1.9330   1.9799   2.0013   2.1224   2.1793   2.2401   2.3213   2.3347
     2.4157   2.4554   2.4875   2.5010   2.5131   2.5563   2.5655   2.5937
     2.6396   2.7638   2.8758   2.8991   2.9311   2.9548   2.9622   2.9842
     2.9935   3.0079   3.0287   3.0345   3.0606   3.0722   3.0786   3.0910
     3.1110   3.1364   3.1401   3.1474   3.1550   3.1647   3.1743   3.3001
     3.6048   3.6488   3.8988   4.2980   4.4797   4.7042   5.0332   5.0838
     5.6488   5.8167   5.9122   6.0276   6.0850   6.1104   6.2017   6.5967
     6.8263   7.0998   7.1270   7.3467   7.4855   7.5713   7.6037   7.6107
     7.7799   7.9274   8.0166   8.2035   8.2680   8.3319   8.3949   8.4230
[...]
     0.3495   0.3256   0.2052   0.0784   0.0459   0.0217   0.0061   0.0049
     0.0003   0.0001   0.0001   0.0000   0.0000   0.0000   0.0000   0.0000
     0.0000   0.0000   0.0000   0.0000   0.0000   0.0000   0.0000   0.0000
     0.0000   0.0000   0.0000   0.0000   0.0000   0.0000   0.0000   0.0000
     0.0000   0.0000   0.0000

          k =-0.5000 0.0000 0.0000 ( 65180 PWs)   bands (ev):

   -92.6832 -92.6308 -92.5370 -92.4906 -92.4314 -92.3894 -92.3728 -92.2533
   -56.0366 -56.0176 -55.8944 -55.8839 -55.8777 -55.8707 -55.8356 -55.8063
   -55.7915 -55.7888 -55.7806 -55.7392 -55.7209 -55.6827 -55.6634 -55.6311
   -55.6263 -55.5782 -55.5772 -55.5747 -55.5663 -55.5283 -55.5029 -55.4200
   -31.2572 -31.2452 -31.0993 -31.0934 -31.0137 -31.0099 -30.7635 -30.6511
   -29.8291 -29.7890 -29.7613 -29.6536 -14.9969 -14.9432 -14.8816 -14.7761
   -14.6702 -14.5267 -14.3774 -14.2430 -14.1145 -14.1032 -14.0908 -14.0260
   -13.9745 -13.9440 -13.9372 -13.8908 -13.8886 -13.8696 -13.8206 -13.8063
   -13.6931 -13.5373 -13.5091 -13.4771 -13.4699 -13.4142 -13.3470 -13.2717
   -13.2508 -13.2273 -13.1963 -13.0785 -13.0375 -13.0256 -13.0034 -12.9933
   -12.9571 -12.9295 -12.9107 -12.8923 -12.8789 -12.6974 -12.6234 -12.6150
   -12.5982 -12.5867 -12.5661 -12.5238 -12.4461 -12.3169 -12.3097 -12.1277
   -12.0831 -11.7613 -11.7393 -11.7329 -11.7175 -11.6997 -11.6583 -11.5960
   -11.5788 -11.5463 -11.4999 -11.4906 -11.4754  -2.5636  -2.5253  -2.3614
    -2.3226  -2.0088  -1.9342  -1.7851  -1.6682  -1.6297  -1.5829  -1.5351
    -1.5108  -1.3876  -1.3434  -1.3271  -1.2451  -1.2104  -1.1929  -1.1634
    -1.1088  -1.0783  -1.0318  -1.0078  -0.9785  -0.8839  -0.8363  -0.7865
    -0.7550  -0.7332  -0.7033  -0.6561  -0.6306  -0.5918  -0.4948  -0.4168
    -0.3569  -0.2945  -0.1292  -0.0804  -0.0385  -0.0065   0.0554   0.0751
     0.2141   0.2482   0.3147   0.4578   0.5568   0.6042   0.7086   0.7677
     0.8863   0.9051   1.0227   1.0487   1.1041   1.1351   1.1747   1.1810
     1.2262   1.2525   1.3181   1.3670   1.4143   1.4246   1.7256   1.7346
     1.7487   1.7632   1.8731   1.8872   1.9035   1.9141   1.9425   1.9553
     1.9989   2.0191   2.0428   2.0954   2.1119   2.1624   2.1911   2.2411
     2.3522   2.4476   2.4790   2.5003   2.5251   2.5337   2.6271   2.6443
     2.6767   2.7434   2.7502   2.7569   2.7866   2.8563   2.8991   2.9453
     2.9731   3.0189   3.0221   3.0245   3.0348   3.0518   3.0621   3.0759
     3.0805   3.1012   3.1066   3.1267   3.1470   3.1518   3.2820   3.2884
     4.1171   4.1405   4.2009   4.3452   4.8083   4.8786   5.0638   5.0663
     5.4965   5.5256   5.6123   5.6686   6.0451   6.0506   6.2353   6.5074
     6.8097   7.0167   7.2947   7.3328   7.3584   7.4117   7.6864   7.7924
     7.8957   7.9332   8.1445   8.2124   8.3835   8.5301   8.5701   8.6574
     8.7762   8.8141   8.9519

     occupation numbers 
     1.0000   1.0000   1.0000   1.0000   1.0000   1.0000   1.0000   1.0000
     1.0000   1.0000   1.0000   1.0000   1.0000   1.0000   1.0000   1.0000
     1.0000   1.0000   1.0000   1.0000   1.0000   1.0000   1.0000   1.0000
     1.0000   1.0000   1.0000   1.0000   1.0000   1.0000   1.0000   1.0000
     1.0000   1.0000   1.0000   1.0000   1.0000   1.0000   1.0000   1.0000
     1.0000   1.0000   1.0000   1.0000   1.0000   1.0000   1.0000   1.0000
     1.0000   1.0000   1.0000   1.0000   1.0000   1.0000   1.0000   1.0000
     1.0000   1.0000   1.0000   1.0000   1.0000   1.0000   1.0000   1.0000
     1.0000   1.0000   1.0000   1.0000   1.0000   1.0000   1.0000   1.0000
     1.0000   1.0000   1.0000   1.0000   1.0000   1.0000   1.0000   1.0000
     1.0000   1.0000   1.0000   1.0000   1.0000   1.0000   1.0000   1.0000
     1.0000   1.0000   1.0000   1.0000   1.0000   1.0000   1.0000   1.0000
     1.0000   1.0000   1.0000   1.0000   1.0000   1.0000   1.0000   1.0000
     1.0000   1.0000   1.0000   1.0000   1.0000   1.0000   1.0000   1.0000
     1.0000   1.0000   1.0000   1.0000   1.0000   1.0000   1.0000   1.0000
     1.0000   1.0000   1.0000   1.0000   1.0000   1.0000   1.0000   1.0000
     1.0000   1.0000   1.0000   1.0000   1.0000   1.0000   1.0000   1.0000
     1.0000   1.0000   1.0000   1.0000   1.0000   1.0000   1.0000   1.0000
     1.0000   1.0000   1.0000   1.0000   1.0000   1.0000   1.0000   1.0000
     1.0000   1.0000   1.0000   1.0000   1.0000   1.0000   1.0000   0.9999
     0.9999   0.9999   0.9997   0.9997   0.9996   0.9995   0.9994   0.9993
     0.9992   0.9991   0.9987   0.9983   0.9979   0.9978   0.9919   0.9916
     0.9911   0.9906   0.9855   0.9848   0.9838   0.9832   0.9813   0.9804
     0.9771   0.9755   0.9734   0.9682   0.9664   0.9604   0.9566   0.9493
     0.9297   0.9085   0.9006   0.8950   0.8881   0.8857   0.8566   0.8508
     0.8393   0.8140   0.8112   0.8085   0.7963   0.7657   0.7458   0.7233
     0.7093   0.6856   0.6839   0.6827   0.6772   0.6681   0.6625   0.6550
     0.6524   0.6410   0.6380   0.6268   0.6153   0.6126   0.5370   0.5332
     0.1256   0.1186   0.1017   0.0686   0.0149   0.0114   0.0053   0.0053
     0.0007   0.0006   0.0004   0.0003   0.0000   0.0000   0.0000   0.0000
     0.0000   0.0000   0.0000   0.0000   0.0000   0.0000   0.0000   0.0000
     0.0000   0.0000   0.0000   0.0000   0.0000   0.0000   0.0000   0.0000
     0.0000   0.0000   0.0000

          k =-0.2500 0.2500 0.0000 ( 65198 PWs)   bands (ev):

   -92.6832 -92.6308 -92.5370 -92.4906 -92.4314 -92.3894 -92.3728 -92.2533
   -56.0366 -56.0176 -55.8944 -55.8839 -55.8777 -55.8707 -55.8356 -55.8063
   -55.7915 -55.7888 -55.7806 -55.7392 -55.7209 -55.6828 -55.6634 -55.6311
   -55.6263 -55.5782 -55.5772 -55.5747 -55.5663 -55.5283 -55.5029 -55.4200
   -31.2591 -31.2430 -31.0998 -31.0931 -31.0134 -31.0103 -30.7631 -30.6513
   -29.8295 -29.7877 -29.7623 -29.6536 -14.9996 -14.9552 -14.8846 -14.7674
   -14.6556 -14.5278 -14.4446 -14.2370 -14.0978 -14.0682 -14.0557 -14.0065
   -13.9836 -13.9637 -13.9452 -13.9409 -13.9043 -13.8180 -13.8068 -13.6551
   -13.6286 -13.5991 -13.5790 -13.5334 -13.4796 -13.4266 -13.4182 -13.2877
   -13.2267 -13.2053 -13.1294 -13.0881 -13.0347 -13.0217 -12.9935 -12.9733
   -12.9426 -12.9120 -12.9094 -12.8686 -12.8254 -12.7541 -12.7331 -12.6856
   -12.6751 -12.6306 -12.5912 -12.4366 -12.4249 -12.3687 -12.2658 -12.0824
   -12.0237 -11.7810 -11.7596 -11.7323 -11.7204 -11.6791 -11.6446 -11.6213
   -11.6003 -11.5775 -11.4924 -11.4474 -11.4377  -2.6484  -2.4402  -2.3191
    -2.2310  -2.1125  -2.0463  -1.8438  -1.6979  -1.6798  -1.6508  -1.5592
    -1.5216  -1.4294  -1.3956  -1.3693  -1.2275  -1.1715  -1.1032  -1.0837
    -1.0679  -1.0127  -0.9924  -0.9528  -0.9241  -0.8839  -0.8205  -0.7730
    -0.7105  -0.6410  -0.6153  -0.5642  -0.5352  -0.4898  -0.4338  -0.3891
    -0.3467  -0.2488  -0.2129  -0.2035  -0.1594  -0.0927  -0.0225   0.0254
     0.0558   0.1331   0.1846   0.4085   0.5773   0.6173   0.6561   0.7170
     0.7969   0.8513   0.8949   0.9204   1.2006   1.3092   1.3496   1.3813
     1.3882   1.4316   1.4472   1.4919   1.5217   1.5371   1.5622   1.6067
     1.6220   1.6671   1.6856   1.7302   1.8137   1.8354   1.8526   1.8977
     1.9208   1.9603   2.0230   2.1303   2.2211   2.2519   2.3002   2.3204
     2.3881   2.4269   2.4499   2.4676   2.4778   2.4999   2.5158   2.6110
     2.6357   2.7260   2.9006   2.9092   2.9226   2.9326   2.9435   2.9574
     2.9638   2.9818   2.9914   3.0052   3.0152   3.0275   3.0372   3.0451
     3.0776   3.0877   3.0957   3.1307   3.4224   3.5044   3.5672   3.6483
     3.6641   3.8648   3.9811   4.3252   4.5299   4.7348   5.0121   5.1767
     5.6626   5.7144   5.7819   5.8508   5.9126   6.0633   6.1814   6.2129
     6.8979   6.9274   7.1123   7.2506   7.5795   7.6260   7.6866   7.8514
     7.9164   7.9737   8.1733   8.2218   8.3112   8.3549   8.4160   8.4638
     8.5450   8.7945   8.9242

     occupation numbers 
     1.0000   1.0000   1.0000   1.0000   1.0000   1.0000   1.0000   1.0000
     1.0000   1.0000   1.0000   1.0000   1.0000   1.0000   1.0000   1.0000
     1.0000   1.0000   1.0000   1.0000   1.0000   1.0000   1.0000   1.0000
     1.0000   1.0000   1.0000   1.0000   1.0000   1.0000   1.0000   1.0000
     1.0000   1.0000   1.0000   1.0000   1.0000   1.0000   1.0000   1.0000
     1.0000   1.0000   1.0000   1.0000   1.0000   1.0000   1.0000   1.0000
     1.0000   1.0000   1.0000   1.0000   1.0000   1.0000   1.0000   1.0000
     1.0000   1.0000   1.0000   1.0000   1.0000   1.0000   1.0000   1.0000
     1.0000   1.0000   1.0000   1.0000   1.0000   1.0000   1.0000   1.0000
     1.0000   1.0000   1.0000   1.0000   1.0000   1.0000   1.0000   1.0000
     1.0000   1.0000   1.0000   1.0000   1.0000   1.0000   1.0000   1.0000
     1.0000   1.0000   1.0000   1.0000   1.0000   1.0000   1.0000   1.0000
     1.0000   1.0000   1.0000   1.0000   1.0000   1.0000   1.0000   1.0000
     1.0000   1.0000   1.0000   1.0000   1.0000   1.0000   1.0000   1.0000
     1.0000   1.0000   1.0000   1.0000   1.0000   1.0000   1.0000   1.0000
     1.0000   1.0000   1.0000   1.0000   1.0000   1.0000   1.0000   1.0000
     1.0000   1.0000   1.0000   1.0000   1.0000   1.0000   1.0000   1.0000
     1.0000   1.0000   1.0000   1.0000   1.0000   1.0000   1.0000   1.0000
     1.0000   1.0000   1.0000   1.0000   1.0000   1.0000   1.0000   1.0000
     1.0000   1.0000   1.0000   1.0000   1.0000   1.0000   1.0000   1.0000
     0.9999   0.9999   0.9999   0.9998   0.9993   0.9987   0.9985   0.9982
     0.9982   0.9977   0.9976   0.9970   0.9966   0.9964   0.9959   0.9951
     0.9947   0.9936   0.9931   0.9917   0.9885   0.9875   0.9866   0.9842
     0.9827   0.9801   0.9751   0.9643   0.9523   0.9476   0.9395   0.9358
     0.9222   0.9135   0.9080   0.9035   0.9009   0.8951   0.8907   0.8620
     0.8537   0.8208   0.7451   0.7410   0.7345   0.7296   0.7242   0.7173
     0.7141   0.7049   0.7000   0.6928   0.6876   0.6811   0.6759   0.6717
     0.6540   0.6485   0.6441   0.6245   0.4540   0.4061   0.3704   0.3259
     0.3175   0.2199   0.1723   0.0726   0.0392   0.0195   0.0066   0.0033
     0.0003   0.0002   0.0001   0.0001   0.0001   0.0000   0.0000   0.0000
     0.0000   0.0000   0.0000   0.0000   0.0000   0.0000   0.0000   0.0000
     0.0000   0.0000   0.0000   0.0000   0.0000   0.0000   0.0000   0.0000
     0.0000   0.0000   0.0000

          k =-0.5000 0.2500 0.0000 ( 65138 PWs)   bands (ev):

   -92.6832 -92.6308 -92.5370 -92.4906 -92.4314 -92.3894 -92.3728 -92.2533
   -56.0366 -56.0175 -55.8944 -55.8839 -55.8777 -55.8707 -55.8356 -55.8063
   -55.7915 -55.7888 -55.7806 -55.7392 -55.7209 -55.6827 -55.6634 -55.6311
   -55.6263 -55.5781 -55.5772 -55.5747 -55.5663 -55.5283 -55.5029 -55.4200
   -31.2570 -31.2451 -31.0995 -31.0930 -31.0138 -31.0102 -30.7632 -30.6514
   -29.8285 -29.7887 -29.7620 -29.6540 -14.9637 -14.9172 -14.8385 -14.7418
   -14.7002 -14.5732 -14.4825 -14.3573 -14.0482 -14.0172 -14.0054 -13.9597
   -13.9415 -13.9380 -13.9137 -13.8771 -13.8746 -13.8471 -13.8110 -13.7997
   -13.6867 -13.6201 -13.5712 -13.5678 -13.5536 -13.4670 -13.4512 -13.3198
   -13.2678 -13.1828 -13.1478 -13.0537 -13.0318 -13.0086 -12.9987 -12.9752
   -12.9445 -12.9250 -12.9142 -12.8841 -12.8301 -12.7075 -12.6547 -12.6493
   -12.6075 -12.6012 -12.5875 -12.5220 -12.3769 -12.3053 -12.2502 -12.1267
   -12.0976 -11.7539 -11.7409 -11.7268 -11.7152 -11.6933 -11.6632 -11.5833
   -11.5743 -11.5516 -11.5143 -11.4865 -11.4780  -2.4213  -2.3795  -2.2310
    -2.1891  -2.0281  -1.9526  -1.8094  -1.6745  -1.6179  -1.5905  -1.5515
    -1.5131  -1.4325  -1.3175  -1.2602  -1.2372  -1.2114  -1.1328  -1.1070
    -1.0847  -1.0607  -1.0491  -0.9889  -0.9603  -0.9212  -0.8860  -0.8573
    -0.7993  -0.7726  -0.7312  -0.6965  -0.5917  -0.5651  -0.4769  -0.4131
    -0.3818  -0.3270  -0.2396  -0.2080  -0.1057  -0.0709  -0.0090   0.0403
     0.0633   0.1371   0.1720   0.2165   0.2513   0.2890   0.6036   0.6558
     0.7425   0.8050   1.0336   1.0959   1.1648   1.1946   1.3697   1.4052
     1.4437   1.4554   1.4736   1.4918   1.5605   1.6029   1.6431   1.6728
     1.7926   1.8289   1.8635   1.8785   1.9184   1.9354   1.9533   1.9741
     1.9898   2.0100   2.0584   2.0701   2.1086   2.1311   2.1669   2.2219
     2.3406   2.4380   2.4617   2.4733   2.5083   2.5335   2.5715   2.6433
     2.6710   2.6778   2.7163   2.7479   2.7718   2.8565   2.8964   2.9098
     2.9150   2.9360   2.9592   2.9717   2.9865   2.9982   3.0199   3.0337
     3.0434   3.0511   3.0635   3.0757   3.6061   3.6435   3.7945   3.8140
     4.1188   4.1629   4.2138   4.4267   4.8030   4.8965   5.0644   5.0933
     5.4232   5.4493   5.6014   5.6349   5.7633   5.8073   6.3215   6.4072
     6.5078   6.6407   7.2216   7.3824   7.5490   7.7256   7.8031   7.8428
     7.9115   8.0407   8.1959   8.4223   8.4521   8.5272   8.5563   8.5906
     8.6688   8.7561   8.8268

     occupation numbers 
     1.0000   1.0000   1.0000   1.0000   1.0000   1.0000   1.0000   1.0000
     1.0000   1.0000   1.0000   1.0000   1.0000   1.0000   1.0000   1.0000
     1.0000   1.0000   1.0000   1.0000   1.0000   1.0000   1.0000   1.0000
     1.0000   1.0000   1.0000   1.0000   1.0000   1.0000   1.0000   1.0000
     1.0000   1.0000   1.0000   1.0000   1.0000   1.0000   1.0000   1.0000
     1.0000   1.0000   1.0000   1.0000   1.0000   1.0000   1.0000   1.0000
     1.0000   1.0000   1.0000   1.0000   1.0000   1.0000   1.0000   1.0000
     1.0000   1.0000   1.0000   1.0000   1.0000   1.0000   1.0000   1.0000
     1.0000   1.0000   1.0000   1.0000   1.0000   1.0000   1.0000   1.0000
     1.0000   1.0000   1.0000   1.0000   1.0000   1.0000   1.0000   1.0000
     1.0000   1.0000   1.0000   1.0000   1.0000   1.0000   1.0000   1.0000
     1.0000   1.0000   1.0000   1.0000   1.0000   1.0000   1.0000   1.0000
     1.0000   1.0000   1.0000   1.0000   1.0000   1.0000   1.0000   1.0000
     1.0000   1.0000   1.0000   1.0000   1.0000   1.0000   1.0000   1.0000
     1.0000   1.0000   1.0000   1.0000   1.0000   1.0000   1.0000   1.0000
     1.0000   1.0000   1.0000   1.0000   1.0000   1.0000   1.0000   1.0000
     1.0000   1.0000   1.0000   1.0000   1.0000   1.0000   1.0000   1.0000
     1.0000   1.0000   1.0000   1.0000   1.0000   1.0000   1.0000   1.0000
     1.0000   1.0000   1.0000   1.0000   1.0000   1.0000   1.0000   1.0000
     1.0000   1.0000   1.0000   1.0000   1.0000   1.0000   1.0000   1.0000
     0.9999   0.9999   0.9997   0.9996   0.9994   0.9993   0.9983   0.9980
     0.9976   0.9975   0.9973   0.9970   0.9960   0.9951   0.9942   0.9935
     0.9894   0.9878   0.9861   0.9853   0.9829   0.9818   0.9806   0.9791
     0.9779   0.9762   0.9719   0.9708   0.9668   0.9642   0.9598   0.9522
     0.9320   0.9108   0.9050   0.9021   0.8928   0.8857   0.8745   0.8511
     0.8414   0.8389   0.8245   0.8121   0.8024   0.7656   0.7471   0.7407
     0.7382   0.7279   0.7164   0.7100   0.7025   0.6965   0.6851   0.6778
     0.6726   0.6684   0.6617   0.6551   0.3488   0.3285   0.2520   0.2428
     0.1251   0.1121   0.0984   0.0540   0.0152   0.0106   0.0053   0.0047
     0.0010   0.0009   0.0004   0.0003   0.0002   0.0001   0.0000   0.0000
     0.0000   0.0000   0.0000   0.0000   0.0000   0.0000   0.0000   0.0000
     0.0000   0.0000   0.0000   0.0000   0.0000   0.0000   0.0000   0.0000
     0.0000   0.0000   0.0000

     the Fermi energy is     3.3445 ev

!    total energy              =   -4441.65326104 Ry
     estimated scf accuracy    <          7.7E-09 Ry
     smearing contrib. (-TS)   =      -1.15501229 Ry
     internal energy E=F+TS    =   -4440.49824874 Ry

     The total energy is F=E-TS. E is the sum of the following terms:
     one-electron contribution =  -20804.30362358 Ry
     hartree contribution      =   10534.38973865 Ry
     xc contribution           =    -694.18038629 Ry
     ewald contribution        =    6799.76682227 Ry
     one-center paw contrib.   =    -276.17079979 Ry
      -> PAW hartree energy AE =      25.17542990 Ry
      -> PAW hartree energy PS =     -25.05920015 Ry
      -> PAW xc energy AE      =     -16.51926818 Ry
      -> PAW xc energy PS      =       6.87881843 Ry
      -> total E_H with PAW    =   10534.50596840 Ry
      -> total E_XC with PAW   =    -703.82083605 Ry

     convergence has been achieved in  45 iterations

     Writing all to output data dir /bsuhome/zayahcortright/scratch/pwscf.save/
 
     init_run     :      7.64s CPU      8.54s WALL (       1 calls)
     electrons    :    733.25s CPU    803.04s WALL (       1 calls)

     Called by init_run:
     wfcinit      :      6.14s CPU      6.35s WALL (       1 calls)
     wfcinit:atom :      0.04s CPU      0.06s WALL (       5 calls)
     wfcinit:wfcr :      5.83s CPU      5.96s WALL (       5 calls)
     potinit      :      0.19s CPU      0.21s WALL (       1 calls)
     hinit0       :      0.35s CPU      0.73s WALL (       1 calls)

     Called by electrons:
     c_bands      :    588.80s CPU    599.86s WALL (      45 calls)
     sum_band     :    108.38s CPU    140.42s WALL (      45 calls)
     v_of_rho     :      4.92s CPU      5.30s WALL (      46 calls)
     v_h          :      0.44s CPU      0.44s WALL (      46 calls)
     v_xc         :      4.49s CPU      4.86s WALL (      46 calls)
     newd         :     17.59s CPU     43.49s WALL (      46 calls)
     PAW_pot      :      1.56s CPU      1.60s WALL (      46 calls)
     mix_rho      :     11.66s CPU     12.04s WALL (      45 calls)

     Called by c_bands:
     init_us_2    :      6.95s CPU      7.07s WALL (     455 calls)
     init_us_2:cp :      6.95s CPU      7.07s WALL (     455 calls)
     cegterg      :    552.00s CPU    562.70s WALL (     225 calls)

     Called by sum_band:
     sum_band:wei :      0.33s CPU      0.33s WALL (      45 calls)
     sum_band:loo :     87.44s CPU     88.26s WALL (      45 calls)
     sum_band:buf :      1.30s CPU      1.46s WALL (     225 calls)
     sum_band:ini :      2.98s CPU      3.01s WALL (     225 calls)
     sum_band:cal :     17.71s CPU     17.79s WALL (     225 calls)
     sum_band:bec :      0.52s CPU      0.54s WALL (     225 calls)
     addusdens    :     17.80s CPU     48.95s WALL (      45 calls)
                                        0.00s GPU  (      45 calls)
     addusd:skk   :      0.26s CPU      1.70s WALL (     180 calls)
                                        0.00s GPU  (     180 calls)

     Called by *egterg:
     cdiaghg      :     50.74s CPU     50.99s WALL (    1224 calls)
     cegterg:over :     37.47s CPU     37.65s WALL (     999 calls)
     cegterg:upda :     46.10s CPU     47.10s WALL (     999 calls)
     cegterg:last :     63.69s CPU     63.96s WALL (     405 calls)
     cdiaghg:chol :      2.96s CPU      2.99s WALL (    1224 calls)
     cdiaghg:inve :      3.20s CPU      3.21s WALL (    1224 calls)
     cdiaghg:para :      6.30s CPU      6.34s WALL (    2448 calls)
     h_psi        :    293.26s CPU    297.75s WALL (    1229 calls)
     s_psi        :     41.49s CPU     41.62s WALL (    1229 calls)
     g_psi        :      2.40s CPU      2.41s WALL (     999 calls)

     Called by h_psi:
     h_psi:calbec :     42.04s CPU     42.31s WALL (    1229 calls)
     vloc_psi     :    204.09s CPU    206.06s WALL (    1229 calls)
     add_vuspsi   :     42.38s CPU     42.69s WALL (    1229 calls)

     General routines
     calbec       :     59.74s CPU     60.09s WALL (    1454 calls)
     fft          :      3.84s CPU      3.89s WALL (     596 calls)
     ffts         :      4.33s CPU      4.37s WALL (    4805 calls)
     fftw         :    174.43s CPU    175.89s WALL (  306015 calls)
     interpolate  :      0.39s CPU      0.40s WALL (      46 calls)
 
     Parallel routines

     PAW routines
     PAW_pot      :      1.56s CPU      1.60s WALL (      46 calls)
 
     PWSCF        :  12m22.79s CPU  13m36.83s WALL

 
   This run was terminated on:  18: 7:44  21Jun2024            

=------------------------------------------------------------------------------=
   JOB DONE.
=------------------------------------------------------------------------------=
