
     Program PWSCF v.7.2 starts on 21Jun2024 at 15:11:49 

     This program is part of the open-source Quantum ESPRESSO suite
     for quantum simulation of materials; please cite
         "P. Giannozzi et al., J. Phys.:Condens. Matter 21 395502 (2009);
         "P. Giannozzi et al., J. Phys.:Condens. Matter 29 465901 (2017);
         "P. Giannozzi et al., J. Chem. Phys. 152 154105 (2020);
          URL http://www.quantum-espresso.org", 
     in publications or presentations arising from this work. More details at
     http://www.quantum-espresso.org/quote

     Parallel version (MPI & OpenMP), running on      48 processor cores
     Number of MPI processes:                48
     Threads/MPI process:                     1

     MPI processes distributed on     1 nodes
     180165 MiB available memory on the printing compute node when the environment starts
 
     Reading input from espresso.pwi
Warning: card &CELL ignored
Warning: card / ignored
Warning: card &FCP ignored
Warning: card / ignored
Warning: card &RISM ignored
Warning: card / ignored

     Current dimensions of program PWSCF are:
     Max number of different atomic species (ntypx) = 10
     Max number of k-points (npk) =  40000
     Max angular momentum in pseudopotentials (lmaxx) =  4
     file O.pbe-n-kjpaw_psl.0.1.UPF: wavefunction(s)  2P renormalized
     signal trapping enabled: kill the code with -SIGUSR1 to stop cleanly the simulation 
 
     K-points division:     npool     =       2
     R & G space division:  proc/nbgrp/npool/nimage =      24
     Subspace diagonalization in iterative solution of the eigenvalue problem:
     one sub-group per band group will be used
     scalapack distributed-memory algorithm (size of sub-group:  3*  3 procs)

 
     Parallelization info
     --------------------
     sticks:   dense  smooth     PW     G-vecs:    dense   smooth      PW
     Min         350     175     47                61430    21716    3036
     Max         351     177     48                61449    21727    3041
     Sum        8421    4205   1137              1474595   521381   72913
 
     Using Slab Decomposition
 


     bravais-lattice index     =            0
     lattice parameter (alat)  =      14.8599  a.u.
     unit-cell volume          =    8305.1283 (a.u.)^3
     number of atoms/cell      =           49
     number of atomic types    =            4
     number of electrons       =       425.00
     number of Kohn-Sham states=          256
     kinetic-energy cutoff     =      60.0000  Ry
     charge density cutoff     =     480.0000  Ry
     scf convergence threshold =      1.0E-08
     mixing beta               =       0.1500
     number of iterations used =            8  local-TF  mixing
     Exchange-correlation= PBE
                           (   1   4   3   4   0   0   0)

     celldm(1)=  14.859904  celldm(2)=   0.000000  celldm(3)=   0.000000
     celldm(4)=   0.000000  celldm(5)=   0.000000  celldm(6)=   0.000000

     crystal axes: (cart. coord. in units of alat)
               a(1) = (   1.000000   0.000000   0.000000 )  
               a(2) = (   0.000000   1.000000   0.000000 )  
               a(3) = (   0.000000   0.000000   2.531036 )  

     reciprocal axes: (cart. coord. in units 2 pi/alat)
               b(1) = (  1.000000  0.000000  0.000000 )  
               b(2) = (  0.000000  1.000000  0.000000 )  
               b(3) = (  0.000000  0.000000  0.395095 )  


     PseudoPot. # 1 for Sr read from file:
     /bsuhome/zayahcortright/q-e/pseudo/Sr_pbe_v1.uspp.F.UPF
     MD5 check sum: 6b418c05fbe9db5448babca5e47b7a5b
     Pseudo is Ultrasoft + core correction, Zval = 10.0
     Generated by new atomic code, or converted to UPF format
     Using radial grid of  883 points,  6 beta functions with: 
                l(1) =   0
                l(2) =   0
                l(3) =   1
                l(4) =   1
                l(5) =   2
                l(6) =   2
     Q(r) pseudized with  6 coefficients,  rinner =    1.400   1.400   1.400
                                                       1.400   1.400

     PseudoPot. # 2 for O  read from file:
     /bsuhome/zayahcortright/q-e/pseudo/O.pbe-n-kjpaw_psl.0.1.UPF
     MD5 check sum: 0234752ac141de4415c5fc33072bef88
     Pseudo is Projector augmented-wave + core cor, Zval =  6.0
     Generated using "atomic" code by A. Dal Corso  v.5.0.99 svn rev. 10869
     Shape of augmentation charge: BESSEL
     Using radial grid of 1095 points,  4 beta functions with: 
                l(1) =   0
                l(2) =   0
                l(3) =   1
                l(4) =   1
     Q(r) pseudized with 0 coefficients 


     PseudoPot. # 3 for Co read from file:
     /bsuhome/zayahcortright/q-e/pseudo/Co_pbe_v1.2.uspp.F.UPF
     MD5 check sum: 5f91765df6ddd3222702df6e7b74a16d
     Pseudo is Ultrasoft + core correction, Zval = 17.0
     Generated by new atomic code, or converted to UPF format
     Using radial grid of  863 points,  6 beta functions with: 
                l(1) =   0
                l(2) =   0
                l(3) =   1
                l(4) =   1
                l(5) =   2
                l(6) =   2
     Q(r) pseudized with  8 coefficients,  rinner =    1.200   1.200   1.200
                                                       1.200   1.200

     PseudoPot. # 4 for H  read from file:
     /bsuhome/zayahcortright/q-e/pseudo/H.pbe-rrkjus_psl.1.0.0.UPF
     MD5 check sum: f52b6d4d1c606e5624b1dc7b2218f220
     Pseudo is Ultrasoft, Zval =  1.0
     Generated using "atomic" code by A. Dal Corso  v.5.1
     Using radial grid of  929 points,  2 beta functions with: 
                l(1) =   0
                l(2) =   0
     Q(r) pseudized with 0 coefficients 


     atomic species   valence    mass     pseudopotential
        Sr            10.00    87.62000     Sr( 1.00)
        O              6.00    15.99900     O ( 1.00)
        Co            17.00    58.93319     Co( 1.00)
        H              1.00     1.00800     H ( 1.00)

     No symmetry found


                                    s                        frac. trans.

      isym =  1     identity                                     

 cryst.   s( 1) = (     1          0          0      )
                  (     0          1          0      )
                  (     0          0          1      )

 cart.    s( 1) = (  1.0000000  0.0000000  0.0000000 )
                  (  0.0000000  1.0000000  0.0000000 )
                  (  0.0000000  0.0000000  1.0000000 )


   Cartesian axes

     site n.     atom                  positions (alat units)
         1           Sr  tau(   1) = (   0.2508693   0.7491307   1.7574407  )
         2           O   tau(   2) = (   0.4985141   0.5014859   1.7715967  )
         3           Sr  tau(   3) = (   0.7482398   0.7454518   1.7648669  )
         4           Sr  tau(   4) = (   0.7441748   0.2558252   1.7667843  )
         5           Sr  tau(   5) = (   0.2508693   0.7491307   1.2696799  )
         6           Sr  tau(   6) = (   0.2508693   0.7491307   0.7632319  )
         7           Co  tau(   7) = (   0.4998914   0.5001086   1.0164559  )
         8           Co  tau(   8) = (   0.4936915   0.5063085   1.5135603  )
         9           O   tau(   9) = (   0.4988895   0.7610401   1.0164559  )
        10           O   tau(  10) = (   0.2389599   0.5011105   1.0164559  )
        11           O   tau(  11) = (   0.0070918   0.7374880   1.0164559  )
        12           O   tau(  12) = (   0.0088340   0.7405089   1.5135603  )
        13           O   tau(  13) = (   0.5066944   0.7415376   1.5135603  )
        14           O   tau(  14) = (   0.2584624   0.4933056   1.5135603  )
        15           O   tau(  15) = (   0.4985141   0.5014859   0.7773880  )
        16           O   tau(  16) = (   0.4985141   0.5014859   1.2555238  )
        17           Sr  tau(  17) = (   0.7482398   0.7454518   0.7706582  )
        18           Sr  tau(  18) = (   0.7482398   0.7454518   1.2622536  )
        19           Sr  tau(  19) = (   0.7441748   0.2558252   0.7725755  )
        20           Sr  tau(  20) = (   0.7441748   0.2558252   1.2603363  )
        21           O   tau(  21) = (   0.7322655   0.0078049   1.5135603  )
        22           O   tau(  22) = (   0.7558175   0.4996027   1.5135603  )
        23           O   tau(  23) = (   0.5003973   0.2441825   1.5135603  )
        24           O   tau(  24) = (   0.7527966   0.4978604   1.0164559  )
        25           O   tau(  25) = (   0.5021396   0.2472034   1.0164559  )
        26           O   tau(  26) = (   0.7517679   0.0000000   1.0164559  )
        27           O   tau(  27) = (   0.0114961   0.4948124   1.7455321  )
        28           O   tau(  28) = (   0.0048226   0.0077944   1.7715967  )
        29           Sr  tau(  29) = (   0.2545482   0.2517602   1.7648669  )
        30           O   tau(  30) = (   0.5048017   0.0015068   1.7786929  )
        31           Co  tau(  31) = (   0.0056869   0.5006215   1.0164559  )
        32           Co  tau(  32) = (   0.0065315   0.4997770   1.5135603  )
        33           Co  tau(  33) = (   0.0061999   0.0064171   1.0164559  )
        34           Co  tau(  34) = (   0.0000000   0.0126169   1.5135603  )
        35           O   tau(  35) = (   0.0114961   0.4948124   1.2815885  )
        36           O   tau(  36) = (   0.0114961   0.4948124   0.7513233  )
        37           O   tau(  37) = (   0.0051979   0.2673486   1.0164559  )
        38           O   tau(  38) = (   0.0130029   0.2478461   1.5135603  )
        39           O   tau(  39) = (   0.0048226   0.0077944   0.7773880  )
        40           O   tau(  40) = (   0.0048226   0.0077944   1.2555238  )
        41           Sr  tau(  41) = (   0.2545482   0.2517602   0.7706582  )
        42           Sr  tau(  42) = (   0.2545482   0.2517602   1.2622536  )
        43           Co  tau(  43) = (   0.4989925   0.0073160   1.5135603  )
        44           Co  tau(  44) = (   0.4998370   0.0064714   1.0164559  )
        45           O   tau(  45) = (   0.5048017   0.0015068   0.7844841  )
        46           O   tau(  46) = (   0.5048017   0.0015068   1.2484277  )
        47           O   tau(  47) = (   0.2621260   0.0059111   1.5135603  )
        48           O   tau(  48) = (   0.2591051   0.0041689   1.0164559  )
        49           H   tau(  49) = (   0.2843291   0.0000000   2.1602013  )

   Crystallographic axes

     site n.     atom                  positions (cryst. coord.)
         1           Sr  tau(   1) = (  0.2508693  0.7491307  0.6943562  )
         2           O   tau(   2) = (  0.4985141  0.5014859  0.6999492  )
         3           Sr  tau(   3) = (  0.7482398  0.7454518  0.6972903  )
         4           Sr  tau(   4) = (  0.7441748  0.2558252  0.6980478  )
         5           Sr  tau(   5) = (  0.2508693  0.7491307  0.5016443  )
         6           Sr  tau(   6) = (  0.2508693  0.7491307  0.3015492  )
         7           Co  tau(   7) = (  0.4998914  0.5001086  0.4015968  )
         8           Co  tau(   8) = (  0.4936915  0.5063085  0.5980003  )
         9           O   tau(   9) = (  0.4988895  0.7610401  0.4015968  )
        10           O   tau(  10) = (  0.2389599  0.5011105  0.4015968  )
        11           O   tau(  11) = (  0.0070918  0.7374880  0.4015968  )
        12           O   tau(  12) = (  0.0088340  0.7405089  0.5980003  )
        13           O   tau(  13) = (  0.5066944  0.7415376  0.5980003  )
        14           O   tau(  14) = (  0.2584624  0.4933056  0.5980003  )
        15           O   tau(  15) = (  0.4985141  0.5014859  0.3071422  )
        16           O   tau(  16) = (  0.4985141  0.5014859  0.4960513  )
        17           Sr  tau(  17) = (  0.7482398  0.7454518  0.3044833  )
        18           Sr  tau(  18) = (  0.7482398  0.7454518  0.4987103  )
        19           Sr  tau(  19) = (  0.7441748  0.2558252  0.3052408  )
        20           Sr  tau(  20) = (  0.7441748  0.2558252  0.4979527  )
        21           O   tau(  21) = (  0.7322655  0.0078049  0.5980003  )
        22           O   tau(  22) = (  0.7558175  0.4996027  0.5980003  )
        23           O   tau(  23) = (  0.5003973  0.2441825  0.5980003  )
        24           O   tau(  24) = (  0.7527966  0.4978604  0.4015968  )
        25           O   tau(  25) = (  0.5021396  0.2472034  0.4015968  )
        26           O   tau(  26) = (  0.7517679  0.0000000  0.4015968  )
        27           O   tau(  27) = (  0.0114961  0.4948124  0.6896512  )
        28           O   tau(  28) = (  0.0048226  0.0077944  0.6999492  )
        29           Sr  tau(  29) = (  0.2545482  0.2517602  0.6972903  )
        30           O   tau(  30) = (  0.5048017  0.0015068  0.7027529  )
        31           Co  tau(  31) = (  0.0056869  0.5006215  0.4015968  )
        32           Co  tau(  32) = (  0.0065315  0.4997770  0.5980003  )
        33           Co  tau(  33) = (  0.0061999  0.0064171  0.4015968  )
        34           Co  tau(  34) = (  0.0000000  0.0126169  0.5980003  )
        35           O   tau(  35) = (  0.0114961  0.4948124  0.5063494  )
        36           O   tau(  36) = (  0.0114961  0.4948124  0.2968442  )
        37           O   tau(  37) = (  0.0051979  0.2673486  0.4015968  )
        38           O   tau(  38) = (  0.0130029  0.2478461  0.5980003  )
        39           O   tau(  39) = (  0.0048226  0.0077944  0.3071422  )
        40           O   tau(  40) = (  0.0048226  0.0077944  0.4960513  )
        41           Sr  tau(  41) = (  0.2545482  0.2517602  0.3044833  )
        42           Sr  tau(  42) = (  0.2545482  0.2517602  0.4987103  )
        43           Co  tau(  43) = (  0.4989925  0.0073160  0.5980003  )
        44           Co  tau(  44) = (  0.4998370  0.0064714  0.4015968  )
        45           O   tau(  45) = (  0.5048017  0.0015068  0.3099459  )
        46           O   tau(  46) = (  0.5048017  0.0015068  0.4932477  )
        47           O   tau(  47) = (  0.2621260  0.0059111  0.5980003  )
        48           O   tau(  48) = (  0.2591051  0.0041689  0.4015968  )
        49           H   tau(  49) = (  0.2843291  0.0000000  0.8534850  )

     number of k points=    10  Gaussian smearing, width (Ry)=  0.0700
                       cart. coord. in units 2pi/alat
        k(    1) = (   0.0000000   0.0000000   0.0000000), wk =   0.1250000
        k(    2) = (   0.0000000   0.2500000   0.0000000), wk =   0.2500000
        k(    3) = (   0.0000000  -0.5000000   0.0000000), wk =   0.1250000
        k(    4) = (   0.2500000   0.2500000   0.0000000), wk =   0.2500000
        k(    5) = (   0.2500000  -0.5000000   0.0000000), wk =   0.2500000
        k(    6) = (  -0.5000000  -0.5000000   0.0000000), wk =   0.1250000
        k(    7) = (   0.2500000   0.0000000   0.0000000), wk =   0.2500000
        k(    8) = (  -0.5000000   0.0000000   0.0000000), wk =   0.1250000
        k(    9) = (  -0.2500000   0.2500000   0.0000000), wk =   0.2500000
        k(   10) = (  -0.5000000   0.2500000   0.0000000), wk =   0.2500000

                       cryst. coord.
        k(    1) = (   0.0000000   0.0000000   0.0000000), wk =   0.1250000
        k(    2) = (   0.0000000   0.2500000   0.0000000), wk =   0.2500000
        k(    3) = (   0.0000000  -0.5000000   0.0000000), wk =   0.1250000
        k(    4) = (   0.2500000   0.2500000   0.0000000), wk =   0.2500000
        k(    5) = (   0.2500000  -0.5000000   0.0000000), wk =   0.2500000
        k(    6) = (  -0.5000000  -0.5000000   0.0000000), wk =   0.1250000
        k(    7) = (   0.2500000   0.0000000   0.0000000), wk =   0.2500000
        k(    8) = (  -0.5000000   0.0000000   0.0000000), wk =   0.1250000
        k(    9) = (  -0.2500000   0.2500000   0.0000000), wk =   0.2500000
        k(   10) = (  -0.5000000   0.2500000   0.0000000), wk =   0.2500000

     Dense  grid:  1474595 G-vectors     FFT dimensions: ( 108, 108, 270)

     Smooth grid:   521381 G-vectors     FFT dimensions: (  75,  75, 192)

     Dynamical RAM for                 wfc:      10.61 MB

     Dynamical RAM for     wfc (w. buffer):      63.63 MB

     Dynamical RAM for           str. fact:       3.75 MB

     Dynamical RAM for           local pot:       0.00 MB

     Dynamical RAM for          nlocal pot:      24.28 MB

     Dynamical RAM for                qrad:       7.03 MB

     Dynamical RAM for          rho,v,vnew:       6.02 MB

     Dynamical RAM for               rhoin:       2.01 MB

     Dynamical RAM for            rho*nmix:      15.00 MB

     Dynamical RAM for           G-vectors:       3.68 MB

     Dynamical RAM for          h,s,v(r/c):       1.32 MB

     Dynamical RAM for          <psi|beta>:       2.29 MB

     Dynamical RAM for                 psi:      21.21 MB

     Dynamical RAM for                hpsi:      21.21 MB

     Dynamical RAM for                spsi:      21.21 MB

     Dynamical RAM for      wfcinit/wfcrot:      34.09 MB

     Dynamical RAM for           addusdens:     100.79 MB

     Estimated static dynamical RAM per process >     120.42 MB

     Estimated max dynamical RAM per process >     236.21 MB

     Estimated total dynamical RAM >      10.72 GB

     Check: negative core charge=   -0.000004

     Initial potential from superposition of free atoms

     starting charge     416.5961, renormalised to     425.0000

     negative rho (up, down):  7.826E-01 0.000E+00
     Starting wfcs are  373 randomized atomic wfcs
     Checking if some PAW data can be deallocated... 
       PAW data deallocated on   20 nodes for type:  2

     total cpu time spent up to now is        8.3 secs

     Self-consistent Calculation

     iteration #  1     ecut=    60.00 Ry     beta= 0.15
     Davidson diagonalization with overlap

---- Real-time Memory Report at c_bands before calling an iterative solver
             0 MiB given to the printing process from OS
             0 MiB allocation reported by mallinfo(arena+hblkhd)
        170498 MiB available memory on the node where the printing process lives
------------------
     ethr =  1.00E-02,  avg # of iterations =  2.0

     negative rho (up, down):  7.715E-01 0.000E+00

     total cpu time spent up to now is       22.7 secs

     total energy              =   -4404.70336254 Ry
     estimated scf accuracy    <      42.17531616 Ry

     iteration #  2     ecut=    60.00 Ry     beta= 0.15
     Davidson diagonalization with overlap

---- Real-time Memory Report at c_bands before calling an iterative solver
             0 MiB given to the printing process from OS
             0 MiB allocation reported by mallinfo(arena+hblkhd)
        170739 MiB available memory on the node where the printing process lives
------------------
     ethr =  9.92E-03,  avg # of iterations =  1.0

     negative rho (up, down):  7.531E-01 0.000E+00

     total cpu time spent up to now is       34.6 secs

     total energy              =   -4400.04228530 Ry
     estimated scf accuracy    <      26.43954109 Ry

     iteration #  3     ecut=    60.00 Ry     beta= 0.15
     Davidson diagonalization with overlap

---- Real-time Memory Report at c_bands before calling an iterative solver
             0 MiB given to the printing process from OS
             0 MiB allocation reported by mallinfo(arena+hblkhd)
        169985 MiB available memory on the node where the printing process lives
------------------
     ethr =  6.22E-03,  avg # of iterations =  2.0

     negative rho (up, down):  7.543E-01 0.000E+00

     total cpu time spent up to now is       47.9 secs

     total energy              =   -4402.38883903 Ry
     estimated scf accuracy    <      49.12001962 Ry

     iteration #  4     ecut=    60.00 Ry     beta= 0.15
     Davidson diagonalization with overlap

---- Real-time Memory Report at c_bands before calling an iterative solver
             0 MiB given to the printing process from OS
             0 MiB allocation reported by mallinfo(arena+hblkhd)
        169857 MiB available memory on the node where the printing process lives
------------------
     ethr =  6.22E-03,  avg # of iterations =  1.0

     negative rho (up, down):  7.410E-01 0.000E+00

     total cpu time spent up to now is       59.9 secs

     total energy              =   -4401.65334997 Ry
     estimated scf accuracy    <      29.56654436 Ry

     iteration #  5     ecut=    60.00 Ry     beta= 0.15
     Davidson diagonalization with overlap

---- Real-time Memory Report at c_bands before calling an iterative solver
             0 MiB given to the printing process from OS
             0 MiB allocation reported by mallinfo(arena+hblkhd)
        169840 MiB available memory on the node where the printing process lives
------------------
     ethr =  6.22E-03,  avg # of iterations =  1.0

     negative rho (up, down):  7.471E-01 0.000E+00

     total cpu time spent up to now is       71.8 secs

     total energy              =   -4399.90561786 Ry
     estimated scf accuracy    <      44.22550242 Ry

     iteration #  6     ecut=    60.00 Ry     beta= 0.15
     Davidson diagonalization with overlap

---- Real-time Memory Report at c_bands before calling an iterative solver
             0 MiB given to the printing process from OS
             0 MiB allocation reported by mallinfo(arena+hblkhd)
        169821 MiB available memory on the node where the printing process lives
------------------
     ethr =  6.22E-03,  avg # of iterations =  1.0

     negative rho (up, down):  7.424E-01 0.000E+00

     total cpu time spent up to now is       84.1 secs

     total energy              =   -4400.66239583 Ry
     estimated scf accuracy    <      11.63360506 Ry

     iteration #  7     ecut=    60.00 Ry     beta= 0.15
     Davidson diagonalization with overlap

---- Real-time Memory Report at c_bands before calling an iterative solver
             0 MiB given to the printing process from OS
             0 MiB allocation reported by mallinfo(arena+hblkhd)
        169800 MiB available memory on the node where the printing process lives
------------------
     ethr =  2.74E-03,  avg # of iterations =  1.1

     negative rho (up, down):  7.446E-01 0.000E+00

     total cpu time spent up to now is       96.6 secs

     total energy              =   -4400.80597370 Ry
     estimated scf accuracy    <       4.15886110 Ry

     iteration #  8     ecut=    60.00 Ry     beta= 0.15
     Davidson diagonalization with overlap

---- Real-time Memory Report at c_bands before calling an iterative solver
             0 MiB given to the printing process from OS
             0 MiB allocation reported by mallinfo(arena+hblkhd)
        169778 MiB available memory on the node where the printing process lives
------------------
     ethr =  9.79E-04,  avg # of iterations =  1.6

     negative rho (up, down):  7.537E-01 0.000E+00

     total cpu time spent up to now is      109.4 secs

     total energy              =   -4400.35535108 Ry
     estimated scf accuracy    <       3.67308449 Ry

     iteration #  9     ecut=    60.00 Ry     beta= 0.15
     Davidson diagonalization with overlap

---- Real-time Memory Report at c_bands before calling an iterative solver
             0 MiB given to the printing process from OS
             0 MiB allocation reported by mallinfo(arena+hblkhd)
        169757 MiB available memory on the node where the printing process lives
------------------
     ethr =  8.64E-04,  avg # of iterations =  3.1

     negative rho (up, down):  7.762E-01 0.000E+00

     total cpu time spent up to now is      124.0 secs

     total energy              =   -4399.81958858 Ry
     estimated scf accuracy    <      43.39465413 Ry

     iteration # 10     ecut=    60.00 Ry     beta= 0.15
     Davidson diagonalization with overlap

---- Real-time Memory Report at c_bands before calling an iterative solver
             0 MiB given to the printing process from OS
             0 MiB allocation reported by mallinfo(arena+hblkhd)
        169671 MiB available memory on the node where the printing process lives
------------------
     ethr =  8.64E-04,  avg # of iterations =  9.5

     negative rho (up, down):  7.786E-01 0.000E+00

     total cpu time spent up to now is      142.6 secs

     total energy              =   -4399.81101227 Ry
     estimated scf accuracy    <      11.54672580 Ry

     iteration # 11     ecut=    60.00 Ry     beta= 0.15
     Davidson diagonalization with overlap

---- Real-time Memory Report at c_bands before calling an iterative solver
             0 MiB given to the printing process from OS
             0 MiB allocation reported by mallinfo(arena+hblkhd)
        169277 MiB available memory on the node where the printing process lives
------------------
     ethr =  8.64E-04,  avg # of iterations =  1.1

     negative rho (up, down):  7.814E-01 0.000E+00

     total cpu time spent up to now is      155.1 secs

     total energy              =   -4400.12111093 Ry
     estimated scf accuracy    <       1.17005406 Ry

     iteration # 12     ecut=    60.00 Ry     beta= 0.15
     Davidson diagonalization with overlap

---- Real-time Memory Report at c_bands before calling an iterative solver
             0 MiB given to the printing process from OS
             0 MiB allocation reported by mallinfo(arena+hblkhd)
        169290 MiB available memory on the node where the printing process lives
------------------
     ethr =  2.75E-04,  avg # of iterations =  1.4

     negative rho (up, down):  7.899E-01 0.000E+00

     total cpu time spent up to now is      168.2 secs

     total energy              =   -4400.09297712 Ry
     estimated scf accuracy    <       0.82545649 Ry

     iteration # 13     ecut=    60.00 Ry     beta= 0.15
     Davidson diagonalization with overlap

---- Real-time Memory Report at c_bands before calling an iterative solver
             0 MiB given to the printing process from OS
             0 MiB allocation reported by mallinfo(arena+hblkhd)
        169293 MiB available memory on the node where the printing process lives
------------------
     ethr =  1.94E-04,  avg # of iterations =  4.5

     negative rho (up, down):  7.999E-01 0.000E+00

     total cpu time spent up to now is      182.9 secs

     total energy              =   -4400.09394125 Ry
     estimated scf accuracy    <       1.68183292 Ry

     iteration # 14     ecut=    60.00 Ry     beta= 0.15
     Davidson diagonalization with overlap

---- Real-time Memory Report at c_bands before calling an iterative solver
             0 MiB given to the printing process from OS
             0 MiB allocation reported by mallinfo(arena+hblkhd)
        169278 MiB available memory on the node where the printing process lives
------------------
     ethr =  1.94E-04,  avg # of iterations =  7.2

     negative rho (up, down):  8.031E-01 0.000E+00

     total cpu time spent up to now is      198.4 secs

     total energy              =   -4400.01984880 Ry
     estimated scf accuracy    <       1.70220572 Ry

     iteration # 15     ecut=    60.00 Ry     beta= 0.15
     Davidson diagonalization with overlap

---- Real-time Memory Report at c_bands before calling an iterative solver
             0 MiB given to the printing process from OS
             0 MiB allocation reported by mallinfo(arena+hblkhd)
        169269 MiB available memory on the node where the printing process lives
------------------
     ethr =  1.94E-04,  avg # of iterations =  3.7

     negative rho (up, down):  8.067E-01 0.000E+00

     total cpu time spent up to now is      212.3 secs

     total energy              =   -4400.04806273 Ry
     estimated scf accuracy    <       0.37715403 Ry

     iteration # 16     ecut=    60.00 Ry     beta= 0.15
     Davidson diagonalization with overlap

---- Real-time Memory Report at c_bands before calling an iterative solver
             0 MiB given to the printing process from OS
             0 MiB allocation reported by mallinfo(arena+hblkhd)
        169266 MiB available memory on the node where the printing process lives
------------------
     c_bands:  1 eigenvalues not converged
     ethr =  8.87E-05,  avg # of iterations = 11.0

     negative rho (up, down):  8.118E-01 0.000E+00

     total cpu time spent up to now is      229.3 secs

     total energy              =   -4400.01750849 Ry
     estimated scf accuracy    <       0.31706961 Ry

     iteration # 17     ecut=    60.00 Ry     beta= 0.15
     Davidson diagonalization with overlap

---- Real-time Memory Report at c_bands before calling an iterative solver
             0 MiB given to the printing process from OS
             0 MiB allocation reported by mallinfo(arena+hblkhd)
        169271 MiB available memory on the node where the printing process lives
------------------
     ethr =  7.46E-05,  avg # of iterations =  3.9

     negative rho (up, down):  8.191E-01 0.000E+00

     total cpu time spent up to now is      243.6 secs

     total energy              =   -4399.94568307 Ry
     estimated scf accuracy    <       0.27458611 Ry

     iteration # 18     ecut=    60.00 Ry     beta= 0.15
     Davidson diagonalization with overlap

---- Real-time Memory Report at c_bands before calling an iterative solver
             0 MiB given to the printing process from OS
             0 MiB allocation reported by mallinfo(arena+hblkhd)
        169260 MiB available memory on the node where the printing process lives
------------------
     c_bands:  1 eigenvalues not converged
     ethr =  6.46E-05,  avg # of iterations = 13.5

     negative rho (up, down):  8.224E-01 0.000E+00

     total cpu time spent up to now is      262.5 secs

     total energy              =   -4399.94409140 Ry
     estimated scf accuracy    <       0.12071013 Ry

     iteration # 19     ecut=    60.00 Ry     beta= 0.15
     Davidson diagonalization with overlap

---- Real-time Memory Report at c_bands before calling an iterative solver
             0 MiB given to the printing process from OS
             0 MiB allocation reported by mallinfo(arena+hblkhd)
        169189 MiB available memory on the node where the printing process lives
------------------
     ethr =  2.84E-05,  avg # of iterations =  5.3

     negative rho (up, down):  8.241E-01 0.000E+00

     total cpu time spent up to now is      277.7 secs

     total energy              =   -4399.93930366 Ry
     estimated scf accuracy    <       0.10448472 Ry

     iteration # 20     ecut=    60.00 Ry     beta= 0.15
     Davidson diagonalization with overlap

---- Real-time Memory Report at c_bands before calling an iterative solver
             0 MiB given to the printing process from OS
             0 MiB allocation reported by mallinfo(arena+hblkhd)
        169224 MiB available memory on the node where the printing process lives
------------------
     ethr =  2.46E-05,  avg # of iterations =  4.7

     negative rho (up, down):  8.177E-01 0.000E+00

     total cpu time spent up to now is      292.0 secs

     total energy              =   -4399.92977184 Ry
     estimated scf accuracy    <       0.09076658 Ry

     iteration # 21     ecut=    60.00 Ry     beta= 0.15
     Davidson diagonalization with overlap

---- Real-time Memory Report at c_bands before calling an iterative solver
             0 MiB given to the printing process from OS
             0 MiB allocation reported by mallinfo(arena+hblkhd)
        169218 MiB available memory on the node where the printing process lives
------------------
     ethr =  2.14E-05,  avg # of iterations =  7.6

     negative rho (up, down):  8.135E-01 0.000E+00

     total cpu time spent up to now is      307.8 secs

     total energy              =   -4399.91855190 Ry
     estimated scf accuracy    <       0.06425048 Ry

     iteration # 22     ecut=    60.00 Ry     beta= 0.15
     Davidson diagonalization with overlap

---- Real-time Memory Report at c_bands before calling an iterative solver
             0 MiB given to the printing process from OS
             0 MiB allocation reported by mallinfo(arena+hblkhd)
        169212 MiB available memory on the node where the printing process lives
------------------
     ethr =  1.51E-05,  avg # of iterations = 11.6

     negative rho (up, down):  8.015E-01 0.000E+00

     total cpu time spent up to now is      326.0 secs

     total energy              =   -4399.91677465 Ry
     estimated scf accuracy    <       0.03231361 Ry

     iteration # 23     ecut=    60.00 Ry     beta= 0.15
     Davidson diagonalization with overlap

---- Real-time Memory Report at c_bands before calling an iterative solver
             0 MiB given to the printing process from OS
             0 MiB allocation reported by mallinfo(arena+hblkhd)
        169162 MiB available memory on the node where the printing process lives
------------------
     ethr =  7.60E-06,  avg # of iterations =  6.9

     negative rho (up, down):  7.933E-01 0.000E+00

     total cpu time spent up to now is      341.4 secs

     total energy              =   -4399.91476897 Ry
     estimated scf accuracy    <       0.02046871 Ry

     iteration # 24     ecut=    60.00 Ry     beta= 0.15
     Davidson diagonalization with overlap

---- Real-time Memory Report at c_bands before calling an iterative solver
             0 MiB given to the printing process from OS
             0 MiB allocation reported by mallinfo(arena+hblkhd)
        169171 MiB available memory on the node where the printing process lives
------------------
     ethr =  4.82E-06,  avg # of iterations = 12.3

     negative rho (up, down):  7.970E-01 0.000E+00

     total cpu time spent up to now is      359.9 secs

     total energy              =   -4399.91504819 Ry
     estimated scf accuracy    <       0.01127249 Ry

     iteration # 25     ecut=    60.00 Ry     beta= 0.15
     Davidson diagonalization with overlap

---- Real-time Memory Report at c_bands before calling an iterative solver
             0 MiB given to the printing process from OS
             0 MiB allocation reported by mallinfo(arena+hblkhd)
        169115 MiB available memory on the node where the printing process lives
------------------
     ethr =  2.65E-06,  avg # of iterations =  8.1

     negative rho (up, down):  7.906E-01 0.000E+00

     total cpu time spent up to now is      376.9 secs

     total energy              =   -4399.91425403 Ry
     estimated scf accuracy    <       0.00870742 Ry

     iteration # 26     ecut=    60.00 Ry     beta= 0.15
     Davidson diagonalization with overlap

---- Real-time Memory Report at c_bands before calling an iterative solver
             0 MiB given to the printing process from OS
             0 MiB allocation reported by mallinfo(arena+hblkhd)
        169187 MiB available memory on the node where the printing process lives
------------------
     ethr =  2.05E-06,  avg # of iterations =  2.9

     negative rho (up, down):  7.900E-01 0.000E+00

     total cpu time spent up to now is      391.3 secs

     total energy              =   -4399.91373093 Ry
     estimated scf accuracy    <       0.00604920 Ry

     iteration # 27     ecut=    60.00 Ry     beta= 0.15
     Davidson diagonalization with overlap

---- Real-time Memory Report at c_bands before calling an iterative solver
             0 MiB given to the printing process from OS
             0 MiB allocation reported by mallinfo(arena+hblkhd)
        169157 MiB available memory on the node where the printing process lives
------------------
     c_bands:  1 eigenvalues not converged
     ethr =  1.42E-06,  avg # of iterations = 10.1

     negative rho (up, down):  7.923E-01 0.000E+00

     total cpu time spent up to now is      409.1 secs

     total energy              =   -4399.91350724 Ry
     estimated scf accuracy    <       0.00313901 Ry

     iteration # 28     ecut=    60.00 Ry     beta= 0.15
     Davidson diagonalization with overlap

---- Real-time Memory Report at c_bands before calling an iterative solver
             0 MiB given to the printing process from OS
             0 MiB allocation reported by mallinfo(arena+hblkhd)
        169139 MiB available memory on the node where the printing process lives
------------------
     ethr =  7.39E-07,  avg # of iterations = 10.5

     negative rho (up, down):  7.956E-01 0.000E+00

     total cpu time spent up to now is      427.6 secs

     total energy              =   -4399.91352234 Ry
     estimated scf accuracy    <       0.00129635 Ry

     iteration # 29     ecut=    60.00 Ry     beta= 0.15
     Davidson diagonalization with overlap

---- Real-time Memory Report at c_bands before calling an iterative solver
             0 MiB given to the printing process from OS
             0 MiB allocation reported by mallinfo(arena+hblkhd)
        169112 MiB available memory on the node where the printing process lives
------------------
     ethr =  3.05E-07,  avg # of iterations = 10.6

     negative rho (up, down):  7.957E-01 0.000E+00

     total cpu time spent up to now is      445.7 secs

     total energy              =   -4399.91359586 Ry
     estimated scf accuracy    <       0.00031013 Ry

     iteration # 30     ecut=    60.00 Ry     beta= 0.15
     Davidson diagonalization with overlap

---- Real-time Memory Report at c_bands before calling an iterative solver
             0 MiB given to the printing process from OS
             0 MiB allocation reported by mallinfo(arena+hblkhd)
        169095 MiB available memory on the node where the printing process lives
------------------
     ethr =  7.30E-08,  avg # of iterations =  2.2

     negative rho (up, down):  7.955E-01 0.000E+00

     total cpu time spent up to now is      459.9 secs

     total energy              =   -4399.91361736 Ry
     estimated scf accuracy    <       0.00017605 Ry

     iteration # 31     ecut=    60.00 Ry     beta= 0.15
     Davidson diagonalization with overlap

---- Real-time Memory Report at c_bands before calling an iterative solver
             0 MiB given to the printing process from OS
             0 MiB allocation reported by mallinfo(arena+hblkhd)
        169103 MiB available memory on the node where the printing process lives
------------------
     ethr =  4.14E-08,  avg # of iterations =  2.1

     negative rho (up, down):  7.938E-01 0.000E+00

     total cpu time spent up to now is      473.5 secs

     total energy              =   -4399.91361884 Ry
     estimated scf accuracy    <       0.00011539 Ry

     iteration # 32     ecut=    60.00 Ry     beta= 0.15
     Davidson diagonalization with overlap

---- Real-time Memory Report at c_bands before calling an iterative solver
             0 MiB given to the printing process from OS
             0 MiB allocation reported by mallinfo(arena+hblkhd)
        169155 MiB available memory on the node where the printing process lives
------------------
     ethr =  2.71E-08,  avg # of iterations =  2.2

     negative rho (up, down):  7.927E-01 0.000E+00

     total cpu time spent up to now is      487.1 secs

     total energy              =   -4399.91363373 Ry
     estimated scf accuracy    <       0.00006481 Ry

     iteration # 33     ecut=    60.00 Ry     beta= 0.15
     Davidson diagonalization with overlap

---- Real-time Memory Report at c_bands before calling an iterative solver
             0 MiB given to the printing process from OS
             0 MiB allocation reported by mallinfo(arena+hblkhd)
        169152 MiB available memory on the node where the printing process lives
------------------
     ethr =  1.52E-08,  avg # of iterations =  3.7

     negative rho (up, down):  7.928E-01 0.000E+00

     total cpu time spent up to now is      502.0 secs

     total energy              =   -4399.91363673 Ry
     estimated scf accuracy    <       0.00002093 Ry

     iteration # 34     ecut=    60.00 Ry     beta= 0.15
     Davidson diagonalization with overlap

---- Real-time Memory Report at c_bands before calling an iterative solver
             0 MiB given to the printing process from OS
             0 MiB allocation reported by mallinfo(arena+hblkhd)
        169147 MiB available memory on the node where the printing process lives
------------------
     ethr =  4.93E-09,  avg # of iterations =  2.2

     negative rho (up, down):  7.927E-01 0.000E+00

     total cpu time spent up to now is      515.5 secs

     total energy              =   -4399.91363653 Ry
     estimated scf accuracy    <       0.00001551 Ry

     iteration # 35     ecut=    60.00 Ry     beta= 0.15
     Davidson diagonalization with overlap

---- Real-time Memory Report at c_bands before calling an iterative solver
             0 MiB given to the printing process from OS
             0 MiB allocation reported by mallinfo(arena+hblkhd)
        169156 MiB available memory on the node where the printing process lives
------------------
     ethr =  3.65E-09,  avg # of iterations =  1.5

     negative rho (up, down):  7.926E-01 0.000E+00

     total cpu time spent up to now is      528.3 secs

     total energy              =   -4399.91363647 Ry
     estimated scf accuracy    <       0.00001045 Ry

     iteration # 36     ecut=    60.00 Ry     beta= 0.15
     Davidson diagonalization with overlap

---- Real-time Memory Report at c_bands before calling an iterative solver
             0 MiB given to the printing process from OS
             0 MiB allocation reported by mallinfo(arena+hblkhd)
        169155 MiB available memory on the node where the printing process lives
------------------
     ethr =  2.46E-09,  avg # of iterations =  2.1

     negative rho (up, down):  7.923E-01 0.000E+00

     total cpu time spent up to now is      541.6 secs

     total energy              =   -4399.91363814 Ry
     estimated scf accuracy    <       0.00000753 Ry

     iteration # 37     ecut=    60.00 Ry     beta= 0.15
     Davidson diagonalization with overlap

---- Real-time Memory Report at c_bands before calling an iterative solver
             0 MiB given to the printing process from OS
             0 MiB allocation reported by mallinfo(arena+hblkhd)
        169161 MiB available memory on the node where the printing process lives
------------------
     ethr =  1.77E-09,  avg # of iterations =  2.2

     negative rho (up, down):  7.923E-01 0.000E+00

     total cpu time spent up to now is      555.1 secs

     total energy              =   -4399.91363954 Ry
     estimated scf accuracy    <       0.00000481 Ry

     iteration # 38     ecut=    60.00 Ry     beta= 0.15
     Davidson diagonalization with overlap

---- Real-time Memory Report at c_bands before calling an iterative solver
             0 MiB given to the printing process from OS
             0 MiB allocation reported by mallinfo(arena+hblkhd)
        169162 MiB available memory on the node where the printing process lives
------------------
     ethr =  1.13E-09,  avg # of iterations =  3.1

     negative rho (up, down):  7.923E-01 0.000E+00

     total cpu time spent up to now is      569.0 secs

     total energy              =   -4399.91364014 Ry
     estimated scf accuracy    <       0.00000316 Ry

     iteration # 39     ecut=    60.00 Ry     beta= 0.15
     Davidson diagonalization with overlap

---- Real-time Memory Report at c_bands before calling an iterative solver
             0 MiB given to the printing process from OS
             0 MiB allocation reported by mallinfo(arena+hblkhd)
        169150 MiB available memory on the node where the printing process lives
------------------
     ethr =  7.44E-10,  avg # of iterations =  2.3

     negative rho (up, down):  7.923E-01 0.000E+00

     total cpu time spent up to now is      582.6 secs

     total energy              =   -4399.91364029 Ry
     estimated scf accuracy    <       0.00000212 Ry

     iteration # 40     ecut=    60.00 Ry     beta= 0.15
     Davidson diagonalization with overlap

---- Real-time Memory Report at c_bands before calling an iterative solver
             0 MiB given to the printing process from OS
             0 MiB allocation reported by mallinfo(arena+hblkhd)
        169155 MiB available memory on the node where the printing process lives
------------------
     ethr =  5.00E-10,  avg # of iterations =  2.0

     negative rho (up, down):  7.924E-01 0.000E+00

     total cpu time spent up to now is      596.0 secs

     total energy              =   -4399.91364025 Ry
     estimated scf accuracy    <       0.00000169 Ry

     iteration # 41     ecut=    60.00 Ry     beta= 0.15
     Davidson diagonalization with overlap

---- Real-time Memory Report at c_bands before calling an iterative solver
             0 MiB given to the printing process from OS
             0 MiB allocation reported by mallinfo(arena+hblkhd)
        169157 MiB available memory on the node where the printing process lives
------------------
     ethr =  3.98E-10,  avg # of iterations =  2.2

     negative rho (up, down):  7.925E-01 0.000E+00

     total cpu time spent up to now is      609.6 secs

     total energy              =   -4399.91364018 Ry
     estimated scf accuracy    <       0.00000116 Ry

     iteration # 42     ecut=    60.00 Ry     beta= 0.15
     Davidson diagonalization with overlap

---- Real-time Memory Report at c_bands before calling an iterative solver
             0 MiB given to the printing process from OS
             0 MiB allocation reported by mallinfo(arena+hblkhd)
        169161 MiB available memory on the node where the printing process lives
------------------
     ethr =  2.74E-10,  avg # of iterations =  1.9

     negative rho (up, down):  7.924E-01 0.000E+00

     total cpu time spent up to now is      623.4 secs

     total energy              =   -4399.91364015 Ry
     estimated scf accuracy    <       0.00000057 Ry

     iteration # 43     ecut=    60.00 Ry     beta= 0.15
     Davidson diagonalization with overlap

---- Real-time Memory Report at c_bands before calling an iterative solver
             0 MiB given to the printing process from OS
             0 MiB allocation reported by mallinfo(arena+hblkhd)
        169163 MiB available memory on the node where the printing process lives
------------------
     ethr =  1.34E-10,  avg # of iterations =  1.6

     negative rho (up, down):  7.924E-01 0.000E+00

     total cpu time spent up to now is      636.2 secs

     total energy              =   -4399.91364008 Ry
     estimated scf accuracy    <       0.00000040 Ry

     iteration # 44     ecut=    60.00 Ry     beta= 0.15
     Davidson diagonalization with overlap

---- Real-time Memory Report at c_bands before calling an iterative solver
             0 MiB given to the printing process from OS
             0 MiB allocation reported by mallinfo(arena+hblkhd)
        169162 MiB available memory on the node where the printing process lives
------------------
     ethr =  9.46E-11,  avg # of iterations =  2.1

     negative rho (up, down):  7.924E-01 0.000E+00

     total cpu time spent up to now is      649.8 secs

     total energy              =   -4399.91364014 Ry
     estimated scf accuracy    <       0.00000023 Ry

     iteration # 45     ecut=    60.00 Ry     beta= 0.15
     Davidson diagonalization with overlap

---- Real-time Memory Report at c_bands before calling an iterative solver
             0 MiB given to the printing process from OS
             0 MiB allocation reported by mallinfo(arena+hblkhd)
        169166 MiB available memory on the node where the printing process lives
------------------
     ethr =  5.42E-11,  avg # of iterations =  2.2

     negative rho (up, down):  7.924E-01 0.000E+00

     total cpu time spent up to now is      663.2 secs

     total energy              =   -4399.91364021 Ry
     estimated scf accuracy    <       0.00000012 Ry

     iteration # 46     ecut=    60.00 Ry     beta= 0.15
     Davidson diagonalization with overlap

---- Real-time Memory Report at c_bands before calling an iterative solver
             0 MiB given to the printing process from OS
             0 MiB allocation reported by mallinfo(arena+hblkhd)
        169163 MiB available memory on the node where the printing process lives
------------------
     ethr =  2.79E-11,  avg # of iterations =  2.9

     negative rho (up, down):  7.924E-01 0.000E+00

     total cpu time spent up to now is      677.3 secs

     total energy              =   -4399.91364028 Ry
     estimated scf accuracy    <       0.00000003 Ry

     iteration # 47     ecut=    60.00 Ry     beta= 0.15
     Davidson diagonalization with overlap

---- Real-time Memory Report at c_bands before calling an iterative solver
             0 MiB given to the printing process from OS
             0 MiB allocation reported by mallinfo(arena+hblkhd)
        169164 MiB available memory on the node where the printing process lives
------------------
     ethr =  7.95E-12,  avg # of iterations =  4.0

     negative rho (up, down):  7.924E-01 0.000E+00

     total cpu time spent up to now is      692.6 secs

     total energy              =   -4399.91364030 Ry
     estimated scf accuracy    <       0.00000002 Ry

     iteration # 48     ecut=    60.00 Ry     beta= 0.15
     Davidson diagonalization with overlap

---- Real-time Memory Report at c_bands before calling an iterative solver
             0 MiB given to the printing process from OS
             0 MiB allocation reported by mallinfo(arena+hblkhd)
        169153 MiB available memory on the node where the printing process lives
------------------
     ethr =  3.73E-12,  avg # of iterations =  3.3

     negative rho (up, down):  7.924E-01 0.000E+00

     total cpu time spent up to now is      706.2 secs

     End of self-consistent calculation

          k = 0.0000 0.0000 0.0000 ( 65197 PWs)   bands (ev):

   -92.7095 -92.6544 -92.5630 -92.5137 -92.4567 -92.4156 -92.3985 -92.2759
   -56.0629 -56.0409 -55.9205 -55.9101 -55.9015 -55.8969 -55.8595 -55.8323
   -55.8171 -55.8150 -55.8051 -55.7646 -55.7452 -55.7080 -55.6893 -55.6566
   -55.6482 -55.6041 -55.6014 -55.6009 -55.5925 -55.5504 -55.5288 -55.4432
   -31.2860 -31.2661 -31.1612 -31.1251 -31.0736 -31.0375 -30.8235 -30.7008
   -29.8581 -29.8139 -29.7891 -29.6796 -15.0899 -15.0484 -14.9673 -14.8364
   -14.6483 -14.5231 -14.2292 -14.2118 -14.1796 -14.1371 -14.0920 -14.0825
   -14.0705 -14.0542 -14.0303 -14.0031 -13.9401 -13.7904 -13.6172 -13.5792
   -13.5468 -13.5216 -13.5003 -13.4496 -13.4137 -13.3303 -13.2592 -13.1675
   -13.1537 -13.1184 -13.1047 -13.0833 -13.0666 -13.0407 -13.0172 -12.9989
   -12.9776 -12.9602 -12.9514 -12.9312 -12.9175 -12.9052 -12.8195 -12.7894
   -12.7580 -12.6477 -12.6252 -12.6086 -12.3505 -12.2049 -12.0423 -11.9736
   -11.8713 -11.7971 -11.7861 -11.7630 -11.7456 -11.6817 -11.6646 -11.6297
   -11.6014 -11.4889 -11.4091 -11.4056  -2.9514  -2.7184  -2.4890  -2.3427
    -2.2790  -2.1364  -1.8299  -1.8158  -1.7954  -1.7126  -1.6928  -1.6247
    -1.6084  -1.5672  -1.5223  -1.3412  -1.1184  -1.0888  -0.9397  -0.9257
    -0.8806  -0.8633  -0.8175  -0.8014  -0.7431  -0.7168  -0.6463  -0.6326
    -0.5561  -0.4250  -0.4115  -0.3842  -0.3030  -0.2977  -0.2808  -0.2105
    -0.1383  -0.0981  -0.0433  -0.0171   0.0419   0.1229   0.1706   0.1929
     0.2017   0.4584   0.4733   0.6454   0.7136   0.7786   0.8231   0.9112
     0.9264   0.9434   1.0111   1.0383   1.0731   1.1314   1.2641   1.3212
     1.3417   1.3603   1.3706   1.4382   1.5129   1.6130   1.6247   1.6895
     1.7053   1.7450   1.7651   1.7705   1.8283   1.8806   1.8928   1.9276
     1.9577   2.0151   2.1461   2.2282   2.2736   2.2922   2.4431   2.4571
     2.4994   2.5042   2.6090   2.6472   2.6738   2.6920   2.7058   2.7689
     2.8156   2.9022   2.9295   2.9430   2.9491   3.0170   3.0205   3.0443
     3.0527   3.0606   3.0773   3.0801   3.0928   3.0979   3.1130   3.1209
     3.1276   3.1481   3.1690   3.1742   3.1859   3.2278   3.3273   3.4270
     4.1007   4.4205   4.7622   4.8632   5.0262   5.7665   5.9254   5.9850
     6.0055   6.3053   6.3528   6.4801   6.4902   6.7299   7.0039   7.0923
     7.1246   7.3016   7.3891   7.5670   7.6480   7.6597   7.6802   7.8319
     7.9413   8.0884   8.1110   8.1802   8.5773   8.6257   8.7545   8.8355

     occupation numbers 
     1.0000   1.0000   1.0000   1.0000   1.0000   1.0000   1.0000   1.0000
     1.0000   1.0000   1.0000   1.0000   1.0000   1.0000   1.0000   1.0000
     1.0000   1.0000   1.0000   1.0000   1.0000   1.0000   1.0000   1.0000
     1.0000   1.0000   1.0000   1.0000   1.0000   1.0000   1.0000   1.0000
     1.0000   1.0000   1.0000   1.0000   1.0000   1.0000   1.0000   1.0000
     1.0000   1.0000   1.0000   1.0000   1.0000   1.0000   1.0000   1.0000
     1.0000   1.0000   1.0000   1.0000   1.0000   1.0000   1.0000   1.0000
     1.0000   1.0000   1.0000   1.0000   1.0000   1.0000   1.0000   1.0000
     1.0000   1.0000   1.0000   1.0000   1.0000   1.0000   1.0000   1.0000
     1.0000   1.0000   1.0000   1.0000   1.0000   1.0000   1.0000   1.0000
     1.0000   1.0000   1.0000   1.0000   1.0000   1.0000   1.0000   1.0000
     1.0000   1.0000   1.0000   1.0000   1.0000   1.0000   1.0000   1.0000
     1.0000   1.0000   1.0000   1.0000   1.0000   1.0000   1.0000   1.0000
     1.0000   1.0000   1.0000   1.0000   1.0000   1.0000   1.0000   1.0000
     1.0000   1.0000   1.0000   1.0000   1.0000   1.0000   1.0000   1.0000
     1.0000   1.0000   1.0000   1.0000   1.0000   1.0000   1.0000   1.0000
     1.0000   1.0000   1.0000   1.0000   1.0000   1.0000   1.0000   1.0000
     1.0000   1.0000   1.0000   1.0000   1.0000   1.0000   1.0000   1.0000
     1.0000   1.0000   1.0000   1.0000   1.0000   1.0000   1.0000   1.0000
     1.0000   1.0000   1.0000   1.0000   0.9999   0.9999   0.9999   0.9998
     0.9998   0.9998   0.9997   0.9996   0.9996   0.9994   0.9989   0.9985
     0.9983   0.9982   0.9981   0.9974   0.9963   0.9943   0.9940   0.9922
     0.9917   0.9903   0.9895   0.9892   0.9865   0.9836   0.9829   0.9805
     0.9783   0.9735   0.9591   0.9473   0.9396   0.9362   0.9031   0.8995
     0.8880   0.8866   0.8539   0.8405   0.8307   0.8238   0.8185   0.7927
     0.7723   0.7317   0.7181   0.7114   0.7083   0.6727   0.6709   0.6580
     0.6534   0.6490   0.6398   0.6383   0.6311   0.6283   0.6198   0.6153
     0.6115   0.5998   0.5878   0.5847   0.5779   0.5535   0.4947   0.4359
     0.1227   0.0509   0.0160   0.0109   0.0056   0.0001   0.0001   0.0000
     0.0000   0.0000   0.0000   0.0000   0.0000   0.0000   0.0000   0.0000
     0.0000   0.0000   0.0000   0.0000   0.0000   0.0000   0.0000   0.0000
     0.0000   0.0000   0.0000   0.0000   0.0000   0.0000   0.0000   0.0000

          k = 0.0000 0.2500 0.0000 ( 65257 PWs)   bands (ev):

   -92.7095 -92.6544 -92.5630 -92.5137 -92.4567 -92.4156 -92.3985 -92.2759
   -56.0629 -56.0409 -55.9205 -55.9101 -55.9015 -55.8969 -55.8595 -55.8323
   -55.8171 -55.8150 -55.8051 -55.7646 -55.7452 -55.7080 -55.6893 -55.6566
   -55.6482 -55.6041 -55.6014 -55.6009 -55.5925 -55.5504 -55.5288 -55.4432
   -31.2858 -31.2660 -31.1608 -31.1253 -31.0740 -31.0376 -30.8232 -30.7011
   -29.8575 -29.8136 -29.7898 -29.6800 -15.0533 -15.0220 -14.9421 -14.8073
   -14.6877 -14.5149 -14.3747 -14.1950 -14.1628 -14.1409 -14.1133 -14.0551
   -14.0493 -14.0329 -14.0164 -13.9788 -13.8594 -13.8209 -13.6571 -13.6423
   -13.5887 -13.5537 -13.5130 -13.4665 -13.4299 -13.3522 -13.3166 -13.2746
   -13.2133 -13.1566 -13.1394 -13.1158 -13.0938 -13.0228 -12.9886 -12.9590
   -12.9412 -12.9123 -12.8873 -12.8762 -12.8635 -12.8093 -12.7997 -12.7744
   -12.7375 -12.6484 -12.5432 -12.4863 -12.4119 -12.2561 -12.0982 -12.0388
   -11.8367 -11.7939 -11.7662 -11.7378 -11.7211 -11.6737 -11.6624 -11.6400
   -11.6058 -11.5033 -11.4508 -11.4401  -2.8161  -2.5941  -2.4567  -2.2747
    -2.2312  -2.0670  -1.8489  -1.7630  -1.7500  -1.6939  -1.5904  -1.5746
    -1.5404  -1.5143  -1.4706  -1.2725  -1.1444  -1.1324  -1.0565  -1.0455
    -0.9412  -0.9107  -0.8548  -0.8299  -0.7874  -0.7243  -0.6983  -0.6657
    -0.6342  -0.6170  -0.5845  -0.5101  -0.4591  -0.3987  -0.2843  -0.2670
    -0.2219  -0.1031  -0.0701  -0.0047   0.0422   0.1057   0.1220   0.1493
     0.2077   0.5056   0.5938   0.6236   0.7141   0.7597   0.7791   0.9006
     0.9189   1.0110   1.0380   1.0657   1.1808   1.2709   1.2957   1.3190
     1.3362   1.3647   1.4245   1.4511   1.4780   1.5270   1.5608   1.5893
     1.6690   1.7021   1.7438   1.7933   1.8489   1.8894   1.9169   1.9415
     1.9645   2.0477   2.1809   2.2540   2.2740   2.3497   2.3976   2.4340
     2.4441   2.5057   2.5455   2.6274   2.6648   2.6817   2.7935   2.8574
     2.8895   2.9110   2.9320   2.9510   2.9582   2.9653   2.9829   3.0050
     3.0062   3.0266   3.0311   3.0406   3.0596   3.0728   3.0774   3.0991
     3.1101   3.1143   3.1496   3.1664   3.2291   3.5993   3.6423   3.8704
     4.2867   4.4224   4.6962   5.0162   5.0550   5.6252   5.7561   5.8924
     5.9742   6.0822   6.1058   6.1783   6.5968   6.8237   6.8957   7.1070
     7.3264   7.4375   7.4806   7.4968   7.6390   7.6992   7.7902   7.9882
     8.0429   8.0932   8.1607   8.3051   8.4037   8.6481   8.7869   8.8889

     occupation numbers 
     1.0000   1.0000   1.0000   1.0000   1.0000   1.0000   1.0000   1.0000
     1.0000   1.0000   1.0000   1.0000   1.0000   1.0000   1.0000   1.0000
     1.0000   1.0000   1.0000   1.0000   1.0000   1.0000   1.0000   1.0000
     1.0000   1.0000   1.0000   1.0000   1.0000   1.0000   1.0000   1.0000
     1.0000   1.0000   1.0000   1.0000   1.0000   1.0000   1.0000   1.0000
     1.0000   1.0000   1.0000   1.0000   1.0000   1.0000   1.0000   1.0000
     1.0000   1.0000   1.0000   1.0000   1.0000   1.0000   1.0000   1.0000
     1.0000   1.0000   1.0000   1.0000   1.0000   1.0000   1.0000   1.0000
     1.0000   1.0000   1.0000   1.0000   1.0000   1.0000   1.0000   1.0000
     1.0000   1.0000   1.0000   1.0000   1.0000   1.0000   1.0000   1.0000
     1.0000   1.0000   1.0000   1.0000   1.0000   1.0000   1.0000   1.0000
     1.0000   1.0000   1.0000   1.0000   1.0000   1.0000   1.0000   1.0000
     1.0000   1.0000   1.0000   1.0000   1.0000   1.0000   1.0000   1.0000
     1.0000   1.0000   1.0000   1.0000   1.0000   1.0000   1.0000   1.0000
     1.0000   1.0000   1.0000   1.0000   1.0000   1.0000   1.0000   1.0000
     1.0000   1.0000   1.0000   1.0000   1.0000   1.0000   1.0000   1.0000
     1.0000   1.0000   1.0000   1.0000   1.0000   1.0000   1.0000   1.0000
     1.0000   1.0000   1.0000   1.0000   1.0000   1.0000   1.0000   1.0000
     1.0000   1.0000   1.0000   1.0000   1.0000   1.0000   1.0000   1.0000
     1.0000   1.0000   1.0000   1.0000   0.9999   0.9999   0.9999   0.9998
     0.9998   0.9997   0.9996   0.9996   0.9992   0.9988   0.9987   0.9985
     0.9984   0.9981   0.9975   0.9972   0.9969   0.9961   0.9955   0.9949
     0.9928   0.9918   0.9903   0.9882   0.9854   0.9831   0.9813   0.9795
     0.9778   0.9704   0.9544   0.9430   0.9395   0.9248   0.9142   0.9054
     0.9029   0.8862   0.8744   0.8476   0.8341   0.8278   0.7821   0.7531
     0.7379   0.7274   0.7169   0.7073   0.7036   0.6999   0.6908   0.6791
     0.6785   0.6676   0.6651   0.6600   0.6496   0.6423   0.6397   0.6276
     0.6214   0.6190   0.5989   0.5892   0.5527   0.3382   0.3152   0.2062
     0.0752   0.0506   0.0204   0.0058   0.0050   0.0003   0.0001   0.0001
     0.0000   0.0000   0.0000   0.0000   0.0000   0.0000   0.0000   0.0000
     0.0000   0.0000   0.0000   0.0000   0.0000   0.0000   0.0000   0.0000
     0.0000   0.0000   0.0000   0.0000   0.0000   0.0000   0.0000   0.0000

          k = 0.0000-0.5000 0.0000 ( 65180 PWs)   bands (ev):

   -92.7095 -92.6544 -92.5630 -92.5137 -92.4567 -92.4156 -92.3985 -92.2759
   -56.0629 -56.0409 -55.9205 -55.9101 -55.9015 -55.8969 -55.8595 -55.8323
   -55.8171 -55.8150 -55.8051 -55.7646 -55.7452 -55.7080 -55.6893 -55.6566
   -55.6482 -55.6041 -55.6014 -55.6009 -55.5925 -55.5504 -55.5288 -55.4432
   -31.2856 -31.2658 -31.1605 -31.1255 -31.0743 -31.0377 -30.8230 -30.7014
   -29.8569 -29.8133 -29.7904 -29.6803 -15.0189 -14.9704 -14.9175 -14.7921
   -14.7060 -14.5687 -14.4185 -14.2947 -14.1659 -14.1029 -14.0571 -14.0471
   -13.9985 -13.9801 -13.9331 -13.9149 -13.8883 -13.8527 -13.8257 -13.7819
   -13.5922 -13.5355 -13.5217 -13.4650 -13.4375 -13.3673 -13.3427 -13.2922
   -13.2911 -13.2259 -13.1349 -13.1155 -13.0796 -13.0576 -12.9753 -12.9609
   -12.9369 -12.8903 -12.8727 -12.8577 -12.8032 -12.7627 -12.7176 -12.7122
   -12.6608 -12.6511 -12.5228 -12.4160 -12.3313 -12.2945 -12.2043 -12.1598
   -11.7908 -11.7884 -11.7610 -11.7237 -11.6894 -11.6784 -11.6356 -11.6317
   -11.5871 -11.5251 -11.5113 -11.4971  -2.6016  -2.5418  -2.3908  -2.3188
    -2.0385  -1.9537  -1.8269  -1.6890  -1.6536  -1.6324  -1.5536  -1.5230
    -1.4407  -1.4055  -1.3289  -1.2880  -1.2491  -1.2222  -1.1647  -1.1282
    -1.0812  -1.0462  -1.0120  -0.9778  -0.8680  -0.8229  -0.7895  -0.7880
    -0.7018  -0.6689  -0.6468  -0.5970  -0.5135  -0.4412  -0.3612  -0.3350
    -0.2251  -0.1796  -0.0383  -0.0076   0.0229   0.0818   0.2011   0.2500
     0.3831   0.4496   0.4571   0.5856   0.6287   0.7403   0.8646   0.9728
     1.0028   1.0402   1.0443   1.0864   1.1017   1.1382   1.1544   1.1646
     1.2755   1.3369   1.3629   1.3881   1.6472   1.6832   1.7021   1.7999
     1.8224   1.8546   1.8717   1.9010   1.9121   1.9251   1.9570   1.9913
     2.0204   2.0481   2.0579   2.0867   2.1418   2.2221   2.2513   2.4369
     2.5934   2.6041   2.6185   2.6532   2.6590   2.6715   2.7205   2.7358
     2.7871   2.8010   2.8207   2.8967   2.9005   2.9681   2.9896   3.0002
     3.0024   3.0222   3.0289   3.0335   3.0361   3.0429   3.0604   3.0691
     3.0788   3.1348   3.1410   3.1562   3.2100   4.1201   4.1549   4.1737
     4.2439   4.7336   4.8883   5.0229   5.1391   5.4087   5.4571   5.5865
     5.6876   5.9778   6.0329   6.0417   6.6387   6.8536   6.9495   7.2177
     7.2940   7.3176   7.3973   7.4987   7.7468   7.8452   7.8895   7.9100
     8.1090   8.1838   8.4528   8.5505   8.6619   8.7140   8.8092   8.8300

     occupation numbers 
     1.0000   1.0000   1.0000   1.0000   1.0000   1.0000   1.0000   1.0000
     1.0000   1.0000   1.0000   1.0000   1.0000   1.0000   1.0000   1.0000
     1.0000   1.0000   1.0000   1.0000   1.0000   1.0000   1.0000   1.0000
     1.0000   1.0000   1.0000   1.0000   1.0000   1.0000   1.0000   1.0000
     1.0000   1.0000   1.0000   1.0000   1.0000   1.0000   1.0000   1.0000
     1.0000   1.0000   1.0000   1.0000   1.0000   1.0000   1.0000   1.0000
     1.0000   1.0000   1.0000   1.0000   1.0000   1.0000   1.0000   1.0000
     1.0000   1.0000   1.0000   1.0000   1.0000   1.0000   1.0000   1.0000
     1.0000   1.0000   1.0000   1.0000   1.0000   1.0000   1.0000   1.0000
     1.0000   1.0000   1.0000   1.0000   1.0000   1.0000   1.0000   1.0000
     1.0000   1.0000   1.0000   1.0000   1.0000   1.0000   1.0000   1.0000
     1.0000   1.0000   1.0000   1.0000   1.0000   1.0000   1.0000   1.0000
     1.0000   1.0000   1.0000   1.0000   1.0000   1.0000   1.0000   1.0000
     1.0000   1.0000   1.0000   1.0000   1.0000   1.0000   1.0000   1.0000
     1.0000   1.0000   1.0000   1.0000   1.0000   1.0000   1.0000   1.0000
     1.0000   1.0000   1.0000   1.0000   1.0000   1.0000   1.0000   1.0000
     1.0000   1.0000   1.0000   1.0000   1.0000   1.0000   1.0000   1.0000
     1.0000   1.0000   1.0000   1.0000   1.0000   1.0000   1.0000   1.0000
     1.0000   1.0000   1.0000   1.0000   1.0000   1.0000   1.0000   1.0000
     1.0000   1.0000   1.0000   1.0000   1.0000   0.9999   0.9999   0.9998
     0.9997   0.9996   0.9996   0.9995   0.9995   0.9994   0.9993   0.9993
     0.9988   0.9984   0.9982   0.9979   0.9935   0.9924   0.9918   0.9879
     0.9868   0.9851   0.9841   0.9823   0.9816   0.9807   0.9784   0.9756
     0.9730   0.9704   0.9694   0.9663   0.9597   0.9482   0.9434   0.9047
     0.8592   0.8556   0.8506   0.8383   0.8362   0.8316   0.8127   0.8065
     0.7849   0.7788   0.7700   0.7344   0.7325   0.6985   0.6872   0.6817
     0.6805   0.6699   0.6663   0.6639   0.6624   0.6587   0.6492   0.6443
     0.6390   0.6074   0.6038   0.5951   0.5639   0.1169   0.1071   0.1020
     0.0847   0.0178   0.0099   0.0057   0.0034   0.0010   0.0007   0.0004
     0.0002   0.0000   0.0000   0.0000   0.0000   0.0000   0.0000   0.0000
     0.0000   0.0000   0.0000   0.0000   0.0000   0.0000   0.0000   0.0000
     0.0000   0.0000   0.0000   0.0000   0.0000   0.0000   0.0000   0.0000

          k = 0.2500 0.2500 0.0000 ( 65198 PWs)   bands (ev):

   -92.7095 -92.6544 -92.5630 -92.5137 -92.4567 -92.4156 -92.3985 -92.2759
   -56.0629 -56.0409 -55.9205 -55.9101 -55.9015 -55.8969 -55.8595 -55.8323
   -55.8171 -55.8150 -55.8051 -55.7646 -55.7452 -55.7080 -55.6893 -55.6566
   -55.6482 -55.6041 -55.6014 -55.6009 -55.5925 -55.5504 -55.5288 -55.4432
   -31.2842 -31.2676 -31.1607 -31.1249 -31.0739 -31.0380 -30.8233 -30.7012
   -29.8566 -29.8146 -29.7894 -29.6804 -15.0248 -14.9864 -14.9143 -14.7970
   -14.6804 -14.5545 -14.4805 -14.2775 -14.1186 -14.1059 -14.0712 -14.0413
   -14.0188 -13.9917 -13.9616 -13.9437 -13.8512 -13.8353 -13.6736 -13.6600
   -13.6308 -13.6095 -13.5697 -13.5206 -13.4713 -13.4351 -13.3256 -13.2943
   -13.2382 -13.1524 -13.1163 -13.1004 -13.0587 -13.0287 -13.0172 -12.9708
   -12.9547 -12.9355 -12.9030 -12.8710 -12.7802 -12.7574 -12.7508 -12.7219
   -12.7020 -12.6488 -12.5069 -12.4604 -12.4015 -12.2852 -12.1256 -12.0854
   -11.8090 -11.7772 -11.7665 -11.7597 -11.6966 -11.6621 -11.6553 -11.6198
   -11.6126 -11.5198 -11.4790 -11.4615  -2.6779  -2.4683  -2.3508  -2.2570
    -2.1355  -2.0701  -1.8738  -1.7281  -1.7084  -1.6804  -1.5854  -1.5506
    -1.4573  -1.4295  -1.3797  -1.2482  -1.2000  -1.1282  -1.0828  -1.0388
    -1.0150  -0.9900  -0.9482  -0.9322  -0.8420  -0.7921  -0.7284  -0.6786
    -0.6484  -0.5973  -0.5842  -0.5214  -0.4722  -0.4186  -0.3806  -0.2976
    -0.2430  -0.2147  -0.1749  -0.1200  -0.0491  -0.0088   0.0157   0.0914
     0.1285   0.3976   0.5434   0.5813   0.6360   0.6791   0.7392   0.7937
     0.8510   0.8877   1.1603   1.2292   1.3028   1.3288   1.3748   1.4087
     1.4435   1.4805   1.4981   1.5258   1.5680   1.5770   1.5928   1.6357
     1.6785   1.7158   1.7697   1.8123   1.8181   1.8526   1.8890   1.9431
     1.9714   2.0917   2.1625   2.1988   2.2259   2.2888   2.3577   2.3855
     2.4212   2.4444   2.4595   2.5697   2.6054   2.6935   2.8247   2.8678
     2.8862   2.8905   2.9074   2.9215   2.9338   2.9476   2.9557   2.9669
     2.9788   2.9899   3.0103   3.0149   3.0268   3.0477   3.0613   3.0700
     3.1011   3.4028   3.4988   3.5358   3.6023   3.6578   3.8470   3.9456
     4.2911   4.5123   4.7052   4.9656   5.1667   5.6335   5.6783   5.7359
     5.8264   5.8850   5.9733   6.1685   6.2100   6.7830   6.8951   7.0364
     7.1248   7.5484   7.5973   7.7049   7.7414   7.8643   7.9274   8.0899
     8.1860   8.1951   8.2479   8.3090   8.4351   8.4664   8.7651   8.8642

     occupation numbers 
     1.0000   1.0000   1.0000   1.0000   1.0000   1.0000   1.0000   1.0000
     1.0000   1.0000   1.0000   1.0000   1.0000   1.0000   1.0000   1.0000
     1.0000   1.0000   1.0000   1.0000   1.0000   1.0000   1.0000   1.0000
     1.0000   1.0000   1.0000   1.0000   1.0000   1.0000   1.0000   1.0000
     1.0000   1.0000   1.0000   1.0000   1.0000   1.0000   1.0000   1.0000
     1.0000   1.0000   1.0000   1.0000   1.0000   1.0000   1.0000   1.0000
     1.0000   1.0000   1.0000   1.0000   1.0000   1.0000   1.0000   1.0000
     1.0000   1.0000   1.0000   1.0000   1.0000   1.0000   1.0000   1.0000
     1.0000   1.0000   1.0000   1.0000   1.0000   1.0000   1.0000   1.0000
     1.0000   1.0000   1.0000   1.0000   1.0000   1.0000   1.0000   1.0000
     1.0000   1.0000   1.0000   1.0000   1.0000   1.0000   1.0000   1.0000
     1.0000   1.0000   1.0000   1.0000   1.0000   1.0000   1.0000   1.0000
     1.0000   1.0000   1.0000   1.0000   1.0000   1.0000   1.0000   1.0000
     1.0000   1.0000   1.0000   1.0000   1.0000   1.0000   1.0000   1.0000
     1.0000   1.0000   1.0000   1.0000   1.0000   1.0000   1.0000   1.0000
     1.0000   1.0000   1.0000   1.0000   1.0000   1.0000   1.0000   1.0000
     1.0000   1.0000   1.0000   1.0000   1.0000   1.0000   1.0000   1.0000
     1.0000   1.0000   1.0000   1.0000   1.0000   1.0000   1.0000   1.0000
     1.0000   1.0000   1.0000   1.0000   1.0000   1.0000   1.0000   1.0000
     1.0000   1.0000   1.0000   1.0000   1.0000   1.0000   0.9999   0.9999
     0.9999   0.9998   0.9993   0.9990   0.9986   0.9984   0.9980   0.9977
     0.9973   0.9968   0.9966   0.9961   0.9953   0.9951   0.9948   0.9938
     0.9926   0.9913   0.9893   0.9873   0.9870   0.9852   0.9831   0.9794
     0.9772   0.9657   0.9569   0.9518   0.9476   0.9368   0.9231   0.9170
     0.9086   0.9028   0.8989   0.8669   0.8551   0.8232   0.7682   0.7482
     0.7395   0.7374   0.7291   0.7222   0.7160   0.7090   0.7049   0.6991
     0.6929   0.6871   0.6763   0.6739   0.6674   0.6561   0.6486   0.6438
     0.6265   0.4501   0.3943   0.3734   0.3366   0.3071   0.2162   0.1758
     0.0743   0.0381   0.0197   0.0072   0.0030   0.0003   0.0002   0.0002
     0.0001   0.0001   0.0000   0.0000   0.0000   0.0000   0.0000   0.0000
     0.0000   0.0000   0.0000   0.0000   0.0000   0.0000   0.0000   0.0000
     0.0000   0.0000   0.0000   0.0000   0.0000   0.0000   0.0000   0.0000

          k = 0.2500-0.5000 0.0000 ( 65138 PWs)   bands (ev):

   -92.7094 -92.6544 -92.5630 -92.5137 -92.4567 -92.4156 -92.3985 -92.2759
   -56.0629 -56.0409 -55.9205 -55.9101 -55.9015 -55.8969 -55.8595 -55.8323
   -55.8171 -55.8150 -55.8051 -55.7646 -55.7452 -55.7080 -55.6893 -55.6566
   -55.6482 -55.6041 -55.6014 -55.6009 -55.5925 -55.5504 -55.5288 -55.4432
   -31.2840 -31.2675 -31.1604 -31.1251 -31.0742 -31.0381 -30.8231 -30.7015
   -29.8559 -29.8143 -29.7900 -29.6807 -14.9882 -14.9434 -14.8741 -14.7615
   -14.7298 -14.6091 -14.5218 -14.3920 -14.0829 -14.0337 -14.0047 -13.9834
   -13.9679 -13.9519 -13.9181 -13.9034 -13.8697 -13.8285 -13.8105 -13.7749
   -13.6750 -13.6261 -13.5872 -13.5467 -13.4928 -13.4742 -13.3838 -13.3479
   -13.2147 -13.1505 -13.1357 -13.0778 -13.0369 -13.0360 -12.9952 -12.9760
   -12.9509 -12.9201 -12.8710 -12.8531 -12.8020 -12.7772 -12.7270 -12.6668
   -12.6559 -12.6308 -12.5294 -12.3959 -12.3288 -12.2697 -12.1944 -12.1637
   -11.7846 -11.7726 -11.7616 -11.7347 -11.7031 -11.6748 -11.6335 -11.6056
   -11.5836 -11.5380 -11.5125 -11.5011  -2.4600  -2.3937  -2.2646  -2.1876
    -2.0590  -1.9738  -1.8513  -1.7005  -1.6478  -1.6250  -1.5617  -1.5487
    -1.4516  -1.3848  -1.2995  -1.2506  -1.2411  -1.1774  -1.1352  -1.1005
    -1.0537  -1.0165  -0.9816  -0.9412  -0.9304  -0.8847  -0.8557  -0.8149
    -0.7836  -0.7160  -0.6160  -0.5740  -0.4975  -0.4330  -0.3859  -0.3411
    -0.3191  -0.2702  -0.1062  -0.0952   0.0046   0.0474   0.0533   0.0989
     0.1275   0.1694   0.1946   0.2657   0.5316   0.6263   0.7052   0.7600
     1.0188   1.0460   1.1333   1.1596   1.3262   1.3586   1.4025   1.4242
     1.4414   1.4612   1.5221   1.5673   1.6042   1.6853   1.7709   1.8143
     1.8341   1.8421   1.8818   1.8957   1.8982   1.9438   1.9577   1.9766
     2.0084   2.0274   2.0491   2.0814   2.1409   2.1773   2.2559   2.3954
     2.5456   2.5608   2.5805   2.6076   2.6333   2.6583   2.6827   2.6904
     2.7154   2.8102   2.8412   2.8711   2.8863   2.8970   2.9070   2.9248
     2.9382   2.9572   2.9645   2.9950   3.0077   3.0227   3.0327   3.0406
     3.0523   3.5798   3.5936   3.7342   3.7834   4.1294   4.1712   4.1969
     4.3038   4.7521   4.9114   5.0578   5.1155   5.2970   5.4251   5.5946
     5.6142   5.7586   5.7812   6.0942   6.3935   6.4843   6.5867   6.9586
     7.4495   7.5256   7.6984   7.8063   7.8403   7.8734   8.0348   8.1252
     8.3045   8.3892   8.4392   8.5269   8.5339   8.6718   8.7034   8.7724

     occupation numbers 
     1.0000   1.0000   1.0000   1.0000   1.0000   1.0000   1.0000   1.0000
     1.0000   1.0000   1.0000   1.0000   1.0000   1.0000   1.0000   1.0000
     1.0000   1.0000   1.0000   1.0000   1.0000   1.0000   1.0000   1.0000
     1.0000   1.0000   1.0000   1.0000   1.0000   1.0000   1.0000   1.0000
     1.0000   1.0000   1.0000   1.0000   1.0000   1.0000   1.0000   1.0000
     1.0000   1.0000   1.0000   1.0000   1.0000   1.0000   1.0000   1.0000
     1.0000   1.0000   1.0000   1.0000   1.0000   1.0000   1.0000   1.0000
     1.0000   1.0000   1.0000   1.0000   1.0000   1.0000   1.0000   1.0000
     1.0000   1.0000   1.0000   1.0000   1.0000   1.0000   1.0000   1.0000
     1.0000   1.0000   1.0000   1.0000   1.0000   1.0000   1.0000   1.0000
     1.0000   1.0000   1.0000   1.0000   1.0000   1.0000   1.0000   1.0000
     1.0000   1.0000   1.0000   1.0000   1.0000   1.0000   1.0000   1.0000
     1.0000   1.0000   1.0000   1.0000   1.0000   1.0000   1.0000   1.0000
     1.0000   1.0000   1.0000   1.0000   1.0000   1.0000   1.0000   1.0000
     1.0000   1.0000   1.0000   1.0000   1.0000   1.0000   1.0000   1.0000
     1.0000   1.0000   1.0000   1.0000   1.0000   1.0000   1.0000   1.0000
     1.0000   1.0000   1.0000   1.0000   1.0000   1.0000   1.0000   1.0000
     1.0000   1.0000   1.0000   1.0000   1.0000   1.0000   1.0000   1.0000
     1.0000   1.0000   1.0000   1.0000   1.0000   1.0000   1.0000   1.0000
     1.0000   1.0000   1.0000   1.0000   1.0000   1.0000   0.9999   0.9999
     0.9997   0.9996   0.9994   0.9993   0.9985   0.9982   0.9978   0.9975
     0.9973   0.9971   0.9962   0.9953   0.9945   0.9923   0.9892   0.9872
     0.9862   0.9858   0.9835   0.9827   0.9825   0.9794   0.9783   0.9768
     0.9741   0.9724   0.9703   0.9669   0.9598   0.9549   0.9427   0.9147
     0.8744   0.8697   0.8634   0.8544   0.8455   0.8365   0.8274   0.8244
     0.8147   0.7748   0.7607   0.7467   0.7394   0.7342   0.7293   0.7205
     0.7138   0.7041   0.7004   0.6844   0.6777   0.6697   0.6643   0.6600
     0.6536   0.3489   0.3414   0.2684   0.2449   0.1142   0.1027   0.0960
     0.0717   0.0166   0.0090   0.0049   0.0038   0.0017   0.0009   0.0004
     0.0003   0.0001   0.0001   0.0000   0.0000   0.0000   0.0000   0.0000
     0.0000   0.0000   0.0000   0.0000   0.0000   0.0000   0.0000   0.0000
     0.0000   0.0000   0.0000   0.0000   0.0000   0.0000   0.0000   0.0000

          k =-0.5000-0.5000 0.0000 ( 65132 PWs)   bands (ev):

   -92.7094 -92.6544 -92.5630 -92.5137 -92.4567 -92.4156 -92.3985 -92.2759
   -56.0629 -56.0409 -55.9205 -55.9101 -55.9015 -55.8969 -55.8595 -55.8323
   -55.8171 -55.8150 -55.8051 -55.7646 -55.7452 -55.7080 -55.6893 -55.6566
   -55.6482 -55.6041 -55.6014 -55.6009 -55.5925 -55.5504 -55.5288 -55.4432
   -31.2819 -31.2696 -31.1603 -31.1247 -31.0742 -31.0385 -30.8232 -30.7015
   -29.8549 -29.8153 -29.7896 -29.6811 -14.9411 -14.9162 -14.7989 -14.7864
   -14.6952 -14.6553 -14.6269 -14.4917 -13.9948 -13.9830 -13.9476 -13.9310
   -13.9114 -13.9005 -13.8688 -13.8587 -13.8473 -13.8383 -13.8237 -13.7441
   -13.7346 -13.7140 -13.6773 -13.6718 -13.5677 -13.5592 -13.4254 -13.3937
   -13.1650 -13.1330 -13.0609 -13.0536 -13.0341 -13.0157 -12.9925 -12.9851
   -12.9802 -12.9627 -12.8710 -12.8395 -12.8033 -12.7880 -12.7416 -12.6668
   -12.6125 -12.6048 -12.5458 -12.3771 -12.3251 -12.2429 -12.1840 -12.1704
   -11.7808 -11.7691 -11.7512 -11.7342 -11.6996 -11.6810 -11.6475 -11.5858
   -11.5662 -11.5601 -11.5103 -11.5069  -2.2365  -2.1604  -2.1493  -2.0770
    -2.0387  -1.9606  -1.8928  -1.7676  -1.6509  -1.6205  -1.5822  -1.5239
    -1.4525  -1.4381  -1.3670  -1.3245  -1.2083  -1.1793  -1.1316  -1.1010
    -1.0369  -0.9914  -0.9728  -0.9604  -0.9082  -0.8617  -0.8487  -0.7343
    -0.6760  -0.6294  -0.5806  -0.5550  -0.5443  -0.5076  -0.4647  -0.4321
    -0.4197  -0.3324  -0.2671  -0.2192  -0.1958  -0.1208  -0.0685  -0.0481
     0.0044   0.0247   0.0418   0.0574   0.5012   0.5443   0.6531   0.6725
     1.0525   1.0651   1.0971   1.1361   1.4104   1.4299   1.4367   1.4745
     1.6066   1.7030   1.7289   1.7651   1.7810   1.8093   1.8161   1.8477
     1.8571   1.8727   1.8837   1.9366   1.9394   1.9678   1.9910   2.0009
     2.0158   2.0527   2.0814   2.0925   2.1263   2.1518   2.2215   2.2875
     2.5520   2.5885   2.6080   2.6291   2.6328   2.6683   2.6717   2.6920
     2.7017   2.7171   2.7381   2.7532   2.8045   2.8206   2.8344   2.8427
     2.8668   2.8825   2.8879   2.9012   2.9109   3.0030   3.0081   3.0379
     3.0472   4.0000   4.0200   4.0553   4.0911   4.3107   4.3842   4.4100
     4.6506   4.7725   4.8559   4.9848   5.0694   5.0831   5.1958   5.2989
     5.3685   5.8483   5.8895   5.9574   6.0253   6.3271   6.5178   6.5553
     7.7761   7.8376   7.8728   7.9020   7.9221   7.9710   8.0108   8.0804
     8.2584   8.2860   8.5168   8.5765   8.6024   8.6207   8.6512   8.7367

     occupation numbers 
     1.0000   1.0000   1.0000   1.0000   1.0000   1.0000   1.0000   1.0000
     1.0000   1.0000   1.0000   1.0000   1.0000   1.0000   1.0000   1.0000
     1.0000   1.0000   1.0000   1.0000   1.0000   1.0000   1.0000   1.0000
     1.0000   1.0000   1.0000   1.0000   1.0000   1.0000   1.0000   1.0000
     1.0000   1.0000   1.0000   1.0000   1.0000   1.0000   1.0000   1.0000
     1.0000   1.0000   1.0000   1.0000   1.0000   1.0000   1.0000   1.0000
     1.0000   1.0000   1.0000   1.0000   1.0000   1.0000   1.0000   1.0000
     1.0000   1.0000   1.0000   1.0000   1.0000   1.0000   1.0000   1.0000
     1.0000   1.0000   1.0000   1.0000   1.0000   1.0000   1.0000   1.0000
     1.0000   1.0000   1.0000   1.0000   1.0000   1.0000   1.0000   1.0000
     1.0000   1.0000   1.0000   1.0000   1.0000   1.0000   1.0000   1.0000
     1.0000   1.0000   1.0000   1.0000   1.0000   1.0000   1.0000   1.0000
     1.0000   1.0000   1.0000   1.0000   1.0000   1.0000   1.0000   1.0000
     1.0000   1.0000   1.0000   1.0000   1.0000   1.0000   1.0000   1.0000
     1.0000   1.0000   1.0000   1.0000   1.0000   1.0000   1.0000   1.0000
     1.0000   1.0000   1.0000   1.0000   1.0000   1.0000   1.0000   1.0000
     1.0000   1.0000   1.0000   1.0000   1.0000   1.0000   1.0000   1.0000
     1.0000   1.0000   1.0000   1.0000   1.0000   1.0000   1.0000   1.0000
     1.0000   1.0000   1.0000   1.0000   1.0000   1.0000   1.0000   1.0000
     1.0000   1.0000   1.0000   1.0000   1.0000   1.0000   1.0000   1.0000
     0.9996   0.9996   0.9995   0.9994   0.9977   0.9975   0.9974   0.9969
     0.9945   0.9918   0.9909   0.9895   0.9888   0.9875   0.9871   0.9855
     0.9850   0.9841   0.9834   0.9799   0.9797   0.9775   0.9756   0.9748
     0.9735   0.9699   0.9669   0.9656   0.9616   0.9584   0.9483   0.9371
     0.8724   0.8608   0.8542   0.8470   0.8457   0.8328   0.8315   0.8238
     0.8201   0.8140   0.8056   0.7993   0.7773   0.7701   0.7638   0.7600
     0.7487   0.7412   0.7386   0.7322   0.7274   0.6802   0.6775   0.6614
     0.6564   0.1557   0.1487   0.1369   0.1256   0.0703   0.0567   0.0525
     0.0240   0.0154   0.0112   0.0067   0.0047   0.0044   0.0027   0.0016
     0.0012   0.0001   0.0001   0.0000   0.0000   0.0000   0.0000   0.0000
     0.0000   0.0000   0.0000   0.0000   0.0000   0.0000   0.0000   0.0000
     0.0000   0.0000   0.0000   0.0000   0.0000   0.0000   0.0000   0.0000

          k = 0.2500 0.0000 0.0000 ( 65257 PWs)   bands (ev):

   -92.7095 -92.6544 -92.5630 -92.5137 -92.4567 -92.4156 -92.3985 -92.2759
   -56.0629 -56.0409 -55.9205 -55.9101 -55.9015 -55.8969 -55.8595 -55.8323
   -55.8171 -55.8150 -55.8051 -55.7646 -55.7452 -55.7080 -55.6893 -55.6566
   -55.6482 -55.6041 -55.6014 -55.6009 -55.5925 -55.5504 -55.5288 -55.4432
   -31.2844 -31.2677 -31.1611 -31.1247 -31.0736 -31.0378 -30.8236 -30.7009
   -29.8572 -29.8149 -29.7887 -29.6800 -15.0569 -15.0172 -14.9479 -14.7997
   -14.6979 -14.5001 -14.3671 -14.1892 -14.1694 -14.1409 -14.1098 -14.0849
   -14.0506 -14.0361 -14.0170 -13.9830 -13.8514 -13.8216 -13.6684 -13.6072
   -13.5946 -13.5351 -13.5021 -13.4918 -13.4428 -13.3552 -13.3208 -13.2480
   -13.1865 -13.1681 -13.1479 -13.0688 -13.0549 -13.0391 -13.0236 -13.0022
   -12.9747 -12.9570 -12.9513 -12.9215 -12.8280 -12.7802 -12.7680 -12.6678
   -12.6545 -12.6396 -12.5988 -12.5544 -12.4140 -12.2571 -12.0932 -12.0359
[...]
     0.7435   0.7289   0.7187   0.7151   0.7045   0.6990   0.6917   0.6798
     0.6769   0.6639   0.6571   0.6544   0.6470   0.6361   0.6217   0.6195
     0.6150   0.6108   0.6053   0.5998   0.5243   0.3508   0.3204   0.2052
     0.0799   0.0452   0.0221   0.0058   0.0050   0.0003   0.0001   0.0001
     0.0000   0.0000   0.0000   0.0000   0.0000   0.0000   0.0000   0.0000
     0.0000   0.0000   0.0000   0.0000   0.0000   0.0000   0.0000   0.0000
     0.0000   0.0000   0.0000   0.0000   0.0000   0.0000   0.0000   0.0000

          k =-0.5000 0.0000 0.0000 ( 65180 PWs)   bands (ev):

   -92.7095 -92.6544 -92.5630 -92.5137 -92.4567 -92.4156 -92.3985 -92.2759
   -56.0629 -56.0409 -55.9205 -55.9101 -55.9015 -55.8969 -55.8595 -55.8323
   -55.8171 -55.8150 -55.8051 -55.7646 -55.7452 -55.7080 -55.6893 -55.6566
   -55.6482 -55.6041 -55.6014 -55.6009 -55.5925 -55.5504 -55.5288 -55.4432
   -31.2823 -31.2698 -31.1610 -31.1243 -31.0735 -31.0382 -30.8237 -30.7010
   -29.8562 -29.8159 -29.7883 -29.6804 -15.0237 -14.9721 -14.9105 -14.8072
   -14.6975 -14.5552 -14.4071 -14.2768 -14.1420 -14.1363 -14.1167 -14.0579
   -14.0008 -13.9678 -13.9218 -13.9190 -13.9027 -13.8478 -13.8427 -13.7324
   -13.5632 -13.5447 -13.5036 -13.4965 -13.4517 -13.3730 -13.3230 -13.2761
   -13.2523 -13.2492 -13.1443 -13.0628 -13.0537 -13.0344 -13.0206 -13.0185
   -12.9595 -12.9551 -12.9427 -12.9233 -12.7629 -12.6549 -12.6482 -12.6385
   -12.6375 -12.6230 -12.5488 -12.4973 -12.3772 -12.3351 -12.1755 -12.1366
   -11.7884 -11.7668 -11.7601 -11.7446 -11.7267 -11.6854 -11.6231 -11.6060
   -11.5737 -11.5269 -11.5177 -11.5023  -2.5913  -2.5528  -2.3883  -2.3496
    -2.0366  -1.9623  -1.8119  -1.6955  -1.6565  -1.6111  -1.5622  -1.5373
    -1.4146  -1.3699  -1.3550  -1.2721  -1.2374  -1.2222  -1.1900  -1.1333
    -1.0643  -1.0343  -1.0075  -0.9127  -0.8637  -0.8147  -0.7823  -0.7607
    -0.7323  -0.6833  -0.6589  -0.6199  -0.5252  -0.4488  -0.3884  -0.3248
    -0.1597  -0.1226  -0.0653  -0.0392   0.0271   0.0442   0.1803   0.2130
     0.2580   0.4313   0.5300   0.5761   0.6560   0.7270   0.8498   0.8603
     0.9954   1.0202   1.0741   1.0989   1.1398   1.1523   1.1950   1.2219
     1.2876   1.3355   1.3826   1.3906   1.6877   1.6941   1.7166   1.7293
     1.8446   1.8580   1.8660   1.8825   1.9103   1.9218   1.9621   1.9880
     2.0096   2.0686   2.0790   2.1317   2.1522   2.2110   2.3196   2.4207
     2.4917   2.5063   2.5784   2.6180   2.6404   2.7120   2.7198   2.7296
     2.7583   2.7971   2.8567   2.8758   2.9202   2.9537   2.9929   2.9952
     2.9958   3.0087   3.0242   3.0343   3.0495   3.0573   3.0762   3.0800
     3.1005   3.1207   3.1255   3.2549   3.2661   4.0674   4.1121   4.1734
     4.3321   4.7825   4.8545   5.0254   5.0451   5.4843   5.5064   5.5846
     5.6402   5.9430   6.0242   6.0507   6.7870   6.7972   7.0022   7.2776
     7.3052   7.3364   7.3864   7.4789   7.5744   7.7141   7.7713   7.8823
     8.1080   8.2529   8.4983   8.5929   8.6683   8.7234   8.7564   8.8427

     occupation numbers 
     1.0000   1.0000   1.0000   1.0000   1.0000   1.0000   1.0000   1.0000
     1.0000   1.0000   1.0000   1.0000   1.0000   1.0000   1.0000   1.0000
     1.0000   1.0000   1.0000   1.0000   1.0000   1.0000   1.0000   1.0000
     1.0000   1.0000   1.0000   1.0000   1.0000   1.0000   1.0000   1.0000
     1.0000   1.0000   1.0000   1.0000   1.0000   1.0000   1.0000   1.0000
     1.0000   1.0000   1.0000   1.0000   1.0000   1.0000   1.0000   1.0000
     1.0000   1.0000   1.0000   1.0000   1.0000   1.0000   1.0000   1.0000
     1.0000   1.0000   1.0000   1.0000   1.0000   1.0000   1.0000   1.0000
     1.0000   1.0000   1.0000   1.0000   1.0000   1.0000   1.0000   1.0000
     1.0000   1.0000   1.0000   1.0000   1.0000   1.0000   1.0000   1.0000
     1.0000   1.0000   1.0000   1.0000   1.0000   1.0000   1.0000   1.0000
     1.0000   1.0000   1.0000   1.0000   1.0000   1.0000   1.0000   1.0000
     1.0000   1.0000   1.0000   1.0000   1.0000   1.0000   1.0000   1.0000
     1.0000   1.0000   1.0000   1.0000   1.0000   1.0000   1.0000   1.0000
     1.0000   1.0000   1.0000   1.0000   1.0000   1.0000   1.0000   1.0000
     1.0000   1.0000   1.0000   1.0000   1.0000   1.0000   1.0000   1.0000
     1.0000   1.0000   1.0000   1.0000   1.0000   1.0000   1.0000   1.0000
     1.0000   1.0000   1.0000   1.0000   1.0000   1.0000   1.0000   1.0000
     1.0000   1.0000   1.0000   1.0000   1.0000   1.0000   1.0000   1.0000
     1.0000   1.0000   1.0000   1.0000   1.0000   0.9999   0.9999   0.9999
     0.9997   0.9997   0.9996   0.9995   0.9994   0.9994   0.9992   0.9991
     0.9987   0.9984   0.9980   0.9979   0.9923   0.9921   0.9913   0.9909
     0.9857   0.9849   0.9845   0.9835   0.9817   0.9809   0.9780   0.9759
     0.9740   0.9682   0.9671   0.9610   0.9583   0.9499   0.9310   0.9087
     0.8902   0.8860   0.8641   0.8508   0.8429   0.8160   0.8129   0.8090
     0.7972   0.7805   0.7535   0.7444   0.7228   0.7059   0.6855   0.6843
     0.6840   0.6772   0.6688   0.6634   0.6551   0.6508   0.6404   0.6383
     0.6268   0.6154   0.6127   0.5375   0.5309   0.1330   0.1193   0.1021
     0.0661   0.0148   0.0113   0.0056   0.0052   0.0006   0.0006   0.0004
     0.0003   0.0000   0.0000   0.0000   0.0000   0.0000   0.0000   0.0000
     0.0000   0.0000   0.0000   0.0000   0.0000   0.0000   0.0000   0.0000
     0.0000   0.0000   0.0000   0.0000   0.0000   0.0000   0.0000   0.0000

          k =-0.2500 0.2500 0.0000 ( 65198 PWs)   bands (ev):

   -92.7095 -92.6544 -92.5630 -92.5137 -92.4567 -92.4156 -92.3985 -92.2759
   -56.0629 -56.0409 -55.9205 -55.9101 -55.9015 -55.8969 -55.8595 -55.8323
   -55.8171 -55.8150 -55.8051 -55.7646 -55.7452 -55.7080 -55.6893 -55.6566
   -55.6482 -55.6041 -55.6014 -55.6009 -55.5925 -55.5504 -55.5288 -55.4432
   -31.2842 -31.2676 -31.1607 -31.1249 -31.0739 -31.0380 -30.8233 -30.7012
   -29.8566 -29.8146 -29.7894 -29.6804 -15.0261 -14.9853 -14.9129 -14.7950
   -14.6869 -14.5588 -14.4725 -14.2687 -14.1259 -14.0952 -14.0849 -14.0358
   -14.0128 -13.9943 -13.9789 -13.9423 -13.8475 -13.8362 -13.6813 -13.6568
   -13.6286 -13.6067 -13.5714 -13.5068 -13.4641 -13.4440 -13.3344 -13.2949
   -13.2320 -13.1554 -13.1178 -13.0923 -13.0494 -13.0272 -13.0050 -12.9803
   -12.9482 -12.9374 -12.9261 -12.8837 -12.7964 -12.7784 -12.7403 -12.7012
   -12.6867 -12.6484 -12.4856 -12.4501 -12.4268 -12.2910 -12.1301 -12.0794
   -11.8083 -11.7868 -11.7594 -11.7474 -11.7063 -11.6718 -11.6484 -11.6275
   -11.6046 -11.5196 -11.4743 -11.4648  -2.6763  -2.4672  -2.3466  -2.2588
    -2.1397  -2.0728  -1.8715  -1.7248  -1.7061  -1.6784  -1.5859  -1.5495
    -1.4569  -1.4233  -1.3971  -1.2537  -1.1985  -1.1310  -1.1020  -1.0424
    -1.0205  -0.9802  -0.9512  -0.9112  -0.8485  -0.8011  -0.7400  -0.6699
    -0.6443  -0.5920  -0.5637  -0.5186  -0.4626  -0.4214  -0.3752  -0.2788
    -0.2430  -0.2337  -0.1885  -0.1216  -0.0512  -0.0059   0.0227   0.0928
     0.1273   0.3791   0.5452   0.5894   0.6263   0.6851   0.7411   0.7944
     0.8577   0.8860   1.1680   1.2798   1.3191   1.3515   1.3582   1.4019
     1.4187   1.4625   1.4931   1.5087   1.5345   1.5769   1.5911   1.6366
     1.6523   1.6978   1.7830   1.8029   1.8177   1.8583   1.8853   1.9238
     1.9785   2.0826   2.1908   2.2227   2.2690   2.2892   2.3552   2.3971
     2.4235   2.4469   2.4694   2.5684   2.6046   2.6954   2.8244   2.8740
     2.8836   2.8967   2.9065   2.9176   2.9307   2.9368   2.9547   2.9680
     2.9787   2.9893   3.0012   3.0107   3.0170   3.0496   3.0602   3.0690
     3.1035   3.3959   3.4792   3.5390   3.6218   3.6521   3.8316   3.9539
     4.2905   4.5105   4.7060   4.9764   5.1668   5.6357   5.6744   5.7377
     5.8250   5.8863   5.9792   6.1704   6.2034   6.7488   6.8932   7.0431
     7.1626   7.5617   7.6056   7.6649   7.7635   7.8700   7.8975   8.1097
     8.1613   8.2043   8.2516   8.3080   8.4411   8.4736   8.7496   8.8588

     occupation numbers 
     1.0000   1.0000   1.0000   1.0000   1.0000   1.0000   1.0000   1.0000
     1.0000   1.0000   1.0000   1.0000   1.0000   1.0000   1.0000   1.0000
     1.0000   1.0000   1.0000   1.0000   1.0000   1.0000   1.0000   1.0000
     1.0000   1.0000   1.0000   1.0000   1.0000   1.0000   1.0000   1.0000
     1.0000   1.0000   1.0000   1.0000   1.0000   1.0000   1.0000   1.0000
     1.0000   1.0000   1.0000   1.0000   1.0000   1.0000   1.0000   1.0000
     1.0000   1.0000   1.0000   1.0000   1.0000   1.0000   1.0000   1.0000
     1.0000   1.0000   1.0000   1.0000   1.0000   1.0000   1.0000   1.0000
     1.0000   1.0000   1.0000   1.0000   1.0000   1.0000   1.0000   1.0000
     1.0000   1.0000   1.0000   1.0000   1.0000   1.0000   1.0000   1.0000
     1.0000   1.0000   1.0000   1.0000   1.0000   1.0000   1.0000   1.0000
     1.0000   1.0000   1.0000   1.0000   1.0000   1.0000   1.0000   1.0000
     1.0000   1.0000   1.0000   1.0000   1.0000   1.0000   1.0000   1.0000
     1.0000   1.0000   1.0000   1.0000   1.0000   1.0000   1.0000   1.0000
     1.0000   1.0000   1.0000   1.0000   1.0000   1.0000   1.0000   1.0000
     1.0000   1.0000   1.0000   1.0000   1.0000   1.0000   1.0000   1.0000
     1.0000   1.0000   1.0000   1.0000   1.0000   1.0000   1.0000   1.0000
     1.0000   1.0000   1.0000   1.0000   1.0000   1.0000   1.0000   1.0000
     1.0000   1.0000   1.0000   1.0000   1.0000   1.0000   1.0000   1.0000
     1.0000   1.0000   1.0000   1.0000   1.0000   1.0000   0.9999   0.9999
     0.9999   0.9998   0.9993   0.9988   0.9985   0.9983   0.9982   0.9978
     0.9976   0.9971   0.9966   0.9964   0.9960   0.9951   0.9948   0.9937
     0.9933   0.9919   0.9887   0.9878   0.9871   0.9849   0.9833   0.9808
     0.9767   0.9667   0.9530   0.9481   0.9404   0.9368   0.9237   0.9143
     0.9080   0.9022   0.8963   0.8673   0.8554   0.8225   0.7683   0.7453
     0.7407   0.7344   0.7295   0.7241   0.7175   0.7145   0.7054   0.6986
     0.6930   0.6874   0.6812   0.6761   0.6727   0.6551   0.6493   0.6444
     0.6251   0.4541   0.4056   0.3716   0.3261   0.3101   0.2230   0.1726
     0.0744   0.0383   0.0197   0.0069   0.0030   0.0003   0.0002   0.0002
     0.0001   0.0001   0.0000   0.0000   0.0000   0.0000   0.0000   0.0000
     0.0000   0.0000   0.0000   0.0000   0.0000   0.0000   0.0000   0.0000
     0.0000   0.0000   0.0000   0.0000   0.0000   0.0000   0.0000   0.0000

          k =-0.5000 0.2500 0.0000 ( 65138 PWs)   bands (ev):

   -92.7094 -92.6544 -92.5630 -92.5137 -92.4567 -92.4156 -92.3985 -92.2759
   -56.0629 -56.0409 -55.9205 -55.9101 -55.9015 -55.8969 -55.8595 -55.8323
   -55.8171 -55.8150 -55.8051 -55.7646 -55.7452 -55.7080 -55.6893 -55.6566
   -55.6482 -55.6041 -55.6014 -55.6009 -55.5925 -55.5504 -55.5288 -55.4432
   -31.2821 -31.2697 -31.1607 -31.1245 -31.0738 -31.0384 -30.8234 -30.7013
   -29.8556 -29.8156 -29.7890 -29.6808 -14.9908 -14.9458 -14.8673 -14.7723
   -14.7282 -14.6014 -14.5129 -14.3897 -14.0765 -14.0460 -14.0337 -13.9868
   -13.9697 -13.9412 -13.9090 -13.9046 -13.8789 -13.8442 -13.8284 -13.7236
   -13.6463 -13.6030 -13.5965 -13.5845 -13.5068 -13.4771 -13.3693 -13.3333
   -13.2078 -13.1739 -13.0995 -13.0751 -13.0359 -13.0246 -13.0138 -12.9814
   -12.9589 -12.9468 -12.9374 -12.8899 -12.7725 -12.7127 -12.6998 -12.6521
   -12.6299 -12.6212 -12.5471 -12.4269 -12.3305 -12.3099 -12.1750 -12.1510
   -11.7811 -11.7681 -11.7540 -11.7424 -11.7205 -11.6903 -11.6105 -11.6014
   -11.5788 -11.5414 -11.5135 -11.5049  -2.4492  -2.4071  -2.2580  -2.2163
    -2.0558  -1.9809  -1.8362  -1.7019  -1.6453  -1.6180  -1.5785  -1.5397
    -1.4593  -1.3444  -1.2871  -1.2642  -1.2392  -1.1619  -1.1338  -1.0953
    -1.0776  -1.0166  -0.9890  -0.9487  -0.9134  -0.8847  -0.8273  -0.8007
    -0.7592  -0.7247  -0.6208  -0.5931  -0.5083  -0.4436  -0.4115  -0.3581
    -0.2697  -0.2372  -0.1366  -0.0995  -0.0412   0.0091   0.0287   0.1082
     0.1373   0.1698   0.2226   0.2602   0.5672   0.6252   0.7010   0.7173
     1.0039   1.0590   1.1337   1.1597   1.3385   1.3759   1.4127   1.4262
     1.4438   1.4618   1.5320   1.5725   1.6145   1.6400   1.7633   1.7961
     1.8319   1.8431   1.8825   1.9057   1.9190   1.9347   1.9561   1.9777
     2.0248   2.0422   2.0752   2.0977   2.1282   2.1892   2.3093   2.4114
     2.4364   2.5060   2.5447   2.5942   2.6421   2.6479   2.6846   2.7198
     2.7428   2.7989   2.8586   2.8696   2.8870   2.8971   2.9108   2.9329
     2.9465   2.9605   2.9718   2.9925   3.0054   3.0163   3.0241   3.0361
     3.0464   3.5738   3.6278   3.7664   3.7887   4.0735   4.1308   4.1880
     4.4082   4.7771   4.8709   5.0298   5.0681   5.3930   5.4238   5.5857
     5.6140   5.7414   5.7675   6.0812   6.3897   6.4887   6.6584   6.9623
     7.4634   7.5073   7.7107   7.7188   7.7915   7.8838   8.0181   8.0859
     8.2944   8.3960   8.4604   8.5227   8.5567   8.6344   8.7199   8.7885

     occupation numbers 
     1.0000   1.0000   1.0000   1.0000   1.0000   1.0000   1.0000   1.0000
     1.0000   1.0000   1.0000   1.0000   1.0000   1.0000   1.0000   1.0000
     1.0000   1.0000   1.0000   1.0000   1.0000   1.0000   1.0000   1.0000
     1.0000   1.0000   1.0000   1.0000   1.0000   1.0000   1.0000   1.0000
     1.0000   1.0000   1.0000   1.0000   1.0000   1.0000   1.0000   1.0000
     1.0000   1.0000   1.0000   1.0000   1.0000   1.0000   1.0000   1.0000
     1.0000   1.0000   1.0000   1.0000   1.0000   1.0000   1.0000   1.0000
     1.0000   1.0000   1.0000   1.0000   1.0000   1.0000   1.0000   1.0000
     1.0000   1.0000   1.0000   1.0000   1.0000   1.0000   1.0000   1.0000
     1.0000   1.0000   1.0000   1.0000   1.0000   1.0000   1.0000   1.0000
     1.0000   1.0000   1.0000   1.0000   1.0000   1.0000   1.0000   1.0000
     1.0000   1.0000   1.0000   1.0000   1.0000   1.0000   1.0000   1.0000
     1.0000   1.0000   1.0000   1.0000   1.0000   1.0000   1.0000   1.0000
     1.0000   1.0000   1.0000   1.0000   1.0000   1.0000   1.0000   1.0000
     1.0000   1.0000   1.0000   1.0000   1.0000   1.0000   1.0000   1.0000
     1.0000   1.0000   1.0000   1.0000   1.0000   1.0000   1.0000   1.0000
     1.0000   1.0000   1.0000   1.0000   1.0000   1.0000   1.0000   1.0000
     1.0000   1.0000   1.0000   1.0000   1.0000   1.0000   1.0000   1.0000
     1.0000   1.0000   1.0000   1.0000   1.0000   1.0000   1.0000   1.0000
     1.0000   1.0000   1.0000   1.0000   1.0000   1.0000   0.9999   0.9999
     0.9997   0.9996   0.9994   0.9993   0.9984   0.9980   0.9977   0.9975
     0.9973   0.9971   0.9960   0.9952   0.9943   0.9937   0.9895   0.9881
     0.9864   0.9858   0.9835   0.9820   0.9811   0.9800   0.9785   0.9767
     0.9726   0.9709   0.9676   0.9650   0.9614   0.9532   0.9330   0.9110
     0.9048   0.8861   0.8747   0.8589   0.8424   0.8403   0.8266   0.8129
     0.8036   0.7797   0.7526   0.7474   0.7391   0.7342   0.7274   0.7164
     0.7096   0.7024   0.6966   0.6857   0.6789   0.6731   0.6689   0.6624
     0.6568   0.3522   0.3229   0.2529   0.2425   0.1311   0.1138   0.0983
     0.0528   0.0152   0.0106   0.0055   0.0047   0.0010   0.0009   0.0004
     0.0003   0.0002   0.0001   0.0000   0.0000   0.0000   0.0000   0.0000
     0.0000   0.0000   0.0000   0.0000   0.0000   0.0000   0.0000   0.0000
     0.0000   0.0000   0.0000   0.0000   0.0000   0.0000   0.0000   0.0000

     the Fermi energy is     3.3183 ev

!    total energy              =   -4399.91364031 Ry
     estimated scf accuracy    <          7.9E-09 Ry
     smearing contrib. (-TS)   =      -1.14611584 Ry
     internal energy E=F+TS    =   -4398.76752447 Ry

     The total energy is F=E-TS. E is the sum of the following terms:
     one-electron contribution =  -21253.09571109 Ry
     hartree contribution      =   10754.52312726 Ry
     xc contribution           =    -686.72808215 Ry
     ewald contribution        =    7053.17831035 Ry
     one-center paw contrib.   =    -266.64516885 Ry
      -> PAW hartree energy AE =      25.17556497 Ry
      -> PAW hartree energy PS =     -25.05934076 Ry
      -> PAW xc energy AE      =     -16.51926128 Ry
      -> PAW xc energy PS      =       6.87882195 Ry
      -> total E_H with PAW    =   10754.63935147 Ry
      -> total E_XC with PAW   =    -696.36852148 Ry

     convergence has been achieved in  48 iterations

     Writing all to output data dir /bsuhome/zayahcortright/scratch/pwscf.save/
 
     init_run     :      7.50s CPU      7.87s WALL (       1 calls)
     electrons    :    686.34s CPU    698.09s WALL (       1 calls)

     Called by init_run:
     wfcinit      :      5.84s CPU      5.96s WALL (       1 calls)
     wfcinit:atom :      0.05s CPU      0.07s WALL (       5 calls)
     wfcinit:wfcr :      5.50s CPU      5.58s WALL (       5 calls)
     potinit      :      0.19s CPU      0.21s WALL (       1 calls)
     hinit0       :      0.56s CPU      0.72s WALL (       1 calls)

     Called by electrons:
     c_bands      :    542.65s CPU    547.26s WALL (      48 calls)
     sum_band     :    107.82s CPU    112.01s WALL (      48 calls)
     v_of_rho     :      5.29s CPU      5.48s WALL (      49 calls)
     v_h          :      0.48s CPU      0.48s WALL (      49 calls)
     v_xc         :      4.81s CPU      5.00s WALL (      49 calls)
     newd         :     16.51s CPU     18.89s WALL (      49 calls)
     PAW_pot      :      1.61s CPU      1.64s WALL (      49 calls)
     mix_rho      :     12.19s CPU     12.43s WALL (      48 calls)

     Called by c_bands:
     init_us_2    :      6.62s CPU      6.65s WALL (     485 calls)
     init_us_2:cp :      6.61s CPU      6.65s WALL (     485 calls)
     cegterg      :    512.48s CPU    516.93s WALL (     240 calls)

     Called by sum_band:
     sum_band:wei :      0.34s CPU      0.34s WALL (      48 calls)
     sum_band:loo :     87.98s CPU     88.58s WALL (      48 calls)
     sum_band:buf :      1.46s CPU      1.47s WALL (     240 calls)
     sum_band:ini :      3.07s CPU      3.08s WALL (     240 calls)
     sum_band:cal :     17.97s CPU     18.02s WALL (     240 calls)
     sum_band:bec :      0.56s CPU      0.57s WALL (     240 calls)
     addusdens    :     17.92s CPU     21.50s WALL (      48 calls)
                                        0.00s GPU  (      48 calls)
     addusd:skk   :      0.33s CPU      0.67s WALL (     192 calls)
                                        0.00s GPU  (     192 calls)

     Called by *egterg:
     cdiaghg      :     54.93s CPU     55.14s WALL (    1290 calls)
     cegterg:over :     37.74s CPU     37.86s WALL (    1050 calls)
     cegterg:upda :     27.13s CPU     27.48s WALL (    1050 calls)
     cegterg:last :     56.08s CPU     56.25s WALL (     438 calls)
     cdiaghg:chol :      3.20s CPU      3.22s WALL (    1290 calls)
     cdiaghg:inve :      3.55s CPU      3.56s WALL (    1290 calls)
     cdiaghg:para :      7.14s CPU      7.17s WALL (    2580 calls)
     h_psi        :    283.94s CPU    286.50s WALL (    1295 calls)
     s_psi        :     37.24s CPU     37.34s WALL (    1295 calls)
     g_psi        :      1.09s CPU      1.09s WALL (    1050 calls)

     Called by h_psi:
     h_psi:calbec :     41.67s CPU     41.79s WALL (    1295 calls)
     vloc_psi     :    201.98s CPU    203.92s WALL (    1295 calls)
     add_vuspsi   :     37.18s CPU     37.30s WALL (    1295 calls)

     General routines
     calbec       :     59.63s CPU     59.80s WALL (    1535 calls)
     fft          :      3.63s CPU      3.66s WALL (     635 calls)
     ffts         :      4.57s CPU      4.61s WALL (    5080 calls)
     fftw         :    172.97s CPU    174.33s WALL (  321524 calls)
     interpolate  :      0.40s CPU      0.40s WALL (      49 calls)
 
     Parallel routines

     PAW routines
     PAW_pot      :      1.61s CPU      1.64s WALL (      49 calls)
 
     PWSCF        :  11m35.43s CPU  11m50.93s WALL

 
   This run was terminated on:  15:23:39  21Jun2024            

=------------------------------------------------------------------------------=
   JOB DONE.
=------------------------------------------------------------------------------=
