
     Program PWSCF v.7.2 starts on 21Jun2024 at 18:25:32 

     This program is part of the open-source Quantum ESPRESSO suite
     for quantum simulation of materials; please cite
         "P. Giannozzi et al., J. Phys.:Condens. Matter 21 395502 (2009);
         "P. Giannozzi et al., J. Phys.:Condens. Matter 29 465901 (2017);
         "P. Giannozzi et al., J. Chem. Phys. 152 154105 (2020);
          URL http://www.quantum-espresso.org", 
     in publications or presentations arising from this work. More details at
     http://www.quantum-espresso.org/quote

     Parallel version (MPI & OpenMP), running on      48 processor cores
     Number of MPI processes:                48
     Threads/MPI process:                     1

     MPI processes distributed on     1 nodes
     180155 MiB available memory on the printing compute node when the environment starts
 
     Reading input from espresso.pwi
Warning: card &CELL ignored
Warning: card / ignored
Warning: card &FCP ignored
Warning: card / ignored
Warning: card &RISM ignored
Warning: card / ignored

     Current dimensions of program PWSCF are:
     Max number of different atomic species (ntypx) = 10
     Max number of k-points (npk) =  40000
     Max angular momentum in pseudopotentials (lmaxx) =  4
     file O.pbe-n-kjpaw_psl.0.1.UPF: wavefunction(s)  2P renormalized
     signal trapping enabled: kill the code with -SIGUSR1 to stop cleanly the simulation 
 
     K-points division:     npool     =       2
     R & G space division:  proc/nbgrp/npool/nimage =      24
     Subspace diagonalization in iterative solution of the eigenvalue problem:
     one sub-group per band group will be used
     scalapack distributed-memory algorithm (size of sub-group:  3*  3 procs)

 
     Parallelization info
     --------------------
     sticks:   dense  smooth     PW     G-vecs:    dense   smooth      PW
     Min         350     175     47                61430    21716    3036
     Max         351     177     48                61449    21727    3041
     Sum        8421    4205   1137              1474595   521381   72913
 
     Using Slab Decomposition
 


     bravais-lattice index     =            0
     lattice parameter (alat)  =      14.8599  a.u.
     unit-cell volume          =    8305.1283 (a.u.)^3
     number of atoms/cell      =           49
     number of atomic types    =            4
     number of electrons       =       425.00
     number of Kohn-Sham states=          256
     kinetic-energy cutoff     =      60.0000  Ry
     charge density cutoff     =     480.0000  Ry
     scf convergence threshold =      1.0E-08
     mixing beta               =       0.1500
     number of iterations used =            8  local-TF  mixing
     Exchange-correlation= PBE
                           (   1   4   3   4   0   0   0)

     celldm(1)=  14.859904  celldm(2)=   0.000000  celldm(3)=   0.000000
     celldm(4)=   0.000000  celldm(5)=   0.000000  celldm(6)=   0.000000

     crystal axes: (cart. coord. in units of alat)
               a(1) = (   1.000000   0.000000   0.000000 )  
               a(2) = (   0.000000   1.000000   0.000000 )  
               a(3) = (   0.000000   0.000000   2.531036 )  

     reciprocal axes: (cart. coord. in units 2 pi/alat)
               b(1) = (  1.000000  0.000000  0.000000 )  
               b(2) = (  0.000000  1.000000  0.000000 )  
               b(3) = (  0.000000  0.000000  0.395095 )  


     PseudoPot. # 1 for Sr read from file:
     /bsuhome/zayahcortright/q-e/pseudo/Sr_pbe_v1.uspp.F.UPF
     MD5 check sum: 6b418c05fbe9db5448babca5e47b7a5b
     Pseudo is Ultrasoft + core correction, Zval = 10.0
     Generated by new atomic code, or converted to UPF format
     Using radial grid of  883 points,  6 beta functions with: 
                l(1) =   0
                l(2) =   0
                l(3) =   1
                l(4) =   1
                l(5) =   2
                l(6) =   2
     Q(r) pseudized with  6 coefficients,  rinner =    1.400   1.400   1.400
                                                       1.400   1.400

     PseudoPot. # 2 for O  read from file:
     /bsuhome/zayahcortright/q-e/pseudo/O.pbe-n-kjpaw_psl.0.1.UPF
     MD5 check sum: 0234752ac141de4415c5fc33072bef88
     Pseudo is Projector augmented-wave + core cor, Zval =  6.0
     Generated using "atomic" code by A. Dal Corso  v.5.0.99 svn rev. 10869
     Shape of augmentation charge: BESSEL
     Using radial grid of 1095 points,  4 beta functions with: 
                l(1) =   0
                l(2) =   0
                l(3) =   1
                l(4) =   1
     Q(r) pseudized with 0 coefficients 


     PseudoPot. # 3 for Co read from file:
     /bsuhome/zayahcortright/q-e/pseudo/Co_pbe_v1.2.uspp.F.UPF
     MD5 check sum: 5f91765df6ddd3222702df6e7b74a16d
     Pseudo is Ultrasoft + core correction, Zval = 17.0
     Generated by new atomic code, or converted to UPF format
     Using radial grid of  863 points,  6 beta functions with: 
                l(1) =   0
                l(2) =   0
                l(3) =   1
                l(4) =   1
                l(5) =   2
                l(6) =   2
     Q(r) pseudized with  8 coefficients,  rinner =    1.200   1.200   1.200
                                                       1.200   1.200

     PseudoPot. # 4 for H  read from file:
     /bsuhome/zayahcortright/q-e/pseudo/H.pbe-rrkjus_psl.1.0.0.UPF
     MD5 check sum: f52b6d4d1c606e5624b1dc7b2218f220
     Pseudo is Ultrasoft, Zval =  1.0
     Generated using "atomic" code by A. Dal Corso  v.5.1
     Using radial grid of  929 points,  2 beta functions with: 
                l(1) =   0
                l(2) =   0
     Q(r) pseudized with 0 coefficients 


     atomic species   valence    mass     pseudopotential
        Sr            10.00    87.62000     Sr( 1.00)
        O              6.00    15.99900     O ( 1.00)
        Co            17.00    58.93319     Co( 1.00)
        H              1.00     1.00800     H ( 1.00)

     No symmetry found


                                    s                        frac. trans.

      isym =  1     identity                                     

 cryst.   s( 1) = (     1          0          0      )
                  (     0          1          0      )
                  (     0          0          1      )

 cart.    s( 1) = (  1.0000000  0.0000000  0.0000000 )
                  (  0.0000000  1.0000000  0.0000000 )
                  (  0.0000000  0.0000000  1.0000000 )


   Cartesian axes

     site n.     atom                  positions (alat units)
         1           Sr  tau(   1) = (   0.2508693   0.7491307   1.7574407  )
         2           O   tau(   2) = (   0.4985141   0.5014859   1.7715967  )
         3           Sr  tau(   3) = (   0.7482398   0.7454518   1.7648669  )
         4           Sr  tau(   4) = (   0.7441748   0.2558252   1.7667843  )
         5           Sr  tau(   5) = (   0.2508693   0.7491307   1.2696799  )
         6           Sr  tau(   6) = (   0.2508693   0.7491307   0.7632319  )
         7           Co  tau(   7) = (   0.4998914   0.5001086   1.0164559  )
         8           Co  tau(   8) = (   0.4936915   0.5063085   1.5135603  )
         9           O   tau(   9) = (   0.4988895   0.7610401   1.0164559  )
        10           O   tau(  10) = (   0.2389599   0.5011105   1.0164559  )
        11           O   tau(  11) = (   0.0070918   0.7374880   1.0164559  )
        12           O   tau(  12) = (   0.0088340   0.7405089   1.5135603  )
        13           O   tau(  13) = (   0.5066944   0.7415376   1.5135603  )
        14           O   tau(  14) = (   0.2584624   0.4933056   1.5135603  )
        15           O   tau(  15) = (   0.4985141   0.5014859   0.7773880  )
        16           O   tau(  16) = (   0.4985141   0.5014859   1.2555238  )
        17           Sr  tau(  17) = (   0.7482398   0.7454518   0.7706582  )
        18           Sr  tau(  18) = (   0.7482398   0.7454518   1.2622536  )
        19           Sr  tau(  19) = (   0.7441748   0.2558252   0.7725755  )
        20           Sr  tau(  20) = (   0.7441748   0.2558252   1.2603363  )
        21           O   tau(  21) = (   0.7322655   0.0078049   1.5135603  )
        22           O   tau(  22) = (   0.7558175   0.4996027   1.5135603  )
        23           O   tau(  23) = (   0.5003973   0.2441825   1.5135603  )
        24           O   tau(  24) = (   0.7527966   0.4978604   1.0164559  )
        25           O   tau(  25) = (   0.5021396   0.2472034   1.0164559  )
        26           O   tau(  26) = (   0.7517679   0.0000000   1.0164559  )
        27           O   tau(  27) = (   0.0114961   0.4948124   1.7455321  )
        28           O   tau(  28) = (   0.0048226   0.0077944   1.7715967  )
        29           Sr  tau(  29) = (   0.2545482   0.2517602   1.7648669  )
        30           O   tau(  30) = (   0.5048017   0.0015068   1.7786929  )
        31           Co  tau(  31) = (   0.0056869   0.5006215   1.0164559  )
        32           Co  tau(  32) = (   0.0065315   0.4997770   1.5135603  )
        33           Co  tau(  33) = (   0.0061999   0.0064171   1.0164559  )
        34           Co  tau(  34) = (   0.0000000   0.0126169   1.5135603  )
        35           O   tau(  35) = (   0.0114961   0.4948124   1.2815885  )
        36           O   tau(  36) = (   0.0114961   0.4948124   0.7513233  )
        37           O   tau(  37) = (   0.0051979   0.2673486   1.0164559  )
        38           O   tau(  38) = (   0.0130029   0.2478461   1.5135603  )
        39           O   tau(  39) = (   0.0048226   0.0077944   0.7773880  )
        40           O   tau(  40) = (   0.0048226   0.0077944   1.2555238  )
        41           Sr  tau(  41) = (   0.2545482   0.2517602   0.7706582  )
        42           Sr  tau(  42) = (   0.2545482   0.2517602   1.2622536  )
        43           Co  tau(  43) = (   0.4989925   0.0073160   1.5135603  )
        44           Co  tau(  44) = (   0.4998370   0.0064714   1.0164559  )
        45           O   tau(  45) = (   0.5048017   0.0015068   0.7844841  )
        46           O   tau(  46) = (   0.5048017   0.0015068   1.2484277  )
        47           O   tau(  47) = (   0.2621260   0.0059111   1.5135603  )
        48           O   tau(  48) = (   0.2591051   0.0041689   1.0164559  )
        49           H   tau(  49) = (   0.5686583   0.0000000   2.1602013  )

   Crystallographic axes

     site n.     atom                  positions (cryst. coord.)
         1           Sr  tau(   1) = (  0.2508693  0.7491307  0.6943562  )
         2           O   tau(   2) = (  0.4985141  0.5014859  0.6999492  )
         3           Sr  tau(   3) = (  0.7482398  0.7454518  0.6972903  )
         4           Sr  tau(   4) = (  0.7441748  0.2558252  0.6980478  )
         5           Sr  tau(   5) = (  0.2508693  0.7491307  0.5016443  )
         6           Sr  tau(   6) = (  0.2508693  0.7491307  0.3015492  )
         7           Co  tau(   7) = (  0.4998914  0.5001086  0.4015968  )
         8           Co  tau(   8) = (  0.4936915  0.5063085  0.5980003  )
         9           O   tau(   9) = (  0.4988895  0.7610401  0.4015968  )
        10           O   tau(  10) = (  0.2389599  0.5011105  0.4015968  )
        11           O   tau(  11) = (  0.0070918  0.7374880  0.4015968  )
        12           O   tau(  12) = (  0.0088340  0.7405089  0.5980003  )
        13           O   tau(  13) = (  0.5066944  0.7415376  0.5980003  )
        14           O   tau(  14) = (  0.2584624  0.4933056  0.5980003  )
        15           O   tau(  15) = (  0.4985141  0.5014859  0.3071422  )
        16           O   tau(  16) = (  0.4985141  0.5014859  0.4960513  )
        17           Sr  tau(  17) = (  0.7482398  0.7454518  0.3044833  )
        18           Sr  tau(  18) = (  0.7482398  0.7454518  0.4987103  )
        19           Sr  tau(  19) = (  0.7441748  0.2558252  0.3052408  )
        20           Sr  tau(  20) = (  0.7441748  0.2558252  0.4979527  )
        21           O   tau(  21) = (  0.7322655  0.0078049  0.5980003  )
        22           O   tau(  22) = (  0.7558175  0.4996027  0.5980003  )
        23           O   tau(  23) = (  0.5003973  0.2441825  0.5980003  )
        24           O   tau(  24) = (  0.7527966  0.4978604  0.4015968  )
        25           O   tau(  25) = (  0.5021396  0.2472034  0.4015968  )
        26           O   tau(  26) = (  0.7517679  0.0000000  0.4015968  )
        27           O   tau(  27) = (  0.0114961  0.4948124  0.6896512  )
        28           O   tau(  28) = (  0.0048226  0.0077944  0.6999492  )
        29           Sr  tau(  29) = (  0.2545482  0.2517602  0.6972903  )
        30           O   tau(  30) = (  0.5048017  0.0015068  0.7027529  )
        31           Co  tau(  31) = (  0.0056869  0.5006215  0.4015968  )
        32           Co  tau(  32) = (  0.0065315  0.4997770  0.5980003  )
        33           Co  tau(  33) = (  0.0061999  0.0064171  0.4015968  )
        34           Co  tau(  34) = (  0.0000000  0.0126169  0.5980003  )
        35           O   tau(  35) = (  0.0114961  0.4948124  0.5063494  )
        36           O   tau(  36) = (  0.0114961  0.4948124  0.2968442  )
        37           O   tau(  37) = (  0.0051979  0.2673486  0.4015968  )
        38           O   tau(  38) = (  0.0130029  0.2478461  0.5980003  )
        39           O   tau(  39) = (  0.0048226  0.0077944  0.3071422  )
        40           O   tau(  40) = (  0.0048226  0.0077944  0.4960513  )
        41           Sr  tau(  41) = (  0.2545482  0.2517602  0.3044833  )
        42           Sr  tau(  42) = (  0.2545482  0.2517602  0.4987103  )
        43           Co  tau(  43) = (  0.4989925  0.0073160  0.5980003  )
        44           Co  tau(  44) = (  0.4998370  0.0064714  0.4015968  )
        45           O   tau(  45) = (  0.5048017  0.0015068  0.3099459  )
        46           O   tau(  46) = (  0.5048017  0.0015068  0.4932477  )
        47           O   tau(  47) = (  0.2621260  0.0059111  0.5980003  )
        48           O   tau(  48) = (  0.2591051  0.0041689  0.4015968  )
        49           H   tau(  49) = (  0.5686583  0.0000000  0.8534850  )

     number of k points=    10  Gaussian smearing, width (Ry)=  0.0700
                       cart. coord. in units 2pi/alat
        k(    1) = (   0.0000000   0.0000000   0.0000000), wk =   0.1250000
        k(    2) = (   0.0000000   0.2500000   0.0000000), wk =   0.2500000
        k(    3) = (   0.0000000  -0.5000000   0.0000000), wk =   0.1250000
        k(    4) = (   0.2500000   0.2500000   0.0000000), wk =   0.2500000
        k(    5) = (   0.2500000  -0.5000000   0.0000000), wk =   0.2500000
        k(    6) = (  -0.5000000  -0.5000000   0.0000000), wk =   0.1250000
        k(    7) = (   0.2500000   0.0000000   0.0000000), wk =   0.2500000
        k(    8) = (  -0.5000000   0.0000000   0.0000000), wk =   0.1250000
        k(    9) = (  -0.2500000   0.2500000   0.0000000), wk =   0.2500000
        k(   10) = (  -0.5000000   0.2500000   0.0000000), wk =   0.2500000

                       cryst. coord.
        k(    1) = (   0.0000000   0.0000000   0.0000000), wk =   0.1250000
        k(    2) = (   0.0000000   0.2500000   0.0000000), wk =   0.2500000
        k(    3) = (   0.0000000  -0.5000000   0.0000000), wk =   0.1250000
        k(    4) = (   0.2500000   0.2500000   0.0000000), wk =   0.2500000
        k(    5) = (   0.2500000  -0.5000000   0.0000000), wk =   0.2500000
        k(    6) = (  -0.5000000  -0.5000000   0.0000000), wk =   0.1250000
        k(    7) = (   0.2500000   0.0000000   0.0000000), wk =   0.2500000
        k(    8) = (  -0.5000000   0.0000000   0.0000000), wk =   0.1250000
        k(    9) = (  -0.2500000   0.2500000   0.0000000), wk =   0.2500000
        k(   10) = (  -0.5000000   0.2500000   0.0000000), wk =   0.2500000

     Dense  grid:  1474595 G-vectors     FFT dimensions: ( 108, 108, 270)

     Smooth grid:   521381 G-vectors     FFT dimensions: (  75,  75, 192)

     Dynamical RAM for                 wfc:      10.61 MB

     Dynamical RAM for     wfc (w. buffer):      63.63 MB

     Dynamical RAM for           str. fact:       3.75 MB

     Dynamical RAM for           local pot:       0.00 MB

     Dynamical RAM for          nlocal pot:      24.28 MB

     Dynamical RAM for                qrad:       7.03 MB

     Dynamical RAM for          rho,v,vnew:       6.02 MB

     Dynamical RAM for               rhoin:       2.01 MB

     Dynamical RAM for            rho*nmix:      15.00 MB

     Dynamical RAM for           G-vectors:       3.68 MB

     Dynamical RAM for          h,s,v(r/c):       1.32 MB

     Dynamical RAM for          <psi|beta>:       2.29 MB

     Dynamical RAM for                 psi:      21.21 MB

     Dynamical RAM for                hpsi:      21.21 MB

     Dynamical RAM for                spsi:      21.21 MB

     Dynamical RAM for      wfcinit/wfcrot:      34.09 MB

     Dynamical RAM for           addusdens:     100.79 MB

     Estimated static dynamical RAM per process >     120.42 MB

     Estimated max dynamical RAM per process >     236.21 MB

     Estimated total dynamical RAM >      10.72 GB

     Check: negative core charge=   -0.000004

     Initial potential from superposition of free atoms

     starting charge     416.5961, renormalised to     425.0000

     negative rho (up, down):  7.827E-01 0.000E+00
     Starting wfcs are  373 randomized atomic wfcs
     Checking if some PAW data can be deallocated... 
       PAW data deallocated on   20 nodes for type:  2

     total cpu time spent up to now is        8.4 secs

     Self-consistent Calculation

     iteration #  1     ecut=    60.00 Ry     beta= 0.15
     Davidson diagonalization with overlap

---- Real-time Memory Report at c_bands before calling an iterative solver
             0 MiB given to the printing process from OS
             0 MiB allocation reported by mallinfo(arena+hblkhd)
        170492 MiB available memory on the node where the printing process lives
------------------
     ethr =  1.00E-02,  avg # of iterations =  2.0

     negative rho (up, down):  7.718E-01 0.000E+00

     total cpu time spent up to now is       23.0 secs

     total energy              =   -4404.77219351 Ry
     estimated scf accuracy    <      42.15822647 Ry

     iteration #  2     ecut=    60.00 Ry     beta= 0.15
     Davidson diagonalization with overlap

---- Real-time Memory Report at c_bands before calling an iterative solver
             0 MiB given to the printing process from OS
             0 MiB allocation reported by mallinfo(arena+hblkhd)
        170692 MiB available memory on the node where the printing process lives
------------------
     ethr =  9.92E-03,  avg # of iterations =  1.0

     negative rho (up, down):  7.532E-01 0.000E+00

     total cpu time spent up to now is       35.4 secs

     total energy              =   -4400.02239801 Ry
     estimated scf accuracy    <      26.64631909 Ry

     iteration #  3     ecut=    60.00 Ry     beta= 0.15
     Davidson diagonalization with overlap

---- Real-time Memory Report at c_bands before calling an iterative solver
             0 MiB given to the printing process from OS
             0 MiB allocation reported by mallinfo(arena+hblkhd)
        169902 MiB available memory on the node where the printing process lives
------------------
     ethr =  6.27E-03,  avg # of iterations =  2.0

     negative rho (up, down):  7.544E-01 0.000E+00

     total cpu time spent up to now is       48.8 secs

     total energy              =   -4402.40310756 Ry
     estimated scf accuracy    <      49.52976688 Ry

     iteration #  4     ecut=    60.00 Ry     beta= 0.15
     Davidson diagonalization with overlap

---- Real-time Memory Report at c_bands before calling an iterative solver
             0 MiB given to the printing process from OS
             0 MiB allocation reported by mallinfo(arena+hblkhd)
        169836 MiB available memory on the node where the printing process lives
------------------
     ethr =  6.27E-03,  avg # of iterations =  1.0

     negative rho (up, down):  7.409E-01 0.000E+00

     total cpu time spent up to now is       61.1 secs

     total energy              =   -4401.68254166 Ry
     estimated scf accuracy    <      29.70642000 Ry

     iteration #  5     ecut=    60.00 Ry     beta= 0.15
     Davidson diagonalization with overlap

---- Real-time Memory Report at c_bands before calling an iterative solver
             0 MiB given to the printing process from OS
             0 MiB allocation reported by mallinfo(arena+hblkhd)
        169823 MiB available memory on the node where the printing process lives
------------------
     ethr =  6.27E-03,  avg # of iterations =  1.0

     negative rho (up, down):  7.467E-01 0.000E+00

     total cpu time spent up to now is       73.1 secs

     total energy              =   -4399.97516986 Ry
     estimated scf accuracy    <      44.84357594 Ry

     iteration #  6     ecut=    60.00 Ry     beta= 0.15
     Davidson diagonalization with overlap

---- Real-time Memory Report at c_bands before calling an iterative solver
             0 MiB given to the printing process from OS
             0 MiB allocation reported by mallinfo(arena+hblkhd)
        169805 MiB available memory on the node where the printing process lives
------------------
     ethr =  6.27E-03,  avg # of iterations =  1.0

     negative rho (up, down):  7.420E-01 0.000E+00

     total cpu time spent up to now is       85.1 secs

     total energy              =   -4400.68438593 Ry
     estimated scf accuracy    <      11.71389432 Ry

     iteration #  7     ecut=    60.00 Ry     beta= 0.15
     Davidson diagonalization with overlap

---- Real-time Memory Report at c_bands before calling an iterative solver
             0 MiB given to the printing process from OS
             0 MiB allocation reported by mallinfo(arena+hblkhd)
        169791 MiB available memory on the node where the printing process lives
------------------
     ethr =  2.76E-03,  avg # of iterations =  1.1

     negative rho (up, down):  7.442E-01 0.000E+00

     total cpu time spent up to now is       97.4 secs

     total energy              =   -4400.77512939 Ry
     estimated scf accuracy    <       4.35551346 Ry

     iteration #  8     ecut=    60.00 Ry     beta= 0.15
     Davidson diagonalization with overlap

---- Real-time Memory Report at c_bands before calling an iterative solver
             0 MiB given to the printing process from OS
             0 MiB allocation reported by mallinfo(arena+hblkhd)
        169774 MiB available memory on the node where the printing process lives
------------------
     ethr =  1.02E-03,  avg # of iterations =  1.5

     negative rho (up, down):  7.528E-01 0.000E+00

     total cpu time spent up to now is      109.9 secs

     total energy              =   -4400.39334494 Ry
     estimated scf accuracy    <       4.08815108 Ry

     iteration #  9     ecut=    60.00 Ry     beta= 0.15
     Davidson diagonalization with overlap

---- Real-time Memory Report at c_bands before calling an iterative solver
             0 MiB given to the printing process from OS
             0 MiB allocation reported by mallinfo(arena+hblkhd)
        169734 MiB available memory on the node where the printing process lives
------------------
     ethr =  9.62E-04,  avg # of iterations =  2.5

     negative rho (up, down):  7.768E-01 0.000E+00

     total cpu time spent up to now is      123.9 secs

     total energy              =   -4399.92323055 Ry
     estimated scf accuracy    <      35.80052444 Ry

     iteration # 10     ecut=    60.00 Ry     beta= 0.15
     Davidson diagonalization with overlap

---- Real-time Memory Report at c_bands before calling an iterative solver
             0 MiB given to the printing process from OS
             0 MiB allocation reported by mallinfo(arena+hblkhd)
        169680 MiB available memory on the node where the printing process lives
------------------
     ethr =  9.62E-04,  avg # of iterations =  9.5

     negative rho (up, down):  7.793E-01 0.000E+00

     total cpu time spent up to now is      141.9 secs

     total energy              =   -4399.77988134 Ry
     estimated scf accuracy    <      11.70182557 Ry

     iteration # 11     ecut=    60.00 Ry     beta= 0.15
     Davidson diagonalization with overlap

---- Real-time Memory Report at c_bands before calling an iterative solver
             0 MiB given to the printing process from OS
             0 MiB allocation reported by mallinfo(arena+hblkhd)
        169317 MiB available memory on the node where the printing process lives
------------------
     ethr =  9.62E-04,  avg # of iterations =  1.4

     negative rho (up, down):  7.812E-01 0.000E+00

     total cpu time spent up to now is      154.8 secs

     total energy              =   -4400.12125212 Ry
     estimated scf accuracy    <       0.95913650 Ry

     iteration # 12     ecut=    60.00 Ry     beta= 0.15
     Davidson diagonalization with overlap

---- Real-time Memory Report at c_bands before calling an iterative solver
             0 MiB given to the printing process from OS
             0 MiB allocation reported by mallinfo(arena+hblkhd)
        169315 MiB available memory on the node where the printing process lives
------------------
     ethr =  2.26E-04,  avg # of iterations =  6.9

     negative rho (up, down):  7.929E-01 0.000E+00

     total cpu time spent up to now is      170.7 secs

     total energy              =   -4400.04777282 Ry
     estimated scf accuracy    <       0.77460990 Ry

     iteration # 13     ecut=    60.00 Ry     beta= 0.15
     Davidson diagonalization with overlap

---- Real-time Memory Report at c_bands before calling an iterative solver
             0 MiB given to the printing process from OS
             0 MiB allocation reported by mallinfo(arena+hblkhd)
        169243 MiB available memory on the node where the printing process lives
------------------
     ethr =  1.82E-04,  avg # of iterations =  2.5

     negative rho (up, down):  8.002E-01 0.000E+00

     total cpu time spent up to now is      184.3 secs

     total energy              =   -4400.06724971 Ry
     estimated scf accuracy    <       1.14212023 Ry

     iteration # 14     ecut=    60.00 Ry     beta= 0.15
     Davidson diagonalization with overlap

---- Real-time Memory Report at c_bands before calling an iterative solver
             0 MiB given to the printing process from OS
             0 MiB allocation reported by mallinfo(arena+hblkhd)
        169243 MiB available memory on the node where the printing process lives
------------------
     ethr =  1.82E-04,  avg # of iterations =  8.1

     negative rho (up, down):  8.053E-01 0.000E+00

     total cpu time spent up to now is      199.7 secs

     total energy              =   -4400.01165320 Ry
     estimated scf accuracy    <       1.32433823 Ry

     iteration # 15     ecut=    60.00 Ry     beta= 0.15
     Davidson diagonalization with overlap

---- Real-time Memory Report at c_bands before calling an iterative solver
             0 MiB given to the printing process from OS
             0 MiB allocation reported by mallinfo(arena+hblkhd)
        169275 MiB available memory on the node where the printing process lives
------------------
     ethr =  1.82E-04,  avg # of iterations =  5.0

     negative rho (up, down):  8.064E-01 0.000E+00

     total cpu time spent up to now is      214.5 secs

     total energy              =   -4400.03419414 Ry
     estimated scf accuracy    <       0.48187158 Ry

     iteration # 16     ecut=    60.00 Ry     beta= 0.15
     Davidson diagonalization with overlap

---- Real-time Memory Report at c_bands before calling an iterative solver
             0 MiB given to the printing process from OS
             0 MiB allocation reported by mallinfo(arena+hblkhd)
        169245 MiB available memory on the node where the printing process lives
------------------
     ethr =  1.13E-04,  avg # of iterations =  1.6

     negative rho (up, down):  8.087E-01 0.000E+00

     total cpu time spent up to now is      227.4 secs

     total energy              =   -4399.98818531 Ry
     estimated scf accuracy    <       0.30419397 Ry

     iteration # 17     ecut=    60.00 Ry     beta= 0.15
     Davidson diagonalization with overlap

---- Real-time Memory Report at c_bands before calling an iterative solver
             0 MiB given to the printing process from OS
             0 MiB allocation reported by mallinfo(arena+hblkhd)
        169253 MiB available memory on the node where the printing process lives
------------------
     ethr =  7.16E-05,  avg # of iterations =  8.3

     negative rho (up, down):  8.149E-01 0.000E+00

     total cpu time spent up to now is      243.5 secs

     total energy              =   -4399.94689337 Ry
     estimated scf accuracy    <       0.76005815 Ry

     iteration # 18     ecut=    60.00 Ry     beta= 0.15
     Davidson diagonalization with overlap

---- Real-time Memory Report at c_bands before calling an iterative solver
             0 MiB given to the printing process from OS
             0 MiB allocation reported by mallinfo(arena+hblkhd)
        169234 MiB available memory on the node where the printing process lives
------------------
     ethr =  7.16E-05,  avg # of iterations =  9.4

     negative rho (up, down):  8.244E-01 0.000E+00

     total cpu time spent up to now is      260.1 secs

     total energy              =   -4399.93354967 Ry
     estimated scf accuracy    <       0.22906961 Ry

     iteration # 19     ecut=    60.00 Ry     beta= 0.15
     Davidson diagonalization with overlap

---- Real-time Memory Report at c_bands before calling an iterative solver
             0 MiB given to the printing process from OS
             0 MiB allocation reported by mallinfo(arena+hblkhd)
        169199 MiB available memory on the node where the printing process lives
------------------
     c_bands:  1 eigenvalues not converged
     ethr =  5.39E-05,  avg # of iterations =  9.0

     negative rho (up, down):  8.262E-01 0.000E+00

     total cpu time spent up to now is      277.4 secs

     total energy              =   -4399.93098465 Ry
     estimated scf accuracy    <       0.09821183 Ry

     iteration # 20     ecut=    60.00 Ry     beta= 0.15
     Davidson diagonalization with overlap

---- Real-time Memory Report at c_bands before calling an iterative solver
             0 MiB given to the printing process from OS
             0 MiB allocation reported by mallinfo(arena+hblkhd)
        169174 MiB available memory on the node where the printing process lives
------------------
     ethr =  2.31E-05,  avg # of iterations =  7.6

     negative rho (up, down):  8.263E-01 0.000E+00

     total cpu time spent up to now is      294.0 secs

     total energy              =   -4399.92258966 Ry
     estimated scf accuracy    <       0.07643790 Ry

     iteration # 21     ecut=    60.00 Ry     beta= 0.15
     Davidson diagonalization with overlap

---- Real-time Memory Report at c_bands before calling an iterative solver
             0 MiB given to the printing process from OS
             0 MiB allocation reported by mallinfo(arena+hblkhd)
        169152 MiB available memory on the node where the printing process lives
------------------
     c_bands:  1 eigenvalues not converged
     ethr =  1.80E-05,  avg # of iterations =  8.3

     negative rho (up, down):  8.076E-01 0.000E+00

     total cpu time spent up to now is      310.6 secs

     total energy              =   -4399.92038132 Ry
     estimated scf accuracy    <       0.05476653 Ry

     iteration # 22     ecut=    60.00 Ry     beta= 0.15
     Davidson diagonalization with overlap

---- Real-time Memory Report at c_bands before calling an iterative solver
             0 MiB given to the printing process from OS
             0 MiB allocation reported by mallinfo(arena+hblkhd)
        169146 MiB available memory on the node where the printing process lives
------------------
     ethr =  1.29E-05,  avg # of iterations =  2.3

     negative rho (up, down):  7.936E-01 0.000E+00

     total cpu time spent up to now is      324.3 secs

     total energy              =   -4399.91118472 Ry
     estimated scf accuracy    <       0.04220443 Ry

     iteration # 23     ecut=    60.00 Ry     beta= 0.15
     Davidson diagonalization with overlap

---- Real-time Memory Report at c_bands before calling an iterative solver
             0 MiB given to the printing process from OS
             0 MiB allocation reported by mallinfo(arena+hblkhd)
        169161 MiB available memory on the node where the printing process lives
------------------
     ethr =  9.93E-06,  avg # of iterations = 10.4

     negative rho (up, down):  7.981E-01 0.000E+00

     total cpu time spent up to now is      342.2 secs

     total energy              =   -4399.91197223 Ry
     estimated scf accuracy    <       0.01737745 Ry

     iteration # 24     ecut=    60.00 Ry     beta= 0.15
     Davidson diagonalization with overlap

---- Real-time Memory Report at c_bands before calling an iterative solver
             0 MiB given to the printing process from OS
             0 MiB allocation reported by mallinfo(arena+hblkhd)
        169071 MiB available memory on the node where the printing process lives
------------------
     ethr =  4.09E-06,  avg # of iterations =  6.6

     negative rho (up, down):  7.972E-01 0.000E+00

     total cpu time spent up to now is      357.9 secs

     total energy              =   -4399.91140213 Ry
     estimated scf accuracy    <       0.01314117 Ry

     iteration # 25     ecut=    60.00 Ry     beta= 0.15
     Davidson diagonalization with overlap

---- Real-time Memory Report at c_bands before calling an iterative solver
             0 MiB given to the printing process from OS
             0 MiB allocation reported by mallinfo(arena+hblkhd)
        169098 MiB available memory on the node where the printing process lives
------------------
     ethr =  3.09E-06,  avg # of iterations =  6.1

     negative rho (up, down):  7.947E-01 0.000E+00

     total cpu time spent up to now is      373.7 secs

     total energy              =   -4399.91056883 Ry
     estimated scf accuracy    <       0.01037583 Ry

     iteration # 26     ecut=    60.00 Ry     beta= 0.15
     Davidson diagonalization with overlap

---- Real-time Memory Report at c_bands before calling an iterative solver
             0 MiB given to the printing process from OS
             0 MiB allocation reported by mallinfo(arena+hblkhd)
        169116 MiB available memory on the node where the printing process lives
------------------
     c_bands:  1 eigenvalues not converged
     ethr =  2.44E-06,  avg # of iterations =  9.6

     negative rho (up, down):  7.943E-01 0.000E+00

     total cpu time spent up to now is      390.9 secs

     total energy              =   -4399.90973425 Ry
     estimated scf accuracy    <       0.00734601 Ry

     iteration # 27     ecut=    60.00 Ry     beta= 0.15
     Davidson diagonalization with overlap

---- Real-time Memory Report at c_bands before calling an iterative solver
             0 MiB given to the printing process from OS
             0 MiB allocation reported by mallinfo(arena+hblkhd)
        169175 MiB available memory on the node where the printing process lives
------------------
     ethr =  1.73E-06,  avg # of iterations = 11.7

     negative rho (up, down):  7.980E-01 0.000E+00

     total cpu time spent up to now is      410.4 secs

     total energy              =   -4399.90956499 Ry
     estimated scf accuracy    <       0.00372448 Ry

     iteration # 28     ecut=    60.00 Ry     beta= 0.15
     Davidson diagonalization with overlap

---- Real-time Memory Report at c_bands before calling an iterative solver
             0 MiB given to the printing process from OS
             0 MiB allocation reported by mallinfo(arena+hblkhd)
        169134 MiB available memory on the node where the printing process lives
------------------
     c_bands:  1 eigenvalues not converged
     ethr =  8.76E-07,  avg # of iterations = 13.3

     negative rho (up, down):  7.958E-01 0.000E+00

     total cpu time spent up to now is      431.0 secs

     total energy              =   -4399.90963238 Ry
     estimated scf accuracy    <       0.00086955 Ry

     iteration # 29     ecut=    60.00 Ry     beta= 0.15
     Davidson diagonalization with overlap

---- Real-time Memory Report at c_bands before calling an iterative solver
             0 MiB given to the printing process from OS
             0 MiB allocation reported by mallinfo(arena+hblkhd)
        168989 MiB available memory on the node where the printing process lives
------------------
     c_bands:  1 eigenvalues not converged
     ethr =  2.05E-07,  avg # of iterations = 10.3

     negative rho (up, down):  7.963E-01 0.000E+00

     total cpu time spent up to now is      448.5 secs

     total energy              =   -4399.90954927 Ry
     estimated scf accuracy    <       0.00050516 Ry

     iteration # 30     ecut=    60.00 Ry     beta= 0.15
     Davidson diagonalization with overlap

---- Real-time Memory Report at c_bands before calling an iterative solver
             0 MiB given to the printing process from OS
             0 MiB allocation reported by mallinfo(arena+hblkhd)
        168981 MiB available memory on the node where the printing process lives
------------------
     ethr =  1.19E-07,  avg # of iterations =  7.1

     negative rho (up, down):  7.957E-01 0.000E+00

     total cpu time spent up to now is      465.2 secs

     total energy              =   -4399.90953770 Ry
     estimated scf accuracy    <       0.00020075 Ry

     iteration # 31     ecut=    60.00 Ry     beta= 0.15
     Davidson diagonalization with overlap

---- Real-time Memory Report at c_bands before calling an iterative solver
             0 MiB given to the printing process from OS
             0 MiB allocation reported by mallinfo(arena+hblkhd)
        168988 MiB available memory on the node where the printing process lives
------------------
     ethr =  4.72E-08,  avg # of iterations =  2.2

     negative rho (up, down):  7.938E-01 0.000E+00

     total cpu time spent up to now is      479.5 secs

     total energy              =   -4399.90953386 Ry
     estimated scf accuracy    <       0.00006778 Ry

     iteration # 32     ecut=    60.00 Ry     beta= 0.15
     Davidson diagonalization with overlap

---- Real-time Memory Report at c_bands before calling an iterative solver
             0 MiB given to the printing process from OS
             0 MiB allocation reported by mallinfo(arena+hblkhd)
        169016 MiB available memory on the node where the printing process lives
------------------
     ethr =  1.59E-08,  avg # of iterations =  2.8

     negative rho (up, down):  7.932E-01 0.000E+00

     total cpu time spent up to now is      493.5 secs

     total energy              =   -4399.90953976 Ry
     estimated scf accuracy    <       0.00004092 Ry

     iteration # 33     ecut=    60.00 Ry     beta= 0.15
     Davidson diagonalization with overlap

---- Real-time Memory Report at c_bands before calling an iterative solver
             0 MiB given to the printing process from OS
             0 MiB allocation reported by mallinfo(arena+hblkhd)
        168995 MiB available memory on the node where the printing process lives
------------------
     ethr =  9.63E-09,  avg # of iterations =  1.9

     negative rho (up, down):  7.929E-01 0.000E+00

     total cpu time spent up to now is      507.0 secs

     total energy              =   -4399.90954498 Ry
     estimated scf accuracy    <       0.00002700 Ry

     iteration # 34     ecut=    60.00 Ry     beta= 0.15
     Davidson diagonalization with overlap

---- Real-time Memory Report at c_bands before calling an iterative solver
             0 MiB given to the printing process from OS
             0 MiB allocation reported by mallinfo(arena+hblkhd)
        169021 MiB available memory on the node where the printing process lives
------------------
     ethr =  6.35E-09,  avg # of iterations =  2.1

     negative rho (up, down):  7.925E-01 0.000E+00

     total cpu time spent up to now is      520.8 secs

     total energy              =   -4399.90954982 Ry
     estimated scf accuracy    <       0.00001901 Ry

     iteration # 35     ecut=    60.00 Ry     beta= 0.15
     Davidson diagonalization with overlap

---- Real-time Memory Report at c_bands before calling an iterative solver
             0 MiB given to the printing process from OS
             0 MiB allocation reported by mallinfo(arena+hblkhd)
        169040 MiB available memory on the node where the printing process lives
------------------
     ethr =  4.47E-09,  avg # of iterations =  2.8

     negative rho (up, down):  7.923E-01 0.000E+00

     total cpu time spent up to now is      534.6 secs

     total energy              =   -4399.90955193 Ry
     estimated scf accuracy    <       0.00000822 Ry

     iteration # 36     ecut=    60.00 Ry     beta= 0.15
     Davidson diagonalization with overlap

---- Real-time Memory Report at c_bands before calling an iterative solver
             0 MiB given to the printing process from OS
             0 MiB allocation reported by mallinfo(arena+hblkhd)
        169051 MiB available memory on the node where the printing process lives
------------------
     ethr =  1.93E-09,  avg # of iterations =  2.2

     negative rho (up, down):  7.922E-01 0.000E+00

     total cpu time spent up to now is      548.2 secs

     total energy              =   -4399.90955502 Ry
     estimated scf accuracy    <       0.00000561 Ry

     iteration # 37     ecut=    60.00 Ry     beta= 0.15
     Davidson diagonalization with overlap

---- Real-time Memory Report at c_bands before calling an iterative solver
             0 MiB given to the printing process from OS
             0 MiB allocation reported by mallinfo(arena+hblkhd)
        169069 MiB available memory on the node where the printing process lives
------------------
     ethr =  1.32E-09,  avg # of iterations =  3.3

     negative rho (up, down):  7.922E-01 0.000E+00

     total cpu time spent up to now is      562.3 secs

     total energy              =   -4399.90955578 Ry
     estimated scf accuracy    <       0.00000341 Ry

     iteration # 38     ecut=    60.00 Ry     beta= 0.15
     Davidson diagonalization with overlap

---- Real-time Memory Report at c_bands before calling an iterative solver
             0 MiB given to the printing process from OS
             0 MiB allocation reported by mallinfo(arena+hblkhd)
        169074 MiB available memory on the node where the printing process lives
------------------
     ethr =  8.04E-10,  avg # of iterations =  3.2

     negative rho (up, down):  7.922E-01 0.000E+00

     total cpu time spent up to now is      576.3 secs

     total energy              =   -4399.90955532 Ry
     estimated scf accuracy    <       0.00000253 Ry

     iteration # 39     ecut=    60.00 Ry     beta= 0.15
     Davidson diagonalization with overlap

---- Real-time Memory Report at c_bands before calling an iterative solver
             0 MiB given to the printing process from OS
             0 MiB allocation reported by mallinfo(arena+hblkhd)
        169068 MiB available memory on the node where the printing process lives
------------------
     ethr =  5.95E-10,  avg # of iterations =  3.1

     negative rho (up, down):  7.923E-01 0.000E+00

     total cpu time spent up to now is      590.2 secs

     total energy              =   -4399.90955447 Ry
     estimated scf accuracy    <       0.00000150 Ry

     iteration # 40     ecut=    60.00 Ry     beta= 0.15
     Davidson diagonalization with overlap

---- Real-time Memory Report at c_bands before calling an iterative solver
             0 MiB given to the printing process from OS
             0 MiB allocation reported by mallinfo(arena+hblkhd)
        169083 MiB available memory on the node where the printing process lives
------------------
     ethr =  3.52E-10,  avg # of iterations =  3.2

     negative rho (up, down):  7.923E-01 0.000E+00

     total cpu time spent up to now is      604.4 secs

     total energy              =   -4399.90955502 Ry
     estimated scf accuracy    <       0.00000075 Ry

     iteration # 41     ecut=    60.00 Ry     beta= 0.15
     Davidson diagonalization with overlap

---- Real-time Memory Report at c_bands before calling an iterative solver
             0 MiB given to the printing process from OS
             0 MiB allocation reported by mallinfo(arena+hblkhd)
        169096 MiB available memory on the node where the printing process lives
------------------
     ethr =  1.76E-10,  avg # of iterations =  2.4

     negative rho (up, down):  7.924E-01 0.000E+00

     total cpu time spent up to now is      618.4 secs

     total energy              =   -4399.90955550 Ry
     estimated scf accuracy    <       0.00000046 Ry

     iteration # 42     ecut=    60.00 Ry     beta= 0.15
     Davidson diagonalization with overlap

---- Real-time Memory Report at c_bands before calling an iterative solver
             0 MiB given to the printing process from OS
             0 MiB allocation reported by mallinfo(arena+hblkhd)
        169104 MiB available memory on the node where the printing process lives
------------------
     ethr =  1.08E-10,  avg # of iterations =  3.2

     negative rho (up, down):  7.924E-01 0.000E+00

     total cpu time spent up to now is      633.4 secs

     total energy              =   -4399.90955577 Ry
     estimated scf accuracy    <       0.00000016 Ry

     iteration # 43     ecut=    60.00 Ry     beta= 0.15
     Davidson diagonalization with overlap

---- Real-time Memory Report at c_bands before calling an iterative solver
             0 MiB given to the printing process from OS
             0 MiB allocation reported by mallinfo(arena+hblkhd)
        169098 MiB available memory on the node where the printing process lives
------------------
     ethr =  3.85E-11,  avg # of iterations =  4.3

     negative rho (up, down):  7.924E-01 0.000E+00

     total cpu time spent up to now is      648.4 secs

     total energy              =   -4399.90955580 Ry
     estimated scf accuracy    <       0.00000010 Ry

     iteration # 44     ecut=    60.00 Ry     beta= 0.15
     Davidson diagonalization with overlap

---- Real-time Memory Report at c_bands before calling an iterative solver
             0 MiB given to the printing process from OS
             0 MiB allocation reported by mallinfo(arena+hblkhd)
        169089 MiB available memory on the node where the printing process lives
------------------
     ethr =  2.32E-11,  avg # of iterations =  2.7

     negative rho (up, down):  7.924E-01 0.000E+00

     total cpu time spent up to now is      662.1 secs

     total energy              =   -4399.90955580 Ry
     estimated scf accuracy    <       0.00000005 Ry

     iteration # 45     ecut=    60.00 Ry     beta= 0.15
     Davidson diagonalization with overlap

---- Real-time Memory Report at c_bands before calling an iterative solver
             0 MiB given to the printing process from OS
             0 MiB allocation reported by mallinfo(arena+hblkhd)
        169089 MiB available memory on the node where the printing process lives
------------------
     ethr =  1.25E-11,  avg # of iterations =  3.1

     negative rho (up, down):  7.924E-01 0.000E+00

     total cpu time spent up to now is      676.0 secs

     total energy              =   -4399.90955578 Ry
     estimated scf accuracy    <       0.00000004 Ry

     iteration # 46     ecut=    60.00 Ry     beta= 0.15
     Davidson diagonalization with overlap

---- Real-time Memory Report at c_bands before calling an iterative solver
             0 MiB given to the printing process from OS
             0 MiB allocation reported by mallinfo(arena+hblkhd)
        169087 MiB available memory on the node where the printing process lives
------------------
     ethr =  1.03E-11,  avg # of iterations =  3.2

     negative rho (up, down):  7.924E-01 0.000E+00

     total cpu time spent up to now is      690.5 secs

     total energy              =   -4399.90955579 Ry
     estimated scf accuracy    <       0.00000002 Ry

     iteration # 47     ecut=    60.00 Ry     beta= 0.15
     Davidson diagonalization with overlap

---- Real-time Memory Report at c_bands before calling an iterative solver
             0 MiB given to the printing process from OS
             0 MiB allocation reported by mallinfo(arena+hblkhd)
        169087 MiB available memory on the node where the printing process lives
------------------
     ethr =  4.28E-12,  avg # of iterations =  2.3

     negative rho (up, down):  7.924E-01 0.000E+00

     total cpu time spent up to now is      704.2 secs

     End of self-consistent calculation

          k = 0.0000 0.0000 0.0000 ( 65197 PWs)   bands (ev):

   -92.6941 -92.6377 -92.5474 -92.4928 -92.4410 -92.4001 -92.3827 -92.2597
   -56.0475 -56.0241 -55.9049 -55.8947 -55.8818 -55.8815 -55.8427 -55.8168
   -55.8012 -55.7996 -55.7890 -55.7488 -55.7274 -55.6921 -55.6736 -55.6412
   -55.6239 -55.5885 -55.5855 -55.5855 -55.5770 -55.5346 -55.5131 -55.4271
   -31.2707 -31.2515 -31.1096 -31.0654 -31.0231 -30.9763 -30.9288 -30.8123
   -29.8431 -29.7999 -29.7738 -29.6656 -15.0750 -15.0384 -14.9528 -14.8223
   -14.6365 -14.5125 -14.2148 -14.1970 -14.1652 -14.1204 -14.0786 -14.0703
   -14.0572 -14.0399 -14.0198 -13.9790 -13.9251 -13.7750 -13.6047 -13.5640
   -13.5322 -13.5071 -13.4860 -13.4349 -13.3987 -13.3154 -13.2439 -13.1334
   -13.1036 -13.0960 -13.0813 -13.0685 -13.0505 -13.0207 -12.9969 -12.9864
   -12.9507 -12.9178 -12.9066 -12.8914 -12.8752 -12.8659 -12.8384 -12.8113
   -12.7830 -12.7477 -12.7058 -12.6958 -12.3356 -12.1900 -12.0573 -11.9898
   -11.8569 -11.7824 -11.7711 -11.7490 -11.7313 -11.6674 -11.6500 -11.6154
   -11.5862 -11.4752 -11.3946 -11.3912  -2.9368  -2.7036  -2.4741  -2.3280
    -2.2642  -2.1212  -1.8146  -1.8007  -1.7800  -1.6975  -1.6785  -1.6101
    -1.5940  -1.5522  -1.5080  -1.3271  -1.1046  -1.0748  -0.9244  -0.9107
    -0.8675  -0.8485  -0.8030  -0.7874  -0.7284  -0.7017  -0.6318  -0.6192
    -0.5409  -0.4099  -0.3961  -0.3696  -0.2919  -0.2870  -0.2657  -0.1974
    -0.1244  -0.0849  -0.0297  -0.0036   0.0529   0.1330   0.1852   0.2045
     0.2153   0.4721   0.4870   0.6568   0.7266   0.7918   0.8298   0.9259
     0.9398   0.9545   1.0257   1.0527   1.0866   1.1460   1.2791   1.3340
     1.3547   1.3721   1.3852   1.4532   1.5283   1.6271   1.6377   1.7040
     1.7207   1.7594   1.7780   1.7836   1.8414   1.8923   1.8961   1.9395
     1.9794   2.0288   2.1593   2.2426   2.2879   2.3001   2.4567   2.4727
     2.5136   2.5198   2.6236   2.6611   2.6863   2.7059   2.7186   2.7752
     2.8234   2.9237   2.9445   2.9575   2.9651   3.0328   3.0381   3.0598
     3.0677   3.0757   3.0927   3.0969   3.1074   3.1132   3.1274   3.1353
     3.1428   3.1630   3.1847   3.1897   3.2025   3.2623   3.3441   3.4433
     4.1137   4.4458   4.7832   4.8710   5.0412   5.7731   5.9522   6.0091
     6.0284   6.3210   6.3682   6.4904   6.4997   6.7259   7.0146   7.0951
     7.1082   7.1265   7.3196   7.5783   7.6679   7.6868   7.7293   7.9496
     8.0657   8.1205   8.1278   8.1481   8.2976   8.6327   8.7005   8.8418

     occupation numbers 
     1.0000   1.0000   1.0000   1.0000   1.0000   1.0000   1.0000   1.0000
     1.0000   1.0000   1.0000   1.0000   1.0000   1.0000   1.0000   1.0000
     1.0000   1.0000   1.0000   1.0000   1.0000   1.0000   1.0000   1.0000
     1.0000   1.0000   1.0000   1.0000   1.0000   1.0000   1.0000   1.0000
     1.0000   1.0000   1.0000   1.0000   1.0000   1.0000   1.0000   1.0000
     1.0000   1.0000   1.0000   1.0000   1.0000   1.0000   1.0000   1.0000
     1.0000   1.0000   1.0000   1.0000   1.0000   1.0000   1.0000   1.0000
     1.0000   1.0000   1.0000   1.0000   1.0000   1.0000   1.0000   1.0000
     1.0000   1.0000   1.0000   1.0000   1.0000   1.0000   1.0000   1.0000
     1.0000   1.0000   1.0000   1.0000   1.0000   1.0000   1.0000   1.0000
     1.0000   1.0000   1.0000   1.0000   1.0000   1.0000   1.0000   1.0000
     1.0000   1.0000   1.0000   1.0000   1.0000   1.0000   1.0000   1.0000
     1.0000   1.0000   1.0000   1.0000   1.0000   1.0000   1.0000   1.0000
     1.0000   1.0000   1.0000   1.0000   1.0000   1.0000   1.0000   1.0000
     1.0000   1.0000   1.0000   1.0000   1.0000   1.0000   1.0000   1.0000
     1.0000   1.0000   1.0000   1.0000   1.0000   1.0000   1.0000   1.0000
     1.0000   1.0000   1.0000   1.0000   1.0000   1.0000   1.0000   1.0000
     1.0000   1.0000   1.0000   1.0000   1.0000   1.0000   1.0000   1.0000
     1.0000   1.0000   1.0000   1.0000   1.0000   1.0000   1.0000   1.0000
     1.0000   1.0000   1.0000   1.0000   0.9999   0.9999   0.9999   0.9998
     0.9998   0.9998   0.9997   0.9996   0.9996   0.9994   0.9989   0.9985
     0.9984   0.9982   0.9981   0.9974   0.9963   0.9944   0.9941   0.9922
     0.9917   0.9903   0.9896   0.9893   0.9867   0.9838   0.9836   0.9808
     0.9778   0.9737   0.9594   0.9474   0.9398   0.9376   0.9036   0.8995
     0.8884   0.8866   0.8542   0.8411   0.8318   0.8244   0.8195   0.7966
     0.7757   0.7287   0.7184   0.7119   0.7080   0.6726   0.6697   0.6580
     0.6536   0.6492   0.6398   0.6375   0.6317   0.6284   0.6204   0.6159
     0.6116   0.6001   0.5876   0.5847   0.5773   0.5423   0.4939   0.4354
     0.1234   0.0493   0.0157   0.0112   0.0056   0.0001   0.0001   0.0000
     0.0000   0.0000   0.0000   0.0000   0.0000   0.0000   0.0000   0.0000
     0.0000   0.0000   0.0000   0.0000   0.0000   0.0000   0.0000   0.0000
     0.0000   0.0000   0.0000   0.0000   0.0000   0.0000   0.0000   0.0000

          k = 0.0000 0.2500 0.0000 ( 65257 PWs)   bands (ev):

   -92.6941 -92.6377 -92.5474 -92.4928 -92.4410 -92.4001 -92.3827 -92.2597
   -56.0475 -56.0241 -55.9049 -55.8947 -55.8818 -55.8815 -55.8427 -55.8168
   -55.8012 -55.7996 -55.7890 -55.7488 -55.7274 -55.6921 -55.6736 -55.6412
   -55.6239 -55.5885 -55.5855 -55.5855 -55.5770 -55.5346 -55.5131 -55.4271
   -31.2705 -31.2514 -31.1098 -31.0651 -31.0232 -30.9767 -30.9286 -30.8125
   -29.8425 -29.7996 -29.7745 -29.6659 -15.0380 -15.0123 -14.9278 -14.7931
   -14.6762 -14.5029 -14.3606 -14.1801 -14.1499 -14.1251 -14.0967 -14.0418
   -14.0345 -14.0208 -14.0035 -13.9590 -13.8450 -13.8061 -13.6423 -13.6292
   -13.5733 -13.5394 -13.4994 -13.4509 -13.4127 -13.3367 -13.3011 -13.2460
   -13.1948 -13.1409 -13.1021 -13.0883 -13.0676 -12.9843 -12.9606 -12.9354
   -12.9255 -12.8959 -12.8696 -12.8597 -12.8377 -12.8190 -12.7901 -12.7660
   -12.7606 -12.7324 -12.6133 -12.5389 -12.3969 -12.2412 -12.1134 -12.0569
   -11.8224 -11.7792 -11.7515 -11.7232 -11.7065 -11.6594 -11.6478 -11.6253
   -11.5912 -11.4894 -11.4364 -11.4257  -2.8016  -2.5792  -2.4421  -2.2599
    -2.2163  -2.0521  -1.8336  -1.7479  -1.7348  -1.6789  -1.5753  -1.5602
    -1.5262  -1.4996  -1.4561  -1.2583  -1.1301  -1.1182  -1.0426  -1.0314
    -0.9267  -0.8955  -0.8398  -0.8153  -0.7723  -0.7101  -0.6840  -0.6514
    -0.6194  -0.6030  -0.5701  -0.4949  -0.4448  -0.3877  -0.2704  -0.2541
    -0.2080  -0.0881  -0.0555   0.0066   0.0561   0.1122   0.1326   0.1644
     0.2221   0.5183   0.6071   0.6384   0.7245   0.7698   0.7877   0.9133
     0.9312   1.0257   1.0518   1.0800   1.1948   1.2835   1.3098   1.3321
     1.3488   1.3792   1.4394   1.4655   1.4931   1.5420   1.5743   1.6039
     1.6818   1.7146   1.7567   1.8061   1.8618   1.9036   1.9289   1.9539
     1.9792   2.0589   2.1960   2.2664   2.2837   2.3643   2.4130   2.4474
     2.4592   2.5187   2.5606   2.6411   2.6781   2.6950   2.7965   2.8727
     2.9062   2.9276   2.9478   2.9668   2.9737   2.9809   2.9975   3.0198
     3.0221   3.0413   3.0468   3.0561   3.0760   3.0878   3.0969   3.1159
     3.1252   3.1297   3.1652   3.1831   3.2443   3.6209   3.6677   3.8838
     4.2966   4.4518   4.7126   5.0281   5.0668   5.6355   5.7616   5.9022
     6.0076   6.0992   6.1190   6.1942   6.6072   6.8518   6.8948   7.1178
     7.2371   7.3388   7.4906   7.5055   7.6500   7.7512   7.8315   7.9420
     8.0638   8.0944   8.1753   8.3117   8.4094   8.4214   8.7648   8.8739

     occupation numbers 
     1.0000   1.0000   1.0000   1.0000   1.0000   1.0000   1.0000   1.0000
     1.0000   1.0000   1.0000   1.0000   1.0000   1.0000   1.0000   1.0000
     1.0000   1.0000   1.0000   1.0000   1.0000   1.0000   1.0000   1.0000
     1.0000   1.0000   1.0000   1.0000   1.0000   1.0000   1.0000   1.0000
     1.0000   1.0000   1.0000   1.0000   1.0000   1.0000   1.0000   1.0000
     1.0000   1.0000   1.0000   1.0000   1.0000   1.0000   1.0000   1.0000
     1.0000   1.0000   1.0000   1.0000   1.0000   1.0000   1.0000   1.0000
     1.0000   1.0000   1.0000   1.0000   1.0000   1.0000   1.0000   1.0000
     1.0000   1.0000   1.0000   1.0000   1.0000   1.0000   1.0000   1.0000
     1.0000   1.0000   1.0000   1.0000   1.0000   1.0000   1.0000   1.0000
     1.0000   1.0000   1.0000   1.0000   1.0000   1.0000   1.0000   1.0000
     1.0000   1.0000   1.0000   1.0000   1.0000   1.0000   1.0000   1.0000
     1.0000   1.0000   1.0000   1.0000   1.0000   1.0000   1.0000   1.0000
     1.0000   1.0000   1.0000   1.0000   1.0000   1.0000   1.0000   1.0000
     1.0000   1.0000   1.0000   1.0000   1.0000   1.0000   1.0000   1.0000
     1.0000   1.0000   1.0000   1.0000   1.0000   1.0000   1.0000   1.0000
     1.0000   1.0000   1.0000   1.0000   1.0000   1.0000   1.0000   1.0000
     1.0000   1.0000   1.0000   1.0000   1.0000   1.0000   1.0000   1.0000
     1.0000   1.0000   1.0000   1.0000   1.0000   1.0000   1.0000   1.0000
     1.0000   1.0000   1.0000   1.0000   0.9999   0.9999   0.9999   0.9998
     0.9998   0.9997   0.9996   0.9996   0.9993   0.9988   0.9987   0.9985
     0.9984   0.9981   0.9975   0.9972   0.9969   0.9961   0.9955   0.9949
     0.9929   0.9919   0.9904   0.9883   0.9856   0.9832   0.9815   0.9798
     0.9779   0.9708   0.9544   0.9435   0.9405   0.9250   0.9142   0.9059
     0.9030   0.8869   0.8745   0.8482   0.8349   0.8286   0.7875   0.7532
     0.7372   0.7268   0.7167   0.7071   0.7036   0.6998   0.6913   0.6795
     0.6782   0.6680   0.6650   0.6600   0.6491   0.6426   0.6375   0.6269
     0.6216   0.6190   0.5989   0.5885   0.5528   0.3349   0.3100   0.2070
     0.0764   0.0484   0.0203   0.0059   0.0050   0.0003   0.0002   0.0001
     0.0000   0.0000   0.0000   0.0000   0.0000   0.0000   0.0000   0.0000
     0.0000   0.0000   0.0000   0.0000   0.0000   0.0000   0.0000   0.0000
     0.0000   0.0000   0.0000   0.0000   0.0000   0.0000   0.0000   0.0000

          k = 0.0000-0.5000 0.0000 ( 65180 PWs)   bands (ev):

   -92.6941 -92.6377 -92.5474 -92.4928 -92.4410 -92.4001 -92.3827 -92.2597
   -56.0475 -56.0241 -55.9049 -55.8947 -55.8818 -55.8815 -55.8427 -55.8168
   -55.8012 -55.7996 -55.7890 -55.7488 -55.7274 -55.6921 -55.6736 -55.6412
   -55.6239 -55.5885 -55.5855 -55.5855 -55.5770 -55.5346 -55.5131 -55.4271
   -31.2703 -31.2512 -31.1100 -31.0647 -31.0234 -30.9770 -30.9283 -30.8128
   -29.8418 -29.7993 -29.7751 -29.6663 -15.0061 -14.9568 -14.9051 -14.7799
   -14.6917 -14.5549 -14.4057 -14.2825 -14.1507 -14.0840 -14.0426 -14.0317
   -13.9846 -13.9655 -13.9180 -13.9021 -13.8740 -13.8381 -13.8121 -13.7688
   -13.5767 -13.5216 -13.5080 -13.4499 -13.4112 -13.3524 -13.3235 -13.2762
   -13.2760 -13.2109 -13.1030 -13.0892 -13.0529 -12.9940 -12.9629 -12.9487
   -12.9220 -12.8761 -12.8675 -12.8333 -12.8149 -12.7541 -12.7494 -12.7349
   -12.6985 -12.6446 -12.5079 -12.4708 -12.3201 -12.3163 -12.2224 -12.1796
   -11.7761 -11.7740 -11.7465 -11.7088 -11.6746 -11.6634 -11.6211 -11.6173
   -11.5730 -11.5110 -11.4971 -11.4828  -2.5871  -2.5272  -2.3761  -2.3036
    -2.0239  -1.9381  -1.8122  -1.6737  -1.6395  -1.6172  -1.5390  -1.5081
    -1.4261  -1.3906  -1.3147  -1.2732  -1.2342  -1.2072  -1.1523  -1.1124
    -1.0679  -1.0309  -0.9969  -0.9635  -0.8528  -0.8076  -0.7749  -0.7739
    -0.6878  -0.6547  -0.6322  -0.5835  -0.5001  -0.4264  -0.3496  -0.3221
    -0.2090  -0.1656  -0.0234   0.0023   0.0380   0.0892   0.2087   0.2651
     0.3983   0.4638   0.4709   0.6006   0.6419   0.7396   0.8793   0.9864
     1.0165   1.0534   1.0582   1.0974   1.1155   1.1526   1.1679   1.1805
     1.2901   1.3511   1.3746   1.3995   1.6605   1.6972   1.7144   1.8125
     1.8379   1.8701   1.8865   1.9160   1.9274   1.9347   1.9710   2.0049
     2.0324   2.0576   2.0714   2.1029   2.1557   2.2353   2.2658   2.4507
     2.6090   2.6193   2.6333   2.6558   2.6724   2.6861   2.7317   2.7507
     2.8044   2.8244   2.8259   2.9102   2.9177   2.9826   3.0080   3.0156
     3.0165   3.0372   3.0435   3.0482   3.0507   3.0563   3.0787   3.0847
     3.1015   3.1503   3.1591   3.1728   3.2254   4.1291   4.1762   4.2150
     4.2589   4.7418   4.9035   5.0365   5.1502   5.4197   5.4698   5.6017
     5.6947   5.9806   6.0467   6.0575   6.7033   6.8638   6.9600   7.2308
     7.3121   7.3340   7.4052   7.4579   7.6391   7.7579   7.8228   7.9169
     8.0996   8.2568   8.3355   8.5041   8.6744   8.7188   8.7956   8.8285

     occupation numbers 
     1.0000   1.0000   1.0000   1.0000   1.0000   1.0000   1.0000   1.0000
     1.0000   1.0000   1.0000   1.0000   1.0000   1.0000   1.0000   1.0000
     1.0000   1.0000   1.0000   1.0000   1.0000   1.0000   1.0000   1.0000
     1.0000   1.0000   1.0000   1.0000   1.0000   1.0000   1.0000   1.0000
     1.0000   1.0000   1.0000   1.0000   1.0000   1.0000   1.0000   1.0000
     1.0000   1.0000   1.0000   1.0000   1.0000   1.0000   1.0000   1.0000
     1.0000   1.0000   1.0000   1.0000   1.0000   1.0000   1.0000   1.0000
     1.0000   1.0000   1.0000   1.0000   1.0000   1.0000   1.0000   1.0000
     1.0000   1.0000   1.0000   1.0000   1.0000   1.0000   1.0000   1.0000
     1.0000   1.0000   1.0000   1.0000   1.0000   1.0000   1.0000   1.0000
     1.0000   1.0000   1.0000   1.0000   1.0000   1.0000   1.0000   1.0000
     1.0000   1.0000   1.0000   1.0000   1.0000   1.0000   1.0000   1.0000
     1.0000   1.0000   1.0000   1.0000   1.0000   1.0000   1.0000   1.0000
     1.0000   1.0000   1.0000   1.0000   1.0000   1.0000   1.0000   1.0000
     1.0000   1.0000   1.0000   1.0000   1.0000   1.0000   1.0000   1.0000
     1.0000   1.0000   1.0000   1.0000   1.0000   1.0000   1.0000   1.0000
     1.0000   1.0000   1.0000   1.0000   1.0000   1.0000   1.0000   1.0000
     1.0000   1.0000   1.0000   1.0000   1.0000   1.0000   1.0000   1.0000
     1.0000   1.0000   1.0000   1.0000   1.0000   1.0000   1.0000   1.0000
     1.0000   1.0000   1.0000   1.0000   1.0000   0.9999   0.9999   0.9998
     0.9997   0.9996   0.9996   0.9996   0.9995   0.9994   0.9994   0.9993
     0.9988   0.9984   0.9982   0.9980   0.9935   0.9925   0.9919   0.9881
     0.9868   0.9851   0.9842   0.9824   0.9816   0.9811   0.9785   0.9758
     0.9733   0.9710   0.9696   0.9662   0.9599   0.9486   0.9436   0.9051
     0.8591   0.8556   0.8509   0.8430   0.8370   0.8319   0.8143   0.8067
     0.7841   0.7753   0.7746   0.7353   0.7317   0.6990   0.6857   0.6817
     0.6813   0.6702   0.6668   0.6642   0.6629   0.6599   0.6476   0.6442
     0.6349   0.6073   0.6023   0.5945   0.5639   0.1188   0.1055   0.0954
     0.0848   0.0183   0.0099   0.0057   0.0035   0.0010   0.0008   0.0004
     0.0002   0.0000   0.0000   0.0000   0.0000   0.0000   0.0000   0.0000
     0.0000   0.0000   0.0000   0.0000   0.0000   0.0000   0.0000   0.0000
     0.0000   0.0000   0.0000   0.0000   0.0000   0.0000   0.0000   0.0000

          k = 0.2500 0.2500 0.0000 ( 65198 PWs)   bands (ev):

   -92.6941 -92.6377 -92.5474 -92.4928 -92.4410 -92.4001 -92.3827 -92.2597
   -56.0475 -56.0241 -55.9049 -55.8947 -55.8818 -55.8815 -55.8427 -55.8168
   -55.8012 -55.7996 -55.7890 -55.7488 -55.7274 -55.6921 -55.6736 -55.6412
   -55.6239 -55.5885 -55.5855 -55.5855 -55.5770 -55.5346 -55.5131 -55.4271
   -31.2688 -31.2531 -31.1095 -31.0648 -31.0236 -30.9765 -30.9288 -30.8127
   -29.8415 -29.8006 -29.7741 -29.6664 -15.0100 -14.9769 -14.9000 -14.7827
   -14.6678 -14.5427 -14.4657 -14.2633 -14.1032 -14.0911 -14.0562 -14.0268
   -14.0054 -13.9817 -13.9503 -13.9199 -13.8362 -13.8207 -13.6577 -13.6453
   -13.6164 -13.5943 -13.5583 -13.5053 -13.4511 -13.4198 -13.3116 -13.2775
   -13.2228 -13.1357 -13.0951 -13.0467 -13.0243 -13.0124 -12.9742 -12.9407
   -12.9314 -12.9128 -12.8862 -12.8400 -12.8099 -12.7910 -12.7451 -12.7340
   -12.7293 -12.7064 -12.5466 -12.4454 -12.4305 -12.2704 -12.1442 -12.1062
   -11.7946 -11.7628 -11.7520 -11.7447 -11.6825 -11.6472 -11.6408 -11.6055
   -11.5974 -11.5061 -11.4647 -11.4471  -2.6634  -2.4535  -2.3362  -2.2423
    -2.1207  -2.0552  -1.8588  -1.7131  -1.6930  -1.6654  -1.5702  -1.5361
    -1.4426  -1.4156  -1.3652  -1.2333  -1.1862  -1.1141  -1.0685  -1.0246
    -1.0001  -0.9748  -0.9331  -0.9173  -0.8273  -0.7774  -0.7146  -0.6644
    -0.6338  -0.5822  -0.5701  -0.5072  -0.4580  -0.4062  -0.3665  -0.2843
    -0.2287  -0.2012  -0.1604  -0.1057  -0.0340   0.0050   0.0277   0.1007
     0.1374   0.4112   0.5572   0.5962   0.6491   0.6936   0.7431   0.8004
     0.8636   0.9012   1.1732   1.2428   1.3169   1.3441   1.3877   1.4233
     1.4571   1.4945   1.5122   1.5404   1.5818   1.5908   1.6077   1.6483
     1.6903   1.7302   1.7850   1.8260   1.8313   1.8670   1.9023   1.9515
     1.9855   2.1014   2.1756   2.2134   2.2406   2.2986   2.3730   2.4006
     2.4357   2.4586   2.4749   2.5819   2.6200   2.7084   2.8269   2.8887
     2.9007   2.9085   2.9218   2.9382   2.9498   2.9628   2.9704   2.9833
     2.9927   3.0062   3.0243   3.0299   3.0424   3.0638   3.0769   3.0855
     3.1169   3.4181   3.5145   3.5502   3.6176   3.6942   3.8564   3.9611
     4.3061   4.5387   4.7218   4.9806   5.1749   5.6497   5.6832   5.7493
     5.8441   5.9015   6.0023   6.1659   6.2355   6.7054   6.9042   7.0514
     7.1156   7.5603   7.6109   7.6694   7.7213   7.8744   7.9279   8.1067
     8.1401   8.2210   8.3108   8.3441   8.4319   8.4510   8.4961   8.8510

     occupation numbers 
     1.0000   1.0000   1.0000   1.0000   1.0000   1.0000   1.0000   1.0000
     1.0000   1.0000   1.0000   1.0000   1.0000   1.0000   1.0000   1.0000
     1.0000   1.0000   1.0000   1.0000   1.0000   1.0000   1.0000   1.0000
     1.0000   1.0000   1.0000   1.0000   1.0000   1.0000   1.0000   1.0000
     1.0000   1.0000   1.0000   1.0000   1.0000   1.0000   1.0000   1.0000
     1.0000   1.0000   1.0000   1.0000   1.0000   1.0000   1.0000   1.0000
     1.0000   1.0000   1.0000   1.0000   1.0000   1.0000   1.0000   1.0000
     1.0000   1.0000   1.0000   1.0000   1.0000   1.0000   1.0000   1.0000
     1.0000   1.0000   1.0000   1.0000   1.0000   1.0000   1.0000   1.0000
     1.0000   1.0000   1.0000   1.0000   1.0000   1.0000   1.0000   1.0000
     1.0000   1.0000   1.0000   1.0000   1.0000   1.0000   1.0000   1.0000
     1.0000   1.0000   1.0000   1.0000   1.0000   1.0000   1.0000   1.0000
     1.0000   1.0000   1.0000   1.0000   1.0000   1.0000   1.0000   1.0000
     1.0000   1.0000   1.0000   1.0000   1.0000   1.0000   1.0000   1.0000
     1.0000   1.0000   1.0000   1.0000   1.0000   1.0000   1.0000   1.0000
     1.0000   1.0000   1.0000   1.0000   1.0000   1.0000   1.0000   1.0000
     1.0000   1.0000   1.0000   1.0000   1.0000   1.0000   1.0000   1.0000
     1.0000   1.0000   1.0000   1.0000   1.0000   1.0000   1.0000   1.0000
     1.0000   1.0000   1.0000   1.0000   1.0000   1.0000   1.0000   1.0000
     1.0000   1.0000   1.0000   1.0000   1.0000   1.0000   0.9999   0.9999
     0.9999   0.9998   0.9993   0.9990   0.9986   0.9984   0.9981   0.9977
     0.9973   0.9968   0.9966   0.9961   0.9954   0.9952   0.9948   0.9938
     0.9927   0.9914   0.9893   0.9874   0.9872   0.9853   0.9832   0.9799
     0.9774   0.9664   0.9573   0.9519   0.9477   0.9379   0.9232   0.9171
     0.9088   0.9031   0.8989   0.8679   0.8554   0.8234   0.7742   0.7457
     0.7399   0.7361   0.7296   0.7215   0.7157   0.7091   0.7052   0.6986
     0.6937   0.6867   0.6771   0.6741   0.6674   0.6558   0.6486   0.6438
     0.6263   0.4502   0.3942   0.3740   0.3367   0.2963   0.2189   0.1758
     0.0744   0.0368   0.0196   0.0072   0.0031   0.0003   0.0002   0.0002
     0.0001   0.0001   0.0000   0.0000   0.0000   0.0000   0.0000   0.0000
     0.0000   0.0000   0.0000   0.0000   0.0000   0.0000   0.0000   0.0000
     0.0000   0.0000   0.0000   0.0000   0.0000   0.0000   0.0000   0.0000

          k = 0.2500-0.5000 0.0000 ( 65138 PWs)   bands (ev):

   -92.6941 -92.6377 -92.5474 -92.4928 -92.4409 -92.4001 -92.3827 -92.2597
   -56.0475 -56.0241 -55.9049 -55.8947 -55.8818 -55.8815 -55.8427 -55.8168
   -55.8012 -55.7996 -55.7890 -55.7488 -55.7274 -55.6921 -55.6736 -55.6412
   -55.6239 -55.5885 -55.5855 -55.5855 -55.5770 -55.5346 -55.5131 -55.4271
   -31.2686 -31.2529 -31.1097 -31.0645 -31.0238 -30.9768 -30.9285 -30.8130
   -29.8409 -29.8003 -29.7747 -29.6667 -14.9759 -14.9299 -14.8622 -14.7489
   -14.7152 -14.5950 -14.5075 -14.3793 -14.0670 -14.0180 -13.9900 -13.9691
   -13.9523 -13.9374 -13.9037 -13.8903 -13.8553 -13.8136 -13.7974 -13.7597
   -13.6598 -13.6107 -13.5753 -13.5318 -13.4701 -13.4572 -13.3629 -13.3355
   -13.2000 -13.1353 -13.1145 -13.0299 -13.0078 -12.9860 -12.9724 -12.9489
   -12.9362 -12.9055 -12.8824 -12.8275 -12.8133 -12.7834 -12.7519 -12.7484
   -12.6487 -12.6169 -12.5146 -12.4463 -12.3140 -12.2916 -12.2148 -12.1823
   -11.7701 -11.7582 -11.7471 -11.7198 -11.6884 -11.6599 -11.6189 -11.5913
   -11.5691 -11.5241 -11.4981 -11.4869  -2.4457  -2.3791  -2.2501  -2.1724
    -2.0444  -1.9587  -1.8367  -1.6855  -1.6331  -1.6100  -1.5471  -1.5339
    -1.4368  -1.3699  -1.2844  -1.2363  -1.2266  -1.1625  -1.1217  -1.0853
    -1.0386  -1.0017  -0.9669  -0.9264  -0.9155  -0.8700  -0.8413  -0.8003
    -0.7693  -0.7017  -0.6025  -0.5603  -0.4835  -0.4190  -0.3728  -0.3270
    -0.3046  -0.2559  -0.0910  -0.0803   0.0149   0.0592   0.0667   0.1104
     0.1413   0.1808   0.2085   0.2807   0.5467   0.6390   0.7059   0.7660
     1.0317   1.0592   1.1466   1.1731   1.3400   1.3715   1.4164   1.4396
     1.4551   1.4757   1.5357   1.5804   1.6181   1.6966   1.7861   1.8287
     1.8479   1.8561   1.8965   1.9100   1.9123   1.9583   1.9714   1.9919
     2.0149   2.0370   2.0639   2.0959   2.1540   2.1911   2.2695   2.4124
     2.5616   2.5752   2.5954   2.6211   2.6485   2.6665   2.6980   2.7020
     2.7262   2.8314   2.8509   2.8919   2.9014   2.9120   2.9188   2.9410
     2.9540   2.9747   2.9810   3.0108   3.0240   3.0380   3.0469   3.0550
     3.0684   3.5947   3.6104   3.7501   3.7992   4.1518   4.1869   4.2315
     4.3190   4.7608   4.9266   5.0716   5.1284   5.3132   5.4379   5.6017
     5.6235   5.7733   5.7981   6.0967   6.4036   6.4932   6.6158   6.9493
     7.4415   7.5139   7.6753   7.7125   7.8191   7.8860   8.0465   8.1296
     8.2793   8.3889   8.4349   8.5254   8.5345   8.5673   8.7190   8.7741

     occupation numbers 
     1.0000   1.0000   1.0000   1.0000   1.0000   1.0000   1.0000   1.0000
     1.0000   1.0000   1.0000   1.0000   1.0000   1.0000   1.0000   1.0000
     1.0000   1.0000   1.0000   1.0000   1.0000   1.0000   1.0000   1.0000
     1.0000   1.0000   1.0000   1.0000   1.0000   1.0000   1.0000   1.0000
     1.0000   1.0000   1.0000   1.0000   1.0000   1.0000   1.0000   1.0000
     1.0000   1.0000   1.0000   1.0000   1.0000   1.0000   1.0000   1.0000
     1.0000   1.0000   1.0000   1.0000   1.0000   1.0000   1.0000   1.0000
     1.0000   1.0000   1.0000   1.0000   1.0000   1.0000   1.0000   1.0000
     1.0000   1.0000   1.0000   1.0000   1.0000   1.0000   1.0000   1.0000
     1.0000   1.0000   1.0000   1.0000   1.0000   1.0000   1.0000   1.0000
     1.0000   1.0000   1.0000   1.0000   1.0000   1.0000   1.0000   1.0000
     1.0000   1.0000   1.0000   1.0000   1.0000   1.0000   1.0000   1.0000
     1.0000   1.0000   1.0000   1.0000   1.0000   1.0000   1.0000   1.0000
     1.0000   1.0000   1.0000   1.0000   1.0000   1.0000   1.0000   1.0000
     1.0000   1.0000   1.0000   1.0000   1.0000   1.0000   1.0000   1.0000
     1.0000   1.0000   1.0000   1.0000   1.0000   1.0000   1.0000   1.0000
     1.0000   1.0000   1.0000   1.0000   1.0000   1.0000   1.0000   1.0000
     1.0000   1.0000   1.0000   1.0000   1.0000   1.0000   1.0000   1.0000
     1.0000   1.0000   1.0000   1.0000   1.0000   1.0000   1.0000   1.0000
     1.0000   1.0000   1.0000   1.0000   1.0000   1.0000   1.0000   0.9999
     0.9997   0.9996   0.9994   0.9993   0.9985   0.9982   0.9978   0.9975
     0.9974   0.9971   0.9962   0.9954   0.9946   0.9925   0.9892   0.9873
     0.9863   0.9859   0.9836   0.9827   0.9826   0.9794   0.9785   0.9768
     0.9749   0.9729   0.9703   0.9670   0.9601   0.9551   0.9430   0.9144
     0.8742   0.8700   0.8636   0.8550   0.8456   0.8391   0.8274   0.8259
     0.8165   0.7722   0.7633   0.7441   0.7396   0.7344   0.7311   0.7201
     0.7136   0.7031   0.6998   0.6843   0.6772   0.6698   0.6649   0.6605
     0.6532   0.3492   0.3406   0.2682   0.2447   0.1122   0.1026   0.0913
     0.0717   0.0170   0.0090   0.0049   0.0039   0.0016   0.0009   0.0004
     0.0003   0.0001   0.0001   0.0000   0.0000   0.0000   0.0000   0.0000
     0.0000   0.0000   0.0000   0.0000   0.0000   0.0000   0.0000   0.0000
     0.0000   0.0000   0.0000   0.0000   0.0000   0.0000   0.0000   0.0000

          k =-0.5000-0.5000 0.0000 ( 65132 PWs)   bands (ev):

   -92.6941 -92.6377 -92.5474 -92.4928 -92.4409 -92.4001 -92.3827 -92.2597
   -56.0475 -56.0241 -55.9049 -55.8947 -55.8818 -55.8815 -55.8427 -55.8168
   -55.8012 -55.7996 -55.7890 -55.7488 -55.7274 -55.6921 -55.6736 -55.6412
   -55.6239 -55.5885 -55.5855 -55.5855 -55.5770 -55.5346 -55.5131 -55.4271
   -31.2664 -31.2552 -31.1093 -31.0643 -31.0241 -30.9766 -30.9288 -30.8132
   -29.8398 -29.8013 -29.7743 -29.6671 -14.9306 -14.9022 -14.7857 -14.7742
   -14.6804 -14.6426 -14.6106 -14.4785 -13.9803 -13.9682 -13.9338 -13.9140
   -13.8962 -13.8889 -13.8549 -13.8466 -13.8304 -13.8230 -13.8063 -13.7281
   -13.7202 -13.6942 -13.6719 -13.6570 -13.5537 -13.5340 -13.4030 -13.3853
   -13.1515 -13.1114 -13.0430 -13.0187 -12.9859 -12.9788 -12.9756 -12.9686
   -12.9498 -12.9174 -12.8726 -12.8317 -12.8215 -12.7951 -12.7765 -12.7580
   -12.5980 -12.5906 -12.5310 -12.4243 -12.3105 -12.2599 -12.2119 -12.1843
   -11.7665 -11.7542 -11.7363 -11.7196 -11.6848 -11.6672 -11.6321 -11.5717
   -11.5513 -11.5463 -11.4959 -11.4928  -2.2227  -2.1459  -2.1335  -2.0635
    -2.0245  -1.9459  -1.8782  -1.7531  -1.6355  -1.6048  -1.5680  -1.5093
    -1.4375  -1.4230  -1.3520  -1.3094  -1.1929  -1.1653  -1.1168  -1.0855
    -1.0217  -0.9773  -0.9578  -0.9461  -0.8943  -0.8464  -0.8335  -0.7198
    -0.6631  -0.6164  -0.5656  -0.5415  -0.5310  -0.4928  -0.4504  -0.4181
    -0.4040  -0.3186  -0.2519  -0.2041  -0.1815  -0.1057  -0.0542  -0.0327
     0.0192   0.0343   0.0548   0.0641   0.5154   0.5584   0.6550   0.6735
     1.0662   1.0775   1.1106   1.1488   1.4236   1.4435   1.4504   1.4865
     1.6209   1.7165   1.7437   1.7793   1.7946   1.8208   1.8296   1.8628
     1.8727   1.8878   1.8956   1.9488   1.9547   1.9808   2.0070   2.0113
     2.0311   2.0680   2.0955   2.1050   2.1378   2.1616   2.2364   2.3038
     2.5628   2.6041   2.6213   2.6444   2.6484   2.6821   2.6868   2.7016
     2.7161   2.7334   2.7551   2.7665   2.8300   2.8374   2.8423   2.8602
     2.8802   2.8906   2.9066   2.9149   2.9322   3.0217   3.0242   3.0509
     3.0603   4.0010   4.0323   4.0729   4.1496   4.3258   4.3971   4.4255
     4.6663   4.7874   4.8710   5.0010   5.0835   5.0923   5.2108   5.3183
     5.3752   5.8624   5.8913   5.9775   6.0301   6.3667   6.4843   6.5348
     7.6788   7.8108   7.8629   7.8879   7.9305   7.9846   8.0218   8.0920
     8.2706   8.3069   8.4916   8.5897   8.5994   8.6311   8.6656   8.6693

     occupation numbers 
     1.0000   1.0000   1.0000   1.0000   1.0000   1.0000   1.0000   1.0000
     1.0000   1.0000   1.0000   1.0000   1.0000   1.0000   1.0000   1.0000
     1.0000   1.0000   1.0000   1.0000   1.0000   1.0000   1.0000   1.0000
     1.0000   1.0000   1.0000   1.0000   1.0000   1.0000   1.0000   1.0000
     1.0000   1.0000   1.0000   1.0000   1.0000   1.0000   1.0000   1.0000
     1.0000   1.0000   1.0000   1.0000   1.0000   1.0000   1.0000   1.0000
     1.0000   1.0000   1.0000   1.0000   1.0000   1.0000   1.0000   1.0000
     1.0000   1.0000   1.0000   1.0000   1.0000   1.0000   1.0000   1.0000
     1.0000   1.0000   1.0000   1.0000   1.0000   1.0000   1.0000   1.0000
     1.0000   1.0000   1.0000   1.0000   1.0000   1.0000   1.0000   1.0000
     1.0000   1.0000   1.0000   1.0000   1.0000   1.0000   1.0000   1.0000
     1.0000   1.0000   1.0000   1.0000   1.0000   1.0000   1.0000   1.0000
     1.0000   1.0000   1.0000   1.0000   1.0000   1.0000   1.0000   1.0000
     1.0000   1.0000   1.0000   1.0000   1.0000   1.0000   1.0000   1.0000
     1.0000   1.0000   1.0000   1.0000   1.0000   1.0000   1.0000   1.0000
     1.0000   1.0000   1.0000   1.0000   1.0000   1.0000   1.0000   1.0000
     1.0000   1.0000   1.0000   1.0000   1.0000   1.0000   1.0000   1.0000
     1.0000   1.0000   1.0000   1.0000   1.0000   1.0000   1.0000   1.0000
     1.0000   1.0000   1.0000   1.0000   1.0000   1.0000   1.0000   1.0000
     1.0000   1.0000   1.0000   1.0000   1.0000   1.0000   1.0000   1.0000
     0.9996   0.9996   0.9995   0.9994   0.9977   0.9975   0.9974   0.9970
     0.9945   0.9918   0.9909   0.9895   0.9889   0.9877   0.9872   0.9855
     0.9850   0.9841   0.9836   0.9801   0.9797   0.9777   0.9756   0.9752
     0.9735   0.9699   0.9670   0.9660   0.9621   0.9591   0.9484   0.9369
     0.8739   0.8607   0.8550   0.8470   0.8456   0.8334   0.8317   0.8261
     0.8205   0.8137   0.8049   0.8002   0.7728   0.7695   0.7673   0.7591
     0.7497   0.7448   0.7370   0.7330   0.7245   0.6785   0.6771   0.6628
     0.6576   0.1609   0.1498   0.1362   0.1129   0.0704   0.0572   0.0525
     0.0239   0.0154   0.0112   0.0066   0.0047   0.0045   0.0027   0.0016
     0.0012   0.0001   0.0001   0.0000   0.0000   0.0000   0.0000   0.0000
     0.0000   0.0000   0.0000   0.0000   0.0000   0.0000   0.0000   0.0000
     0.0000   0.0000   0.0000   0.0000   0.0000   0.0000   0.0000   0.0000

          k = 0.2500 0.0000 0.0000 ( 65257 PWs)   bands (ev):

   -92.6941 -92.6377 -92.5474 -92.4928 -92.4410 -92.4001 -92.3827 -92.2597
   -56.0475 -56.0241 -55.9049 -55.8947 -55.8818 -55.8815 -55.8427 -55.8168
   -55.8012 -55.7996 -55.7890 -55.7488 -55.7274 -55.6921 -55.6736 -55.6412
   -55.6239 -55.5885 -55.5855 -55.5855 -55.5770 -55.5346 -55.5131 -55.4271
   -31.2690 -31.2532 -31.1093 -31.0652 -31.0235 -30.9761 -30.9291 -30.8124
   -29.8421 -29.8009 -29.7734 -29.6660 -15.0416 -15.0084 -14.9332 -14.7857
   -14.6845 -14.4913 -14.3504 -14.1750 -14.1546 -14.1247 -14.0957 -14.0708
   -14.0396 -14.0226 -14.0031 -13.9638 -13.8358 -13.8053 -13.6530 -13.5900
   -13.5836 -13.5219 -13.4864 -13.4779 -13.4261 -13.3398 -13.3059 -13.2362
   -13.1788 -13.1516 -13.0794 -13.0534 -13.0377 -13.0205 -13.0036 -12.9681
   -12.9398 -12.9268 -12.8730 -12.8568 -12.8295 -12.8131 -12.7644 -12.7587
   -12.7337 -12.7125 -12.6257 -12.5503 -12.3991 -12.2422 -12.1121 -12.0573
   -11.8217 -11.7692 -11.7523 -11.7392 -11.7124 -11.6616 -11.6385 -11.6303
   -11.5795 -11.4910 -11.4347 -11.4287  -2.8010  -2.5784  -2.4486  -2.2763
    -2.2127  -2.0416  -1.8352  -1.7575  -1.7124  -1.6790  -1.5783  -1.5646
    -1.5293  -1.5102  -1.4418  -1.2612  -1.1540  -1.1108  -1.0155  -1.0067
    -0.9233  -0.8974  -0.8488  -0.8067  -0.7541  -0.7276  -0.6769  -0.6494
    -0.6313  -0.5757  -0.5619  -0.4700  -0.4609  -0.4013  -0.3057  -0.2557
    -0.1299  -0.1117  -0.0616  -0.0136   0.0443   0.0641   0.1087   0.1710
     0.2177   0.4955   0.6305   0.6599   0.7461   0.7712   0.8077   0.8271
[...]
     0.7440   0.7257   0.7190   0.7148   0.7049   0.6990   0.6918   0.6803
     0.6769   0.6643   0.6573   0.6540   0.6467   0.6333   0.6221   0.6193
     0.6144   0.6106   0.6051   0.5995   0.5178   0.3509   0.3209   0.2051
     0.0807   0.0433   0.0216   0.0059   0.0050   0.0003   0.0001   0.0001
     0.0000   0.0000   0.0000   0.0000   0.0000   0.0000   0.0000   0.0000
     0.0000   0.0000   0.0000   0.0000   0.0000   0.0000   0.0000   0.0000
     0.0000   0.0000   0.0000   0.0000   0.0000   0.0000   0.0000   0.0000

          k =-0.5000 0.0000 0.0000 ( 65180 PWs)   bands (ev):

   -92.6941 -92.6377 -92.5474 -92.4928 -92.4410 -92.4001 -92.3827 -92.2597
   -56.0475 -56.0241 -55.9049 -55.8947 -55.8818 -55.8815 -55.8427 -55.8168
   -55.8012 -55.7996 -55.7890 -55.7488 -55.7274 -55.6921 -55.6736 -55.6412
   -55.6239 -55.5885 -55.5855 -55.5855 -55.5770 -55.5346 -55.5131 -55.4271
   -31.2668 -31.2554 -31.1089 -31.0650 -31.0239 -30.9760 -30.9293 -30.8126
   -29.8410 -29.8019 -29.7731 -29.6664 -15.0096 -14.9615 -14.8989 -14.7907
   -14.6842 -14.5405 -14.4004 -14.2555 -14.1279 -14.1213 -14.1014 -14.0481
   -13.9866 -13.9554 -13.9108 -13.9016 -13.8858 -13.8326 -13.8192 -13.7204
   -13.5479 -13.5354 -13.4889 -13.4807 -13.4293 -13.3582 -13.3274 -13.2610
   -13.2376 -13.2360 -13.0579 -13.0473 -13.0353 -13.0113 -13.0018 -12.9970
   -12.9392 -12.9188 -12.8716 -12.8558 -12.8162 -12.7585 -12.7289 -12.7079
   -12.6332 -12.6240 -12.5341 -12.4811 -12.3350 -12.3203 -12.2139 -12.1790
   -11.7733 -11.7523 -11.7451 -11.7308 -11.7128 -11.6713 -11.6081 -11.5904
   -11.5576 -11.5136 -11.5042 -11.4882  -2.5769  -2.5379  -2.3737  -2.3345
    -2.0222  -1.9477  -1.7977  -1.6801  -1.6410  -1.5968  -1.5478  -1.5218
    -1.3996  -1.3546  -1.3409  -1.2578  -1.2217  -1.2095  -1.1748  -1.1184
    -1.0500  -1.0193  -0.9927  -0.8969  -0.8492  -0.8013  -0.7676  -0.7463
    -0.7179  -0.6680  -0.6437  -0.6055  -0.5128  -0.4355  -0.3756  -0.3108
    -0.1467  -0.1115  -0.0497  -0.0268   0.0428   0.0570   0.1931   0.2248
     0.2643   0.4467   0.5452   0.5918   0.6633   0.7365   0.8609   0.8727
     1.0109   1.0351   1.0873   1.1100   1.1522   1.1665   1.2100   1.2351
     1.3007   1.3493   1.3967   1.4030   1.6984   1.7074   1.7274   1.7462
     1.8594   1.8711   1.8826   1.8971   1.9230   1.9334   1.9725   2.0012
     2.0231   2.0836   2.0916   2.1452   2.1654   2.2246   2.3262   2.4349
     2.5038   2.5221   2.5896   2.6333   2.6590   2.7271   2.7341   2.7446
     2.7715   2.8230   2.8467   2.8979   2.9338   2.9759   3.0056   3.0104
     3.0115   3.0291   3.0368   3.0494   3.0648   3.0679   3.0930   3.1039
     3.1181   3.1360   3.1410   3.2713   3.2940   4.0624   4.1239   4.1900
     4.3839   4.7975   4.8690   5.0321   5.0649   5.4907   5.5267   5.5886
     5.6634   5.9637   6.0401   6.0757   6.6439   6.8096   7.0104   7.2917
     7.3034   7.3255   7.4100   7.4774   7.5427   7.7842   7.8515   7.8963
     8.1021   8.2544   8.3847   8.5323   8.6332   8.7123   8.7684   8.8285

     occupation numbers 
     1.0000   1.0000   1.0000   1.0000   1.0000   1.0000   1.0000   1.0000
     1.0000   1.0000   1.0000   1.0000   1.0000   1.0000   1.0000   1.0000
     1.0000   1.0000   1.0000   1.0000   1.0000   1.0000   1.0000   1.0000
     1.0000   1.0000   1.0000   1.0000   1.0000   1.0000   1.0000   1.0000
     1.0000   1.0000   1.0000   1.0000   1.0000   1.0000   1.0000   1.0000
     1.0000   1.0000   1.0000   1.0000   1.0000   1.0000   1.0000   1.0000
     1.0000   1.0000   1.0000   1.0000   1.0000   1.0000   1.0000   1.0000
     1.0000   1.0000   1.0000   1.0000   1.0000   1.0000   1.0000   1.0000
     1.0000   1.0000   1.0000   1.0000   1.0000   1.0000   1.0000   1.0000
     1.0000   1.0000   1.0000   1.0000   1.0000   1.0000   1.0000   1.0000
     1.0000   1.0000   1.0000   1.0000   1.0000   1.0000   1.0000   1.0000
     1.0000   1.0000   1.0000   1.0000   1.0000   1.0000   1.0000   1.0000
     1.0000   1.0000   1.0000   1.0000   1.0000   1.0000   1.0000   1.0000
     1.0000   1.0000   1.0000   1.0000   1.0000   1.0000   1.0000   1.0000
     1.0000   1.0000   1.0000   1.0000   1.0000   1.0000   1.0000   1.0000
     1.0000   1.0000   1.0000   1.0000   1.0000   1.0000   1.0000   1.0000
     1.0000   1.0000   1.0000   1.0000   1.0000   1.0000   1.0000   1.0000
     1.0000   1.0000   1.0000   1.0000   1.0000   1.0000   1.0000   1.0000
     1.0000   1.0000   1.0000   1.0000   1.0000   1.0000   1.0000   1.0000
     1.0000   1.0000   1.0000   1.0000   1.0000   0.9999   0.9999   0.9999
     0.9997   0.9997   0.9996   0.9995   0.9994   0.9994   0.9992   0.9991
     0.9987   0.9984   0.9980   0.9979   0.9924   0.9921   0.9915   0.9908
     0.9857   0.9851   0.9844   0.9835   0.9819   0.9812   0.9784   0.9761
     0.9742   0.9683   0.9674   0.9612   0.9586   0.9502   0.9327   0.9090
     0.8911   0.8860   0.8654   0.8509   0.8418   0.8162   0.8134   0.8092
     0.7981   0.7759   0.7653   0.7413   0.7237   0.7025   0.6870   0.6845
     0.6839   0.6745   0.6704   0.6636   0.6552   0.6535   0.6397   0.6336
     0.6256   0.6155   0.6127   0.5369   0.5235   0.1396   0.1203   0.1018
     0.0595   0.0149   0.0113   0.0058   0.0051   0.0007   0.0006   0.0004
     0.0003   0.0000   0.0000   0.0000   0.0000   0.0000   0.0000   0.0000
     0.0000   0.0000   0.0000   0.0000   0.0000   0.0000   0.0000   0.0000
     0.0000   0.0000   0.0000   0.0000   0.0000   0.0000   0.0000   0.0000

          k =-0.2500 0.2500 0.0000 ( 65198 PWs)   bands (ev):

   -92.6941 -92.6377 -92.5474 -92.4928 -92.4410 -92.4001 -92.3827 -92.2597
   -56.0475 -56.0241 -55.9049 -55.8947 -55.8818 -55.8815 -55.8427 -55.8168
   -55.8012 -55.7996 -55.7890 -55.7488 -55.7274 -55.6921 -55.6736 -55.6412
   -55.6239 -55.5885 -55.5855 -55.5855 -55.5770 -55.5346 -55.5131 -55.4271
   -31.2688 -31.2531 -31.1095 -31.0648 -31.0236 -30.9765 -30.9288 -30.8127
   -29.8415 -29.8006 -29.7741 -29.6664 -15.0115 -14.9757 -14.8986 -14.7807
   -14.6742 -14.5475 -14.4574 -14.2546 -14.1108 -14.0806 -14.0687 -14.0229
   -13.9975 -13.9802 -13.9699 -13.9215 -13.8324 -13.8209 -13.6662 -13.6414
   -13.6154 -13.5920 -13.5603 -13.4916 -13.4430 -13.4286 -13.3127 -13.2834
   -13.2168 -13.1397 -13.0968 -13.0341 -13.0226 -13.0016 -12.9805 -12.9450
   -12.9214 -12.9193 -12.9061 -12.8479 -12.8096 -12.7832 -12.7636 -12.7486
   -12.7210 -12.6845 -12.5300 -12.4463 -12.4352 -12.2761 -12.1462 -12.1031
   -11.7938 -11.7721 -11.7450 -11.7326 -11.6921 -11.6571 -11.6342 -11.6124
   -11.5898 -11.5058 -11.4599 -11.4506  -2.6618  -2.4524  -2.3319  -2.2442
    -2.1250  -2.0578  -1.8565  -1.7098  -1.6907  -1.6634  -1.5707  -1.5350
    -1.4425  -1.4088  -1.3828  -1.2391  -1.1840  -1.1170  -1.0883  -1.0284
    -1.0054  -0.9651  -0.9360  -0.8963  -0.8337  -0.7863  -0.7262  -0.6556
    -0.6298  -0.5777  -0.5490  -0.5041  -0.4486  -0.4086  -0.3611  -0.2652
    -0.2299  -0.2199  -0.1740  -0.1075  -0.0353   0.0075   0.0344   0.1029
     0.1357   0.3930   0.5586   0.6047   0.6409   0.6984   0.7428   0.8035
     0.8702   0.8990   1.1808   1.2940   1.3330   1.3651   1.3726   1.4150
     1.4338   1.4762   1.5076   1.5234   1.5494   1.5908   1.6045   1.6506
     1.6646   1.7115   1.7982   1.8162   1.8315   1.8720   1.8980   1.9339
     1.9912   2.0918   2.2049   2.2369   2.2803   2.3017   2.3723   2.4137
     2.4376   2.4586   2.4838   2.5836   2.6186   2.7085   2.8266   2.8895
     2.9018   2.9125   2.9234   2.9325   2.9472   2.9531   2.9714   2.9848
     2.9955   3.0038   3.0161   3.0259   3.0319   3.0642   3.0771   3.0846
     3.1182   3.4110   3.4943   3.5560   3.6369   3.6856   3.8419   3.9697
     4.3051   4.5386   4.7220   4.9904   5.1748   5.6508   5.6800   5.7520
     5.8409   5.9027   6.0012   6.1747   6.2255   6.7208   6.9028   7.0437
     7.1119   7.5741   7.6169   7.6701   7.6851   7.8844   7.9181   8.1171
     8.1378   8.2376   8.3017   8.3401   8.4300   8.4562   8.4975   8.8691

     occupation numbers 
     1.0000   1.0000   1.0000   1.0000   1.0000   1.0000   1.0000   1.0000
     1.0000   1.0000   1.0000   1.0000   1.0000   1.0000   1.0000   1.0000
     1.0000   1.0000   1.0000   1.0000   1.0000   1.0000   1.0000   1.0000
     1.0000   1.0000   1.0000   1.0000   1.0000   1.0000   1.0000   1.0000
     1.0000   1.0000   1.0000   1.0000   1.0000   1.0000   1.0000   1.0000
     1.0000   1.0000   1.0000   1.0000   1.0000   1.0000   1.0000   1.0000
     1.0000   1.0000   1.0000   1.0000   1.0000   1.0000   1.0000   1.0000
     1.0000   1.0000   1.0000   1.0000   1.0000   1.0000   1.0000   1.0000
     1.0000   1.0000   1.0000   1.0000   1.0000   1.0000   1.0000   1.0000
     1.0000   1.0000   1.0000   1.0000   1.0000   1.0000   1.0000   1.0000
     1.0000   1.0000   1.0000   1.0000   1.0000   1.0000   1.0000   1.0000
     1.0000   1.0000   1.0000   1.0000   1.0000   1.0000   1.0000   1.0000
     1.0000   1.0000   1.0000   1.0000   1.0000   1.0000   1.0000   1.0000
     1.0000   1.0000   1.0000   1.0000   1.0000   1.0000   1.0000   1.0000
     1.0000   1.0000   1.0000   1.0000   1.0000   1.0000   1.0000   1.0000
     1.0000   1.0000   1.0000   1.0000   1.0000   1.0000   1.0000   1.0000
     1.0000   1.0000   1.0000   1.0000   1.0000   1.0000   1.0000   1.0000
     1.0000   1.0000   1.0000   1.0000   1.0000   1.0000   1.0000   1.0000
     1.0000   1.0000   1.0000   1.0000   1.0000   1.0000   1.0000   1.0000
     1.0000   1.0000   1.0000   1.0000   1.0000   1.0000   0.9999   0.9999
     0.9999   0.9999   0.9993   0.9988   0.9985   0.9983   0.9982   0.9978
     0.9976   0.9971   0.9967   0.9964   0.9960   0.9952   0.9949   0.9938
     0.9934   0.9920   0.9887   0.9879   0.9872   0.9850   0.9835   0.9812
     0.9769   0.9674   0.9532   0.9483   0.9411   0.9373   0.9233   0.9141
     0.9084   0.9031   0.8965   0.8674   0.8559   0.8234   0.7743   0.7453
     0.7394   0.7342   0.7289   0.7244   0.7170   0.7141   0.7048   0.6978
     0.6923   0.6880   0.6814   0.6762   0.6730   0.6555   0.6484   0.6443
     0.6256   0.4543   0.4058   0.3707   0.3263   0.3007   0.2253   0.1725
     0.0746   0.0368   0.0196   0.0069   0.0031   0.0003   0.0002   0.0002
     0.0001   0.0001   0.0000   0.0000   0.0000   0.0000   0.0000   0.0000
     0.0000   0.0000   0.0000   0.0000   0.0000   0.0000   0.0000   0.0000
     0.0000   0.0000   0.0000   0.0000   0.0000   0.0000   0.0000   0.0000

          k =-0.5000 0.2500 0.0000 ( 65138 PWs)   bands (ev):

   -92.6941 -92.6377 -92.5474 -92.4928 -92.4409 -92.4001 -92.3827 -92.2597
   -56.0475 -56.0241 -55.9049 -55.8947 -55.8818 -55.8815 -55.8427 -55.8168
   -55.8012 -55.7996 -55.7890 -55.7488 -55.7274 -55.6921 -55.6736 -55.6412
   -55.6239 -55.5885 -55.5855 -55.5855 -55.5770 -55.5346 -55.5131 -55.4271
   -31.2666 -31.2553 -31.1091 -31.0646 -31.0240 -30.9763 -30.9290 -30.8129
   -29.8404 -29.8016 -29.7737 -29.6668 -14.9774 -14.9346 -14.8560 -14.7567
   -14.7131 -14.5872 -14.5037 -14.3726 -14.0617 -14.0314 -14.0196 -13.9754
   -13.9557 -13.9275 -13.8962 -13.8870 -13.8643 -13.8229 -13.8119 -13.7103
   -13.6309 -13.5941 -13.5811 -13.5702 -13.4834 -13.4623 -13.3665 -13.3112
   -13.1936 -13.1573 -13.0612 -13.0230 -13.0108 -13.0080 -12.9798 -12.9483
   -12.9420 -12.9334 -12.9013 -12.8300 -12.8144 -12.7830 -12.7448 -12.7342
   -12.6152 -12.6077 -12.5323 -12.4507 -12.3158 -12.2997 -12.2086 -12.1828
   -11.7662 -11.7537 -11.7395 -11.7275 -11.7065 -11.6761 -11.5952 -11.5868
   -11.5632 -11.5280 -11.4998 -11.4906  -2.4348  -2.3924  -2.2435  -2.2013
    -2.0412  -1.9665  -1.8221  -1.6863  -1.6305  -1.6031  -1.5637  -1.5244
    -1.4445  -1.3292  -1.2723  -1.2488  -1.2243  -1.1498  -1.1182  -1.0814
    -1.0624  -1.0022  -0.9743  -0.9340  -0.8987  -0.8700  -0.8127  -0.7857
    -0.7436  -0.7098  -0.6065  -0.5787  -0.4961  -0.4283  -0.3994  -0.3446
    -0.2559  -0.2226  -0.1236  -0.0844  -0.0285   0.0229   0.0403   0.1231
     0.1489   0.1800   0.2372   0.2749   0.5790   0.6410   0.7054   0.7205
     1.0190   1.0694   1.1487   1.1713   1.3519   1.3900   1.4263   1.4399
     1.4583   1.4759   1.5449   1.5872   1.6285   1.6528   1.7794   1.8103
     1.8440   1.8555   1.8968   1.9181   1.9324   1.9472   1.9698   1.9914
     2.0382   2.0571   2.0876   2.1112   2.1406   2.2025   2.3192   2.4264
     2.4485   2.5215   2.5599   2.6057   2.6578   2.6638   2.6997   2.7338
     2.7561   2.8319   2.8484   2.8919   2.9019   2.9104   2.9280   2.9503
     2.9617   2.9748   2.9903   3.0089   3.0215   3.0317   3.0405   3.0488
     3.0605   3.5861   3.6621   3.7795   3.8098   4.0710   4.1513   4.2017
     4.4465   4.7920   4.8861   5.0337   5.0915   5.4057   5.4387   5.5966
     5.6245   5.7595   5.7773   6.1202   6.3970   6.5002   6.5442   7.0073
     7.4324   7.5306   7.6241   7.7257   7.8039   7.8976   8.0314   8.1631
     8.2891   8.3748   8.4434   8.5202   8.5431   8.5968   8.6713   8.7531

     occupation numbers 
     1.0000   1.0000   1.0000   1.0000   1.0000   1.0000   1.0000   1.0000
     1.0000   1.0000   1.0000   1.0000   1.0000   1.0000   1.0000   1.0000
     1.0000   1.0000   1.0000   1.0000   1.0000   1.0000   1.0000   1.0000
     1.0000   1.0000   1.0000   1.0000   1.0000   1.0000   1.0000   1.0000
     1.0000   1.0000   1.0000   1.0000   1.0000   1.0000   1.0000   1.0000
     1.0000   1.0000   1.0000   1.0000   1.0000   1.0000   1.0000   1.0000
     1.0000   1.0000   1.0000   1.0000   1.0000   1.0000   1.0000   1.0000
     1.0000   1.0000   1.0000   1.0000   1.0000   1.0000   1.0000   1.0000
     1.0000   1.0000   1.0000   1.0000   1.0000   1.0000   1.0000   1.0000
     1.0000   1.0000   1.0000   1.0000   1.0000   1.0000   1.0000   1.0000
     1.0000   1.0000   1.0000   1.0000   1.0000   1.0000   1.0000   1.0000
     1.0000   1.0000   1.0000   1.0000   1.0000   1.0000   1.0000   1.0000
     1.0000   1.0000   1.0000   1.0000   1.0000   1.0000   1.0000   1.0000
     1.0000   1.0000   1.0000   1.0000   1.0000   1.0000   1.0000   1.0000
     1.0000   1.0000   1.0000   1.0000   1.0000   1.0000   1.0000   1.0000
     1.0000   1.0000   1.0000   1.0000   1.0000   1.0000   1.0000   1.0000
     1.0000   1.0000   1.0000   1.0000   1.0000   1.0000   1.0000   1.0000
     1.0000   1.0000   1.0000   1.0000   1.0000   1.0000   1.0000   1.0000
     1.0000   1.0000   1.0000   1.0000   1.0000   1.0000   1.0000   1.0000
     1.0000   1.0000   1.0000   1.0000   1.0000   1.0000   1.0000   0.9999
     0.9997   0.9996   0.9994   0.9993   0.9984   0.9981   0.9977   0.9975
     0.9973   0.9971   0.9960   0.9953   0.9943   0.9937   0.9895   0.9882
     0.9865   0.9859   0.9836   0.9822   0.9813   0.9803   0.9786   0.9769
     0.9728   0.9710   0.9679   0.9653   0.9618   0.9535   0.9340   0.9111
     0.9057   0.8861   0.8748   0.8602   0.8422   0.8401   0.8268   0.8135
     0.8045   0.7720   0.7645   0.7441   0.7393   0.7352   0.7266   0.7154
     0.7097   0.7030   0.6950   0.6852   0.6786   0.6731   0.6684   0.6639
     0.6576   0.3540   0.3129   0.2540   0.2398   0.1368   0.1124   0.0987
     0.0492   0.0152   0.0106   0.0058   0.0045   0.0010   0.0009   0.0004
     0.0003   0.0002   0.0001   0.0000   0.0000   0.0000   0.0000   0.0000
     0.0000   0.0000   0.0000   0.0000   0.0000   0.0000   0.0000   0.0000
     0.0000   0.0000   0.0000   0.0000   0.0000   0.0000   0.0000   0.0000

     the Fermi energy is     3.3338 ev

!    total energy              =   -4399.90955581 Ry
     estimated scf accuracy    <          9.2E-09 Ry
     smearing contrib. (-TS)   =      -1.14441957 Ry
     internal energy E=F+TS    =   -4398.76513624 Ry

     The total energy is F=E-TS. E is the sum of the following terms:
     one-electron contribution =  -21253.55595007 Ry
     hartree contribution      =   10754.95928866 Ry
     xc contribution           =    -686.72787420 Ry
     ewald contribution        =    7053.20481362 Ry
     one-center paw contrib.   =    -266.64541425 Ry
      -> PAW hartree energy AE =      25.17340102 Ry
      -> PAW hartree energy PS =     -25.05719911 Ry
      -> PAW xc energy AE      =     -16.51895369 Ry
      -> PAW xc energy PS      =       6.87849987 Ry
      -> total E_H with PAW    =   10755.07549057 Ry
      -> total E_XC with PAW   =    -696.36832802 Ry

     convergence has been achieved in  47 iterations

     Writing all to output data dir /bsuhome/zayahcortright/scratch/pwscf.save/
 
     init_run     :      7.23s CPU      7.89s WALL (       1 calls)
     electrons    :    684.06s CPU    695.96s WALL (       1 calls)

     Called by init_run:
     wfcinit      :      5.88s CPU      6.01s WALL (       1 calls)
     wfcinit:atom :      0.05s CPU      0.06s WALL (       5 calls)
     wfcinit:wfcr :      5.54s CPU      5.61s WALL (       5 calls)
     potinit      :      0.16s CPU      0.19s WALL (       1 calls)
     hinit0       :      0.30s CPU      0.74s WALL (       1 calls)

     Called by electrons:
     c_bands      :    542.78s CPU    547.44s WALL (      47 calls)
     sum_band     :    106.23s CPU    110.38s WALL (      47 calls)
     v_of_rho     :      5.16s CPU      5.45s WALL (      48 calls)
     v_h          :      0.45s CPU      0.45s WALL (      48 calls)
     v_xc         :      4.71s CPU      4.99s WALL (      48 calls)
     newd         :     16.07s CPU     18.47s WALL (      48 calls)
     PAW_pot      :      1.50s CPU      1.53s WALL (      48 calls)
     mix_rho      :     12.03s CPU     12.29s WALL (      47 calls)

     Called by c_bands:
     init_us_2    :      6.48s CPU      6.52s WALL (     475 calls)
     init_us_2:cp :      6.47s CPU      6.52s WALL (     475 calls)
     cegterg      :    516.05s CPU    520.53s WALL (     235 calls)

     Called by sum_band:
     sum_band:wei :      0.32s CPU      0.32s WALL (      47 calls)
     sum_band:loo :     87.46s CPU     88.10s WALL (      47 calls)
     sum_band:buf :      1.49s CPU      1.50s WALL (     235 calls)
     sum_band:ini :      2.95s CPU      2.96s WALL (     235 calls)
     sum_band:cal :     17.68s CPU     17.73s WALL (     235 calls)
     sum_band:bec :      0.55s CPU      0.55s WALL (     235 calls)
     addusdens    :     17.49s CPU     20.97s WALL (      47 calls)
                                        0.00s GPU  (      47 calls)
     addusd:skk   :      0.34s CPU      0.64s WALL (     188 calls)
                                        0.00s GPU  (     188 calls)

     Called by *egterg:
     cdiaghg      :     59.08s CPU     59.31s WALL (    1371 calls)
     cegterg:over :     36.99s CPU     37.15s WALL (    1136 calls)
     cegterg:upda :     27.75s CPU     28.10s WALL (    1136 calls)
     cegterg:last :     56.67s CPU     56.87s WALL (     437 calls)
     cdiaghg:chol :      3.28s CPU      3.30s WALL (    1371 calls)
     cdiaghg:inve :      3.42s CPU      3.43s WALL (    1371 calls)
     cdiaghg:para :      7.37s CPU      7.41s WALL (    2742 calls)
     h_psi        :    283.47s CPU    286.03s WALL (    1376 calls)
     s_psi        :     37.70s CPU     37.80s WALL (    1376 calls)
     g_psi        :      1.08s CPU      1.09s WALL (    1136 calls)

     Called by h_psi:
     h_psi:calbec :     41.47s CPU     41.60s WALL (    1376 calls)
     vloc_psi     :    201.40s CPU    203.34s WALL (    1376 calls)
     add_vuspsi   :     37.61s CPU     37.74s WALL (    1376 calls)

     General routines
     calbec       :     59.14s CPU     59.33s WALL (    1611 calls)
     fft          :      3.50s CPU      3.55s WALL (     622 calls)
     ffts         :      4.34s CPU      4.37s WALL (    4915 calls)
     fftw         :    170.04s CPU    171.39s WALL (  315298 calls)
     interpolate  :      0.39s CPU      0.40s WALL (      48 calls)
 
     Parallel routines

     PAW routines
     PAW_pot      :      1.50s CPU      1.53s WALL (      48 calls)
 
     PWSCF        :  11m32.98s CPU  11m48.16s WALL

 
   This run was terminated on:  18:37:21  21Jun2024            

=------------------------------------------------------------------------------=
   JOB DONE.
=------------------------------------------------------------------------------=
