
     Program PWSCF v.7.2 starts on 22Jun2024 at  4:59:11 

     This program is part of the open-source Quantum ESPRESSO suite
     for quantum simulation of materials; please cite
         "P. Giannozzi et al., J. Phys.:Condens. Matter 21 395502 (2009);
         "P. Giannozzi et al., J. Phys.:Condens. Matter 29 465901 (2017);
         "P. Giannozzi et al., J. Chem. Phys. 152 154105 (2020);
          URL http://www.quantum-espresso.org", 
     in publications or presentations arising from this work. More details at
     http://www.quantum-espresso.org/quote

     Parallel version (MPI & OpenMP), running on      48 processor cores
     Number of MPI processes:                48
     Threads/MPI process:                     1

     MPI processes distributed on     1 nodes
     33236 MiB available memory on the printing compute node when the environment starts
 
     Reading input from espresso.pwi
Warning: card &CELL ignored
Warning: card / ignored
Warning: card &FCP ignored
Warning: card / ignored
Warning: card &RISM ignored
Warning: card / ignored

     Current dimensions of program PWSCF are:
     Max number of different atomic species (ntypx) = 10
     Max number of k-points (npk) =  40000
     Max angular momentum in pseudopotentials (lmaxx) =  4
     file O.pbe-n-kjpaw_psl.0.1.UPF: wavefunction(s)  2P renormalized
     signal trapping enabled: kill the code with -SIGUSR1 to stop cleanly the simulation 
 
     K-points division:     npool     =       2
     R & G space division:  proc/nbgrp/npool/nimage =      24
     Subspace diagonalization in iterative solution of the eigenvalue problem:
     one sub-group per band group will be used
     scalapack distributed-memory algorithm (size of sub-group:  3*  3 procs)

 
     Parallelization info
     --------------------
     sticks:   dense  smooth     PW     G-vecs:    dense   smooth      PW
     Min         350     175     47                61430    21716    3036
     Max         351     177     48                61449    21727    3041
     Sum        8421    4205   1137              1474595   521381   72913
 
     Using Slab Decomposition
 


     bravais-lattice index     =            0
     lattice parameter (alat)  =      14.8599  a.u.
     unit-cell volume          =    8305.1283 (a.u.)^3
     number of atoms/cell      =           50
     number of atomic types    =            4
     number of electrons       =       431.00
     number of Kohn-Sham states=          259
     kinetic-energy cutoff     =      60.0000  Ry
     charge density cutoff     =     480.0000  Ry
     scf convergence threshold =      1.0E-08
     mixing beta               =       0.1500
     number of iterations used =            8  local-TF  mixing
     Exchange-correlation= PBE
                           (   1   4   3   4   0   0   0)

     celldm(1)=  14.859904  celldm(2)=   0.000000  celldm(3)=   0.000000
     celldm(4)=   0.000000  celldm(5)=   0.000000  celldm(6)=   0.000000

     crystal axes: (cart. coord. in units of alat)
               a(1) = (   1.000000   0.000000   0.000000 )  
               a(2) = (   0.000000   1.000000   0.000000 )  
               a(3) = (   0.000000   0.000000   2.531036 )  

     reciprocal axes: (cart. coord. in units 2 pi/alat)
               b(1) = (  1.000000  0.000000  0.000000 )  
               b(2) = (  0.000000  1.000000  0.000000 )  
               b(3) = (  0.000000  0.000000  0.395095 )  


     PseudoPot. # 1 for Sr read from file:
     /bsuhome/zayahcortright/q-e/pseudo/Sr_pbe_v1.uspp.F.UPF
     MD5 check sum: 6b418c05fbe9db5448babca5e47b7a5b
     Pseudo is Ultrasoft + core correction, Zval = 10.0
     Generated by new atomic code, or converted to UPF format
     Using radial grid of  883 points,  6 beta functions with: 
                l(1) =   0
                l(2) =   0
                l(3) =   1
                l(4) =   1
                l(5) =   2
                l(6) =   2
     Q(r) pseudized with  6 coefficients,  rinner =    1.400   1.400   1.400
                                                       1.400   1.400

     PseudoPot. # 2 for O  read from file:
     /bsuhome/zayahcortright/q-e/pseudo/O.pbe-n-kjpaw_psl.0.1.UPF
     MD5 check sum: 0234752ac141de4415c5fc33072bef88
     Pseudo is Projector augmented-wave + core cor, Zval =  6.0
     Generated using "atomic" code by A. Dal Corso  v.5.0.99 svn rev. 10869
     Shape of augmentation charge: BESSEL
     Using radial grid of 1095 points,  4 beta functions with: 
                l(1) =   0
                l(2) =   0
                l(3) =   1
                l(4) =   1
     Q(r) pseudized with 0 coefficients 


     PseudoPot. # 3 for Co read from file:
     /bsuhome/zayahcortright/q-e/pseudo/Co_pbe_v1.2.uspp.F.UPF
     MD5 check sum: 5f91765df6ddd3222702df6e7b74a16d
     Pseudo is Ultrasoft + core correction, Zval = 17.0
     Generated by new atomic code, or converted to UPF format
     Using radial grid of  863 points,  6 beta functions with: 
                l(1) =   0
                l(2) =   0
                l(3) =   1
                l(4) =   1
                l(5) =   2
                l(6) =   2
     Q(r) pseudized with  8 coefficients,  rinner =    1.200   1.200   1.200
                                                       1.200   1.200

     PseudoPot. # 4 for H  read from file:
     /bsuhome/zayahcortright/q-e/pseudo/H.pbe-rrkjus_psl.1.0.0.UPF
     MD5 check sum: f52b6d4d1c606e5624b1dc7b2218f220
     Pseudo is Ultrasoft, Zval =  1.0
     Generated using "atomic" code by A. Dal Corso  v.5.1
     Using radial grid of  929 points,  2 beta functions with: 
                l(1) =   0
                l(2) =   0
     Q(r) pseudized with 0 coefficients 


     atomic species   valence    mass     pseudopotential
        Sr            10.00    87.62000     Sr( 1.00)
        O              6.00    15.99900     O ( 1.00)
        Co            17.00    58.93319     Co( 1.00)
        H              1.00     1.00800     H ( 1.00)

     No symmetry found


                                    s                        frac. trans.

      isym =  1     identity                                     

 cryst.   s( 1) = (     1          0          0      )
                  (     0          1          0      )
                  (     0          0          1      )

 cart.    s( 1) = (  1.0000000  0.0000000  0.0000000 )
                  (  0.0000000  1.0000000  0.0000000 )
                  (  0.0000000  0.0000000  1.0000000 )


   Cartesian axes

     site n.     atom                  positions (alat units)
         1           Sr  tau(   1) = (   0.2508693   0.7491307   1.7574407  )
         2           O   tau(   2) = (   0.4985141   0.5014859   1.7715967  )
         3           Sr  tau(   3) = (   0.7482398   0.7454518   1.7648669  )
         4           Sr  tau(   4) = (   0.7441748   0.2558252   1.7667843  )
         5           Sr  tau(   5) = (   0.2508693   0.7491307   1.2696799  )
         6           Sr  tau(   6) = (   0.2508693   0.7491307   0.7632319  )
         7           Co  tau(   7) = (   0.4998914   0.5001086   1.0164559  )
         8           Co  tau(   8) = (   0.4936915   0.5063085   1.5135603  )
         9           O   tau(   9) = (   0.4988895   0.7610401   1.0164559  )
        10           O   tau(  10) = (   0.2389599   0.5011105   1.0164559  )
        11           O   tau(  11) = (   0.0070918   0.7374880   1.0164559  )
        12           O   tau(  12) = (   0.0088340   0.7405089   1.5135603  )
        13           O   tau(  13) = (   0.5066944   0.7415376   1.5135603  )
        14           O   tau(  14) = (   0.2584624   0.4933056   1.5135603  )
        15           O   tau(  15) = (   0.4985141   0.5014859   0.7773880  )
        16           O   tau(  16) = (   0.4985141   0.5014859   1.2555238  )
        17           Sr  tau(  17) = (   0.7482398   0.7454518   0.7706582  )
        18           Sr  tau(  18) = (   0.7482398   0.7454518   1.2622536  )
        19           Sr  tau(  19) = (   0.7441748   0.2558252   0.7725755  )
        20           Sr  tau(  20) = (   0.7441748   0.2558252   1.2603363  )
        21           O   tau(  21) = (   0.7322655   0.0078049   1.5135603  )
        22           O   tau(  22) = (   0.7558175   0.4996027   1.5135603  )
        23           O   tau(  23) = (   0.5003973   0.2441825   1.5135603  )
        24           O   tau(  24) = (   0.7527966   0.4978604   1.0164559  )
        25           O   tau(  25) = (   0.5021396   0.2472034   1.0164559  )
        26           O   tau(  26) = (   0.7517679   0.0000000   1.0164559  )
        27           O   tau(  27) = (   0.0114961   0.4948124   1.7455321  )
        28           O   tau(  28) = (   0.0048226   0.0077944   1.7715967  )
        29           Sr  tau(  29) = (   0.2545482   0.2517602   1.7648669  )
        30           O   tau(  30) = (   0.5048017   0.0015068   1.7786929  )
        31           Co  tau(  31) = (   0.0056869   0.5006215   1.0164559  )
        32           Co  tau(  32) = (   0.0065315   0.4997770   1.5135603  )
        33           Co  tau(  33) = (   0.0061999   0.0064171   1.0164559  )
        34           Co  tau(  34) = (   0.0000000   0.0126169   1.5135603  )
        35           O   tau(  35) = (   0.0114961   0.4948124   1.2815885  )
        36           O   tau(  36) = (   0.0114961   0.4948124   0.7513233  )
        37           O   tau(  37) = (   0.0051979   0.2673486   1.0164559  )
        38           O   tau(  38) = (   0.0130029   0.2478461   1.5135603  )
        39           O   tau(  39) = (   0.0048226   0.0077944   0.7773880  )
        40           O   tau(  40) = (   0.0048226   0.0077944   1.2555238  )
        41           Sr  tau(  41) = (   0.2545482   0.2517602   0.7706582  )
        42           Sr  tau(  42) = (   0.2545482   0.2517602   1.2622536  )
        43           Co  tau(  43) = (   0.4989925   0.0073160   1.5135603  )
        44           Co  tau(  44) = (   0.4998370   0.0064714   1.0164559  )
        45           O   tau(  45) = (   0.5048017   0.0015068   0.7844841  )
        46           O   tau(  46) = (   0.5048017   0.0015068   1.2484277  )
        47           O   tau(  47) = (   0.2621260   0.0059111   1.5135603  )
        48           O   tau(  48) = (   0.2591051   0.0041689   1.0164559  )
        49           O   tau(  49) = (   0.9951520   0.7108228   2.1602013  )
        50           H   tau(  50) = (   0.9951520   0.7108228   2.2847091  )

   Crystallographic axes

     site n.     atom                  positions (cryst. coord.)
         1           Sr  tau(   1) = (  0.2508693  0.7491307  0.6943562  )
         2           O   tau(   2) = (  0.4985141  0.5014859  0.6999492  )
         3           Sr  tau(   3) = (  0.7482398  0.7454518  0.6972903  )
         4           Sr  tau(   4) = (  0.7441748  0.2558252  0.6980478  )
         5           Sr  tau(   5) = (  0.2508693  0.7491307  0.5016443  )
         6           Sr  tau(   6) = (  0.2508693  0.7491307  0.3015492  )
         7           Co  tau(   7) = (  0.4998914  0.5001086  0.4015968  )
         8           Co  tau(   8) = (  0.4936915  0.5063085  0.5980003  )
         9           O   tau(   9) = (  0.4988895  0.7610401  0.4015968  )
        10           O   tau(  10) = (  0.2389599  0.5011105  0.4015968  )
        11           O   tau(  11) = (  0.0070918  0.7374880  0.4015968  )
        12           O   tau(  12) = (  0.0088340  0.7405089  0.5980003  )
        13           O   tau(  13) = (  0.5066944  0.7415376  0.5980003  )
        14           O   tau(  14) = (  0.2584624  0.4933056  0.5980003  )
        15           O   tau(  15) = (  0.4985141  0.5014859  0.3071422  )
        16           O   tau(  16) = (  0.4985141  0.5014859  0.4960513  )
        17           Sr  tau(  17) = (  0.7482398  0.7454518  0.3044833  )
        18           Sr  tau(  18) = (  0.7482398  0.7454518  0.4987103  )
        19           Sr  tau(  19) = (  0.7441748  0.2558252  0.3052408  )
        20           Sr  tau(  20) = (  0.7441748  0.2558252  0.4979527  )
        21           O   tau(  21) = (  0.7322655  0.0078049  0.5980003  )
        22           O   tau(  22) = (  0.7558175  0.4996027  0.5980003  )
        23           O   tau(  23) = (  0.5003973  0.2441825  0.5980003  )
        24           O   tau(  24) = (  0.7527966  0.4978604  0.4015968  )
        25           O   tau(  25) = (  0.5021396  0.2472034  0.4015968  )
        26           O   tau(  26) = (  0.7517679  0.0000000  0.4015968  )
        27           O   tau(  27) = (  0.0114961  0.4948124  0.6896512  )
        28           O   tau(  28) = (  0.0048226  0.0077944  0.6999492  )
        29           Sr  tau(  29) = (  0.2545482  0.2517602  0.6972903  )
        30           O   tau(  30) = (  0.5048017  0.0015068  0.7027529  )
        31           Co  tau(  31) = (  0.0056869  0.5006215  0.4015968  )
        32           Co  tau(  32) = (  0.0065315  0.4997770  0.5980003  )
        33           Co  tau(  33) = (  0.0061999  0.0064171  0.4015968  )
        34           Co  tau(  34) = (  0.0000000  0.0126169  0.5980003  )
        35           O   tau(  35) = (  0.0114961  0.4948124  0.5063494  )
        36           O   tau(  36) = (  0.0114961  0.4948124  0.2968442  )
        37           O   tau(  37) = (  0.0051979  0.2673486  0.4015968  )
        38           O   tau(  38) = (  0.0130029  0.2478461  0.5980003  )
        39           O   tau(  39) = (  0.0048226  0.0077944  0.3071422  )
        40           O   tau(  40) = (  0.0048226  0.0077944  0.4960513  )
        41           Sr  tau(  41) = (  0.2545482  0.2517602  0.3044833  )
        42           Sr  tau(  42) = (  0.2545482  0.2517602  0.4987103  )
        43           Co  tau(  43) = (  0.4989925  0.0073160  0.5980003  )
        44           Co  tau(  44) = (  0.4998370  0.0064714  0.4015968  )
        45           O   tau(  45) = (  0.5048017  0.0015068  0.3099459  )
        46           O   tau(  46) = (  0.5048017  0.0015068  0.4932477  )
        47           O   tau(  47) = (  0.2621260  0.0059111  0.5980003  )
        48           O   tau(  48) = (  0.2591051  0.0041689  0.4015968  )
        49           O   tau(  49) = (  0.9951520  0.7108228  0.8534850  )
        50           H   tau(  50) = (  0.9951520  0.7108228  0.9026774  )

     number of k points=    10  Gaussian smearing, width (Ry)=  0.0700
                       cart. coord. in units 2pi/alat
        k(    1) = (   0.0000000   0.0000000   0.0000000), wk =   0.1250000
        k(    2) = (   0.0000000   0.2500000   0.0000000), wk =   0.2500000
        k(    3) = (   0.0000000  -0.5000000   0.0000000), wk =   0.1250000
        k(    4) = (   0.2500000   0.2500000   0.0000000), wk =   0.2500000
        k(    5) = (   0.2500000  -0.5000000   0.0000000), wk =   0.2500000
        k(    6) = (  -0.5000000  -0.5000000   0.0000000), wk =   0.1250000
        k(    7) = (   0.2500000   0.0000000   0.0000000), wk =   0.2500000
        k(    8) = (  -0.5000000   0.0000000   0.0000000), wk =   0.1250000
        k(    9) = (  -0.2500000   0.2500000   0.0000000), wk =   0.2500000
        k(   10) = (  -0.5000000   0.2500000   0.0000000), wk =   0.2500000

                       cryst. coord.
        k(    1) = (   0.0000000   0.0000000   0.0000000), wk =   0.1250000
        k(    2) = (   0.0000000   0.2500000   0.0000000), wk =   0.2500000
        k(    3) = (   0.0000000  -0.5000000   0.0000000), wk =   0.1250000
        k(    4) = (   0.2500000   0.2500000   0.0000000), wk =   0.2500000
        k(    5) = (   0.2500000  -0.5000000   0.0000000), wk =   0.2500000
        k(    6) = (  -0.5000000  -0.5000000   0.0000000), wk =   0.1250000
        k(    7) = (   0.2500000   0.0000000   0.0000000), wk =   0.2500000
        k(    8) = (  -0.5000000   0.0000000   0.0000000), wk =   0.1250000
        k(    9) = (  -0.2500000   0.2500000   0.0000000), wk =   0.2500000
        k(   10) = (  -0.5000000   0.2500000   0.0000000), wk =   0.2500000

     Dense  grid:  1474595 G-vectors     FFT dimensions: ( 108, 108, 270)

     Smooth grid:   521381 G-vectors     FFT dimensions: (  75,  75, 192)

     Dynamical RAM for                 wfc:      10.73 MB

     Dynamical RAM for     wfc (w. buffer):      64.38 MB

     Dynamical RAM for           str. fact:       3.75 MB

     Dynamical RAM for           local pot:       0.00 MB

     Dynamical RAM for          nlocal pot:      24.61 MB

     Dynamical RAM for                qrad:       7.03 MB

     Dynamical RAM for          rho,v,vnew:       6.02 MB

     Dynamical RAM for               rhoin:       2.01 MB

     Dynamical RAM for            rho*nmix:      15.00 MB

     Dynamical RAM for           G-vectors:       3.68 MB

     Dynamical RAM for          h,s,v(r/c):       1.35 MB

     Dynamical RAM for          <psi|beta>:       2.35 MB

     Dynamical RAM for                 psi:      21.46 MB

     Dynamical RAM for                hpsi:      21.46 MB

     Dynamical RAM for                spsi:      21.46 MB

     Dynamical RAM for      wfcinit/wfcrot:      34.49 MB

     Dynamical RAM for           addusdens:     101.26 MB

     Estimated static dynamical RAM per process >     121.50 MB

     Estimated max dynamical RAM per process >     237.76 MB

     Estimated total dynamical RAM >      10.79 GB

     Check: negative core charge=   -0.000004

     Initial potential from superposition of free atoms

     starting charge     422.5961, renormalised to     431.0000

     negative rho (up, down):  7.820E-01 0.000E+00
     Starting wfcs are  377 randomized atomic wfcs
     Checking if some PAW data can be deallocated... 
       PAW data deallocated on   19 nodes for type:  2

     total cpu time spent up to now is        9.1 secs

     Self-consistent Calculation

     iteration #  1     ecut=    60.00 Ry     beta= 0.15
     Davidson diagonalization with overlap

---- Real-time Memory Report at c_bands before calling an iterative solver
             0 MiB given to the printing process from OS
             0 MiB allocation reported by mallinfo(arena+hblkhd)
         23972 MiB available memory on the node where the printing process lives
------------------
     ethr =  1.00E-02,  avg # of iterations =  2.0

     negative rho (up, down):  7.718E-01 0.000E+00

     total cpu time spent up to now is       25.3 secs

     total energy              =   -4446.67000920 Ry
     estimated scf accuracy    <      44.74164314 Ry

     iteration #  2     ecut=    60.00 Ry     beta= 0.15
     Davidson diagonalization with overlap

---- Real-time Memory Report at c_bands before calling an iterative solver
             0 MiB given to the printing process from OS
             0 MiB allocation reported by mallinfo(arena+hblkhd)
         24256 MiB available memory on the node where the printing process lives
------------------
     ethr =  1.00E-02,  avg # of iterations =  1.0

     negative rho (up, down):  7.585E-01 0.000E+00

     total cpu time spent up to now is       39.6 secs

     total energy              =   -4443.32901763 Ry
     estimated scf accuracy    <      29.90187213 Ry

     iteration #  3     ecut=    60.00 Ry     beta= 0.15
     Davidson diagonalization with overlap

---- Real-time Memory Report at c_bands before calling an iterative solver
             0 MiB given to the printing process from OS
             0 MiB allocation reported by mallinfo(arena+hblkhd)
         23412 MiB available memory on the node where the printing process lives
------------------
     ethr =  6.94E-03,  avg # of iterations =  1.0

     negative rho (up, down):  7.555E-01 0.000E+00

     total cpu time spent up to now is       54.8 secs

     total energy              =   -4444.26473448 Ry
     estimated scf accuracy    <      27.95062954 Ry

     iteration #  4     ecut=    60.00 Ry     beta= 0.15
     Davidson diagonalization with overlap

---- Real-time Memory Report at c_bands before calling an iterative solver
             0 MiB given to the printing process from OS
             0 MiB allocation reported by mallinfo(arena+hblkhd)
         23395 MiB available memory on the node where the printing process lives
------------------
     ethr =  6.49E-03,  avg # of iterations =  1.0

     negative rho (up, down):  7.503E-01 0.000E+00

     total cpu time spent up to now is       69.6 secs

     total energy              =   -4443.08367565 Ry
     estimated scf accuracy    <      20.58232342 Ry

     iteration #  5     ecut=    60.00 Ry     beta= 0.15
     Davidson diagonalization with overlap

---- Real-time Memory Report at c_bands before calling an iterative solver
             0 MiB given to the printing process from OS
             0 MiB allocation reported by mallinfo(arena+hblkhd)
         23370 MiB available memory on the node where the printing process lives
------------------
     ethr =  4.78E-03,  avg # of iterations =  1.0

     negative rho (up, down):  7.397E-01 0.000E+00

     total cpu time spent up to now is       84.4 secs

     total energy              =   -4442.48296161 Ry
     estimated scf accuracy    <      12.04142934 Ry

     iteration #  6     ecut=    60.00 Ry     beta= 0.15
     Davidson diagonalization with overlap

---- Real-time Memory Report at c_bands before calling an iterative solver
             0 MiB given to the printing process from OS
             0 MiB allocation reported by mallinfo(arena+hblkhd)
         23351 MiB available memory on the node where the printing process lives
------------------
     ethr =  2.79E-03,  avg # of iterations =  1.0

     negative rho (up, down):  7.425E-01 0.000E+00

     total cpu time spent up to now is       98.9 secs

     total energy              =   -4442.82757838 Ry
     estimated scf accuracy    <       5.06420851 Ry

     iteration #  7     ecut=    60.00 Ry     beta= 0.15
     Davidson diagonalization with overlap

---- Real-time Memory Report at c_bands before calling an iterative solver
             0 MiB given to the printing process from OS
             0 MiB allocation reported by mallinfo(arena+hblkhd)
         23333 MiB available memory on the node where the printing process lives
------------------
     ethr =  1.17E-03,  avg # of iterations =  1.7

     negative rho (up, down):  7.648E-01 0.000E+00

     total cpu time spent up to now is      114.0 secs

     total energy              =   -4441.66525146 Ry
     estimated scf accuracy    <       3.99303834 Ry

     iteration #  8     ecut=    60.00 Ry     beta= 0.15
     Davidson diagonalization with overlap

---- Real-time Memory Report at c_bands before calling an iterative solver
             0 MiB given to the printing process from OS
             0 MiB allocation reported by mallinfo(arena+hblkhd)
         23310 MiB available memory on the node where the printing process lives
------------------
     ethr =  9.26E-04,  avg # of iterations =  3.8

     negative rho (up, down):  7.732E-01 0.000E+00

     total cpu time spent up to now is      132.5 secs

     total energy              =   -4441.32558796 Ry
     estimated scf accuracy    <      21.07826755 Ry

     iteration #  9     ecut=    60.00 Ry     beta= 0.15
     Davidson diagonalization with overlap

---- Real-time Memory Report at c_bands before calling an iterative solver
             0 MiB given to the printing process from OS
             0 MiB allocation reported by mallinfo(arena+hblkhd)
         23181 MiB available memory on the node where the printing process lives
------------------
     ethr =  9.26E-04,  avg # of iterations =  9.7

     negative rho (up, down):  7.703E-01 0.000E+00

     total cpu time spent up to now is      154.0 secs

     total energy              =   -4441.72028227 Ry
     estimated scf accuracy    <       3.78781047 Ry

     iteration # 10     ecut=    60.00 Ry     beta= 0.15
     Davidson diagonalization with overlap

---- Real-time Memory Report at c_bands before calling an iterative solver
             0 MiB given to the printing process from OS
             0 MiB allocation reported by mallinfo(arena+hblkhd)
         22867 MiB available memory on the node where the printing process lives
------------------
     ethr =  8.79E-04,  avg # of iterations =  1.1

     negative rho (up, down):  7.745E-01 0.000E+00

     total cpu time spent up to now is      168.6 secs

     total energy              =   -4441.89305249 Ry
     estimated scf accuracy    <       1.56916517 Ry

     iteration # 11     ecut=    60.00 Ry     beta= 0.15
     Davidson diagonalization with overlap

---- Real-time Memory Report at c_bands before calling an iterative solver
             0 MiB given to the printing process from OS
             0 MiB allocation reported by mallinfo(arena+hblkhd)
         22852 MiB available memory on the node where the printing process lives
------------------
     ethr =  3.64E-04,  avg # of iterations =  2.7

     negative rho (up, down):  8.028E-01 0.000E+00

     total cpu time spent up to now is      186.7 secs

     total energy              =   -4441.75957981 Ry
     estimated scf accuracy    <       1.03399001 Ry

     iteration # 12     ecut=    60.00 Ry     beta= 0.15
     Davidson diagonalization with overlap

---- Real-time Memory Report at c_bands before calling an iterative solver
             0 MiB given to the printing process from OS
             0 MiB allocation reported by mallinfo(arena+hblkhd)
         22869 MiB available memory on the node where the printing process lives
------------------
     ethr =  2.40E-04,  avg # of iterations =  5.7

     negative rho (up, down):  8.177E-01 0.000E+00

     total cpu time spent up to now is      205.4 secs

     total energy              =   -4441.88260402 Ry
     estimated scf accuracy    <       1.57535423 Ry

     iteration # 13     ecut=    60.00 Ry     beta= 0.15
     Davidson diagonalization with overlap

---- Real-time Memory Report at c_bands before calling an iterative solver
             0 MiB given to the printing process from OS
             0 MiB allocation reported by mallinfo(arena+hblkhd)
         22844 MiB available memory on the node where the printing process lives
------------------
     ethr =  2.40E-04,  avg # of iterations =  9.1

     negative rho (up, down):  8.192E-01 0.000E+00

     total cpu time spent up to now is      225.6 secs

     total energy              =   -4441.80529978 Ry
     estimated scf accuracy    <       1.15693851 Ry

     iteration # 14     ecut=    60.00 Ry     beta= 0.15
     Davidson diagonalization with overlap

---- Real-time Memory Report at c_bands before calling an iterative solver
             0 MiB given to the printing process from OS
             0 MiB allocation reported by mallinfo(arena+hblkhd)
         22823 MiB available memory on the node where the printing process lives
------------------
     ethr =  2.40E-04,  avg # of iterations =  2.1

     negative rho (up, down):  8.159E-01 0.000E+00

     total cpu time spent up to now is      241.9 secs

     total energy              =   -4441.75733705 Ry
     estimated scf accuracy    <       0.44740128 Ry

     iteration # 15     ecut=    60.00 Ry     beta= 0.15
     Davidson diagonalization with overlap

---- Real-time Memory Report at c_bands before calling an iterative solver
             0 MiB given to the printing process from OS
             0 MiB allocation reported by mallinfo(arena+hblkhd)
         22828 MiB available memory on the node where the printing process lives
------------------
     c_bands:  2 eigenvalues not converged
     ethr =  1.04E-04,  avg # of iterations =  7.6

     negative rho (up, down):  8.258E-01 0.000E+00

     total cpu time spent up to now is      261.1 secs

     total energy              =   -4441.73457668 Ry
     estimated scf accuracy    <       0.29892200 Ry

     iteration # 16     ecut=    60.00 Ry     beta= 0.15
     Davidson diagonalization with overlap

---- Real-time Memory Report at c_bands before calling an iterative solver
             0 MiB given to the printing process from OS
             0 MiB allocation reported by mallinfo(arena+hblkhd)
         22790 MiB available memory on the node where the printing process lives
------------------
     ethr =  6.94E-05,  avg # of iterations = 14.0

     negative rho (up, down):  8.300E-01 0.000E+00

     total cpu time spent up to now is      284.0 secs

     total energy              =   -4441.73039295 Ry
     estimated scf accuracy    <       0.29933938 Ry

     iteration # 17     ecut=    60.00 Ry     beta= 0.15
     Davidson diagonalization with overlap

---- Real-time Memory Report at c_bands before calling an iterative solver
             0 MiB given to the printing process from OS
             0 MiB allocation reported by mallinfo(arena+hblkhd)
         22797 MiB available memory on the node where the printing process lives
------------------
     ethr =  6.94E-05,  avg # of iterations =  1.1

     negative rho (up, down):  8.269E-01 0.000E+00

     total cpu time spent up to now is      299.0 secs

     total energy              =   -4441.71676720 Ry
     estimated scf accuracy    <       0.23287927 Ry

     iteration # 18     ecut=    60.00 Ry     beta= 0.15
     Davidson diagonalization with overlap

---- Real-time Memory Report at c_bands before calling an iterative solver
             0 MiB given to the printing process from OS
             0 MiB allocation reported by mallinfo(arena+hblkhd)
         22782 MiB available memory on the node where the printing process lives
------------------
     ethr =  5.40E-05,  avg # of iterations =  1.6

     negative rho (up, down):  8.153E-01 0.000E+00

     total cpu time spent up to now is      314.8 secs

     total energy              =   -4441.68774233 Ry
     estimated scf accuracy    <       0.15537112 Ry

     iteration # 19     ecut=    60.00 Ry     beta= 0.15
     Davidson diagonalization with overlap

---- Real-time Memory Report at c_bands before calling an iterative solver
             0 MiB given to the printing process from OS
             0 MiB allocation reported by mallinfo(arena+hblkhd)
         22788 MiB available memory on the node where the printing process lives
------------------
     ethr =  3.60E-05,  avg # of iterations =  9.6

     negative rho (up, down):  8.284E-01 0.000E+00

     total cpu time spent up to now is      336.1 secs

     total energy              =   -4441.67617235 Ry
     estimated scf accuracy    <       0.10670890 Ry

     iteration # 20     ecut=    60.00 Ry     beta= 0.15
     Davidson diagonalization with overlap

---- Real-time Memory Report at c_bands before calling an iterative solver
             0 MiB given to the printing process from OS
             0 MiB allocation reported by mallinfo(arena+hblkhd)
         22725 MiB available memory on the node where the printing process lives
------------------
     ethr =  2.48E-05,  avg # of iterations =  6.4

     negative rho (up, down):  8.208E-01 0.000E+00

     total cpu time spent up to now is      355.6 secs

     total energy              =   -4441.67268857 Ry
     estimated scf accuracy    <       0.05761470 Ry

     iteration # 21     ecut=    60.00 Ry     beta= 0.15
     Davidson diagonalization with overlap

---- Real-time Memory Report at c_bands before calling an iterative solver
             0 MiB given to the printing process from OS
             0 MiB allocation reported by mallinfo(arena+hblkhd)
         22727 MiB available memory on the node where the printing process lives
------------------
     ethr =  1.34E-05,  avg # of iterations =  9.8

     negative rho (up, down):  8.186E-01 0.000E+00

     total cpu time spent up to now is      376.8 secs

     total energy              =   -4441.67138885 Ry
     estimated scf accuracy    <       0.03509278 Ry

     iteration # 22     ecut=    60.00 Ry     beta= 0.15
     Davidson diagonalization with overlap

---- Real-time Memory Report at c_bands before calling an iterative solver
             0 MiB given to the printing process from OS
             0 MiB allocation reported by mallinfo(arena+hblkhd)
         22693 MiB available memory on the node where the printing process lives
------------------
     ethr =  8.14E-06,  avg # of iterations =  8.6

     negative rho (up, down):  8.110E-01 0.000E+00

     total cpu time spent up to now is      397.2 secs

     total energy              =   -4441.67075856 Ry
     estimated scf accuracy    <       0.02368603 Ry

     iteration # 23     ecut=    60.00 Ry     beta= 0.15
     Davidson diagonalization with overlap

---- Real-time Memory Report at c_bands before calling an iterative solver
             0 MiB given to the printing process from OS
             0 MiB allocation reported by mallinfo(arena+hblkhd)
         22696 MiB available memory on the node where the printing process lives
------------------
     ethr =  5.50E-06,  avg # of iterations =  2.8

     negative rho (up, down):  7.908E-01 0.000E+00

     total cpu time spent up to now is      413.9 secs

     total energy              =   -4441.66614570 Ry
     estimated scf accuracy    <       0.01872357 Ry

     iteration # 24     ecut=    60.00 Ry     beta= 0.15
     Davidson diagonalization with overlap

---- Real-time Memory Report at c_bands before calling an iterative solver
             0 MiB given to the printing process from OS
             0 MiB allocation reported by mallinfo(arena+hblkhd)
         22736 MiB available memory on the node where the printing process lives
------------------
     c_bands:  1 eigenvalues not converged
     c_bands:  1 eigenvalues not converged
     ethr =  4.34E-06,  avg # of iterations = 12.5

     negative rho (up, down):  7.961E-01 0.000E+00

     total cpu time spent up to now is      436.7 secs

     total energy              =   -4441.66559556 Ry
     estimated scf accuracy    <       0.01050863 Ry

     iteration # 25     ecut=    60.00 Ry     beta= 0.15
     Davidson diagonalization with overlap

---- Real-time Memory Report at c_bands before calling an iterative solver
             0 MiB given to the printing process from OS
             0 MiB allocation reported by mallinfo(arena+hblkhd)
         22712 MiB available memory on the node where the printing process lives
------------------
     c_bands:  1 eigenvalues not converged
     c_bands:  1 eigenvalues not converged
     c_bands:  1 eigenvalues not converged
     ethr =  2.44E-06,  avg # of iterations = 11.4

     negative rho (up, down):  8.003E-01 0.000E+00

     total cpu time spent up to now is      459.3 secs

     total energy              =   -4441.66567552 Ry
     estimated scf accuracy    <       0.00418249 Ry

     iteration # 26     ecut=    60.00 Ry     beta= 0.15
     Davidson diagonalization with overlap

---- Real-time Memory Report at c_bands before calling an iterative solver
             0 MiB given to the printing process from OS
             0 MiB allocation reported by mallinfo(arena+hblkhd)
         22718 MiB available memory on the node where the printing process lives
------------------
     c_bands:  1 eigenvalues not converged
     ethr =  9.70E-07,  avg # of iterations =  8.9

     negative rho (up, down):  7.996E-01 0.000E+00

     total cpu time spent up to now is      480.1 secs

     total energy              =   -4441.66561284 Ry
     estimated scf accuracy    <       0.00266545 Ry

     iteration # 27     ecut=    60.00 Ry     beta= 0.15
     Davidson diagonalization with overlap

---- Real-time Memory Report at c_bands before calling an iterative solver
             0 MiB given to the printing process from OS
             0 MiB allocation reported by mallinfo(arena+hblkhd)
         22733 MiB available memory on the node where the printing process lives
------------------
     ethr =  6.18E-07,  avg # of iterations =  2.5

     negative rho (up, down):  7.964E-01 0.000E+00

     total cpu time spent up to now is      496.9 secs

     total energy              =   -4441.66553709 Ry
     estimated scf accuracy    <       0.00147423 Ry

     iteration # 28     ecut=    60.00 Ry     beta= 0.15
     Davidson diagonalization with overlap

---- Real-time Memory Report at c_bands before calling an iterative solver
             0 MiB given to the printing process from OS
             0 MiB allocation reported by mallinfo(arena+hblkhd)
         22756 MiB available memory on the node where the printing process lives
------------------
     c_bands:  1 eigenvalues not converged
     ethr =  3.42E-07,  avg # of iterations = 11.9

     negative rho (up, down):  7.949E-01 0.000E+00

     total cpu time spent up to now is      522.0 secs

     total energy              =   -4441.66564889 Ry
     estimated scf accuracy    <       0.00049636 Ry

     iteration # 29     ecut=    60.00 Ry     beta= 0.15
     Davidson diagonalization with overlap

---- Real-time Memory Report at c_bands before calling an iterative solver
             0 MiB given to the printing process from OS
             0 MiB allocation reported by mallinfo(arena+hblkhd)
         22597 MiB available memory on the node where the printing process lives
------------------
     ethr =  1.15E-07,  avg # of iterations =  3.3

     negative rho (up, down):  7.929E-01 0.000E+00

     total cpu time spent up to now is      539.4 secs

     total energy              =   -4441.66563978 Ry
     estimated scf accuracy    <       0.00027680 Ry

     iteration # 30     ecut=    60.00 Ry     beta= 0.15
     Davidson diagonalization with overlap

---- Real-time Memory Report at c_bands before calling an iterative solver
             0 MiB given to the printing process from OS
             0 MiB allocation reported by mallinfo(arena+hblkhd)
         22567 MiB available memory on the node where the printing process lives
------------------
     ethr =  6.42E-08,  avg # of iterations =  3.3

     negative rho (up, down):  7.928E-01 0.000E+00

     total cpu time spent up to now is      556.6 secs

     total energy              =   -4441.66564183 Ry
     estimated scf accuracy    <       0.00010846 Ry

     iteration # 31     ecut=    60.00 Ry     beta= 0.15
     Davidson diagonalization with overlap

---- Real-time Memory Report at c_bands before calling an iterative solver
             0 MiB given to the printing process from OS
             0 MiB allocation reported by mallinfo(arena+hblkhd)
         22574 MiB available memory on the node where the printing process lives
------------------
     ethr =  2.52E-08,  avg # of iterations =  4.2

     negative rho (up, down):  7.927E-01 0.000E+00

     total cpu time spent up to now is      574.0 secs

     total energy              =   -4441.66564534 Ry
     estimated scf accuracy    <       0.00006024 Ry

     iteration # 32     ecut=    60.00 Ry     beta= 0.15
     Davidson diagonalization with overlap

---- Real-time Memory Report at c_bands before calling an iterative solver
             0 MiB given to the printing process from OS
             0 MiB allocation reported by mallinfo(arena+hblkhd)
         22580 MiB available memory on the node where the printing process lives
------------------
     ethr =  1.40E-08,  avg # of iterations =  1.9

     negative rho (up, down):  7.925E-01 0.000E+00

     total cpu time spent up to now is      590.7 secs

     total energy              =   -4441.66563625 Ry
     estimated scf accuracy    <       0.00004022 Ry

     iteration # 33     ecut=    60.00 Ry     beta= 0.15
     Davidson diagonalization with overlap

---- Real-time Memory Report at c_bands before calling an iterative solver
             0 MiB given to the printing process from OS
             0 MiB allocation reported by mallinfo(arena+hblkhd)
         22589 MiB available memory on the node where the printing process lives
------------------
     ethr =  9.33E-09,  avg # of iterations =  5.9

     negative rho (up, down):  7.926E-01 0.000E+00

     total cpu time spent up to now is      610.0 secs

     total energy              =   -4441.66564822 Ry
     estimated scf accuracy    <       0.00002256 Ry

     iteration # 34     ecut=    60.00 Ry     beta= 0.15
     Davidson diagonalization with overlap

---- Real-time Memory Report at c_bands before calling an iterative solver
             0 MiB given to the printing process from OS
             0 MiB allocation reported by mallinfo(arena+hblkhd)
         22585 MiB available memory on the node where the printing process lives
------------------
     ethr =  5.23E-09,  avg # of iterations =  2.2

     negative rho (up, down):  7.927E-01 0.000E+00

     total cpu time spent up to now is      627.3 secs

     total energy              =   -4441.66566081 Ry
     estimated scf accuracy    <       0.00001511 Ry

     iteration # 35     ecut=    60.00 Ry     beta= 0.15
     Davidson diagonalization with overlap

---- Real-time Memory Report at c_bands before calling an iterative solver
             0 MiB given to the printing process from OS
             0 MiB allocation reported by mallinfo(arena+hblkhd)
         22625 MiB available memory on the node where the printing process lives
------------------
     ethr =  3.51E-09,  avg # of iterations =  6.4

     negative rho (up, down):  7.928E-01 0.000E+00

     total cpu time spent up to now is      646.0 secs

     total energy              =   -4441.66566516 Ry
     estimated scf accuracy    <       0.00000969 Ry

     iteration # 36     ecut=    60.00 Ry     beta= 0.15
     Davidson diagonalization with overlap

---- Real-time Memory Report at c_bands before calling an iterative solver
             0 MiB given to the printing process from OS
             0 MiB allocation reported by mallinfo(arena+hblkhd)
         22627 MiB available memory on the node where the printing process lives
------------------
     ethr =  2.25E-09,  avg # of iterations =  2.9

     negative rho (up, down):  7.929E-01 0.000E+00

     total cpu time spent up to now is      663.3 secs

     total energy              =   -4441.66566542 Ry
     estimated scf accuracy    <       0.00000581 Ry

     iteration # 37     ecut=    60.00 Ry     beta= 0.15
     Davidson diagonalization with overlap

---- Real-time Memory Report at c_bands before calling an iterative solver
             0 MiB given to the printing process from OS
             0 MiB allocation reported by mallinfo(arena+hblkhd)
         22642 MiB available memory on the node where the printing process lives
------------------
     ethr =  1.35E-09,  avg # of iterations =  3.2

     negative rho (up, down):  7.927E-01 0.000E+00

     total cpu time spent up to now is      680.5 secs

     total energy              =   -4441.66566563 Ry
     estimated scf accuracy    <       0.00000325 Ry

     iteration # 38     ecut=    60.00 Ry     beta= 0.15
     Davidson diagonalization with overlap

---- Real-time Memory Report at c_bands before calling an iterative solver
             0 MiB given to the printing process from OS
             0 MiB allocation reported by mallinfo(arena+hblkhd)
         22648 MiB available memory on the node where the printing process lives
------------------
     ethr =  7.55E-10,  avg # of iterations =  2.8

     negative rho (up, down):  7.926E-01 0.000E+00

     total cpu time spent up to now is      697.7 secs

     total energy              =   -4441.66566586 Ry
     estimated scf accuracy    <       0.00000127 Ry

     iteration # 39     ecut=    60.00 Ry     beta= 0.15
     Davidson diagonalization with overlap

---- Real-time Memory Report at c_bands before calling an iterative solver
             0 MiB given to the printing process from OS
             0 MiB allocation reported by mallinfo(arena+hblkhd)
         22648 MiB available memory on the node where the printing process lives
------------------
     ethr =  2.95E-10,  avg # of iterations =  2.8

     negative rho (up, down):  7.925E-01 0.000E+00

     total cpu time spent up to now is      715.0 secs

     total energy              =   -4441.66566608 Ry
     estimated scf accuracy    <       0.00000073 Ry

     iteration # 40     ecut=    60.00 Ry     beta= 0.15
     Davidson diagonalization with overlap

---- Real-time Memory Report at c_bands before calling an iterative solver
             0 MiB given to the printing process from OS
             0 MiB allocation reported by mallinfo(arena+hblkhd)
         22650 MiB available memory on the node where the printing process lives
------------------
     ethr =  1.69E-10,  avg # of iterations =  2.7

     negative rho (up, down):  7.925E-01 0.000E+00

     total cpu time spent up to now is      731.9 secs

     total energy              =   -4441.66566623 Ry
     estimated scf accuracy    <       0.00000036 Ry

     iteration # 41     ecut=    60.00 Ry     beta= 0.15
     Davidson diagonalization with overlap

---- Real-time Memory Report at c_bands before calling an iterative solver
             0 MiB given to the printing process from OS
             0 MiB allocation reported by mallinfo(arena+hblkhd)
         22652 MiB available memory on the node where the printing process lives
------------------
     ethr =  8.37E-11,  avg # of iterations =  3.5

     negative rho (up, down):  7.925E-01 0.000E+00

     total cpu time spent up to now is      749.5 secs

     total energy              =   -4441.66566628 Ry
     estimated scf accuracy    <       0.00000018 Ry

     iteration # 42     ecut=    60.00 Ry     beta= 0.15
     Davidson diagonalization with overlap

---- Real-time Memory Report at c_bands before calling an iterative solver
             0 MiB given to the printing process from OS
             0 MiB allocation reported by mallinfo(arena+hblkhd)
         22648 MiB available memory on the node where the printing process lives
------------------
     ethr =  4.10E-11,  avg # of iterations =  2.2

     negative rho (up, down):  7.925E-01 0.000E+00

     total cpu time spent up to now is      766.0 secs

     total energy              =   -4441.66566628 Ry
     estimated scf accuracy    <       0.00000012 Ry

     iteration # 43     ecut=    60.00 Ry     beta= 0.15
     Davidson diagonalization with overlap

---- Real-time Memory Report at c_bands before calling an iterative solver
             0 MiB given to the printing process from OS
             0 MiB allocation reported by mallinfo(arena+hblkhd)
         22646 MiB available memory on the node where the printing process lives
------------------
     ethr =  2.81E-11,  avg # of iterations =  3.0

     negative rho (up, down):  7.925E-01 0.000E+00

     total cpu time spent up to now is      783.4 secs

     total energy              =   -4441.66566628 Ry
     estimated scf accuracy    <       0.00000006 Ry

     iteration # 44     ecut=    60.00 Ry     beta= 0.15
     Davidson diagonalization with overlap

---- Real-time Memory Report at c_bands before calling an iterative solver
             0 MiB given to the printing process from OS
             0 MiB allocation reported by mallinfo(arena+hblkhd)
         22649 MiB available memory on the node where the printing process lives
------------------
     ethr =  1.34E-11,  avg # of iterations =  2.2

     negative rho (up, down):  7.925E-01 0.000E+00

     total cpu time spent up to now is      800.0 secs

     total energy              =   -4441.66566630 Ry
     estimated scf accuracy    <       0.00000004 Ry

     iteration # 45     ecut=    60.00 Ry     beta= 0.15
     Davidson diagonalization with overlap

---- Real-time Memory Report at c_bands before calling an iterative solver
             0 MiB given to the printing process from OS
             0 MiB allocation reported by mallinfo(arena+hblkhd)
         22653 MiB available memory on the node where the printing process lives
------------------
     ethr =  8.31E-12,  avg # of iterations =  2.2

     negative rho (up, down):  7.925E-01 0.000E+00

     total cpu time spent up to now is      816.7 secs

     total energy              =   -4441.66566630 Ry
     estimated scf accuracy    <       0.00000002 Ry

     iteration # 46     ecut=    60.00 Ry     beta= 0.15
     Davidson diagonalization with overlap

---- Real-time Memory Report at c_bands before calling an iterative solver
             0 MiB given to the printing process from OS
             0 MiB allocation reported by mallinfo(arena+hblkhd)
         22662 MiB available memory on the node where the printing process lives
------------------
     ethr =  5.42E-12,  avg # of iterations =  2.2

     negative rho (up, down):  7.925E-01 0.000E+00

     total cpu time spent up to now is      833.3 secs

     total energy              =   -4441.66566631 Ry
     estimated scf accuracy    <       0.00000001 Ry

     iteration # 47     ecut=    60.00 Ry     beta= 0.15
     Davidson diagonalization with overlap

---- Real-time Memory Report at c_bands before calling an iterative solver
             0 MiB given to the printing process from OS
             0 MiB allocation reported by mallinfo(arena+hblkhd)
         22662 MiB available memory on the node where the printing process lives
------------------
     ethr =  2.50E-12,  avg # of iterations =  2.1

     negative rho (up, down):  7.925E-01 0.000E+00

     total cpu time spent up to now is      849.6 secs

     End of self-consistent calculation

          k = 0.0000 0.0000 0.0000 ( 65197 PWs)   bands (ev):

   -92.7060 -92.6584 -92.5606 -92.5129 -92.4562 -92.4124 -92.3953 -92.2752
   -56.0594 -56.0454 -55.9176 -55.9067 -55.9006 -55.8935 -55.8621 -55.8296
   -55.8140 -55.8120 -55.8075 -55.7635 -55.7432 -55.7071 -55.6873 -55.6560
   -55.6484 -55.6009 -55.6005 -55.5977 -55.5893 -55.5506 -55.5256 -55.4409
   -31.2829 -31.2635 -31.1221 -31.0353 -31.0293 -30.9160 -30.8068 -30.7507
   -29.8522 -29.8087 -29.7841 -29.6759 -15.0863 -15.0387 -14.9603 -14.8313
   -14.6327 -14.5133 -14.2227 -14.1983 -14.1728 -14.1265 -14.0833 -14.0712
   -14.0564 -14.0393 -14.0105 -13.9797 -13.9719 -13.9329 -13.7813 -13.5979
   -13.5694 -13.5400 -13.5022 -13.4859 -13.4369 -13.4036 -13.3275 -13.2551
   -13.1252 -13.1144 -13.1018 -13.0797 -13.0619 -13.0350 -13.0054 -12.9961
   -12.9729 -12.9570 -12.9278 -12.9051 -12.8436 -12.8289 -12.8175 -12.7687
   -12.7334 -12.7327 -12.6549 -12.6334 -12.6218 -12.3477 -12.2017 -12.0221
   -11.9459 -11.8656 -11.7914 -11.7807 -11.7577 -11.7402 -11.6766 -11.6598
   -11.6242 -11.5954 -11.4846 -11.4045 -11.4009  -2.9454  -2.7139  -2.4845
    -2.3358  -2.2745  -2.1327  -1.8246  -1.8101  -1.7914  -1.7040  -1.6863
    -1.6188  -1.6022  -1.5619  -1.5167  -1.3357  -1.1710  -1.1016  -1.0789
    -0.9357  -0.9209  -0.8721  -0.8542  -0.8088  -0.7889  -0.7379  -0.7114
    -0.6372  -0.6254  -0.5514  -0.4200  -0.4071  -0.3762  -0.2961  -0.2765
    -0.2270  -0.2012  -0.1306  -0.0885  -0.0290  -0.0090   0.0574   0.1346
     0.1756   0.2021   0.2110   0.4713   0.4849   0.6615   0.7208   0.7853
     0.8372   0.9237   0.9362   0.9541   1.0197   1.0472   1.0810   1.1378
     1.2694   1.3280   1.3507   1.3766   1.3855   1.4483   1.5162   1.6284
     1.6459   1.7018   1.7096   1.7535   1.7763   1.7865   1.8397   1.9019
     1.9078   1.9561   1.9763   2.0237   2.1553   2.2388   2.2819   2.3058
     2.4147   2.4460   2.4626   2.4869   2.5073   2.5092   2.6233   2.6540
     2.6819   2.7015   2.7193   2.8008   2.9034   2.9380   2.9465   2.9527
     3.0204   3.0262   3.0485   3.0561   3.0656   3.0797   3.0851   3.0994
     3.1054   3.1160   3.1245   3.1320   3.1519   3.1731   3.1780   3.1902
     3.2121   3.3304   3.4143   4.1026   4.4236   4.7646   4.8633   5.0389
     5.8153   5.9469   5.9813   6.0082   6.3094   6.3561   6.4775   6.4881
     6.7549   7.0050   7.0997   7.3140   7.5821   7.5906   7.6531   7.6764
     7.7091   7.9017   7.9978   8.0470   8.1088   8.1748   8.3764   8.4246
     8.7507   8.8675   8.9177

     occupation numbers 
     1.0000   1.0000   1.0000   1.0000   1.0000   1.0000   1.0000   1.0000
     1.0000   1.0000   1.0000   1.0000   1.0000   1.0000   1.0000   1.0000
     1.0000   1.0000   1.0000   1.0000   1.0000   1.0000   1.0000   1.0000
     1.0000   1.0000   1.0000   1.0000   1.0000   1.0000   1.0000   1.0000
     1.0000   1.0000   1.0000   1.0000   1.0000   1.0000   1.0000   1.0000
     1.0000   1.0000   1.0000   1.0000   1.0000   1.0000   1.0000   1.0000
     1.0000   1.0000   1.0000   1.0000   1.0000   1.0000   1.0000   1.0000
     1.0000   1.0000   1.0000   1.0000   1.0000   1.0000   1.0000   1.0000
     1.0000   1.0000   1.0000   1.0000   1.0000   1.0000   1.0000   1.0000
     1.0000   1.0000   1.0000   1.0000   1.0000   1.0000   1.0000   1.0000
     1.0000   1.0000   1.0000   1.0000   1.0000   1.0000   1.0000   1.0000
     1.0000   1.0000   1.0000   1.0000   1.0000   1.0000   1.0000   1.0000
     1.0000   1.0000   1.0000   1.0000   1.0000   1.0000   1.0000   1.0000
     1.0000   1.0000   1.0000   1.0000   1.0000   1.0000   1.0000   1.0000
     1.0000   1.0000   1.0000   1.0000   1.0000   1.0000   1.0000   1.0000
     1.0000   1.0000   1.0000   1.0000   1.0000   1.0000   1.0000   1.0000
     1.0000   1.0000   1.0000   1.0000   1.0000   1.0000   1.0000   1.0000
     1.0000   1.0000   1.0000   1.0000   1.0000   1.0000   1.0000   1.0000
     1.0000   1.0000   1.0000   1.0000   1.0000   1.0000   1.0000   1.0000
     1.0000   1.0000   1.0000   1.0000   1.0000   1.0000   0.9999   0.9999
     0.9999   0.9998   0.9998   0.9998   0.9997   0.9996   0.9996   0.9994
     0.9988   0.9985   0.9983   0.9981   0.9980   0.9973   0.9963   0.9940
     0.9936   0.9919   0.9917   0.9901   0.9891   0.9887   0.9861   0.9825
     0.9821   0.9787   0.9771   0.9730   0.9584   0.9461   0.9387   0.9343
     0.9110   0.9032   0.8989   0.8924   0.8867   0.8861   0.8501   0.8392
     0.8289   0.8214   0.8144   0.7803   0.7327   0.7155   0.7112   0.7081
     0.6726   0.6695   0.6575   0.6533   0.6481   0.6403   0.6373   0.6293
     0.6259   0.6200   0.6151   0.6109   0.5995   0.5873   0.5845   0.5774
     0.5646   0.4948   0.4453   0.1231   0.0509   0.0161   0.0110   0.0054
     0.0001   0.0000   0.0000   0.0000   0.0000   0.0000   0.0000   0.0000
     0.0000   0.0000   0.0000   0.0000   0.0000   0.0000   0.0000   0.0000
     0.0000   0.0000   0.0000   0.0000   0.0000   0.0000   0.0000   0.0000
     0.0000   0.0000   0.0000

          k = 0.0000 0.2500 0.0000 ( 65257 PWs)   bands (ev):

   -92.7060 -92.6584 -92.5606 -92.5129 -92.4562 -92.4124 -92.3953 -92.2752
   -56.0594 -56.0454 -55.9176 -55.9067 -55.9006 -55.8935 -55.8621 -55.8296
   -55.8140 -55.8120 -55.8075 -55.7635 -55.7432 -55.7071 -55.6873 -55.6560
   -55.6484 -55.6009 -55.6005 -55.5977 -55.5893 -55.5506 -55.5256 -55.4409
   -31.2827 -31.2634 -31.1223 -31.0354 -31.0290 -30.9162 -30.8063 -30.7513
   -29.8516 -29.8083 -29.7848 -29.6762 -15.0498 -15.0126 -14.9355 -14.8013
   -14.6751 -14.5020 -14.3682 -14.1892 -14.1487 -14.1308 -14.1030 -14.0428
   -14.0387 -14.0237 -13.9971 -13.9719 -13.9479 -13.8520 -13.8106 -13.6523
   -13.6216 -13.5811 -13.5451 -13.4861 -13.4570 -13.4101 -13.3469 -13.3126
   -13.2328 -13.1573 -13.1497 -13.1135 -13.0929 -13.0177 -12.9909 -12.9633
   -12.9396 -12.9069 -12.8728 -12.8707 -12.8047 -12.7951 -12.7802 -12.7634
   -12.7090 -12.6931 -12.6490 -12.5447 -12.4732 -12.4090 -12.2529 -12.0807
   -12.0148 -11.8312 -11.7882 -11.7605 -11.7326 -11.7160 -11.6682 -11.6572
   -11.6346 -11.5995 -11.4991 -11.4463 -11.4356  -2.8100  -2.5896  -2.4516
    -2.2691  -2.2259  -2.0630  -1.8416  -1.7592  -1.7462  -1.6843  -1.5854
    -1.5688  -1.5353  -1.5083  -1.4646  -1.2671  -1.1667  -1.1355  -1.1255
    -1.0467  -1.0375  -0.9344  -0.9061  -0.8475  -0.8205  -0.7823  -0.7158
    -0.6880  -0.6576  -0.6267  -0.6103  -0.5765  -0.5052  -0.4527  -0.3747
    -0.2741  -0.2423  -0.2007  -0.0955  -0.0575   0.0123   0.0542   0.1207
     0.1326   0.1560   0.2135   0.5193   0.6079   0.6390   0.7271   0.7714
     0.7932   0.9078   0.9255   1.0215   1.0481   1.0733   1.1881   1.2841
     1.3032   1.3291   1.3512   1.3712   1.4312   1.4607   1.4866   1.5339
     1.5696   1.6033   1.6913   1.7244   1.7544   1.8093   1.8605   1.9001
     1.9297   1.9585   1.9694   2.0786   2.1917   2.2642   2.2897   2.3558
     2.4006   2.4147   2.4418   2.4493   2.4848   2.5144   2.5500   2.6389
     2.6820   2.6977   2.8614   2.8820   2.9154   2.9399   2.9543   2.9631
     2.9693   2.9782   3.0082   3.0111   3.0285   3.0373   3.0428   3.0630
     3.0741   3.0815   3.1028   3.1139   3.1195   3.1541   3.1708   3.2303
     3.5953   3.6368   3.8779   4.2946   4.4173   4.7093   5.0160   5.0632
     5.6409   5.8206   5.9562   5.9940   6.0817   6.1072   6.1790   6.5950
     6.8557   7.1002   7.1896   7.3270   7.4832   7.4960   7.6411   7.6591
     7.8557   7.9470   8.0594   8.1802   8.2671   8.3841   8.4000   8.4288
     8.5698   8.8690   8.9545

     occupation numbers 
     1.0000   1.0000   1.0000   1.0000   1.0000   1.0000   1.0000   1.0000
     1.0000   1.0000   1.0000   1.0000   1.0000   1.0000   1.0000   1.0000
     1.0000   1.0000   1.0000   1.0000   1.0000   1.0000   1.0000   1.0000
     1.0000   1.0000   1.0000   1.0000   1.0000   1.0000   1.0000   1.0000
     1.0000   1.0000   1.0000   1.0000   1.0000   1.0000   1.0000   1.0000
     1.0000   1.0000   1.0000   1.0000   1.0000   1.0000   1.0000   1.0000
     1.0000   1.0000   1.0000   1.0000   1.0000   1.0000   1.0000   1.0000
     1.0000   1.0000   1.0000   1.0000   1.0000   1.0000   1.0000   1.0000
     1.0000   1.0000   1.0000   1.0000   1.0000   1.0000   1.0000   1.0000
     1.0000   1.0000   1.0000   1.0000   1.0000   1.0000   1.0000   1.0000
     1.0000   1.0000   1.0000   1.0000   1.0000   1.0000   1.0000   1.0000
     1.0000   1.0000   1.0000   1.0000   1.0000   1.0000   1.0000   1.0000
     1.0000   1.0000   1.0000   1.0000   1.0000   1.0000   1.0000   1.0000
     1.0000   1.0000   1.0000   1.0000   1.0000   1.0000   1.0000   1.0000
     1.0000   1.0000   1.0000   1.0000   1.0000   1.0000   1.0000   1.0000
     1.0000   1.0000   1.0000   1.0000   1.0000   1.0000   1.0000   1.0000
     1.0000   1.0000   1.0000   1.0000   1.0000   1.0000   1.0000   1.0000
     1.0000   1.0000   1.0000   1.0000   1.0000   1.0000   1.0000   1.0000
     1.0000   1.0000   1.0000   1.0000   1.0000   1.0000   1.0000   1.0000
     1.0000   1.0000   1.0000   1.0000   1.0000   1.0000   0.9999   0.9999
     0.9999   0.9998   0.9998   0.9997   0.9996   0.9996   0.9992   0.9988
     0.9986   0.9985   0.9983   0.9981   0.9975   0.9971   0.9968   0.9960
     0.9954   0.9946   0.9923   0.9911   0.9900   0.9876   0.9850   0.9826
     0.9806   0.9785   0.9777   0.9675   0.9533   0.9418   0.9373   0.9242
     0.9143   0.9110   0.9043   0.9024   0.8930   0.8847   0.8741   0.8446
     0.8289   0.8229   0.7528   0.7430   0.7268   0.7146   0.7073   0.7028
     0.6996   0.6949   0.6792   0.6776   0.6683   0.6636   0.6606   0.6495
     0.6434   0.6393   0.6274   0.6211   0.6179   0.5982   0.5886   0.5539
     0.3422   0.3199   0.2044   0.0743   0.0519   0.0197   0.0059   0.0049
     0.0003   0.0001   0.0000   0.0000   0.0000   0.0000   0.0000   0.0000
     0.0000   0.0000   0.0000   0.0000   0.0000   0.0000   0.0000   0.0000
     0.0000   0.0000   0.0000   0.0000   0.0000   0.0000   0.0000   0.0000
     0.0000   0.0000   0.0000

          k = 0.0000-0.5000 0.0000 ( 65180 PWs)   bands (ev):

   -92.7060 -92.6584 -92.5606 -92.5129 -92.4562 -92.4124 -92.3953 -92.2752
   -56.0594 -56.0454 -55.9176 -55.9067 -55.9006 -55.8935 -55.8621 -55.8296
   -55.8140 -55.8120 -55.8075 -55.7635 -55.7432 -55.7071 -55.6873 -55.6560
   -55.6484 -55.6009 -55.6005 -55.5977 -55.5893 -55.5506 -55.5256 -55.4409
   -31.2825 -31.2632 -31.1225 -31.0355 -31.0288 -30.9165 -30.8057 -30.7519
   -29.8509 -29.8080 -29.7854 -29.6766 -15.0133 -14.9644 -14.9126 -14.7777
   -14.7009 -14.5591 -14.4109 -14.2756 -14.1624 -14.0851 -14.0452 -14.0369
   -13.9897 -13.9766 -13.9696 -13.9281 -13.8985 -13.8792 -13.8396 -13.7827
   -13.7690 -13.5885 -13.5290 -13.4886 -13.4615 -13.4060 -13.3630 -13.3072
   -13.2882 -13.2419 -13.2230 -13.1142 -13.0930 -13.0112 -12.9736 -12.9560
   -12.9342 -12.9135 -12.8861 -12.7968 -12.7769 -12.7514 -12.7110 -12.6936
   -12.6842 -12.6579 -12.6522 -12.5200 -12.3922 -12.3278 -12.2403 -12.1953
   -12.1652 -11.7850 -11.7827 -11.7555 -11.7191 -11.6843 -11.6730 -11.6294
   -11.6255 -11.5807 -11.5213 -11.5074 -11.4930  -2.5952  -2.5364  -2.3866
    -2.3146  -2.0306  -1.9490  -1.8221  -1.6850  -1.6429  -1.6278  -1.5497
    -1.5158  -1.4369  -1.4004  -1.3216  -1.2832  -1.2448  -1.2173  -1.1697
    -1.1537  -1.1219  -1.0713  -1.0345  -1.0073  -0.9705  -0.8627  -0.8182
    -0.7812  -0.7783  -0.6923  -0.6612  -0.6392  -0.5911  -0.5009  -0.4349
    -0.3428  -0.2983  -0.2151  -0.1772  -0.0343   0.0311   0.0341   0.0901
     0.2119   0.2621   0.3870   0.4596   0.4669   0.5924   0.6572   0.7548
     0.8710   0.9775   1.0115   1.0494   1.0617   1.0979   1.1099   1.1455
     1.1651   1.1738   1.2825   1.3431   1.3803   1.4116   1.6751   1.6940
     1.7194   1.8106   1.8335   1.8663   1.8804   1.9078   1.9259   1.9394
     1.9589   2.0042   2.0300   2.0635   2.0683   2.0965   2.1480   2.2384
     2.2675   2.4153   2.4409   2.4800   2.6002   2.6128   2.6313   2.6660
     2.6753   2.6794   2.7289   2.7392   2.7939   2.8148   2.8959   2.9105
     2.9796   2.9804   3.0066   3.0118   3.0257   3.0298   3.0337   3.0414
     3.0428   3.0548   3.0731   3.0744   3.1389   3.1445   3.1603   3.2143
     4.1251   4.1387   4.1778   4.2618   4.7397   4.8977   5.0215   5.1741
     5.4106   5.4611   5.5811   5.7365   6.0304   6.0421   6.3052   6.5577
     6.8496   6.9500   7.2135   7.3400   7.4238   7.5008   7.7366   7.7489
     7.9044   8.0085   8.1619   8.3054   8.3531   8.4503   8.5450   8.6636
     8.8087   8.8365   8.8592

     occupation numbers 
     1.0000   1.0000   1.0000   1.0000   1.0000   1.0000   1.0000   1.0000
     1.0000   1.0000   1.0000   1.0000   1.0000   1.0000   1.0000   1.0000
     1.0000   1.0000   1.0000   1.0000   1.0000   1.0000   1.0000   1.0000
     1.0000   1.0000   1.0000   1.0000   1.0000   1.0000   1.0000   1.0000
     1.0000   1.0000   1.0000   1.0000   1.0000   1.0000   1.0000   1.0000
     1.0000   1.0000   1.0000   1.0000   1.0000   1.0000   1.0000   1.0000
     1.0000   1.0000   1.0000   1.0000   1.0000   1.0000   1.0000   1.0000
     1.0000   1.0000   1.0000   1.0000   1.0000   1.0000   1.0000   1.0000
     1.0000   1.0000   1.0000   1.0000   1.0000   1.0000   1.0000   1.0000
     1.0000   1.0000   1.0000   1.0000   1.0000   1.0000   1.0000   1.0000
     1.0000   1.0000   1.0000   1.0000   1.0000   1.0000   1.0000   1.0000
     1.0000   1.0000   1.0000   1.0000   1.0000   1.0000   1.0000   1.0000
     1.0000   1.0000   1.0000   1.0000   1.0000   1.0000   1.0000   1.0000
     1.0000   1.0000   1.0000   1.0000   1.0000   1.0000   1.0000   1.0000
     1.0000   1.0000   1.0000   1.0000   1.0000   1.0000   1.0000   1.0000
     1.0000   1.0000   1.0000   1.0000   1.0000   1.0000   1.0000   1.0000
     1.0000   1.0000   1.0000   1.0000   1.0000   1.0000   1.0000   1.0000
     1.0000   1.0000   1.0000   1.0000   1.0000   1.0000   1.0000   1.0000
     1.0000   1.0000   1.0000   1.0000   1.0000   1.0000   1.0000   1.0000
     1.0000   1.0000   1.0000   1.0000   1.0000   1.0000   1.0000   0.9999
     0.9999   0.9997   0.9997   0.9996   0.9996   0.9995   0.9995   0.9994
     0.9993   0.9993   0.9988   0.9983   0.9980   0.9977   0.9928   0.9922
     0.9913   0.9876   0.9864   0.9847   0.9838   0.9821   0.9809   0.9799
     0.9785   0.9748   0.9724   0.9691   0.9686   0.9656   0.9593   0.9461
     0.9412   0.9108   0.9045   0.8943   0.8580   0.8537   0.8473   0.8349
     0.8314   0.8299   0.8106   0.8064   0.7834   0.7741   0.7364   0.7292
     0.6942   0.6938   0.6800   0.6773   0.6698   0.6676   0.6655   0.6613
     0.6606   0.6540   0.6439   0.6432   0.6069   0.6037   0.5947   0.5633
     0.1164   0.1125   0.1018   0.0814   0.0176   0.0096   0.0058   0.0030
     0.0010   0.0007   0.0004   0.0002   0.0000   0.0000   0.0000   0.0000
     0.0000   0.0000   0.0000   0.0000   0.0000   0.0000   0.0000   0.0000
     0.0000   0.0000   0.0000   0.0000   0.0000   0.0000   0.0000   0.0000
     0.0000   0.0000   0.0000

          k = 0.2500 0.2500 0.0000 ( 65198 PWs)   bands (ev):

   -92.7060 -92.6584 -92.5606 -92.5129 -92.4562 -92.4124 -92.3953 -92.2752
   -56.0594 -56.0454 -55.9176 -55.9067 -55.9006 -55.8935 -55.8621 -55.8296
   -55.8140 -55.8120 -55.8075 -55.7635 -55.7432 -55.7071 -55.6873 -55.6560
   -55.6484 -55.6009 -55.6005 -55.5977 -55.5893 -55.5506 -55.5256 -55.4409
   -31.2810 -31.2651 -31.1219 -31.0358 -31.0289 -30.9160 -30.8064 -30.7515
   -29.8506 -29.8093 -29.7844 -29.6767 -15.0209 -14.9779 -14.9076 -14.7907
   -14.6676 -14.5437 -14.4737 -14.2621 -14.1123 -14.0979 -14.0613 -14.0304
   -14.0104 -13.9835 -13.9721 -13.9421 -13.9090 -13.8429 -13.8238 -13.6679
   -13.6519 -13.6223 -13.6036 -13.5267 -13.5132 -13.4407 -13.4307 -13.2916
   -13.2436 -13.2309 -13.1461 -13.1063 -13.0538 -13.0231 -12.9967 -12.9714
   -12.9515 -12.9203 -12.8510 -12.8283 -12.7756 -12.7659 -12.7489 -12.7223
   -12.7177 -12.6625 -12.6439 -12.4783 -12.4575 -12.3843 -12.2819 -12.1130
   -12.0622 -11.8034 -11.7718 -11.7609 -11.7539 -11.6910 -11.6568 -11.6501
   -11.6146 -11.6065 -11.5157 -11.4745 -11.4570  -2.6716  -2.4638  -2.3457
    -2.2501  -2.1308  -2.0663  -1.8662  -1.7236  -1.7048  -1.6719  -1.5799
    -1.5456  -1.4514  -1.4243  -1.3739  -1.2429  -1.1960  -1.1656  -1.1174
    -1.0757  -1.0298  -1.0067  -0.9843  -0.9418  -0.9263  -0.8354  -0.7851
    -0.7168  -0.6677  -0.6403  -0.5925  -0.5779  -0.5137  -0.4636  -0.3978
    -0.3722  -0.2794  -0.2334  -0.2003  -0.1662  -0.1104  -0.0368   0.0009
     0.0355   0.1053   0.1424   0.4078   0.5583   0.5898   0.6537   0.6899
     0.7565   0.8022   0.8646   0.9026   1.1751   1.2383   1.3117   1.3344
     1.3907   1.4165   1.4533   1.4898   1.5061   1.5336   1.5791   1.5873
     1.6041   1.6531   1.6892   1.7262   1.7822   1.8215   1.8358   1.8648
     1.9006   1.9598   1.9823   2.1149   2.1736   2.2088   2.2307   2.3043
     2.3629   2.3915   2.4109   2.4278   2.4536   2.4636   2.4868   2.5815
     2.6201   2.7115   2.8717   2.8899   2.8945   2.9107   2.9262   2.9398
     2.9518   2.9579   2.9700   2.9833   2.9983   3.0131   3.0194   3.0323
     3.0565   3.0653   3.0744   3.1058   3.4062   3.4986   3.5463   3.6143
     3.6290   3.8592   3.9492   4.3012   4.5057   4.7164   4.9780   5.1643
     5.6435   5.7018   5.7851   5.8323   5.8918   6.1264   6.1571   6.2132
     6.8916   6.9750   7.1658   7.3017   7.5489   7.6028   7.7095   7.8626
     7.9005   8.0281   8.1746   8.2370   8.3366   8.4076   8.4395   8.4624
     8.5709   8.7414   8.9310

     occupation numbers 
     1.0000   1.0000   1.0000   1.0000   1.0000   1.0000   1.0000   1.0000
     1.0000   1.0000   1.0000   1.0000   1.0000   1.0000   1.0000   1.0000
     1.0000   1.0000   1.0000   1.0000   1.0000   1.0000   1.0000   1.0000
     1.0000   1.0000   1.0000   1.0000   1.0000   1.0000   1.0000   1.0000
     1.0000   1.0000   1.0000   1.0000   1.0000   1.0000   1.0000   1.0000
     1.0000   1.0000   1.0000   1.0000   1.0000   1.0000   1.0000   1.0000
     1.0000   1.0000   1.0000   1.0000   1.0000   1.0000   1.0000   1.0000
     1.0000   1.0000   1.0000   1.0000   1.0000   1.0000   1.0000   1.0000
     1.0000   1.0000   1.0000   1.0000   1.0000   1.0000   1.0000   1.0000
     1.0000   1.0000   1.0000   1.0000   1.0000   1.0000   1.0000   1.0000
     1.0000   1.0000   1.0000   1.0000   1.0000   1.0000   1.0000   1.0000
     1.0000   1.0000   1.0000   1.0000   1.0000   1.0000   1.0000   1.0000
     1.0000   1.0000   1.0000   1.0000   1.0000   1.0000   1.0000   1.0000
     1.0000   1.0000   1.0000   1.0000   1.0000   1.0000   1.0000   1.0000
     1.0000   1.0000   1.0000   1.0000   1.0000   1.0000   1.0000   1.0000
     1.0000   1.0000   1.0000   1.0000   1.0000   1.0000   1.0000   1.0000
     1.0000   1.0000   1.0000   1.0000   1.0000   1.0000   1.0000   1.0000
     1.0000   1.0000   1.0000   1.0000   1.0000   1.0000   1.0000   1.0000
     1.0000   1.0000   1.0000   1.0000   1.0000   1.0000   1.0000   1.0000
     1.0000   1.0000   1.0000   1.0000   1.0000   1.0000   1.0000   1.0000
     0.9999   0.9999   0.9999   0.9998   0.9993   0.9990   0.9986   0.9984
     0.9979   0.9977   0.9972   0.9967   0.9965   0.9960   0.9952   0.9950
     0.9946   0.9934   0.9923   0.9911   0.9889   0.9870   0.9863   0.9847
     0.9826   0.9784   0.9766   0.9634   0.9559   0.9508   0.9474   0.9346
     0.9227   0.9164   0.9119   0.9078   0.9013   0.8987   0.8924   0.8641
     0.8512   0.8175   0.7479   0.7392   0.7370   0.7291   0.7214   0.7146
     0.7085   0.7054   0.6992   0.6923   0.6844   0.6765   0.6732   0.6662
     0.6531   0.6482   0.6432   0.6257   0.4500   0.3963   0.3693   0.3319
     0.3240   0.2124   0.1757   0.0729   0.0394   0.0192   0.0070   0.0031
     0.0003   0.0002   0.0001   0.0001   0.0001   0.0000   0.0000   0.0000
     0.0000   0.0000   0.0000   0.0000   0.0000   0.0000   0.0000   0.0000
     0.0000   0.0000   0.0000   0.0000   0.0000   0.0000   0.0000   0.0000
     0.0000   0.0000   0.0000

          k = 0.2500-0.5000 0.0000 ( 65138 PWs)   bands (ev):

   -92.7060 -92.6584 -92.5606 -92.5129 -92.4562 -92.4124 -92.3953 -92.2752
   -56.0594 -56.0454 -55.9176 -55.9067 -55.9006 -55.8935 -55.8621 -55.8296
   -55.8140 -55.8120 -55.8075 -55.7635 -55.7432 -55.7071 -55.6873 -55.6560
   -55.6484 -55.6009 -55.6005 -55.5977 -55.5893 -55.5506 -55.5256 -55.4409
   -31.2808 -31.2649 -31.1222 -31.0359 -31.0286 -30.9163 -30.8058 -30.7521
   -29.8500 -29.8090 -29.7850 -29.6770 -14.9827 -14.9376 -14.8695 -14.7484
   -14.7226 -14.6011 -14.5118 -14.3754 -14.0772 -14.0209 -13.9957 -13.9766
   -13.9715 -13.9552 -13.9473 -13.9117 -13.8874 -13.8513 -13.8227 -13.7842
   -13.7500 -13.6706 -13.6218 -13.5451 -13.5417 -13.4742 -13.4504 -13.3442
   -13.2987 -13.2118 -13.1473 -13.1226 -13.0376 -13.0032 -12.9878 -12.9661
   -12.9476 -12.9168 -12.8630 -12.7937 -12.7788 -12.7606 -12.7144 -12.7032
   -12.6612 -12.6513 -12.6289 -12.5265 -12.3761 -12.3253 -12.2230 -12.1843
   -12.1605 -11.7790 -11.7669 -11.7563 -11.7293 -11.6971 -11.6696 -11.6268
   -11.6008 -11.5777 -11.5342 -11.5085 -11.4969  -2.4528  -2.3882  -2.2604
    -2.1833  -2.0511  -1.9688  -1.8464  -1.6957  -1.6399  -1.6186  -1.5565
    -1.5438  -1.4477  -1.3786  -1.2951  -1.2438  -1.2345  -1.1733  -1.1651
    -1.1271  -1.0955  -1.0467  -1.0070  -0.9747  -0.9358  -0.9240  -0.8784
    -0.8488  -0.8044  -0.7752  -0.7080  -0.6033  -0.5680  -0.4871  -0.4215
    -0.3685  -0.3306  -0.3125  -0.2500  -0.0982  -0.0900   0.0390   0.0531
     0.0626   0.1069   0.1397   0.1772   0.2051   0.2718   0.5567   0.6519
     0.7178   0.7733   1.0384   1.0559   1.1492   1.1701   1.3354   1.3753
     1.4100   1.4331   1.4469   1.4691   1.5339   1.5853   1.6181   1.6936
     1.7872   1.8215   1.8457   1.8524   1.8900   1.9054   1.9088   1.9543
     1.9678   1.9850   2.0279   2.0383   2.0566   2.0915   2.1483   2.1928
     2.2698   2.4029   2.4129   2.4823   2.5526   2.5710   2.5895   2.6200
     2.6411   2.6660   2.6868   2.7015   2.7240   2.8210   2.8733   2.8902
     2.8991   2.9084   2.9283   2.9422   2.9609   2.9700   3.0076   3.0170
     3.0284   3.0364   3.0463   3.0559   3.5770   3.5939   3.7378   3.7897
     4.1278   4.1847   4.1856   4.3163   4.7587   4.9196   5.0583   5.1398
     5.3005   5.4305   5.6053   5.6531   5.7672   5.7867   6.3887   6.4169
     6.4862   6.6993   7.2693   7.4462   7.5804   7.7001   7.8040   7.8320
     7.8845   8.0368   8.3042   8.4207   8.4816   8.5198   8.5564   8.5664
     8.7088   8.7584   8.7931

     occupation numbers 
     1.0000   1.0000   1.0000   1.0000   1.0000   1.0000   1.0000   1.0000
     1.0000   1.0000   1.0000   1.0000   1.0000   1.0000   1.0000   1.0000
     1.0000   1.0000   1.0000   1.0000   1.0000   1.0000   1.0000   1.0000
     1.0000   1.0000   1.0000   1.0000   1.0000   1.0000   1.0000   1.0000
     1.0000   1.0000   1.0000   1.0000   1.0000   1.0000   1.0000   1.0000
     1.0000   1.0000   1.0000   1.0000   1.0000   1.0000   1.0000   1.0000
     1.0000   1.0000   1.0000   1.0000   1.0000   1.0000   1.0000   1.0000
     1.0000   1.0000   1.0000   1.0000   1.0000   1.0000   1.0000   1.0000
     1.0000   1.0000   1.0000   1.0000   1.0000   1.0000   1.0000   1.0000
     1.0000   1.0000   1.0000   1.0000   1.0000   1.0000   1.0000   1.0000
     1.0000   1.0000   1.0000   1.0000   1.0000   1.0000   1.0000   1.0000
     1.0000   1.0000   1.0000   1.0000   1.0000   1.0000   1.0000   1.0000
     1.0000   1.0000   1.0000   1.0000   1.0000   1.0000   1.0000   1.0000
     1.0000   1.0000   1.0000   1.0000   1.0000   1.0000   1.0000   1.0000
     1.0000   1.0000   1.0000   1.0000   1.0000   1.0000   1.0000   1.0000
     1.0000   1.0000   1.0000   1.0000   1.0000   1.0000   1.0000   1.0000
     1.0000   1.0000   1.0000   1.0000   1.0000   1.0000   1.0000   1.0000
     1.0000   1.0000   1.0000   1.0000   1.0000   1.0000   1.0000   1.0000
     1.0000   1.0000   1.0000   1.0000   1.0000   1.0000   1.0000   1.0000
     1.0000   1.0000   1.0000   1.0000   1.0000   1.0000   1.0000   1.0000
     0.9999   0.9999   0.9997   0.9996   0.9994   0.9993   0.9984   0.9981
     0.9977   0.9975   0.9973   0.9970   0.9960   0.9950   0.9943   0.9922
     0.9886   0.9870   0.9858   0.9854   0.9832   0.9823   0.9820   0.9788
     0.9778   0.9764   0.9726   0.9716   0.9698   0.9661   0.9593   0.9531
     0.9408   0.9137   0.9114   0.8937   0.8733   0.8675   0.8615   0.8513
     0.8439   0.8348   0.8271   0.8214   0.8126   0.7714   0.7472   0.7391
     0.7348   0.7303   0.7204   0.7134   0.7039   0.6992   0.6795   0.6745
     0.6684   0.6640   0.6587   0.6534   0.3523   0.3430   0.2683   0.2435
     0.1156   0.1000   0.0998   0.0698   0.0164   0.0088   0.0050   0.0035
     0.0016   0.0009   0.0003   0.0003   0.0001   0.0001   0.0000   0.0000
     0.0000   0.0000   0.0000   0.0000   0.0000   0.0000   0.0000   0.0000
     0.0000   0.0000   0.0000   0.0000   0.0000   0.0000   0.0000   0.0000
     0.0000   0.0000   0.0000

          k =-0.5000-0.5000 0.0000 ( 65132 PWs)   bands (ev):

   -92.7060 -92.6584 -92.5606 -92.5129 -92.4562 -92.4124 -92.3953 -92.2752
   -56.0594 -56.0454 -55.9176 -55.9067 -55.9006 -55.8935 -55.8621 -55.8296
   -55.8140 -55.8120 -55.8075 -55.7635 -55.7432 -55.7071 -55.6873 -55.6560
   -55.6484 -55.6009 -55.6005 -55.5977 -55.5893 -55.5506 -55.5256 -55.4409
   -31.2787 -31.2671 -31.1218 -31.0363 -31.0285 -30.9161 -30.8060 -30.7523
   -29.8490 -29.8100 -29.7846 -29.6774 -14.9360 -14.9108 -14.7926 -14.7810
   -14.6847 -14.6499 -14.6100 -14.4768 -13.9870 -13.9750 -13.9732 -13.9393
   -13.9229 -13.9063 -13.8857 -13.8621 -13.8518 -13.8398 -13.8238 -13.8046
   -13.7372 -13.7305 -13.6921 -13.6648 -13.6288 -13.5617 -13.5061 -13.3855
   -13.3433 -13.1618 -13.1199 -13.0558 -13.0306 -12.9998 -12.9894 -12.9798
   -12.9639 -12.9504 -12.8313 -12.7887 -12.7738 -12.7566 -12.7250 -12.7190
   -12.6759 -12.6102 -12.6024 -12.5428 -12.3609 -12.3216 -12.2047 -12.1729
   -12.1567 -11.7759 -11.7633 -11.7451 -11.7287 -11.6931 -11.6751 -11.6419
   -11.5815 -11.5606 -11.5562 -11.5060 -11.5027  -2.2269  -2.1536  -2.1452
    -2.0719  -2.0337  -1.9556  -1.8879  -1.7604  -1.6463  -1.6164  -1.5738
    -1.5200  -1.4471  -1.4334  -1.3624  -1.3198  -1.2015  -1.1751  -1.1621
    -1.1197  -1.0971  -1.0324  -0.9856  -0.9669  -0.9544  -0.8983  -0.8575
    -0.8373  -0.7256  -0.6689  -0.6249  -0.5748  -0.5440  -0.5277  -0.4989
    -0.4580  -0.4167  -0.4105  -0.3252  -0.2580  -0.2152  -0.1867  -0.1147
    -0.0534  -0.0481   0.0138   0.0481   0.0652   0.0739   0.5337   0.5691
     0.6601   0.6953   1.0667   1.0787   1.1137   1.1557   1.4219   1.4409
     1.4469   1.4941   1.6134   1.7094   1.7361   1.7726   1.7983   1.8183
     1.8266   1.8560   1.8671   1.8829   1.8947   1.9464   1.9474   1.9775
     1.9913   2.0140   2.0269   2.0630   2.0900   2.1061   2.1346   2.1731
     2.2288   2.2990   2.4054   2.4792   2.5695   2.5962   2.6182   2.6329
     2.6460   2.6757   2.6767   2.6964   2.7075   2.7244   2.7466   2.7563
     2.8227   2.8268   2.8465   2.8615   2.8768   2.8977   2.8987   2.9072
     3.0149   3.0202   3.0412   3.0545   4.0136   4.0384   4.0504   4.0752
     4.3147   4.3911   4.4135   4.6535   4.7767   4.8590   4.9884   5.0782
     5.0906   5.2035   5.2938   5.4464   5.8550   5.8811   5.9532   6.0304
     6.6589   6.8475   7.0698   7.1160   7.9128   7.9356   7.9604   7.9760
     7.9793   8.0209   8.0881   8.2678   8.4761   8.5847   8.6154   8.6562
     8.7012   8.7367   8.7603

     occupation numbers 
     1.0000   1.0000   1.0000   1.0000   1.0000   1.0000   1.0000   1.0000
     1.0000   1.0000   1.0000   1.0000   1.0000   1.0000   1.0000   1.0000
     1.0000   1.0000   1.0000   1.0000   1.0000   1.0000   1.0000   1.0000
     1.0000   1.0000   1.0000   1.0000   1.0000   1.0000   1.0000   1.0000
     1.0000   1.0000   1.0000   1.0000   1.0000   1.0000   1.0000   1.0000
     1.0000   1.0000   1.0000   1.0000   1.0000   1.0000   1.0000   1.0000
     1.0000   1.0000   1.0000   1.0000   1.0000   1.0000   1.0000   1.0000
     1.0000   1.0000   1.0000   1.0000   1.0000   1.0000   1.0000   1.0000
     1.0000   1.0000   1.0000   1.0000   1.0000   1.0000   1.0000   1.0000
     1.0000   1.0000   1.0000   1.0000   1.0000   1.0000   1.0000   1.0000
     1.0000   1.0000   1.0000   1.0000   1.0000   1.0000   1.0000   1.0000
     1.0000   1.0000   1.0000   1.0000   1.0000   1.0000   1.0000   1.0000
     1.0000   1.0000   1.0000   1.0000   1.0000   1.0000   1.0000   1.0000
     1.0000   1.0000   1.0000   1.0000   1.0000   1.0000   1.0000   1.0000
     1.0000   1.0000   1.0000   1.0000   1.0000   1.0000   1.0000   1.0000
     1.0000   1.0000   1.0000   1.0000   1.0000   1.0000   1.0000   1.0000
     1.0000   1.0000   1.0000   1.0000   1.0000   1.0000   1.0000   1.0000
     1.0000   1.0000   1.0000   1.0000   1.0000   1.0000   1.0000   1.0000
     1.0000   1.0000   1.0000   1.0000   1.0000   1.0000   1.0000   1.0000
     1.0000   1.0000   1.0000   1.0000   1.0000   1.0000   1.0000   1.0000
     1.0000   1.0000   0.9996   0.9996   0.9995   0.9994   0.9976   0.9974
     0.9973   0.9967   0.9944   0.9917   0.9907   0.9893   0.9882   0.9872
     0.9868   0.9852   0.9846   0.9837   0.9829   0.9794   0.9794   0.9770
     0.9759   0.9739   0.9727   0.9692   0.9663   0.9645   0.9610   0.9559
     0.9477   0.9356   0.9132   0.8945   0.8680   0.8593   0.8519   0.8468
     0.8421   0.8312   0.8309   0.8234   0.8191   0.8124   0.8034   0.7994
     0.7706   0.7688   0.7597   0.7528   0.7455   0.7355   0.7350   0.7308
     0.6756   0.6728   0.6615   0.6542   0.1521   0.1436   0.1396   0.1316
     0.0702   0.0561   0.0525   0.0240   0.0154   0.0112   0.0067   0.0045
     0.0043   0.0026   0.0017   0.0008   0.0001   0.0001   0.0000   0.0000
     0.0000   0.0000   0.0000   0.0000   0.0000   0.0000   0.0000   0.0000
     0.0000   0.0000   0.0000   0.0000   0.0000   0.0000   0.0000   0.0000
     0.0000   0.0000   0.0000

          k = 0.2500 0.0000 0.0000 ( 65257 PWs)   bands (ev):

   -92.7060 -92.6584 -92.5606 -92.5129 -92.4562 -92.4124 -92.3953 -92.2752
   -56.0594 -56.0454 -55.9176 -55.9067 -55.9006 -55.8935 -55.8621 -55.8296
   -55.8140 -55.8120 -55.8075 -55.7635 -55.7432 -55.7071 -55.6873 -55.6560
   -55.6484 -55.6009 -55.6005 -55.5977 -55.5893 -55.5506 -55.5256 -55.4409
   -31.2812 -31.2652 -31.1217 -31.0356 -31.0292 -30.9158 -30.8070 -30.7509
   -29.8512 -29.8096 -29.7837 -29.6763 -15.0536 -15.0078 -14.9407 -14.7948
   -14.6836 -14.4916 -14.3589 -14.1753 -14.1619 -14.1313 -14.1000 -14.0731
   -14.0429 -14.0237 -13.9961 -13.9733 -13.9503 -13.8439 -13.8110 -13.6644
   -13.5927 -13.5786 -13.5095 -13.4954 -13.4810 -13.4195 -13.3500 -13.3179
   -13.2191 -13.1642 -13.1475 -13.0660 -13.0502 -13.0360 -13.0264 -13.0036
   -12.9770 -12.9381 -12.8745 -12.8252 -12.8195 -12.8023 -12.7764 -12.7563
   -12.6686 -12.6392 -12.6241 -12.5896 -12.5089 -12.4111 -12.2539 -12.0782
[...]
     0.3519   0.3261   0.2042   0.0787   0.0462   0.0217   0.0059   0.0048
     0.0003   0.0001   0.0000   0.0000   0.0000   0.0000   0.0000   0.0000
     0.0000   0.0000   0.0000   0.0000   0.0000   0.0000   0.0000   0.0000
     0.0000   0.0000   0.0000   0.0000   0.0000   0.0000   0.0000   0.0000
     0.0000   0.0000   0.0000

          k =-0.5000 0.0000 0.0000 ( 65180 PWs)   bands (ev):

   -92.7060 -92.6584 -92.5606 -92.5129 -92.4562 -92.4124 -92.3953 -92.2752
   -56.0594 -56.0454 -55.9176 -55.9067 -55.9006 -55.8935 -55.8621 -55.8296
   -55.8140 -55.8120 -55.8075 -55.7635 -55.7432 -55.7071 -55.6873 -55.6560
   -55.6484 -55.6009 -55.6005 -55.5977 -55.5893 -55.5506 -55.5256 -55.4409
   -31.2791 -31.2674 -31.1214 -31.0360 -31.0290 -30.9156 -30.8071 -30.7511
   -29.8502 -29.8107 -29.7833 -29.6767 -15.0194 -14.9652 -14.9041 -14.7923
   -14.6931 -14.5482 -14.4021 -14.2537 -14.1367 -14.1166 -14.1126 -14.0419
   -13.9962 -13.9735 -13.9630 -13.9114 -13.8984 -13.8865 -13.8408 -13.8118
   -13.7112 -13.5601 -13.5143 -13.4975 -13.4884 -13.4151 -13.3691 -13.3021
   -13.2731 -13.2494 -13.2238 -13.0596 -13.0484 -13.0319 -13.0163 -12.9965
   -12.9514 -12.9302 -12.9098 -12.8194 -12.8018 -12.7483 -12.6637 -12.6455
   -12.6374 -12.6358 -12.6241 -12.5461 -12.4381 -12.3318 -12.3006 -12.1775
   -12.1334 -11.7826 -11.7608 -11.7542 -11.7397 -11.7212 -11.6797 -11.6181
   -11.6004 -11.5670 -11.5230 -11.5138 -11.4982  -2.5853  -2.5471  -2.3841
    -2.3448  -2.0303  -1.9538  -1.8085  -1.6902  -1.6507  -1.6034  -1.5576
    -1.5333  -1.4097  -1.3657  -1.3484  -1.2683  -1.2336  -1.2238  -1.1871
    -1.1520  -1.1230  -1.0575  -1.0296  -0.9972  -0.9023  -0.8578  -0.8071
    -0.7766  -0.7554  -0.7201  -0.6767  -0.6510  -0.6130  -0.5072  -0.4431
    -0.3672  -0.3077  -0.1528  -0.1059  -0.0611  -0.0100   0.0352   0.0560
     0.1944   0.2289   0.2752   0.4351   0.5349   0.5839   0.6840   0.7354
     0.8582   0.8690   0.9991   1.0272   1.0827   1.1180   1.1547   1.1595
     1.2111   1.2306   1.2993   1.3463   1.3942   1.4057   1.7017   1.7162
     1.7274   1.7596   1.8537   1.8666   1.8827   1.8899   1.9211   1.9339
     1.9712   1.9958   2.0170   2.0729   2.0909   2.1426   2.1636   2.2200
     2.3348   2.4049   2.4252   2.4871   2.4986   2.5115   2.5984   2.6215
     2.6545   2.7220   2.7300   2.7383   2.7681   2.8320   2.8767   2.9315
     2.9497   2.9963   3.0006   3.0039   3.0125   3.0292   3.0407   3.0534
     3.0595   3.0779   3.0820   3.1051   3.1244   3.1293   3.2576   3.2650
     4.0746   4.1260   4.1867   4.3123   4.7868   4.8596   5.0411   5.0597
     5.4812   5.5085   5.6022   5.6491   6.0290   6.0485   6.3895   6.4708
     6.7939   7.0019   7.2762   7.2930   7.3593   7.4434   7.7726   7.8777
     7.8894   8.0510   8.2315   8.2513   8.3086   8.5016   8.5244   8.6275
     8.7567   8.8483   8.9182

     occupation numbers 
     1.0000   1.0000   1.0000   1.0000   1.0000   1.0000   1.0000   1.0000
     1.0000   1.0000   1.0000   1.0000   1.0000   1.0000   1.0000   1.0000
     1.0000   1.0000   1.0000   1.0000   1.0000   1.0000   1.0000   1.0000
     1.0000   1.0000   1.0000   1.0000   1.0000   1.0000   1.0000   1.0000
     1.0000   1.0000   1.0000   1.0000   1.0000   1.0000   1.0000   1.0000
     1.0000   1.0000   1.0000   1.0000   1.0000   1.0000   1.0000   1.0000
     1.0000   1.0000   1.0000   1.0000   1.0000   1.0000   1.0000   1.0000
     1.0000   1.0000   1.0000   1.0000   1.0000   1.0000   1.0000   1.0000
     1.0000   1.0000   1.0000   1.0000   1.0000   1.0000   1.0000   1.0000
     1.0000   1.0000   1.0000   1.0000   1.0000   1.0000   1.0000   1.0000
     1.0000   1.0000   1.0000   1.0000   1.0000   1.0000   1.0000   1.0000
     1.0000   1.0000   1.0000   1.0000   1.0000   1.0000   1.0000   1.0000
     1.0000   1.0000   1.0000   1.0000   1.0000   1.0000   1.0000   1.0000
     1.0000   1.0000   1.0000   1.0000   1.0000   1.0000   1.0000   1.0000
     1.0000   1.0000   1.0000   1.0000   1.0000   1.0000   1.0000   1.0000
     1.0000   1.0000   1.0000   1.0000   1.0000   1.0000   1.0000   1.0000
     1.0000   1.0000   1.0000   1.0000   1.0000   1.0000   1.0000   1.0000
     1.0000   1.0000   1.0000   1.0000   1.0000   1.0000   1.0000   1.0000
     1.0000   1.0000   1.0000   1.0000   1.0000   1.0000   1.0000   1.0000
     1.0000   1.0000   1.0000   1.0000   1.0000   1.0000   1.0000   0.9999
     0.9999   0.9999   0.9997   0.9997   0.9996   0.9995   0.9994   0.9993
     0.9991   0.9990   0.9987   0.9983   0.9979   0.9978   0.9919   0.9914
     0.9910   0.9898   0.9854   0.9846   0.9837   0.9832   0.9812   0.9803
     0.9775   0.9755   0.9736   0.9681   0.9662   0.9600   0.9572   0.9491
     0.9286   0.9133   0.9084   0.8923   0.8892   0.8855   0.8586   0.8507
     0.8391   0.8134   0.8102   0.8068   0.7945   0.7664   0.7456   0.7188
     0.7096   0.6855   0.6832   0.6815   0.6769   0.6680   0.6617   0.6548
     0.6515   0.6413   0.6390   0.6261   0.6152   0.6124   0.5379   0.5335
     0.1318   0.1162   0.0995   0.0706   0.0148   0.0112   0.0053   0.0049
     0.0007   0.0006   0.0004   0.0003   0.0000   0.0000   0.0000   0.0000
     0.0000   0.0000   0.0000   0.0000   0.0000   0.0000   0.0000   0.0000
     0.0000   0.0000   0.0000   0.0000   0.0000   0.0000   0.0000   0.0000
     0.0000   0.0000   0.0000

          k =-0.2500 0.2500 0.0000 ( 65198 PWs)   bands (ev):

   -92.7060 -92.6584 -92.5606 -92.5129 -92.4562 -92.4124 -92.3953 -92.2752
   -56.0594 -56.0454 -55.9176 -55.9067 -55.9006 -55.8935 -55.8621 -55.8296
   -55.8140 -55.8120 -55.8075 -55.7635 -55.7432 -55.7071 -55.6873 -55.6560
   -55.6484 -55.6009 -55.6005 -55.5977 -55.5893 -55.5506 -55.5256 -55.4409
   -31.2810 -31.2651 -31.1219 -31.0358 -31.0289 -30.9160 -30.8064 -30.7515
   -29.8506 -29.8093 -29.7844 -29.6767 -15.0222 -14.9770 -14.9058 -14.7897
   -14.6732 -14.5485 -14.4660 -14.2530 -14.1183 -14.0896 -14.0737 -14.0272
   -14.0024 -13.9849 -13.9744 -13.9537 -13.9129 -13.8386 -13.8242 -13.6767
   -13.6486 -13.6168 -13.6000 -13.5323 -13.5014 -13.4406 -13.4303 -13.2951
   -13.2465 -13.2265 -13.1505 -13.1073 -13.0444 -13.0142 -12.9992 -12.9802
   -12.9479 -12.9323 -12.8536 -12.8183 -12.7854 -12.7766 -12.7548 -12.7153
   -12.6973 -12.6667 -12.6448 -12.4810 -12.4472 -12.3861 -12.2877 -12.1145
   -12.0599 -11.8025 -11.7811 -11.7543 -11.7420 -11.7005 -11.6666 -11.6428
   -11.6219 -11.5991 -11.5155 -11.4699 -11.4604  -2.6700  -2.4628  -2.3417
    -2.2515  -2.1351  -2.0690  -1.8637  -1.7206  -1.7024  -1.6698  -1.5805
    -1.5445  -1.4515  -1.4173  -1.3912  -1.2493  -1.1954  -1.1640  -1.1192
    -1.0947  -1.0340  -1.0139  -0.9740  -0.9456  -0.9053  -0.8412  -0.7939
    -0.7252  -0.6615  -0.6365  -0.5866  -0.5569  -0.5121  -0.4527  -0.4010
    -0.3671  -0.2625  -0.2343  -0.2179  -0.1760  -0.1138  -0.0412   0.0014
     0.0438   0.1107   0.1404   0.3872   0.5645   0.5970   0.6405   0.6979
     0.7557   0.8052   0.8721   0.8997   1.1826   1.2897   1.3288   1.3615
     1.3706   1.4097   1.4246   1.4726   1.5022   1.5150   1.5414   1.5890
     1.6041   1.6460   1.6706   1.7115   1.7942   1.8133   1.8359   1.8687
     1.8988   1.9373   1.9934   2.1024   2.2036   2.2298   2.2806   2.3011
     2.3614   2.4024   2.4113   2.4302   2.4536   2.4748   2.4865   2.5821
     2.6193   2.7105   2.8794   2.8867   2.9009   2.9101   2.9212   2.9352
     2.9431   2.9611   2.9707   2.9831   2.9943   3.0050   3.0146   3.0219
     3.0569   3.0668   3.0734   3.1079   3.3995   3.4807   3.5485   3.6191
     3.6370   3.8441   3.9577   4.3005   4.5034   4.7176   4.9876   5.1644
     5.6445   5.6999   5.7887   5.8293   5.8926   6.1272   6.1698   6.1964
     6.8935   6.9839   7.1451   7.3199   7.5626   7.6101   7.6702   7.8781
     7.9008   8.0128   8.2038   8.2375   8.3338   8.3760   8.4445   8.4609
     8.5655   8.7657   8.9309

     occupation numbers 
     1.0000   1.0000   1.0000   1.0000   1.0000   1.0000   1.0000   1.0000
     1.0000   1.0000   1.0000   1.0000   1.0000   1.0000   1.0000   1.0000
     1.0000   1.0000   1.0000   1.0000   1.0000   1.0000   1.0000   1.0000
     1.0000   1.0000   1.0000   1.0000   1.0000   1.0000   1.0000   1.0000
     1.0000   1.0000   1.0000   1.0000   1.0000   1.0000   1.0000   1.0000
     1.0000   1.0000   1.0000   1.0000   1.0000   1.0000   1.0000   1.0000
     1.0000   1.0000   1.0000   1.0000   1.0000   1.0000   1.0000   1.0000
     1.0000   1.0000   1.0000   1.0000   1.0000   1.0000   1.0000   1.0000
     1.0000   1.0000   1.0000   1.0000   1.0000   1.0000   1.0000   1.0000
     1.0000   1.0000   1.0000   1.0000   1.0000   1.0000   1.0000   1.0000
     1.0000   1.0000   1.0000   1.0000   1.0000   1.0000   1.0000   1.0000
     1.0000   1.0000   1.0000   1.0000   1.0000   1.0000   1.0000   1.0000
     1.0000   1.0000   1.0000   1.0000   1.0000   1.0000   1.0000   1.0000
     1.0000   1.0000   1.0000   1.0000   1.0000   1.0000   1.0000   1.0000
     1.0000   1.0000   1.0000   1.0000   1.0000   1.0000   1.0000   1.0000
     1.0000   1.0000   1.0000   1.0000   1.0000   1.0000   1.0000   1.0000
     1.0000   1.0000   1.0000   1.0000   1.0000   1.0000   1.0000   1.0000
     1.0000   1.0000   1.0000   1.0000   1.0000   1.0000   1.0000   1.0000
     1.0000   1.0000   1.0000   1.0000   1.0000   1.0000   1.0000   1.0000
     1.0000   1.0000   1.0000   1.0000   1.0000   1.0000   1.0000   1.0000
     0.9999   0.9999   0.9999   0.9998   0.9993   0.9987   0.9985   0.9982
     0.9981   0.9977   0.9976   0.9970   0.9966   0.9963   0.9959   0.9950
     0.9946   0.9936   0.9929   0.9916   0.9883   0.9874   0.9863   0.9845
     0.9827   0.9801   0.9757   0.9649   0.9516   0.9475   0.9389   0.9352
     0.9230   0.9139   0.9118   0.9072   0.9013   0.8957   0.8925   0.8639
     0.8515   0.8179   0.7443   0.7408   0.7339   0.7294   0.7240   0.7169
     0.7130   0.7038   0.6988   0.6924   0.6865   0.6809   0.6758   0.6719
     0.6529   0.6474   0.6438   0.6245   0.4539   0.4067   0.3681   0.3293
     0.3198   0.2189   0.1724   0.0730   0.0396   0.0191   0.0067   0.0031
     0.0003   0.0002   0.0001   0.0001   0.0001   0.0000   0.0000   0.0000
     0.0000   0.0000   0.0000   0.0000   0.0000   0.0000   0.0000   0.0000
     0.0000   0.0000   0.0000   0.0000   0.0000   0.0000   0.0000   0.0000
     0.0000   0.0000   0.0000

          k =-0.5000 0.2500 0.0000 ( 65138 PWs)   bands (ev):

   -92.7060 -92.6584 -92.5606 -92.5129 -92.4562 -92.4124 -92.3953 -92.2752
   -56.0594 -56.0454 -55.9176 -55.9067 -55.9006 -55.8935 -55.8621 -55.8296
   -55.8140 -55.8120 -55.8075 -55.7635 -55.7432 -55.7071 -55.6873 -55.6560
   -55.6484 -55.6009 -55.6005 -55.5977 -55.5893 -55.5506 -55.5256 -55.4409
   -31.2789 -31.2672 -31.1216 -31.0362 -31.0288 -30.9159 -30.8066 -30.7517
   -29.8496 -29.8104 -29.7840 -29.6771 -14.9863 -14.9392 -14.8614 -14.7592
   -14.7213 -14.5952 -14.5043 -14.3713 -14.0689 -14.0367 -14.0244 -13.9820
   -13.9741 -13.9552 -13.9362 -13.8978 -13.8811 -13.8671 -13.8277 -13.8106
   -13.7040 -13.6424 -13.5931 -13.5859 -13.5535 -13.4743 -13.4610 -13.3396
   -13.2892 -13.2050 -13.1687 -13.0721 -13.0315 -13.0209 -12.9980 -12.9765
   -12.9521 -12.9428 -12.8657 -12.8266 -12.7738 -12.7628 -12.6877 -12.6725
   -12.6550 -12.6271 -12.6188 -12.5442 -12.3954 -12.3270 -12.2569 -12.1716
   -12.1425 -11.7755 -11.7627 -11.7483 -11.7364 -11.7148 -11.6845 -11.6047
   -11.5966 -11.5727 -11.5376 -11.5094 -11.5008  -2.4427  -2.4011  -2.2537
    -2.2114  -2.0500  -1.9724  -1.8326  -1.6962  -1.6383  -1.6118  -1.5735
    -1.5360  -1.4548  -1.3393  -1.2824  -1.2596  -1.2319  -1.1812  -1.1394
    -1.1253  -1.0869  -1.0719  -1.0109  -0.9793  -0.9421  -0.9071  -0.8787
    -0.8199  -0.7929  -0.7517  -0.7159  -0.6100  -0.5862  -0.4888  -0.4363
    -0.4014  -0.3384  -0.2630  -0.2304  -0.1251  -0.0924  -0.0286   0.0166
     0.0630   0.1167   0.1486   0.1814   0.2277   0.2677   0.5991   0.6432
     0.7073   0.7345   1.0123   1.0795   1.1481   1.1776   1.3502   1.3839
     1.4222   1.4346   1.4524   1.4695   1.5394   1.5857   1.6235   1.6614
     1.7710   1.8165   1.8434   1.8554   1.8891   1.9160   1.9340   1.9483
     1.9649   1.9875   2.0330   2.0481   2.0851   2.1099   2.1411   2.1981
     2.3256   2.3997   2.4193   2.4474   2.4826   2.5113   2.5491   2.6142
     2.6501   2.6557   2.6970   2.7263   2.7513   2.8320   2.8753   2.8888
     2.8941   2.9158   2.9364   2.9489   2.9642   2.9768   3.0003   3.0133
     3.0224   3.0320   3.0395   3.0522   3.5835   3.6180   3.7719   3.7903
     4.0816   4.1417   4.1972   4.3981   4.7812   4.8773   5.0447   5.0772
     5.4085   5.4284   5.5867   5.6270   5.7420   5.8042   6.3892   6.4844
     6.4938   6.5994   7.3258   7.4140   7.5895   7.7113   7.7907   7.8328
     7.8890   8.0242   8.2887   8.4485   8.5140   8.5390   8.5714   8.5794
     8.6611   8.7555   8.7958

     occupation numbers 
     1.0000   1.0000   1.0000   1.0000   1.0000   1.0000   1.0000   1.0000
     1.0000   1.0000   1.0000   1.0000   1.0000   1.0000   1.0000   1.0000
     1.0000   1.0000   1.0000   1.0000   1.0000   1.0000   1.0000   1.0000
     1.0000   1.0000   1.0000   1.0000   1.0000   1.0000   1.0000   1.0000
     1.0000   1.0000   1.0000   1.0000   1.0000   1.0000   1.0000   1.0000
     1.0000   1.0000   1.0000   1.0000   1.0000   1.0000   1.0000   1.0000
     1.0000   1.0000   1.0000   1.0000   1.0000   1.0000   1.0000   1.0000
     1.0000   1.0000   1.0000   1.0000   1.0000   1.0000   1.0000   1.0000
     1.0000   1.0000   1.0000   1.0000   1.0000   1.0000   1.0000   1.0000
     1.0000   1.0000   1.0000   1.0000   1.0000   1.0000   1.0000   1.0000
     1.0000   1.0000   1.0000   1.0000   1.0000   1.0000   1.0000   1.0000
     1.0000   1.0000   1.0000   1.0000   1.0000   1.0000   1.0000   1.0000
     1.0000   1.0000   1.0000   1.0000   1.0000   1.0000   1.0000   1.0000
     1.0000   1.0000   1.0000   1.0000   1.0000   1.0000   1.0000   1.0000
     1.0000   1.0000   1.0000   1.0000   1.0000   1.0000   1.0000   1.0000
     1.0000   1.0000   1.0000   1.0000   1.0000   1.0000   1.0000   1.0000
     1.0000   1.0000   1.0000   1.0000   1.0000   1.0000   1.0000   1.0000
     1.0000   1.0000   1.0000   1.0000   1.0000   1.0000   1.0000   1.0000
     1.0000   1.0000   1.0000   1.0000   1.0000   1.0000   1.0000   1.0000
     1.0000   1.0000   1.0000   1.0000   1.0000   1.0000   1.0000   1.0000
     0.9999   0.9999   0.9997   0.9996   0.9994   0.9993   0.9983   0.9980
     0.9976   0.9975   0.9972   0.9970   0.9959   0.9950   0.9942   0.9932
     0.9893   0.9873   0.9859   0.9853   0.9833   0.9816   0.9803   0.9793
     0.9780   0.9762   0.9722   0.9707   0.9668   0.9640   0.9602   0.9524
     0.9304   0.9145   0.9099   0.9029   0.8936   0.8856   0.8743   0.8532
     0.8407   0.8386   0.8232   0.8116   0.8015   0.7664   0.7463   0.7398
     0.7372   0.7266   0.7163   0.7100   0.7022   0.6957   0.6834   0.6765
     0.6716   0.6664   0.6624   0.6555   0.3487   0.3299   0.2519   0.2432
     0.1296   0.1117   0.0968   0.0550   0.0151   0.0104   0.0053   0.0046
     0.0010   0.0009   0.0004   0.0003   0.0002   0.0001   0.0000   0.0000
     0.0000   0.0000   0.0000   0.0000   0.0000   0.0000   0.0000   0.0000
     0.0000   0.0000   0.0000   0.0000   0.0000   0.0000   0.0000   0.0000
     0.0000   0.0000   0.0000

     the Fermi energy is     3.3216 ev

!    total energy              =   -4441.66566629 Ry
     estimated scf accuracy    <          6.0E-09 Ry
     smearing contrib. (-TS)   =      -1.15486459 Ry
     internal energy E=F+TS    =   -4440.51080170 Ry

     The total energy is F=E-TS. E is the sum of the following terms:
     one-electron contribution =  -20802.75641858 Ry
     hartree contribution      =   10533.28916691 Ry
     xc contribution           =    -694.18456110 Ry
     ewald contribution        =    6799.31004068 Ry
     one-center paw contrib.   =    -276.16902961 Ry
      -> PAW hartree energy AE =      25.16660320 Ry
      -> PAW hartree energy PS =     -25.05045222 Ry
      -> PAW xc energy AE      =     -16.51804962 Ry
      -> PAW xc energy PS      =       6.87752821 Ry
      -> total E_H with PAW    =   10533.40531790 Ry
      -> total E_XC with PAW   =    -703.82508251 Ry

     convergence has been achieved in  47 iterations

     Writing all to output data dir /bsuhome/zayahcortright/scratch/pwscf.save/
 
     init_run     :      7.98s CPU      8.57s WALL (       1 calls)
     electrons    :    757.82s CPU    840.85s WALL (       1 calls)

     Called by init_run:
     wfcinit      :      6.06s CPU      6.27s WALL (       1 calls)
     wfcinit:atom :      0.05s CPU      0.07s WALL (       5 calls)
     wfcinit:wfcr :      5.73s CPU      5.86s WALL (       5 calls)
     potinit      :      0.16s CPU      0.18s WALL (       1 calls)
     hinit0       :      0.81s CPU      0.93s WALL (       1 calls)

     Called by electrons:
     c_bands      :    613.10s CPU    626.67s WALL (      47 calls)
     sum_band     :    106.88s CPU    145.78s WALL (      47 calls)
     v_of_rho     :      5.13s CPU      5.52s WALL (      48 calls)
     v_h          :      0.47s CPU      0.47s WALL (      48 calls)
     v_xc         :      4.66s CPU      5.05s WALL (      48 calls)
     newd         :     18.50s CPU     48.07s WALL (      48 calls)
     PAW_pot      :      1.57s CPU      1.60s WALL (      48 calls)
     mix_rho      :     12.41s CPU     12.84s WALL (      47 calls)

     Called by c_bands:
     init_us_2    :      6.48s CPU      6.58s WALL (     475 calls)
     init_us_2:cp :      6.48s CPU      6.58s WALL (     475 calls)
     cegterg      :    581.54s CPU    594.78s WALL (     235 calls)

     Called by sum_band:
     sum_band:wei :      0.34s CPU      0.34s WALL (      47 calls)
     sum_band:loo :     86.85s CPU     87.60s WALL (      47 calls)
     sum_band:buf :      1.36s CPU      1.43s WALL (     235 calls)
     sum_band:ini :      2.92s CPU      2.93s WALL (     235 calls)
     sum_band:cal :     18.55s CPU     18.61s WALL (     235 calls)
     sum_band:bec :      0.56s CPU      0.61s WALL (     235 calls)
     addusdens    :     17.83s CPU     55.92s WALL (      47 calls)
                                        0.00s GPU  (      47 calls)
     addusd:skk   :      0.30s CPU      2.07s WALL (     188 calls)
                                        0.00s GPU  (     188 calls)

     Called by *egterg:
     cdiaghg      :     57.40s CPU     57.76s WALL (    1326 calls)
     cegterg:over :     47.94s CPU     48.15s WALL (    1091 calls)
     cegterg:upda :     51.25s CPU     52.43s WALL (    1091 calls)
     cegterg:last :     68.43s CPU     68.94s WALL (     426 calls)
     cdiaghg:chol :      3.15s CPU      3.17s WALL (    1326 calls)
     cdiaghg:inve :      3.71s CPU      3.73s WALL (    1326 calls)
     cdiaghg:para :      7.50s CPU      7.57s WALL (    2652 calls)
     h_psi        :    290.87s CPU    296.10s WALL (    1331 calls)
     s_psi        :     38.72s CPU     38.88s WALL (    1331 calls)
     g_psi        :      2.60s CPU      2.62s WALL (    1091 calls)

     Called by h_psi:
     h_psi:calbec :     44.16s CPU     44.47s WALL (    1331 calls)
     vloc_psi     :    202.25s CPU    204.59s WALL (    1331 calls)
     add_vuspsi   :     38.43s CPU     38.71s WALL (    1331 calls)

     General routines
     calbec       :     62.70s CPU     63.07s WALL (    1566 calls)
     fft          :      3.89s CPU      3.95s WALL (     622 calls)
     ffts         :      4.45s CPU      4.50s WALL (    5047 calls)
     fftw         :    173.02s CPU    174.80s WALL (  318915 calls)
     interpolate  :      0.39s CPU      0.40s WALL (      48 calls)
 
     Parallel routines

     PAW routines
     PAW_pot      :      1.57s CPU      1.60s WALL (      48 calls)
 
     PWSCF        :  12m47.24s CPU  14m14.93s WALL

 
   This run was terminated on:   5:13:26  22Jun2024            

=------------------------------------------------------------------------------=
   JOB DONE.
=------------------------------------------------------------------------------=
