
     Program PWSCF v.7.2 starts on 21Jun2024 at 15:27:55 

     This program is part of the open-source Quantum ESPRESSO suite
     for quantum simulation of materials; please cite
         "P. Giannozzi et al., J. Phys.:Condens. Matter 21 395502 (2009);
         "P. Giannozzi et al., J. Phys.:Condens. Matter 29 465901 (2017);
         "P. Giannozzi et al., J. Chem. Phys. 152 154105 (2020);
          URL http://www.quantum-espresso.org", 
     in publications or presentations arising from this work. More details at
     http://www.quantum-espresso.org/quote

     Parallel version (MPI & OpenMP), running on      48 processor cores
     Number of MPI processes:                48
     Threads/MPI process:                     1

     MPI processes distributed on     1 nodes
     33241 MiB available memory on the printing compute node when the environment starts
 
     Reading input from espresso.pwi
Warning: card &CELL ignored
Warning: card / ignored
Warning: card &FCP ignored
Warning: card / ignored
Warning: card &RISM ignored
Warning: card / ignored

     Current dimensions of program PWSCF are:
     Max number of different atomic species (ntypx) = 10
     Max number of k-points (npk) =  40000
     Max angular momentum in pseudopotentials (lmaxx) =  4
     file O.pbe-n-kjpaw_psl.0.1.UPF: wavefunction(s)  2P renormalized
     signal trapping enabled: kill the code with -SIGUSR1 to stop cleanly the simulation 
 
     K-points division:     npool     =       2
     R & G space division:  proc/nbgrp/npool/nimage =      24
     Subspace diagonalization in iterative solution of the eigenvalue problem:
     one sub-group per band group will be used
     scalapack distributed-memory algorithm (size of sub-group:  3*  3 procs)

 
     Parallelization info
     --------------------
     sticks:   dense  smooth     PW     G-vecs:    dense   smooth      PW
     Min         350     175     47                61430    21716    3036
     Max         351     177     48                61449    21727    3041
     Sum        8421    4205   1137              1474595   521381   72913
 
     Using Slab Decomposition
 


     bravais-lattice index     =            0
     lattice parameter (alat)  =      14.8599  a.u.
     unit-cell volume          =    8305.1283 (a.u.)^3
     number of atoms/cell      =           50
     number of atomic types    =            4
     number of electrons       =       431.00
     number of Kohn-Sham states=          259
     kinetic-energy cutoff     =      60.0000  Ry
     charge density cutoff     =     480.0000  Ry
     scf convergence threshold =      1.0E-08
     mixing beta               =       0.1500
     number of iterations used =            8  local-TF  mixing
     Exchange-correlation= PBE
                           (   1   4   3   4   0   0   0)

     celldm(1)=  14.859904  celldm(2)=   0.000000  celldm(3)=   0.000000
     celldm(4)=   0.000000  celldm(5)=   0.000000  celldm(6)=   0.000000

     crystal axes: (cart. coord. in units of alat)
               a(1) = (   1.000000   0.000000   0.000000 )  
               a(2) = (   0.000000   1.000000   0.000000 )  
               a(3) = (   0.000000   0.000000   2.531036 )  

     reciprocal axes: (cart. coord. in units 2 pi/alat)
               b(1) = (  1.000000  0.000000  0.000000 )  
               b(2) = (  0.000000  1.000000  0.000000 )  
               b(3) = (  0.000000  0.000000  0.395095 )  


     PseudoPot. # 1 for Sr read from file:
     /bsuhome/zayahcortright/q-e/pseudo/Sr_pbe_v1.uspp.F.UPF
     MD5 check sum: 6b418c05fbe9db5448babca5e47b7a5b
     Pseudo is Ultrasoft + core correction, Zval = 10.0
     Generated by new atomic code, or converted to UPF format
     Using radial grid of  883 points,  6 beta functions with: 
                l(1) =   0
                l(2) =   0
                l(3) =   1
                l(4) =   1
                l(5) =   2
                l(6) =   2
     Q(r) pseudized with  6 coefficients,  rinner =    1.400   1.400   1.400
                                                       1.400   1.400

     PseudoPot. # 2 for O  read from file:
     /bsuhome/zayahcortright/q-e/pseudo/O.pbe-n-kjpaw_psl.0.1.UPF
     MD5 check sum: 0234752ac141de4415c5fc33072bef88
     Pseudo is Projector augmented-wave + core cor, Zval =  6.0
     Generated using "atomic" code by A. Dal Corso  v.5.0.99 svn rev. 10869
     Shape of augmentation charge: BESSEL
     Using radial grid of 1095 points,  4 beta functions with: 
                l(1) =   0
                l(2) =   0
                l(3) =   1
                l(4) =   1
     Q(r) pseudized with 0 coefficients 


     PseudoPot. # 3 for Co read from file:
     /bsuhome/zayahcortright/q-e/pseudo/Co_pbe_v1.2.uspp.F.UPF
     MD5 check sum: 5f91765df6ddd3222702df6e7b74a16d
     Pseudo is Ultrasoft + core correction, Zval = 17.0
     Generated by new atomic code, or converted to UPF format
     Using radial grid of  863 points,  6 beta functions with: 
                l(1) =   0
                l(2) =   0
                l(3) =   1
                l(4) =   1
                l(5) =   2
                l(6) =   2
     Q(r) pseudized with  8 coefficients,  rinner =    1.200   1.200   1.200
                                                       1.200   1.200

     PseudoPot. # 4 for H  read from file:
     /bsuhome/zayahcortright/q-e/pseudo/H.pbe-rrkjus_psl.1.0.0.UPF
     MD5 check sum: f52b6d4d1c606e5624b1dc7b2218f220
     Pseudo is Ultrasoft, Zval =  1.0
     Generated using "atomic" code by A. Dal Corso  v.5.1
     Using radial grid of  929 points,  2 beta functions with: 
                l(1) =   0
                l(2) =   0
     Q(r) pseudized with 0 coefficients 


     atomic species   valence    mass     pseudopotential
        Sr            10.00    87.62000     Sr( 1.00)
        O              6.00    15.99900     O ( 1.00)
        Co            17.00    58.93319     Co( 1.00)
        H              1.00     1.00800     H ( 1.00)

     No symmetry found


                                    s                        frac. trans.

      isym =  1     identity                                     

 cryst.   s( 1) = (     1          0          0      )
                  (     0          1          0      )
                  (     0          0          1      )

 cart.    s( 1) = (  1.0000000  0.0000000  0.0000000 )
                  (  0.0000000  1.0000000  0.0000000 )
                  (  0.0000000  0.0000000  1.0000000 )


   Cartesian axes

     site n.     atom                  positions (alat units)
         1           Sr  tau(   1) = (   0.2508693   0.7491307   1.7574407  )
         2           O   tau(   2) = (   0.4985141   0.5014859   1.7715967  )
         3           Sr  tau(   3) = (   0.7482398   0.7454518   1.7648669  )
         4           Sr  tau(   4) = (   0.7441748   0.2558252   1.7667843  )
         5           Sr  tau(   5) = (   0.2508693   0.7491307   1.2696799  )
         6           Sr  tau(   6) = (   0.2508693   0.7491307   0.7632319  )
         7           Co  tau(   7) = (   0.4998914   0.5001086   1.0164559  )
         8           Co  tau(   8) = (   0.4936915   0.5063085   1.5135603  )
         9           O   tau(   9) = (   0.4988895   0.7610401   1.0164559  )
        10           O   tau(  10) = (   0.2389599   0.5011105   1.0164559  )
        11           O   tau(  11) = (   0.0070918   0.7374880   1.0164559  )
        12           O   tau(  12) = (   0.0088340   0.7405089   1.5135603  )
        13           O   tau(  13) = (   0.5066944   0.7415376   1.5135603  )
        14           O   tau(  14) = (   0.2584624   0.4933056   1.5135603  )
        15           O   tau(  15) = (   0.4985141   0.5014859   0.7773880  )
        16           O   tau(  16) = (   0.4985141   0.5014859   1.2555238  )
        17           Sr  tau(  17) = (   0.7482398   0.7454518   0.7706582  )
        18           Sr  tau(  18) = (   0.7482398   0.7454518   1.2622536  )
        19           Sr  tau(  19) = (   0.7441748   0.2558252   0.7725755  )
        20           Sr  tau(  20) = (   0.7441748   0.2558252   1.2603363  )
        21           O   tau(  21) = (   0.7322655   0.0078049   1.5135603  )
        22           O   tau(  22) = (   0.7558175   0.4996027   1.5135603  )
        23           O   tau(  23) = (   0.5003973   0.2441825   1.5135603  )
        24           O   tau(  24) = (   0.7527966   0.4978604   1.0164559  )
        25           O   tau(  25) = (   0.5021396   0.2472034   1.0164559  )
        26           O   tau(  26) = (   0.7517679   0.0000000   1.0164559  )
        27           O   tau(  27) = (   0.0114961   0.4948124   1.7455321  )
        28           O   tau(  28) = (   0.0048226   0.0077944   1.7715967  )
        29           Sr  tau(  29) = (   0.2545482   0.2517602   1.7648669  )
        30           O   tau(  30) = (   0.5048017   0.0015068   1.7786929  )
        31           Co  tau(  31) = (   0.0056869   0.5006215   1.0164559  )
        32           Co  tau(  32) = (   0.0065315   0.4997770   1.5135603  )
        33           Co  tau(  33) = (   0.0061999   0.0064171   1.0164559  )
        34           Co  tau(  34) = (   0.0000000   0.0126169   1.5135603  )
        35           O   tau(  35) = (   0.0114961   0.4948124   1.2815885  )
        36           O   tau(  36) = (   0.0114961   0.4948124   0.7513233  )
        37           O   tau(  37) = (   0.0051979   0.2673486   1.0164559  )
        38           O   tau(  38) = (   0.0130029   0.2478461   1.5135603  )
        39           O   tau(  39) = (   0.0048226   0.0077944   0.7773880  )
        40           O   tau(  40) = (   0.0048226   0.0077944   1.2555238  )
        41           Sr  tau(  41) = (   0.2545482   0.2517602   0.7706582  )
        42           Sr  tau(  42) = (   0.2545482   0.2517602   1.2622536  )
        43           Co  tau(  43) = (   0.4989925   0.0073160   1.5135603  )
        44           Co  tau(  44) = (   0.4998370   0.0064714   1.0164559  )
        45           O   tau(  45) = (   0.5048017   0.0015068   0.7844841  )
        46           O   tau(  46) = (   0.5048017   0.0015068   1.2484277  )
        47           O   tau(  47) = (   0.2621260   0.0059111   1.5135603  )
        48           O   tau(  48) = (   0.2591051   0.0041689   1.0164559  )
        49           O   tau(  49) = (   0.0000000   0.7108228   2.1602013  )
        50           H   tau(  50) = (   0.0000000   0.7108228   2.2847091  )

   Crystallographic axes

     site n.     atom                  positions (cryst. coord.)
         1           Sr  tau(   1) = (  0.2508693  0.7491307  0.6943562  )
         2           O   tau(   2) = (  0.4985141  0.5014859  0.6999492  )
         3           Sr  tau(   3) = (  0.7482398  0.7454518  0.6972903  )
         4           Sr  tau(   4) = (  0.7441748  0.2558252  0.6980478  )
         5           Sr  tau(   5) = (  0.2508693  0.7491307  0.5016443  )
         6           Sr  tau(   6) = (  0.2508693  0.7491307  0.3015492  )
         7           Co  tau(   7) = (  0.4998914  0.5001086  0.4015968  )
         8           Co  tau(   8) = (  0.4936915  0.5063085  0.5980003  )
         9           O   tau(   9) = (  0.4988895  0.7610401  0.4015968  )
        10           O   tau(  10) = (  0.2389599  0.5011105  0.4015968  )
        11           O   tau(  11) = (  0.0070918  0.7374880  0.4015968  )
        12           O   tau(  12) = (  0.0088340  0.7405089  0.5980003  )
        13           O   tau(  13) = (  0.5066944  0.7415376  0.5980003  )
        14           O   tau(  14) = (  0.2584624  0.4933056  0.5980003  )
        15           O   tau(  15) = (  0.4985141  0.5014859  0.3071422  )
        16           O   tau(  16) = (  0.4985141  0.5014859  0.4960513  )
        17           Sr  tau(  17) = (  0.7482398  0.7454518  0.3044833  )
        18           Sr  tau(  18) = (  0.7482398  0.7454518  0.4987103  )
        19           Sr  tau(  19) = (  0.7441748  0.2558252  0.3052408  )
        20           Sr  tau(  20) = (  0.7441748  0.2558252  0.4979527  )
        21           O   tau(  21) = (  0.7322655  0.0078049  0.5980003  )
        22           O   tau(  22) = (  0.7558175  0.4996027  0.5980003  )
        23           O   tau(  23) = (  0.5003973  0.2441825  0.5980003  )
        24           O   tau(  24) = (  0.7527966  0.4978604  0.4015968  )
        25           O   tau(  25) = (  0.5021396  0.2472034  0.4015968  )
        26           O   tau(  26) = (  0.7517679  0.0000000  0.4015968  )
        27           O   tau(  27) = (  0.0114961  0.4948124  0.6896512  )
        28           O   tau(  28) = (  0.0048226  0.0077944  0.6999492  )
        29           Sr  tau(  29) = (  0.2545482  0.2517602  0.6972903  )
        30           O   tau(  30) = (  0.5048017  0.0015068  0.7027529  )
        31           Co  tau(  31) = (  0.0056869  0.5006215  0.4015968  )
        32           Co  tau(  32) = (  0.0065315  0.4997770  0.5980003  )
        33           Co  tau(  33) = (  0.0061999  0.0064171  0.4015968  )
        34           Co  tau(  34) = (  0.0000000  0.0126169  0.5980003  )
        35           O   tau(  35) = (  0.0114961  0.4948124  0.5063494  )
        36           O   tau(  36) = (  0.0114961  0.4948124  0.2968442  )
        37           O   tau(  37) = (  0.0051979  0.2673486  0.4015968  )
        38           O   tau(  38) = (  0.0130029  0.2478461  0.5980003  )
        39           O   tau(  39) = (  0.0048226  0.0077944  0.3071422  )
        40           O   tau(  40) = (  0.0048226  0.0077944  0.4960513  )
        41           Sr  tau(  41) = (  0.2545482  0.2517602  0.3044833  )
        42           Sr  tau(  42) = (  0.2545482  0.2517602  0.4987103  )
        43           Co  tau(  43) = (  0.4989925  0.0073160  0.5980003  )
        44           Co  tau(  44) = (  0.4998370  0.0064714  0.4015968  )
        45           O   tau(  45) = (  0.5048017  0.0015068  0.3099459  )
        46           O   tau(  46) = (  0.5048017  0.0015068  0.4932477  )
        47           O   tau(  47) = (  0.2621260  0.0059111  0.5980003  )
        48           O   tau(  48) = (  0.2591051  0.0041689  0.4015968  )
        49           O   tau(  49) = (  0.0000000  0.7108228  0.8534850  )
        50           H   tau(  50) = (  0.0000000  0.7108228  0.9026774  )

     number of k points=    10  Gaussian smearing, width (Ry)=  0.0700
                       cart. coord. in units 2pi/alat
        k(    1) = (   0.0000000   0.0000000   0.0000000), wk =   0.1250000
        k(    2) = (   0.0000000   0.2500000   0.0000000), wk =   0.2500000
        k(    3) = (   0.0000000  -0.5000000   0.0000000), wk =   0.1250000
        k(    4) = (   0.2500000   0.2500000   0.0000000), wk =   0.2500000
        k(    5) = (   0.2500000  -0.5000000   0.0000000), wk =   0.2500000
        k(    6) = (  -0.5000000  -0.5000000   0.0000000), wk =   0.1250000
        k(    7) = (   0.2500000   0.0000000   0.0000000), wk =   0.2500000
        k(    8) = (  -0.5000000   0.0000000   0.0000000), wk =   0.1250000
        k(    9) = (  -0.2500000   0.2500000   0.0000000), wk =   0.2500000
        k(   10) = (  -0.5000000   0.2500000   0.0000000), wk =   0.2500000

                       cryst. coord.
        k(    1) = (   0.0000000   0.0000000   0.0000000), wk =   0.1250000
        k(    2) = (   0.0000000   0.2500000   0.0000000), wk =   0.2500000
        k(    3) = (   0.0000000  -0.5000000   0.0000000), wk =   0.1250000
        k(    4) = (   0.2500000   0.2500000   0.0000000), wk =   0.2500000
        k(    5) = (   0.2500000  -0.5000000   0.0000000), wk =   0.2500000
        k(    6) = (  -0.5000000  -0.5000000   0.0000000), wk =   0.1250000
        k(    7) = (   0.2500000   0.0000000   0.0000000), wk =   0.2500000
        k(    8) = (  -0.5000000   0.0000000   0.0000000), wk =   0.1250000
        k(    9) = (  -0.2500000   0.2500000   0.0000000), wk =   0.2500000
        k(   10) = (  -0.5000000   0.2500000   0.0000000), wk =   0.2500000

     Dense  grid:  1474595 G-vectors     FFT dimensions: ( 108, 108, 270)

     Smooth grid:   521381 G-vectors     FFT dimensions: (  75,  75, 192)

     Dynamical RAM for                 wfc:      10.73 MB

     Dynamical RAM for     wfc (w. buffer):      64.38 MB

     Dynamical RAM for           str. fact:       3.75 MB

     Dynamical RAM for           local pot:       0.00 MB

     Dynamical RAM for          nlocal pot:      24.61 MB

     Dynamical RAM for                qrad:       7.03 MB

     Dynamical RAM for          rho,v,vnew:       6.02 MB

     Dynamical RAM for               rhoin:       2.01 MB

     Dynamical RAM for            rho*nmix:      15.00 MB

     Dynamical RAM for           G-vectors:       3.68 MB

     Dynamical RAM for          h,s,v(r/c):       1.35 MB

     Dynamical RAM for          <psi|beta>:       2.35 MB

     Dynamical RAM for                 psi:      21.46 MB

     Dynamical RAM for                hpsi:      21.46 MB

     Dynamical RAM for                spsi:      21.46 MB

     Dynamical RAM for      wfcinit/wfcrot:      34.49 MB

     Dynamical RAM for           addusdens:     101.26 MB

     Estimated static dynamical RAM per process >     121.50 MB

     Estimated max dynamical RAM per process >     237.76 MB

     Estimated total dynamical RAM >      10.79 GB

     Check: negative core charge=   -0.000004

     Initial potential from superposition of free atoms

     starting charge     422.5961, renormalised to     431.0000

     negative rho (up, down):  7.820E-01 0.000E+00
     Starting wfcs are  377 randomized atomic wfcs
     Checking if some PAW data can be deallocated... 
       PAW data deallocated on   19 nodes for type:  2

     total cpu time spent up to now is        9.2 secs

     Self-consistent Calculation

     iteration #  1     ecut=    60.00 Ry     beta= 0.15
     Davidson diagonalization with overlap

---- Real-time Memory Report at c_bands before calling an iterative solver
             0 MiB given to the printing process from OS
             0 MiB allocation reported by mallinfo(arena+hblkhd)
         23988 MiB available memory on the node where the printing process lives
------------------
     ethr =  1.00E-02,  avg # of iterations =  2.0

     negative rho (up, down):  7.719E-01 0.000E+00

     total cpu time spent up to now is       26.5 secs

     total energy              =   -4446.69038532 Ry
     estimated scf accuracy    <      44.74311417 Ry

     iteration #  2     ecut=    60.00 Ry     beta= 0.15
     Davidson diagonalization with overlap

---- Real-time Memory Report at c_bands before calling an iterative solver
             0 MiB given to the printing process from OS
             0 MiB allocation reported by mallinfo(arena+hblkhd)
         24256 MiB available memory on the node where the printing process lives
------------------
     ethr =  1.00E-02,  avg # of iterations =  1.0

     negative rho (up, down):  7.586E-01 0.000E+00

     total cpu time spent up to now is       41.7 secs

     total energy              =   -4443.33622828 Ry
     estimated scf accuracy    <      29.98546896 Ry

     iteration #  3     ecut=    60.00 Ry     beta= 0.15
     Davidson diagonalization with overlap

---- Real-time Memory Report at c_bands before calling an iterative solver
             0 MiB given to the printing process from OS
             0 MiB allocation reported by mallinfo(arena+hblkhd)
         23426 MiB available memory on the node where the printing process lives
------------------
     ethr =  6.96E-03,  avg # of iterations =  1.0

     negative rho (up, down):  7.555E-01 0.000E+00

     total cpu time spent up to now is       57.2 secs

     total energy              =   -4444.26642278 Ry
     estimated scf accuracy    <      27.87865217 Ry

     iteration #  4     ecut=    60.00 Ry     beta= 0.15
     Davidson diagonalization with overlap

---- Real-time Memory Report at c_bands before calling an iterative solver
             0 MiB given to the printing process from OS
             0 MiB allocation reported by mallinfo(arena+hblkhd)
         23403 MiB available memory on the node where the printing process lives
------------------
     ethr =  6.47E-03,  avg # of iterations =  1.0

     negative rho (up, down):  7.504E-01 0.000E+00

     total cpu time spent up to now is       72.8 secs

     total energy              =   -4443.08952409 Ry
     estimated scf accuracy    <      20.57026507 Ry

     iteration #  5     ecut=    60.00 Ry     beta= 0.15
     Davidson diagonalization with overlap

---- Real-time Memory Report at c_bands before calling an iterative solver
             0 MiB given to the printing process from OS
             0 MiB allocation reported by mallinfo(arena+hblkhd)
         23386 MiB available memory on the node where the printing process lives
------------------
     ethr =  4.77E-03,  avg # of iterations =  1.0

     negative rho (up, down):  7.396E-01 0.000E+00

     total cpu time spent up to now is       88.3 secs

     total energy              =   -4442.46945783 Ry
     estimated scf accuracy    <      12.13049408 Ry

     iteration #  6     ecut=    60.00 Ry     beta= 0.15
     Davidson diagonalization with overlap

---- Real-time Memory Report at c_bands before calling an iterative solver
             0 MiB given to the printing process from OS
             0 MiB allocation reported by mallinfo(arena+hblkhd)
         23368 MiB available memory on the node where the printing process lives
------------------
     ethr =  2.81E-03,  avg # of iterations =  1.1

     negative rho (up, down):  7.425E-01 0.000E+00

     total cpu time spent up to now is      104.1 secs

     total energy              =   -4442.82417664 Ry
     estimated scf accuracy    <       5.05864631 Ry

     iteration #  7     ecut=    60.00 Ry     beta= 0.15
     Davidson diagonalization with overlap

---- Real-time Memory Report at c_bands before calling an iterative solver
             0 MiB given to the printing process from OS
             0 MiB allocation reported by mallinfo(arena+hblkhd)
         23353 MiB available memory on the node where the printing process lives
------------------
     ethr =  1.17E-03,  avg # of iterations =  1.7

     negative rho (up, down):  7.649E-01 0.000E+00

     total cpu time spent up to now is      120.1 secs

     total energy              =   -4441.64239717 Ry
     estimated scf accuracy    <       3.98394605 Ry

     iteration #  8     ecut=    60.00 Ry     beta= 0.15
     Davidson diagonalization with overlap

---- Real-time Memory Report at c_bands before calling an iterative solver
             0 MiB given to the printing process from OS
             0 MiB allocation reported by mallinfo(arena+hblkhd)
         23330 MiB available memory on the node where the printing process lives
------------------
     ethr =  9.24E-04,  avg # of iterations =  3.8

     negative rho (up, down):  7.730E-01 0.000E+00

     total cpu time spent up to now is      140.1 secs

     total energy              =   -4441.28886385 Ry
     estimated scf accuracy    <      21.56323247 Ry

     iteration #  9     ecut=    60.00 Ry     beta= 0.15
     Davidson diagonalization with overlap

---- Real-time Memory Report at c_bands before calling an iterative solver
             0 MiB given to the printing process from OS
             0 MiB allocation reported by mallinfo(arena+hblkhd)
         23209 MiB available memory on the node where the printing process lives
------------------
     ethr =  9.24E-04,  avg # of iterations = 10.4

     negative rho (up, down):  7.702E-01 0.000E+00

     total cpu time spent up to now is      163.9 secs

     total energy              =   -4441.72142473 Ry
     estimated scf accuracy    <       3.77754035 Ry

     iteration # 10     ecut=    60.00 Ry     beta= 0.15
     Davidson diagonalization with overlap

---- Real-time Memory Report at c_bands before calling an iterative solver
             0 MiB given to the printing process from OS
             0 MiB allocation reported by mallinfo(arena+hblkhd)
         22826 MiB available memory on the node where the printing process lives
------------------
     ethr =  8.76E-04,  avg # of iterations =  1.2

     negative rho (up, down):  7.746E-01 0.000E+00

     total cpu time spent up to now is      179.8 secs

     total energy              =   -4441.88715800 Ry
     estimated scf accuracy    <       1.55997590 Ry

     iteration # 11     ecut=    60.00 Ry     beta= 0.15
     Davidson diagonalization with overlap

---- Real-time Memory Report at c_bands before calling an iterative solver
             0 MiB given to the printing process from OS
             0 MiB allocation reported by mallinfo(arena+hblkhd)
         22813 MiB available memory on the node where the printing process lives
------------------
     ethr =  3.62E-04,  avg # of iterations =  1.8

     negative rho (up, down):  8.035E-01 0.000E+00

     total cpu time spent up to now is      196.9 secs

     total energy              =   -4441.74633473 Ry
     estimated scf accuracy    <       1.09948038 Ry

     iteration # 12     ecut=    60.00 Ry     beta= 0.15
     Davidson diagonalization with overlap

---- Real-time Memory Report at c_bands before calling an iterative solver
             0 MiB given to the printing process from OS
             0 MiB allocation reported by mallinfo(arena+hblkhd)
         22819 MiB available memory on the node where the printing process lives
------------------
     ethr =  2.55E-04,  avg # of iterations =  4.2

     negative rho (up, down):  8.163E-01 0.000E+00

     total cpu time spent up to now is      215.4 secs

     total energy              =   -4441.88228603 Ry
     estimated scf accuracy    <       1.60875124 Ry

     iteration # 13     ecut=    60.00 Ry     beta= 0.15
     Davidson diagonalization with overlap

---- Real-time Memory Report at c_bands before calling an iterative solver
             0 MiB given to the printing process from OS
             0 MiB allocation reported by mallinfo(arena+hblkhd)
         22809 MiB available memory on the node where the printing process lives
------------------
     ethr =  2.55E-04,  avg # of iterations =  9.6

     negative rho (up, down):  8.192E-01 0.000E+00

     total cpu time spent up to now is      237.4 secs

     total energy              =   -4441.80467327 Ry
     estimated scf accuracy    <       1.14334637 Ry

     iteration # 14     ecut=    60.00 Ry     beta= 0.15
     Davidson diagonalization with overlap

---- Real-time Memory Report at c_bands before calling an iterative solver
             0 MiB given to the printing process from OS
             0 MiB allocation reported by mallinfo(arena+hblkhd)
         22769 MiB available memory on the node where the printing process lives
------------------
     ethr =  2.55E-04,  avg # of iterations =  2.7

     negative rho (up, down):  8.168E-01 0.000E+00

     total cpu time spent up to now is      255.2 secs

     total energy              =   -4441.76277663 Ry
     estimated scf accuracy    <       0.44607859 Ry

     iteration # 15     ecut=    60.00 Ry     beta= 0.15
     Davidson diagonalization with overlap

---- Real-time Memory Report at c_bands before calling an iterative solver
             0 MiB given to the printing process from OS
             0 MiB allocation reported by mallinfo(arena+hblkhd)
         22774 MiB available memory on the node where the printing process lives
------------------
     ethr =  1.03E-04,  avg # of iterations =  7.8

     negative rho (up, down):  8.262E-01 0.000E+00

     total cpu time spent up to now is      275.9 secs

     total energy              =   -4441.73175884 Ry
     estimated scf accuracy    <       0.29054977 Ry

     iteration # 16     ecut=    60.00 Ry     beta= 0.15
     Davidson diagonalization with overlap

---- Real-time Memory Report at c_bands before calling an iterative solver
             0 MiB given to the printing process from OS
             0 MiB allocation reported by mallinfo(arena+hblkhd)
         22742 MiB available memory on the node where the printing process lives
------------------
     c_bands:  1 eigenvalues not converged
     ethr =  6.74E-05,  avg # of iterations = 13.5

     negative rho (up, down):  8.298E-01 0.000E+00

     total cpu time spent up to now is      299.7 secs

     total energy              =   -4441.73036403 Ry
     estimated scf accuracy    <       0.30695348 Ry

     iteration # 17     ecut=    60.00 Ry     beta= 0.15
     Davidson diagonalization with overlap

---- Real-time Memory Report at c_bands before calling an iterative solver
             0 MiB given to the printing process from OS
             0 MiB allocation reported by mallinfo(arena+hblkhd)
         22758 MiB available memory on the node where the printing process lives
------------------
     ethr =  6.74E-05,  avg # of iterations =  1.2

     negative rho (up, down):  8.257E-01 0.000E+00

     total cpu time spent up to now is      315.8 secs

     total energy              =   -4441.71324825 Ry
     estimated scf accuracy    <       0.23792567 Ry

     iteration # 18     ecut=    60.00 Ry     beta= 0.15
     Davidson diagonalization with overlap

---- Real-time Memory Report at c_bands before calling an iterative solver
             0 MiB given to the printing process from OS
             0 MiB allocation reported by mallinfo(arena+hblkhd)
         22750 MiB available memory on the node where the printing process lives
------------------
     ethr =  5.52E-05,  avg # of iterations =  3.2

     negative rho (up, down):  8.150E-01 0.000E+00

     total cpu time spent up to now is      334.0 secs

     total energy              =   -4441.68465866 Ry
     estimated scf accuracy    <       0.15579681 Ry

     iteration # 19     ecut=    60.00 Ry     beta= 0.15
     Davidson diagonalization with overlap

---- Real-time Memory Report at c_bands before calling an iterative solver
             0 MiB given to the printing process from OS
             0 MiB allocation reported by mallinfo(arena+hblkhd)
         22744 MiB available memory on the node where the printing process lives
------------------
     ethr =  3.61E-05,  avg # of iterations =  9.5

     negative rho (up, down):  8.325E-01 0.000E+00

     total cpu time spent up to now is      356.4 secs

     total energy              =   -4441.67253070 Ry
     estimated scf accuracy    <       0.11054787 Ry

     iteration # 20     ecut=    60.00 Ry     beta= 0.15
     Davidson diagonalization with overlap

---- Real-time Memory Report at c_bands before calling an iterative solver
             0 MiB given to the printing process from OS
             0 MiB allocation reported by mallinfo(arena+hblkhd)
         22690 MiB available memory on the node where the printing process lives
------------------
     ethr =  2.56E-05,  avg # of iterations =  5.6

     negative rho (up, down):  8.234E-01 0.000E+00

     total cpu time spent up to now is      376.3 secs

     total energy              =   -4441.67327803 Ry
     estimated scf accuracy    <       0.04826879 Ry

     iteration # 21     ecut=    60.00 Ry     beta= 0.15
     Davidson diagonalization with overlap

---- Real-time Memory Report at c_bands before calling an iterative solver
             0 MiB given to the printing process from OS
             0 MiB allocation reported by mallinfo(arena+hblkhd)
         22706 MiB available memory on the node where the printing process lives
------------------
     ethr =  1.12E-05,  avg # of iterations = 10.4

     negative rho (up, down):  8.162E-01 0.000E+00

     total cpu time spent up to now is      398.7 secs

     total energy              =   -4441.67169380 Ry
     estimated scf accuracy    <       0.03279949 Ry

     iteration # 22     ecut=    60.00 Ry     beta= 0.15
     Davidson diagonalization with overlap

---- Real-time Memory Report at c_bands before calling an iterative solver
             0 MiB given to the printing process from OS
             0 MiB allocation reported by mallinfo(arena+hblkhd)
         22657 MiB available memory on the node where the printing process lives
------------------
     ethr =  7.61E-06,  avg # of iterations =  8.2

     negative rho (up, down):  8.104E-01 0.000E+00

     total cpu time spent up to now is      420.2 secs

     total energy              =   -4441.67026620 Ry
     estimated scf accuracy    <       0.02363837 Ry

     iteration # 23     ecut=    60.00 Ry     beta= 0.15
     Davidson diagonalization with overlap

---- Real-time Memory Report at c_bands before calling an iterative solver
             0 MiB given to the printing process from OS
             0 MiB allocation reported by mallinfo(arena+hblkhd)
         22663 MiB available memory on the node where the printing process lives
------------------
     ethr =  5.48E-06,  avg # of iterations =  7.7

     negative rho (up, down):  7.935E-01 0.000E+00

     total cpu time spent up to now is      440.9 secs

     total energy              =   -4441.66615819 Ry
     estimated scf accuracy    <       0.01755013 Ry

     iteration # 24     ecut=    60.00 Ry     beta= 0.15
     Davidson diagonalization with overlap

---- Real-time Memory Report at c_bands before calling an iterative solver
             0 MiB given to the printing process from OS
             0 MiB allocation reported by mallinfo(arena+hblkhd)
         22654 MiB available memory on the node where the printing process lives
------------------
     c_bands:  1 eigenvalues not converged
     c_bands:  1 eigenvalues not converged
     ethr =  4.07E-06,  avg # of iterations = 11.4

     negative rho (up, down):  8.012E-01 0.000E+00

     total cpu time spent up to now is      464.8 secs

     total energy              =   -4441.66564434 Ry
     estimated scf accuracy    <       0.01034320 Ry

     iteration # 25     ecut=    60.00 Ry     beta= 0.15
     Davidson diagonalization with overlap

---- Real-time Memory Report at c_bands before calling an iterative solver
             0 MiB given to the printing process from OS
             0 MiB allocation reported by mallinfo(arena+hblkhd)
         22688 MiB available memory on the node where the printing process lives
------------------
     c_bands:  1 eigenvalues not converged
     c_bands:  1 eigenvalues not converged
     ethr =  2.40E-06,  avg # of iterations =  9.8

     negative rho (up, down):  8.004E-01 0.000E+00

     total cpu time spent up to now is      488.7 secs

     total energy              =   -4441.66560355 Ry
     estimated scf accuracy    <       0.00334131 Ry

     iteration # 26     ecut=    60.00 Ry     beta= 0.15
     Davidson diagonalization with overlap

---- Real-time Memory Report at c_bands before calling an iterative solver
             0 MiB given to the printing process from OS
             0 MiB allocation reported by mallinfo(arena+hblkhd)
         22661 MiB available memory on the node where the printing process lives
------------------
     ethr =  7.75E-07,  avg # of iterations =  3.2

     negative rho (up, down):  7.978E-01 0.000E+00

     total cpu time spent up to now is      506.7 secs

     total energy              =   -4441.66548094 Ry
     estimated scf accuracy    <       0.00165298 Ry

     iteration # 27     ecut=    60.00 Ry     beta= 0.15
     Davidson diagonalization with overlap

---- Real-time Memory Report at c_bands before calling an iterative solver
             0 MiB given to the printing process from OS
             0 MiB allocation reported by mallinfo(arena+hblkhd)
         22686 MiB available memory on the node where the printing process lives
------------------
     c_bands:  1 eigenvalues not converged
     ethr =  3.84E-07,  avg # of iterations =  9.6

     negative rho (up, down):  7.962E-01 0.000E+00

     total cpu time spent up to now is      529.4 secs

     total energy              =   -4441.66550720 Ry
     estimated scf accuracy    <       0.00071121 Ry

     iteration # 28     ecut=    60.00 Ry     beta= 0.15
     Davidson diagonalization with overlap

---- Real-time Memory Report at c_bands before calling an iterative solver
             0 MiB given to the printing process from OS
             0 MiB allocation reported by mallinfo(arena+hblkhd)
         22660 MiB available memory on the node where the printing process lives
------------------
     c_bands:  1 eigenvalues not converged
     ethr =  1.65E-07,  avg # of iterations =  8.1

     negative rho (up, down):  7.952E-01 0.000E+00

     total cpu time spent up to now is      551.6 secs

     total energy              =   -4441.66554505 Ry
     estimated scf accuracy    <       0.00030695 Ry

     iteration # 29     ecut=    60.00 Ry     beta= 0.15
     Davidson diagonalization with overlap

---- Real-time Memory Report at c_bands before calling an iterative solver
             0 MiB given to the printing process from OS
             0 MiB allocation reported by mallinfo(arena+hblkhd)
         22651 MiB available memory on the node where the printing process lives
------------------
     ethr =  7.12E-08,  avg # of iterations =  1.9

     negative rho (up, down):  7.936E-01 0.000E+00

     total cpu time spent up to now is      568.6 secs

     total energy              =   -4441.66553108 Ry
     estimated scf accuracy    <       0.00016913 Ry

     iteration # 30     ecut=    60.00 Ry     beta= 0.15
     Davidson diagonalization with overlap

---- Real-time Memory Report at c_bands before calling an iterative solver
             0 MiB given to the printing process from OS
             0 MiB allocation reported by mallinfo(arena+hblkhd)
         22653 MiB available memory on the node where the printing process lives
------------------
     ethr =  3.92E-08,  avg # of iterations =  4.0

     negative rho (up, down):  7.932E-01 0.000E+00

     total cpu time spent up to now is      587.0 secs

     total energy              =   -4441.66553060 Ry
     estimated scf accuracy    <       0.00007395 Ry

     iteration # 31     ecut=    60.00 Ry     beta= 0.15
     Davidson diagonalization with overlap

---- Real-time Memory Report at c_bands before calling an iterative solver
             0 MiB given to the printing process from OS
             0 MiB allocation reported by mallinfo(arena+hblkhd)
         22647 MiB available memory on the node where the printing process lives
------------------
     ethr =  1.72E-08,  avg # of iterations =  3.4

     negative rho (up, down):  7.930E-01 0.000E+00

     total cpu time spent up to now is      605.5 secs

     total energy              =   -4441.66553436 Ry
     estimated scf accuracy    <       0.00004064 Ry

     iteration # 32     ecut=    60.00 Ry     beta= 0.15
     Davidson diagonalization with overlap

---- Real-time Memory Report at c_bands before calling an iterative solver
             0 MiB given to the printing process from OS
             0 MiB allocation reported by mallinfo(arena+hblkhd)
         22582 MiB available memory on the node where the printing process lives
------------------
     ethr =  9.43E-09,  avg # of iterations =  2.0

     negative rho (up, down):  7.926E-01 0.000E+00

     total cpu time spent up to now is      622.6 secs

     total energy              =   -4441.66553919 Ry
     estimated scf accuracy    <       0.00002800 Ry

     iteration # 33     ecut=    60.00 Ry     beta= 0.15
     Davidson diagonalization with overlap

---- Real-time Memory Report at c_bands before calling an iterative solver
             0 MiB given to the printing process from OS
             0 MiB allocation reported by mallinfo(arena+hblkhd)
         22594 MiB available memory on the node where the printing process lives
------------------
     ethr =  6.50E-09,  avg # of iterations =  2.8

     negative rho (up, down):  7.925E-01 0.000E+00

     total cpu time spent up to now is      640.1 secs

     total energy              =   -4441.66554904 Ry
     estimated scf accuracy    <       0.00001572 Ry

     iteration # 34     ecut=    60.00 Ry     beta= 0.15
     Davidson diagonalization with overlap

---- Real-time Memory Report at c_bands before calling an iterative solver
             0 MiB given to the printing process from OS
             0 MiB allocation reported by mallinfo(arena+hblkhd)
         22584 MiB available memory on the node where the printing process lives
------------------
     ethr =  3.65E-09,  avg # of iterations =  2.2

     negative rho (up, down):  7.925E-01 0.000E+00

     total cpu time spent up to now is      657.3 secs

     total energy              =   -4441.66555094 Ry
     estimated scf accuracy    <       0.00000725 Ry

     iteration # 35     ecut=    60.00 Ry     beta= 0.15
     Davidson diagonalization with overlap

---- Real-time Memory Report at c_bands before calling an iterative solver
             0 MiB given to the printing process from OS
             0 MiB allocation reported by mallinfo(arena+hblkhd)
         22599 MiB available memory on the node where the printing process lives
------------------
     ethr =  1.68E-09,  avg # of iterations =  2.3

     negative rho (up, down):  7.926E-01 0.000E+00

     total cpu time spent up to now is      674.7 secs

     total energy              =   -4441.66555398 Ry
     estimated scf accuracy    <       0.00000467 Ry

     iteration # 36     ecut=    60.00 Ry     beta= 0.15
     Davidson diagonalization with overlap

---- Real-time Memory Report at c_bands before calling an iterative solver
             0 MiB given to the printing process from OS
             0 MiB allocation reported by mallinfo(arena+hblkhd)
         22601 MiB available memory on the node where the printing process lives
------------------
     ethr =  1.08E-09,  avg # of iterations =  3.8

     negative rho (up, down):  7.926E-01 0.000E+00

     total cpu time spent up to now is      694.8 secs

     total energy              =   -4441.66555545 Ry
     estimated scf accuracy    <       0.00000243 Ry

     iteration # 37     ecut=    60.00 Ry     beta= 0.15
     Davidson diagonalization with overlap

---- Real-time Memory Report at c_bands before calling an iterative solver
             0 MiB given to the printing process from OS
             0 MiB allocation reported by mallinfo(arena+hblkhd)
         22599 MiB available memory on the node where the printing process lives
------------------
     ethr =  5.63E-10,  avg # of iterations =  2.4

     negative rho (up, down):  7.925E-01 0.000E+00

     total cpu time spent up to now is      712.3 secs

     total energy              =   -4441.66555596 Ry
     estimated scf accuracy    <       0.00000123 Ry

     iteration # 38     ecut=    60.00 Ry     beta= 0.15
     Davidson diagonalization with overlap

---- Real-time Memory Report at c_bands before calling an iterative solver
             0 MiB given to the printing process from OS
             0 MiB allocation reported by mallinfo(arena+hblkhd)
         22613 MiB available memory on the node where the printing process lives
------------------
     ethr =  2.85E-10,  avg # of iterations =  3.2

     negative rho (up, down):  7.926E-01 0.000E+00

     total cpu time spent up to now is      730.4 secs

     total energy              =   -4441.66555602 Ry
     estimated scf accuracy    <       0.00000073 Ry

     iteration # 39     ecut=    60.00 Ry     beta= 0.15
     Davidson diagonalization with overlap

---- Real-time Memory Report at c_bands before calling an iterative solver
             0 MiB given to the printing process from OS
             0 MiB allocation reported by mallinfo(arena+hblkhd)
         22608 MiB available memory on the node where the printing process lives
------------------
     ethr =  1.69E-10,  avg # of iterations =  2.1

     negative rho (up, down):  7.926E-01 0.000E+00

     total cpu time spent up to now is      747.6 secs

     total energy              =   -4441.66555605 Ry
     estimated scf accuracy    <       0.00000060 Ry

     iteration # 40     ecut=    60.00 Ry     beta= 0.15
     Davidson diagonalization with overlap

---- Real-time Memory Report at c_bands before calling an iterative solver
             0 MiB given to the printing process from OS
             0 MiB allocation reported by mallinfo(arena+hblkhd)
         22618 MiB available memory on the node where the printing process lives
------------------
     ethr =  1.40E-10,  avg # of iterations =  2.1

     negative rho (up, down):  7.925E-01 0.000E+00

     total cpu time spent up to now is      764.7 secs

     total energy              =   -4441.66555613 Ry
     estimated scf accuracy    <       0.00000043 Ry

     iteration # 41     ecut=    60.00 Ry     beta= 0.15
     Davidson diagonalization with overlap

---- Real-time Memory Report at c_bands before calling an iterative solver
             0 MiB given to the printing process from OS
             0 MiB allocation reported by mallinfo(arena+hblkhd)
         22626 MiB available memory on the node where the printing process lives
------------------
     ethr =  9.86E-11,  avg # of iterations =  3.1

     negative rho (up, down):  7.925E-01 0.000E+00

     total cpu time spent up to now is      782.9 secs

     total energy              =   -4441.66555616 Ry
     estimated scf accuracy    <       0.00000024 Ry

     iteration # 42     ecut=    60.00 Ry     beta= 0.15
     Davidson diagonalization with overlap

---- Real-time Memory Report at c_bands before calling an iterative solver
             0 MiB given to the printing process from OS
             0 MiB allocation reported by mallinfo(arena+hblkhd)
         22615 MiB available memory on the node where the printing process lives
------------------
     ethr =  5.52E-11,  avg # of iterations =  2.1

     negative rho (up, down):  7.925E-01 0.000E+00

     total cpu time spent up to now is      800.2 secs

     total energy              =   -4441.66555616 Ry
     estimated scf accuracy    <       0.00000013 Ry

     iteration # 43     ecut=    60.00 Ry     beta= 0.15
     Davidson diagonalization with overlap

---- Real-time Memory Report at c_bands before calling an iterative solver
             0 MiB given to the printing process from OS
             0 MiB allocation reported by mallinfo(arena+hblkhd)
         22618 MiB available memory on the node where the printing process lives
------------------
     ethr =  2.98E-11,  avg # of iterations =  2.5

     negative rho (up, down):  7.925E-01 0.000E+00

     total cpu time spent up to now is      817.6 secs

     total energy              =   -4441.66555616 Ry
     estimated scf accuracy    <       0.00000008 Ry

     iteration # 44     ecut=    60.00 Ry     beta= 0.15
     Davidson diagonalization with overlap

---- Real-time Memory Report at c_bands before calling an iterative solver
             0 MiB given to the printing process from OS
             0 MiB allocation reported by mallinfo(arena+hblkhd)
         22619 MiB available memory on the node where the printing process lives
------------------
     ethr =  1.97E-11,  avg # of iterations =  2.2

     negative rho (up, down):  7.925E-01 0.000E+00

     total cpu time spent up to now is      835.0 secs

     total energy              =   -4441.66555616 Ry
     estimated scf accuracy    <       0.00000004 Ry

     iteration # 45     ecut=    60.00 Ry     beta= 0.15
     Davidson diagonalization with overlap

---- Real-time Memory Report at c_bands before calling an iterative solver
             0 MiB given to the printing process from OS
             0 MiB allocation reported by mallinfo(arena+hblkhd)
         22616 MiB available memory on the node where the printing process lives
------------------
     ethr =  1.04E-11,  avg # of iterations =  2.1

     negative rho (up, down):  7.925E-01 0.000E+00

     total cpu time spent up to now is      852.2 secs

     total energy              =   -4441.66555615 Ry
     estimated scf accuracy    <       0.00000003 Ry

     iteration # 46     ecut=    60.00 Ry     beta= 0.15
     Davidson diagonalization with overlap

---- Real-time Memory Report at c_bands before calling an iterative solver
             0 MiB given to the printing process from OS
             0 MiB allocation reported by mallinfo(arena+hblkhd)
         22620 MiB available memory on the node where the printing process lives
------------------
     ethr =  7.30E-12,  avg # of iterations =  2.4

     negative rho (up, down):  7.925E-01 0.000E+00

     total cpu time spent up to now is      869.7 secs

     total energy              =   -4441.66555615 Ry
     estimated scf accuracy    <       0.00000001 Ry

     iteration # 47     ecut=    60.00 Ry     beta= 0.15
     Davidson diagonalization with overlap

---- Real-time Memory Report at c_bands before calling an iterative solver
             0 MiB given to the printing process from OS
             0 MiB allocation reported by mallinfo(arena+hblkhd)
         22622 MiB available memory on the node where the printing process lives
------------------
     ethr =  3.41E-12,  avg # of iterations =  3.6

     negative rho (up, down):  7.925E-01 0.000E+00

     total cpu time spent up to now is      887.6 secs

     End of self-consistent calculation

          k = 0.0000 0.0000 0.0000 ( 65197 PWs)   bands (ev):

   -92.7059 -92.6583 -92.5605 -92.5128 -92.4561 -92.4124 -92.3952 -92.2752
   -56.0593 -56.0452 -55.9175 -55.9066 -55.9005 -55.8934 -55.8620 -55.8295
   -55.8139 -55.8119 -55.8074 -55.7634 -55.7431 -55.7071 -55.6872 -55.6559
   -55.6484 -55.6008 -55.6004 -55.5976 -55.5892 -55.5505 -55.5255 -55.4408
   -31.2827 -31.2633 -31.1220 -31.0351 -31.0303 -30.9221 -30.8058 -30.7454
   -29.8522 -29.8086 -29.7841 -29.6758 -15.0862 -15.0386 -14.9602 -14.8312
   -14.6326 -14.5132 -14.2226 -14.1983 -14.1727 -14.1264 -14.0833 -14.0711
   -14.0563 -14.0392 -14.0104 -13.9800 -13.9717 -13.9328 -13.7812 -13.5978
   -13.5693 -13.5399 -13.5022 -13.4858 -13.4369 -13.4035 -13.3273 -13.2550
   -13.1255 -13.1142 -13.1017 -13.0795 -13.0618 -13.0360 -13.0053 -12.9966
   -12.9732 -12.9571 -12.9277 -12.9049 -12.8453 -12.8301 -12.8210 -12.7684
   -12.7358 -12.7340 -12.6508 -12.6304 -12.6189 -12.3475 -12.2016 -12.0217
   -11.9456 -11.8656 -11.7914 -11.7807 -11.7577 -11.7401 -11.6766 -11.6597
   -11.6242 -11.5954 -11.4845 -11.4044 -11.4009  -2.9454  -2.7138  -2.4844
    -2.3358  -2.2744  -2.1326  -1.8245  -1.8100  -1.7913  -1.7039  -1.6862
    -1.6188  -1.6021  -1.5618  -1.5167  -1.3356  -1.1702  -1.1014  -1.0789
    -0.9357  -0.9208  -0.8720  -0.8542  -0.8088  -0.7888  -0.7379  -0.7114
    -0.6371  -0.6254  -0.5513  -0.4199  -0.4070  -0.3761  -0.2960  -0.2764
    -0.2268  -0.2011  -0.1305  -0.0885  -0.0290  -0.0089   0.0574   0.1346
     0.1757   0.2021   0.2111   0.4713   0.4851   0.6615   0.7209   0.7854
     0.8373   0.9237   0.9362   0.9541   1.0198   1.0472   1.0811   1.1379
     1.2695   1.3281   1.3508   1.3767   1.3856   1.4483   1.5163   1.6284
     1.6459   1.7019   1.7097   1.7536   1.7763   1.7866   1.8397   1.9019
     1.9078   1.9562   1.9765   2.0238   2.1554   2.2389   2.2819   2.3058
     2.4149   2.4460   2.4626   2.4873   2.5074   2.5094   2.6233   2.6540
     2.6820   2.7016   2.7194   2.8009   2.9034   2.9381   2.9466   2.9528
     3.0205   3.0263   3.0486   3.0562   3.0657   3.0797   3.0852   3.0995
     3.1054   3.1160   3.1246   3.1321   3.1520   3.1732   3.1781   3.1902
     3.2122   3.3305   3.4144   4.1027   4.4237   4.7646   4.8633   5.0390
     5.8146   5.9470   5.9814   6.0083   6.3095   6.3562   6.4775   6.4882
     6.7544   7.0050   7.0997   7.3141   7.5802   7.5915   7.6534   7.6761
     7.7085   7.9016   7.9977   8.0436   8.1089   8.1744   8.3797   8.4239
     8.7510   8.8674   8.9170

     occupation numbers 
     1.0000   1.0000   1.0000   1.0000   1.0000   1.0000   1.0000   1.0000
     1.0000   1.0000   1.0000   1.0000   1.0000   1.0000   1.0000   1.0000
     1.0000   1.0000   1.0000   1.0000   1.0000   1.0000   1.0000   1.0000
     1.0000   1.0000   1.0000   1.0000   1.0000   1.0000   1.0000   1.0000
     1.0000   1.0000   1.0000   1.0000   1.0000   1.0000   1.0000   1.0000
     1.0000   1.0000   1.0000   1.0000   1.0000   1.0000   1.0000   1.0000
     1.0000   1.0000   1.0000   1.0000   1.0000   1.0000   1.0000   1.0000
     1.0000   1.0000   1.0000   1.0000   1.0000   1.0000   1.0000   1.0000
     1.0000   1.0000   1.0000   1.0000   1.0000   1.0000   1.0000   1.0000
     1.0000   1.0000   1.0000   1.0000   1.0000   1.0000   1.0000   1.0000
     1.0000   1.0000   1.0000   1.0000   1.0000   1.0000   1.0000   1.0000
     1.0000   1.0000   1.0000   1.0000   1.0000   1.0000   1.0000   1.0000
     1.0000   1.0000   1.0000   1.0000   1.0000   1.0000   1.0000   1.0000
     1.0000   1.0000   1.0000   1.0000   1.0000   1.0000   1.0000   1.0000
     1.0000   1.0000   1.0000   1.0000   1.0000   1.0000   1.0000   1.0000
     1.0000   1.0000   1.0000   1.0000   1.0000   1.0000   1.0000   1.0000
     1.0000   1.0000   1.0000   1.0000   1.0000   1.0000   1.0000   1.0000
     1.0000   1.0000   1.0000   1.0000   1.0000   1.0000   1.0000   1.0000
     1.0000   1.0000   1.0000   1.0000   1.0000   1.0000   1.0000   1.0000
     1.0000   1.0000   1.0000   1.0000   1.0000   1.0000   0.9999   0.9999
     0.9999   0.9998   0.9998   0.9998   0.9997   0.9996   0.9996   0.9994
     0.9988   0.9985   0.9983   0.9981   0.9980   0.9973   0.9963   0.9940
     0.9936   0.9919   0.9917   0.9901   0.9891   0.9887   0.9861   0.9825
     0.9821   0.9787   0.9771   0.9730   0.9584   0.9461   0.9387   0.9343
     0.9109   0.9032   0.8990   0.8923   0.8867   0.8861   0.8502   0.8393
     0.8289   0.8214   0.8144   0.7803   0.7327   0.7155   0.7112   0.7081
     0.6726   0.6695   0.6575   0.6533   0.6481   0.6403   0.6373   0.6293
     0.6259   0.6200   0.6151   0.6109   0.5995   0.5873   0.5845   0.5774
     0.5646   0.4948   0.4453   0.1231   0.0509   0.0161   0.0110   0.0054
     0.0001   0.0000   0.0000   0.0000   0.0000   0.0000   0.0000   0.0000
     0.0000   0.0000   0.0000   0.0000   0.0000   0.0000   0.0000   0.0000
     0.0000   0.0000   0.0000   0.0000   0.0000   0.0000   0.0000   0.0000
     0.0000   0.0000   0.0000

          k = 0.0000 0.2500 0.0000 ( 65257 PWs)   bands (ev):

   -92.7059 -92.6583 -92.5605 -92.5128 -92.4561 -92.4124 -92.3952 -92.2752
   -56.0593 -56.0452 -55.9175 -55.9066 -55.9005 -55.8934 -55.8620 -55.8295
   -55.8139 -55.8119 -55.8074 -55.7634 -55.7431 -55.7071 -55.6872 -55.6559
   -55.6484 -55.6008 -55.6004 -55.5976 -55.5892 -55.5505 -55.5255 -55.4408
   -31.2826 -31.2632 -31.1222 -31.0352 -31.0300 -30.9224 -30.8052 -30.7460
   -29.8516 -29.8083 -29.7848 -29.6761 -15.0497 -15.0125 -14.9355 -14.8012
   -14.6750 -14.5020 -14.3681 -14.1891 -14.1486 -14.1308 -14.1029 -14.0427
   -14.0386 -14.0236 -13.9972 -13.9717 -13.9480 -13.8519 -13.8106 -13.6521
   -13.6215 -13.5811 -13.5450 -13.4861 -13.4569 -13.4101 -13.3468 -13.3124
   -13.2333 -13.1574 -13.1498 -13.1133 -13.0928 -13.0187 -12.9909 -12.9634
   -12.9395 -12.9068 -12.8746 -12.8711 -12.8047 -12.7957 -12.7808 -12.7647
   -12.7102 -12.6948 -12.6451 -12.5424 -12.4717 -12.4089 -12.2528 -12.0804
   -12.0144 -11.8311 -11.7882 -11.7605 -11.7326 -11.7160 -11.6682 -11.6572
   -11.6346 -11.5995 -11.4991 -11.4462 -11.4355  -2.8099  -2.5896  -2.4515
    -2.2691  -2.2258  -2.0629  -1.8415  -1.7591  -1.7461  -1.6842  -1.5853
    -1.5687  -1.5352  -1.5082  -1.4645  -1.2670  -1.1659  -1.1355  -1.1254
    -1.0466  -1.0374  -0.9343  -0.9060  -0.8475  -0.8204  -0.7823  -0.7157
    -0.6879  -0.6575  -0.6267  -0.6102  -0.5765  -0.5052  -0.4526  -0.3746
    -0.2740  -0.2422  -0.2006  -0.0954  -0.0575   0.0124   0.0543   0.1208
     0.1327   0.1561   0.2136   0.5194   0.6079   0.6390   0.7272   0.7715
     0.7933   0.9079   0.9256   1.0215   1.0481   1.0734   1.1881   1.2842
     1.3033   1.3292   1.3512   1.3713   1.4313   1.4608   1.4867   1.5340
     1.5696   1.6033   1.6913   1.7245   1.7545   1.8094   1.8605   1.9000
     1.9298   1.9585   1.9695   2.0787   2.1918   2.2643   2.2898   2.3559
     2.4007   2.4149   2.4419   2.4494   2.4852   2.5145   2.5501   2.6390
     2.6821   2.6978   2.8615   2.8821   2.9154   2.9400   2.9544   2.9631
     2.9694   2.9783   3.0083   3.0112   3.0286   3.0374   3.0428   3.0631
     3.0742   3.0815   3.1029   3.1140   3.1196   3.1542   3.1708   3.2304
     3.5953   3.6369   3.8779   4.2947   4.4173   4.7094   5.0159   5.0633
     5.6409   5.8207   5.9557   5.9938   6.0817   6.1072   6.1791   6.5951
     6.8552   7.1001   7.1883   7.3271   7.4833   7.4961   7.6412   7.6585
     7.8558   7.9465   8.0588   8.1804   8.2641   8.3840   8.4004   8.4309
     8.5694   8.8693   8.9533

     occupation numbers 
     1.0000   1.0000   1.0000   1.0000   1.0000   1.0000   1.0000   1.0000
     1.0000   1.0000   1.0000   1.0000   1.0000   1.0000   1.0000   1.0000
     1.0000   1.0000   1.0000   1.0000   1.0000   1.0000   1.0000   1.0000
     1.0000   1.0000   1.0000   1.0000   1.0000   1.0000   1.0000   1.0000
     1.0000   1.0000   1.0000   1.0000   1.0000   1.0000   1.0000   1.0000
     1.0000   1.0000   1.0000   1.0000   1.0000   1.0000   1.0000   1.0000
     1.0000   1.0000   1.0000   1.0000   1.0000   1.0000   1.0000   1.0000
     1.0000   1.0000   1.0000   1.0000   1.0000   1.0000   1.0000   1.0000
     1.0000   1.0000   1.0000   1.0000   1.0000   1.0000   1.0000   1.0000
     1.0000   1.0000   1.0000   1.0000   1.0000   1.0000   1.0000   1.0000
     1.0000   1.0000   1.0000   1.0000   1.0000   1.0000   1.0000   1.0000
     1.0000   1.0000   1.0000   1.0000   1.0000   1.0000   1.0000   1.0000
     1.0000   1.0000   1.0000   1.0000   1.0000   1.0000   1.0000   1.0000
     1.0000   1.0000   1.0000   1.0000   1.0000   1.0000   1.0000   1.0000
     1.0000   1.0000   1.0000   1.0000   1.0000   1.0000   1.0000   1.0000
     1.0000   1.0000   1.0000   1.0000   1.0000   1.0000   1.0000   1.0000
     1.0000   1.0000   1.0000   1.0000   1.0000   1.0000   1.0000   1.0000
     1.0000   1.0000   1.0000   1.0000   1.0000   1.0000   1.0000   1.0000
     1.0000   1.0000   1.0000   1.0000   1.0000   1.0000   1.0000   1.0000
     1.0000   1.0000   1.0000   1.0000   1.0000   1.0000   0.9999   0.9999
     0.9999   0.9998   0.9998   0.9997   0.9996   0.9996   0.9992   0.9988
     0.9986   0.9985   0.9983   0.9981   0.9975   0.9971   0.9968   0.9960
     0.9954   0.9946   0.9923   0.9911   0.9900   0.9876   0.9850   0.9826
     0.9806   0.9785   0.9777   0.9675   0.9533   0.9418   0.9373   0.9242
     0.9143   0.9109   0.9043   0.9024   0.8929   0.8847   0.8741   0.8447
     0.8289   0.8229   0.7528   0.7430   0.7268   0.7146   0.7073   0.7028
     0.6996   0.6949   0.6792   0.6776   0.6683   0.6636   0.6606   0.6495
     0.6434   0.6393   0.6274   0.6211   0.6179   0.5982   0.5886   0.5539
     0.3423   0.3199   0.2044   0.0743   0.0519   0.0197   0.0059   0.0049
     0.0003   0.0001   0.0000   0.0000   0.0000   0.0000   0.0000   0.0000
     0.0000   0.0000   0.0000   0.0000   0.0000   0.0000   0.0000   0.0000
     0.0000   0.0000   0.0000   0.0000   0.0000   0.0000   0.0000   0.0000
     0.0000   0.0000   0.0000

          k = 0.0000-0.5000 0.0000 ( 65180 PWs)   bands (ev):

   -92.7059 -92.6583 -92.5605 -92.5128 -92.4561 -92.4124 -92.3952 -92.2752
   -56.0593 -56.0452 -55.9175 -55.9066 -55.9005 -55.8934 -55.8620 -55.8295
   -55.8139 -55.8119 -55.8074 -55.7634 -55.7431 -55.7071 -55.6872 -55.6559
   -55.6484 -55.6008 -55.6004 -55.5976 -55.5892 -55.5505 -55.5255 -55.4408
   -31.2824 -31.2630 -31.1224 -31.0354 -31.0297 -30.9227 -30.8047 -30.7465
   -29.8509 -29.8080 -29.7854 -29.6765 -15.0132 -14.9643 -14.9124 -14.7776
   -14.7008 -14.5590 -14.4108 -14.2755 -14.1623 -14.0852 -14.0451 -14.0369
   -13.9896 -13.9764 -13.9694 -13.9281 -13.8984 -13.8792 -13.8396 -13.7828
   -13.7689 -13.5884 -13.5289 -13.4885 -13.4614 -13.4062 -13.3629 -13.3076
   -13.2880 -13.2422 -13.2229 -13.1141 -13.0929 -13.0119 -12.9735 -12.9559
   -12.9341 -12.9162 -12.8861 -12.7971 -12.7771 -12.7537 -12.7109 -12.6946
   -12.6850 -12.6574 -12.6482 -12.5198 -12.3906 -12.3277 -12.2394 -12.1949
   -12.1650 -11.7850 -11.7827 -11.7555 -11.7191 -11.6843 -11.6730 -11.6294
   -11.6255 -11.5807 -11.5212 -11.5073 -11.4929  -2.5951  -2.5363  -2.3865
    -2.3145  -2.0305  -1.9490  -1.8220  -1.6850  -1.6428  -1.6278  -1.5496
    -1.5158  -1.4368  -1.4003  -1.3215  -1.2832  -1.2447  -1.2172  -1.1689
    -1.1535  -1.1219  -1.0710  -1.0346  -1.0073  -0.9704  -0.8626  -0.8182
    -0.7811  -0.7783  -0.6922  -0.6611  -0.6392  -0.5910  -0.5008  -0.4348
    -0.3428  -0.2982  -0.2150  -0.1771  -0.0342   0.0313   0.0341   0.0902
     0.2119   0.2622   0.3870   0.4596   0.4670   0.5925   0.6573   0.7549
     0.8711   0.9776   1.0115   1.0495   1.0618   1.0980   1.1100   1.1455
     1.1652   1.1738   1.2826   1.3432   1.3804   1.4117   1.6751   1.6941
     1.7193   1.8106   1.8336   1.8663   1.8805   1.9079   1.9259   1.9394
     1.9590   2.0043   2.0301   2.0636   2.0684   2.0966   2.1481   2.2385
     2.2675   2.4155   2.4410   2.4804   2.6003   2.6128   2.6314   2.6661
     2.6753   2.6795   2.7290   2.7393   2.7939   2.8149   2.8960   2.9105
     2.9797   2.9805   3.0067   3.0119   3.0258   3.0299   3.0338   3.0415
     3.0429   3.0549   3.0732   3.0745   3.1390   3.1446   3.1604   3.2143
     4.1251   4.1388   4.1779   4.2618   4.7398   4.8978   5.0216   5.1741
     5.4107   5.4611   5.5811   5.7365   6.0304   6.0422   6.3044   6.5568
     6.8497   6.9501   7.2135   7.3396   7.4229   7.5003   7.7362   7.7493
     7.9045   8.0085   8.1608   8.3062   8.3526   8.4504   8.5448   8.6636
     8.8089   8.8362   8.8613

     occupation numbers 
     1.0000   1.0000   1.0000   1.0000   1.0000   1.0000   1.0000   1.0000
     1.0000   1.0000   1.0000   1.0000   1.0000   1.0000   1.0000   1.0000
     1.0000   1.0000   1.0000   1.0000   1.0000   1.0000   1.0000   1.0000
     1.0000   1.0000   1.0000   1.0000   1.0000   1.0000   1.0000   1.0000
     1.0000   1.0000   1.0000   1.0000   1.0000   1.0000   1.0000   1.0000
     1.0000   1.0000   1.0000   1.0000   1.0000   1.0000   1.0000   1.0000
     1.0000   1.0000   1.0000   1.0000   1.0000   1.0000   1.0000   1.0000
     1.0000   1.0000   1.0000   1.0000   1.0000   1.0000   1.0000   1.0000
     1.0000   1.0000   1.0000   1.0000   1.0000   1.0000   1.0000   1.0000
     1.0000   1.0000   1.0000   1.0000   1.0000   1.0000   1.0000   1.0000
     1.0000   1.0000   1.0000   1.0000   1.0000   1.0000   1.0000   1.0000
     1.0000   1.0000   1.0000   1.0000   1.0000   1.0000   1.0000   1.0000
     1.0000   1.0000   1.0000   1.0000   1.0000   1.0000   1.0000   1.0000
     1.0000   1.0000   1.0000   1.0000   1.0000   1.0000   1.0000   1.0000
     1.0000   1.0000   1.0000   1.0000   1.0000   1.0000   1.0000   1.0000
     1.0000   1.0000   1.0000   1.0000   1.0000   1.0000   1.0000   1.0000
     1.0000   1.0000   1.0000   1.0000   1.0000   1.0000   1.0000   1.0000
     1.0000   1.0000   1.0000   1.0000   1.0000   1.0000   1.0000   1.0000
     1.0000   1.0000   1.0000   1.0000   1.0000   1.0000   1.0000   1.0000
     1.0000   1.0000   1.0000   1.0000   1.0000   1.0000   1.0000   0.9999
     0.9999   0.9998   0.9997   0.9996   0.9996   0.9995   0.9995   0.9994
     0.9993   0.9993   0.9988   0.9983   0.9980   0.9977   0.9928   0.9922
     0.9913   0.9876   0.9864   0.9847   0.9838   0.9821   0.9809   0.9799
     0.9785   0.9748   0.9724   0.9691   0.9686   0.9656   0.9593   0.9461
     0.9413   0.9108   0.9045   0.8942   0.8580   0.8537   0.8473   0.8349
     0.8314   0.8299   0.8106   0.8064   0.7834   0.7741   0.7364   0.7292
     0.6942   0.6938   0.6800   0.6773   0.6698   0.6676   0.6655   0.6613
     0.6606   0.6540   0.6439   0.6432   0.6069   0.6037   0.5947   0.5633
     0.1164   0.1125   0.1018   0.0814   0.0176   0.0096   0.0058   0.0030
     0.0010   0.0007   0.0004   0.0002   0.0000   0.0000   0.0000   0.0000
     0.0000   0.0000   0.0000   0.0000   0.0000   0.0000   0.0000   0.0000
     0.0000   0.0000   0.0000   0.0000   0.0000   0.0000   0.0000   0.0000
     0.0000   0.0000   0.0000

          k = 0.2500 0.2500 0.0000 ( 65198 PWs)   bands (ev):

   -92.7059 -92.6583 -92.5605 -92.5128 -92.4561 -92.4124 -92.3952 -92.2752
   -56.0593 -56.0452 -55.9175 -55.9066 -55.9005 -55.8934 -55.8620 -55.8295
   -55.8139 -55.8119 -55.8074 -55.7634 -55.7431 -55.7071 -55.6872 -55.6559
   -55.6484 -55.6008 -55.6004 -55.5976 -55.5892 -55.5505 -55.5255 -55.4408
   -31.2809 -31.2649 -31.1218 -31.0356 -31.0299 -30.9222 -30.8054 -30.7461
   -29.8506 -29.8093 -29.7844 -29.6766 -15.0208 -14.9778 -14.9075 -14.7906
   -14.6675 -14.5437 -14.4737 -14.2621 -14.1122 -14.0978 -14.0612 -14.0303
   -14.0103 -13.9833 -13.9719 -13.9421 -13.9092 -13.8428 -13.8238 -13.6678
   -13.6518 -13.6222 -13.6035 -13.5266 -13.5131 -13.4407 -13.4306 -13.2919
   -13.2439 -13.2310 -13.1459 -13.1062 -13.0536 -13.0229 -12.9974 -12.9719
   -12.9514 -12.9203 -12.8543 -12.8298 -12.7760 -12.7677 -12.7487 -12.7218
   -12.7175 -12.6604 -12.6414 -12.4761 -12.4573 -12.3848 -12.2818 -12.1130
   -12.0612 -11.8033 -11.7718 -11.7609 -11.7538 -11.6910 -11.6568 -11.6501
   -11.6145 -11.6065 -11.5157 -11.4744 -11.4570  -2.6716  -2.4638  -2.3457
    -2.2500  -2.1307  -2.0662  -1.8661  -1.7235  -1.7047  -1.6718  -1.5798
    -1.5456  -1.4513  -1.4242  -1.3738  -1.2429  -1.1958  -1.1648  -1.1172
    -1.0756  -1.0297  -1.0066  -0.9842  -0.9418  -0.9262  -0.8353  -0.7851
    -0.7167  -0.6677  -0.6402  -0.5925  -0.5777  -0.5136  -0.4635  -0.3977
    -0.3721  -0.2793  -0.2333  -0.2002  -0.1661  -0.1104  -0.0367   0.0010
     0.0355   0.1054   0.1425   0.4078   0.5583   0.5898   0.6538   0.6899
     0.7566   0.8023   0.8647   0.9026   1.1751   1.2384   1.3118   1.3345
     1.3907   1.4166   1.4534   1.4899   1.5062   1.5337   1.5791   1.5874
     1.6042   1.6531   1.6892   1.7262   1.7822   1.8216   1.8359   1.8649
     1.9006   1.9598   1.9823   2.1150   2.1737   2.2088   2.2308   2.3044
     2.3630   2.3915   2.4111   2.4279   2.4538   2.4637   2.4872   2.5816
     2.6202   2.7115   2.8718   2.8900   2.8946   2.9108   2.9263   2.9399
     2.9519   2.9580   2.9701   2.9834   2.9984   3.0132   3.0194   3.0324
     3.0565   3.0654   3.0745   3.1059   3.4063   3.4987   3.5464   3.6144
     3.6291   3.8593   3.9492   4.3012   4.5058   4.7165   4.9780   5.1643
     5.6435   5.7019   5.7852   5.8324   5.8919   6.1257   6.1571   6.2132
     6.8916   6.9741   7.1666   7.2997   7.5490   7.6030   7.7096   7.8628
     7.8994   8.0273   8.1752   8.2359   8.3368   8.4079   8.4393   8.4620
     8.5704   8.7416   8.9326

     occupation numbers 
     1.0000   1.0000   1.0000   1.0000   1.0000   1.0000   1.0000   1.0000
     1.0000   1.0000   1.0000   1.0000   1.0000   1.0000   1.0000   1.0000
     1.0000   1.0000   1.0000   1.0000   1.0000   1.0000   1.0000   1.0000
     1.0000   1.0000   1.0000   1.0000   1.0000   1.0000   1.0000   1.0000
     1.0000   1.0000   1.0000   1.0000   1.0000   1.0000   1.0000   1.0000
     1.0000   1.0000   1.0000   1.0000   1.0000   1.0000   1.0000   1.0000
     1.0000   1.0000   1.0000   1.0000   1.0000   1.0000   1.0000   1.0000
     1.0000   1.0000   1.0000   1.0000   1.0000   1.0000   1.0000   1.0000
     1.0000   1.0000   1.0000   1.0000   1.0000   1.0000   1.0000   1.0000
     1.0000   1.0000   1.0000   1.0000   1.0000   1.0000   1.0000   1.0000
     1.0000   1.0000   1.0000   1.0000   1.0000   1.0000   1.0000   1.0000
     1.0000   1.0000   1.0000   1.0000   1.0000   1.0000   1.0000   1.0000
     1.0000   1.0000   1.0000   1.0000   1.0000   1.0000   1.0000   1.0000
     1.0000   1.0000   1.0000   1.0000   1.0000   1.0000   1.0000   1.0000
     1.0000   1.0000   1.0000   1.0000   1.0000   1.0000   1.0000   1.0000
     1.0000   1.0000   1.0000   1.0000   1.0000   1.0000   1.0000   1.0000
     1.0000   1.0000   1.0000   1.0000   1.0000   1.0000   1.0000   1.0000
     1.0000   1.0000   1.0000   1.0000   1.0000   1.0000   1.0000   1.0000
     1.0000   1.0000   1.0000   1.0000   1.0000   1.0000   1.0000   1.0000
     1.0000   1.0000   1.0000   1.0000   1.0000   1.0000   1.0000   1.0000
     0.9999   0.9999   0.9999   0.9998   0.9993   0.9990   0.9986   0.9984
     0.9979   0.9977   0.9972   0.9967   0.9965   0.9960   0.9952   0.9950
     0.9946   0.9934   0.9923   0.9911   0.9889   0.9870   0.9863   0.9847
     0.9826   0.9784   0.9766   0.9634   0.9559   0.9508   0.9474   0.9346
     0.9227   0.9164   0.9118   0.9078   0.9013   0.8987   0.8924   0.8641
     0.8512   0.8175   0.7479   0.7392   0.7370   0.7291   0.7214   0.7146
     0.7085   0.7054   0.6992   0.6923   0.6844   0.6765   0.6732   0.6662
     0.6531   0.6482   0.6432   0.6257   0.4500   0.3964   0.3693   0.3319
     0.3241   0.2124   0.1757   0.0729   0.0394   0.0192   0.0070   0.0031
     0.0003   0.0002   0.0001   0.0001   0.0001   0.0000   0.0000   0.0000
     0.0000   0.0000   0.0000   0.0000   0.0000   0.0000   0.0000   0.0000
     0.0000   0.0000   0.0000   0.0000   0.0000   0.0000   0.0000   0.0000
     0.0000   0.0000   0.0000

          k = 0.2500-0.5000 0.0000 ( 65138 PWs)   bands (ev):

   -92.7059 -92.6583 -92.5605 -92.5128 -92.4561 -92.4124 -92.3952 -92.2752
   -56.0593 -56.0452 -55.9175 -55.9066 -55.9005 -55.8934 -55.8620 -55.8295
   -55.8139 -55.8119 -55.8074 -55.7634 -55.7431 -55.7071 -55.6872 -55.6559
   -55.6484 -55.6008 -55.6004 -55.5976 -55.5892 -55.5505 -55.5255 -55.4408
   -31.2807 -31.2647 -31.1220 -31.0358 -31.0296 -30.9225 -30.8048 -30.7467
   -29.8500 -29.8090 -29.7850 -29.6769 -14.9826 -14.9374 -14.8694 -14.7483
   -14.7225 -14.6010 -14.5118 -14.3753 -14.0772 -14.0209 -13.9957 -13.9765
   -13.9713 -13.9552 -13.9472 -13.9116 -13.8874 -13.8514 -13.8226 -13.7842
   -13.7500 -13.6705 -13.6217 -13.5451 -13.5416 -13.4741 -13.4507 -13.3447
   -13.2989 -13.2117 -13.1471 -13.1225 -13.0375 -13.0034 -12.9878 -12.9663
   -12.9475 -12.9167 -12.8673 -12.7939 -12.7787 -12.7612 -12.7147 -12.7041
   -12.6610 -12.6480 -12.6287 -12.5263 -12.3746 -12.3252 -12.2220 -12.1841
   -12.1603 -11.7790 -11.7669 -11.7563 -11.7293 -11.6971 -11.6696 -11.6268
   -11.6007 -11.5777 -11.5341 -11.5084 -11.4969  -2.4528  -2.3882  -2.2603
    -2.1833  -2.0510  -1.9687  -1.8464  -1.6956  -1.6398  -1.6186  -1.5564
    -1.5438  -1.4476  -1.3786  -1.2950  -1.2437  -1.2344  -1.1731  -1.1645
    -1.1270  -1.0954  -1.0467  -1.0070  -0.9746  -0.9358  -0.9239  -0.8783
    -0.8487  -0.8044  -0.7751  -0.7079  -0.6032  -0.5680  -0.4870  -0.4214
    -0.3684  -0.3305  -0.3124  -0.2500  -0.0981  -0.0899   0.0392   0.0532
     0.0627   0.1070   0.1398   0.1773   0.2052   0.2718   0.5567   0.6521
     0.7178   0.7734   1.0384   1.0559   1.1493   1.1702   1.3355   1.3754
     1.4101   1.4331   1.4470   1.4692   1.5339   1.5854   1.6182   1.6937
     1.7873   1.8216   1.8457   1.8525   1.8901   1.9055   1.9089   1.9544
     1.9678   1.9851   2.0280   2.0384   2.0566   2.0915   2.1483   2.1929
     2.2698   2.4030   2.4131   2.4828   2.5527   2.5710   2.5896   2.6200
     2.6412   2.6661   2.6868   2.7016   2.7241   2.8211   2.8734   2.8903
     2.8992   2.9085   2.9284   2.9423   2.9609   2.9701   3.0077   3.0171
     3.0285   3.0365   3.0464   3.0560   3.5771   3.5940   3.7378   3.7897
     4.1279   4.1848   4.1857   4.3164   4.7588   4.9197   5.0583   5.1398
     5.3006   5.4306   5.6053   5.6532   5.7672   5.7867   6.3886   6.4161
     6.4862   6.6983   7.2691   7.4451   7.5801   7.7003   7.8043   7.8319
     7.8847   8.0369   8.3020   8.4208   8.4820   8.5199   8.5566   8.5660
     8.7090   8.7587   8.7936

     occupation numbers 
     1.0000   1.0000   1.0000   1.0000   1.0000   1.0000   1.0000   1.0000
     1.0000   1.0000   1.0000   1.0000   1.0000   1.0000   1.0000   1.0000
     1.0000   1.0000   1.0000   1.0000   1.0000   1.0000   1.0000   1.0000
     1.0000   1.0000   1.0000   1.0000   1.0000   1.0000   1.0000   1.0000
     1.0000   1.0000   1.0000   1.0000   1.0000   1.0000   1.0000   1.0000
     1.0000   1.0000   1.0000   1.0000   1.0000   1.0000   1.0000   1.0000
     1.0000   1.0000   1.0000   1.0000   1.0000   1.0000   1.0000   1.0000
     1.0000   1.0000   1.0000   1.0000   1.0000   1.0000   1.0000   1.0000
     1.0000   1.0000   1.0000   1.0000   1.0000   1.0000   1.0000   1.0000
     1.0000   1.0000   1.0000   1.0000   1.0000   1.0000   1.0000   1.0000
     1.0000   1.0000   1.0000   1.0000   1.0000   1.0000   1.0000   1.0000
     1.0000   1.0000   1.0000   1.0000   1.0000   1.0000   1.0000   1.0000
     1.0000   1.0000   1.0000   1.0000   1.0000   1.0000   1.0000   1.0000
     1.0000   1.0000   1.0000   1.0000   1.0000   1.0000   1.0000   1.0000
     1.0000   1.0000   1.0000   1.0000   1.0000   1.0000   1.0000   1.0000
     1.0000   1.0000   1.0000   1.0000   1.0000   1.0000   1.0000   1.0000
     1.0000   1.0000   1.0000   1.0000   1.0000   1.0000   1.0000   1.0000
     1.0000   1.0000   1.0000   1.0000   1.0000   1.0000   1.0000   1.0000
     1.0000   1.0000   1.0000   1.0000   1.0000   1.0000   1.0000   1.0000
     1.0000   1.0000   1.0000   1.0000   1.0000   1.0000   1.0000   1.0000
     0.9999   0.9999   0.9997   0.9996   0.9994   0.9993   0.9984   0.9981
     0.9977   0.9975   0.9973   0.9970   0.9960   0.9950   0.9943   0.9922
     0.9887   0.9870   0.9858   0.9854   0.9832   0.9823   0.9820   0.9788
     0.9778   0.9764   0.9726   0.9716   0.9698   0.9661   0.9593   0.9531
     0.9408   0.9137   0.9114   0.8936   0.8733   0.8675   0.8615   0.8513
     0.8439   0.8348   0.8271   0.8214   0.8126   0.7713   0.7472   0.7391
     0.7348   0.7303   0.7204   0.7134   0.7039   0.6992   0.6795   0.6745
     0.6684   0.6640   0.6587   0.6534   0.3523   0.3430   0.2683   0.2435
     0.1156   0.1000   0.0998   0.0698   0.0164   0.0088   0.0050   0.0035
     0.0016   0.0009   0.0003   0.0003   0.0001   0.0001   0.0000   0.0000
     0.0000   0.0000   0.0000   0.0000   0.0000   0.0000   0.0000   0.0000
     0.0000   0.0000   0.0000   0.0000   0.0000   0.0000   0.0000   0.0000
     0.0000   0.0000   0.0000

          k =-0.5000-0.5000 0.0000 ( 65132 PWs)   bands (ev):

   -92.7059 -92.6583 -92.5605 -92.5128 -92.4561 -92.4124 -92.3952 -92.2752
   -56.0593 -56.0452 -55.9175 -55.9066 -55.9005 -55.8934 -55.8620 -55.8295
   -55.8139 -55.8119 -55.8074 -55.7634 -55.7431 -55.7071 -55.6872 -55.6559
   -55.6484 -55.6008 -55.6004 -55.5976 -55.5892 -55.5505 -55.5255 -55.4408
   -31.2785 -31.2669 -31.1216 -31.0361 -31.0294 -30.9224 -30.8050 -30.7469
   -29.8490 -29.8100 -29.7846 -29.6773 -14.9359 -14.9106 -14.7925 -14.7809
   -14.6847 -14.6498 -14.6100 -14.4767 -13.9868 -13.9749 -13.9731 -13.9393
   -13.9229 -13.9062 -13.8857 -13.8620 -13.8517 -13.8397 -13.8237 -13.8047
   -13.7371 -13.7304 -13.6922 -13.6647 -13.6285 -13.5616 -13.5066 -13.3861
   -13.3435 -13.1616 -13.1198 -13.0557 -13.0305 -12.9998 -12.9892 -12.9797
   -12.9640 -12.9509 -12.8367 -12.7885 -12.7736 -12.7575 -12.7271 -12.7182
   -12.6712 -12.6100 -12.6023 -12.5426 -12.3595 -12.3215 -12.2036 -12.1729
   -12.1565 -11.7758 -11.7633 -11.7451 -11.7287 -11.6930 -11.6751 -11.6419
   -11.5814 -11.5605 -11.5561 -11.5059 -11.5026  -2.2268  -2.1535  -2.1452
    -2.0718  -2.0336  -1.9555  -1.8878  -1.7603  -1.6462  -1.6164  -1.5737
    -1.5199  -1.4470  -1.4334  -1.3624  -1.3197  -1.2015  -1.1746  -1.1618
    -1.1196  -1.0970  -1.0323  -0.9855  -0.9668  -0.9543  -0.8982  -0.8574
    -0.8372  -0.7256  -0.6688  -0.6248  -0.5748  -0.5439  -0.5276  -0.4988
    -0.4579  -0.4166  -0.4104  -0.3251  -0.2579  -0.2151  -0.1866  -0.1146
    -0.0534  -0.0480   0.0139   0.0482   0.0653   0.0741   0.5336   0.5694
     0.6601   0.6955   1.0667   1.0788   1.1137   1.1557   1.4220   1.4410
     1.4470   1.4942   1.6135   1.7095   1.7362   1.7727   1.7984   1.8184
     1.8267   1.8561   1.8671   1.8829   1.8948   1.9464   1.9475   1.9776
     1.9913   2.0141   2.0271   2.0631   2.0900   2.1061   2.1346   2.1731
     2.2289   2.2990   2.4056   2.4796   2.5695   2.5963   2.6182   2.6330
     2.6461   2.6758   2.6768   2.6965   2.7076   2.7245   2.7467   2.7564
     2.8228   2.8269   2.8466   2.8616   2.8768   2.8978   2.8988   2.9073
     3.0150   3.0203   3.0413   3.0546   4.0137   4.0385   4.0505   4.0752
     4.3148   4.3911   4.4136   4.6536   4.7768   4.8590   4.9884   5.0783
     5.0907   5.2036   5.2938   5.4465   5.8550   5.8811   5.9532   6.0304
     6.6563   6.8491   7.0645   7.1196   7.9110   7.9360   7.9601   7.9757
     7.9797   8.0210   8.0882   8.2680   8.4741   8.5848   8.6156   8.6563
     8.7013   8.7368   8.7605

     occupation numbers 
     1.0000   1.0000   1.0000   1.0000   1.0000   1.0000   1.0000   1.0000
     1.0000   1.0000   1.0000   1.0000   1.0000   1.0000   1.0000   1.0000
     1.0000   1.0000   1.0000   1.0000   1.0000   1.0000   1.0000   1.0000
     1.0000   1.0000   1.0000   1.0000   1.0000   1.0000   1.0000   1.0000
     1.0000   1.0000   1.0000   1.0000   1.0000   1.0000   1.0000   1.0000
     1.0000   1.0000   1.0000   1.0000   1.0000   1.0000   1.0000   1.0000
     1.0000   1.0000   1.0000   1.0000   1.0000   1.0000   1.0000   1.0000
     1.0000   1.0000   1.0000   1.0000   1.0000   1.0000   1.0000   1.0000
     1.0000   1.0000   1.0000   1.0000   1.0000   1.0000   1.0000   1.0000
     1.0000   1.0000   1.0000   1.0000   1.0000   1.0000   1.0000   1.0000
     1.0000   1.0000   1.0000   1.0000   1.0000   1.0000   1.0000   1.0000
     1.0000   1.0000   1.0000   1.0000   1.0000   1.0000   1.0000   1.0000
     1.0000   1.0000   1.0000   1.0000   1.0000   1.0000   1.0000   1.0000
     1.0000   1.0000   1.0000   1.0000   1.0000   1.0000   1.0000   1.0000
     1.0000   1.0000   1.0000   1.0000   1.0000   1.0000   1.0000   1.0000
     1.0000   1.0000   1.0000   1.0000   1.0000   1.0000   1.0000   1.0000
     1.0000   1.0000   1.0000   1.0000   1.0000   1.0000   1.0000   1.0000
     1.0000   1.0000   1.0000   1.0000   1.0000   1.0000   1.0000   1.0000
     1.0000   1.0000   1.0000   1.0000   1.0000   1.0000   1.0000   1.0000
     1.0000   1.0000   1.0000   1.0000   1.0000   1.0000   1.0000   1.0000
     1.0000   1.0000   0.9996   0.9996   0.9995   0.9994   0.9976   0.9974
     0.9973   0.9967   0.9944   0.9917   0.9907   0.9893   0.9882   0.9872
     0.9868   0.9852   0.9846   0.9837   0.9829   0.9794   0.9794   0.9770
     0.9759   0.9739   0.9727   0.9692   0.9663   0.9645   0.9610   0.9559
     0.9477   0.9356   0.9131   0.8944   0.8680   0.8593   0.8519   0.8468
     0.8421   0.8312   0.8309   0.8234   0.8191   0.8124   0.8034   0.7994
     0.7706   0.7688   0.7597   0.7527   0.7456   0.7355   0.7350   0.7308
     0.6756   0.6728   0.6615   0.6542   0.1521   0.1436   0.1396   0.1316
     0.0702   0.0561   0.0525   0.0240   0.0154   0.0112   0.0067   0.0045
     0.0043   0.0026   0.0017   0.0008   0.0001   0.0001   0.0000   0.0000
     0.0000   0.0000   0.0000   0.0000   0.0000   0.0000   0.0000   0.0000
     0.0000   0.0000   0.0000   0.0000   0.0000   0.0000   0.0000   0.0000
     0.0000   0.0000   0.0000

          k = 0.2500 0.0000 0.0000 ( 65257 PWs)   bands (ev):

   -92.7059 -92.6583 -92.5605 -92.5128 -92.4561 -92.4124 -92.3952 -92.2752
   -56.0593 -56.0452 -55.9175 -55.9066 -55.9005 -55.8934 -55.8620 -55.8295
   -55.8139 -55.8119 -55.8074 -55.7634 -55.7431 -55.7071 -55.6872 -55.6559
   -55.6484 -55.6008 -55.6004 -55.5976 -55.5892 -55.5505 -55.5255 -55.4408
   -31.2811 -31.2650 -31.1216 -31.0355 -31.0301 -30.9220 -30.8059 -30.7456
   -29.8512 -29.8096 -29.7837 -29.6762 -15.0535 -15.0076 -14.9406 -14.7947
   -14.6836 -14.4914 -14.3589 -14.1753 -14.1619 -14.1313 -14.0999 -14.0730
   -14.0427 -14.0237 -13.9961 -13.9731 -13.9504 -13.8439 -13.8110 -13.6643
   -13.5927 -13.5785 -13.5094 -13.4953 -13.4809 -13.4196 -13.3499 -13.3177
   -13.2193 -13.1641 -13.1475 -13.0658 -13.0502 -13.0364 -13.0267 -13.0044
   -12.9769 -12.9381 -12.8759 -12.8252 -12.8231 -12.8060 -12.7763 -12.7563
   -12.6645 -12.6370 -12.6216 -12.5894 -12.5094 -12.4110 -12.2537 -12.0778
[...]
     0.3519   0.3261   0.2042   0.0787   0.0462   0.0217   0.0059   0.0048
     0.0003   0.0001   0.0000   0.0000   0.0000   0.0000   0.0000   0.0000
     0.0000   0.0000   0.0000   0.0000   0.0000   0.0000   0.0000   0.0000
     0.0000   0.0000   0.0000   0.0000   0.0000   0.0000   0.0000   0.0000
     0.0000   0.0000   0.0000

          k =-0.5000 0.0000 0.0000 ( 65180 PWs)   bands (ev):

   -92.7059 -92.6583 -92.5605 -92.5128 -92.4561 -92.4124 -92.3952 -92.2752
   -56.0593 -56.0452 -55.9175 -55.9066 -55.9005 -55.8934 -55.8620 -55.8295
   -55.8139 -55.8119 -55.8074 -55.7634 -55.7431 -55.7071 -55.6872 -55.6559
   -55.6484 -55.6008 -55.6004 -55.5976 -55.5892 -55.5505 -55.5255 -55.4408
   -31.2789 -31.2672 -31.1212 -31.0359 -31.0300 -30.9218 -30.8061 -30.7458
   -29.8502 -29.8107 -29.7833 -29.6766 -15.0193 -14.9651 -14.9040 -14.7923
   -14.6930 -14.5481 -14.4018 -14.2539 -14.1366 -14.1166 -14.1125 -14.0417
   -13.9961 -13.9733 -13.9629 -13.9113 -13.8984 -13.8865 -13.8407 -13.8121
   -13.7111 -13.5600 -13.5141 -13.4973 -13.4884 -13.4154 -13.3690 -13.3019
   -13.2729 -13.2492 -13.2240 -13.0594 -13.0484 -13.0324 -13.0162 -12.9979
   -12.9512 -12.9300 -12.9106 -12.8233 -12.8056 -12.7484 -12.6596 -12.6453
   -12.6356 -12.6344 -12.6216 -12.5460 -12.4390 -12.3317 -12.3022 -12.1765
   -12.1319 -11.7826 -11.7608 -11.7542 -11.7396 -11.7212 -11.6797 -11.6181
   -11.6004 -11.5671 -11.5229 -11.5137 -11.4981  -2.5852  -2.5470  -2.3840
    -2.3447  -2.0302  -1.9537  -1.8084  -1.6902  -1.6506  -1.6033  -1.5575
    -1.5332  -1.4096  -1.3656  -1.3483  -1.2682  -1.2335  -1.2236  -1.1870
    -1.1513  -1.1229  -1.0574  -1.0295  -0.9972  -0.9024  -0.8577  -0.8070
    -0.7765  -0.7553  -0.7200  -0.6766  -0.6509  -0.6129  -0.5071  -0.4430
    -0.3671  -0.3076  -0.1527  -0.1058  -0.0611  -0.0100   0.0353   0.0561
     0.1945   0.2290   0.2754   0.4352   0.5350   0.5839   0.6840   0.7355
     0.8583   0.8691   0.9992   1.0273   1.0828   1.1180   1.1548   1.1596
     1.2110   1.2307   1.2995   1.3464   1.3943   1.4057   1.7018   1.7163
     1.7275   1.7596   1.8538   1.8667   1.8828   1.8899   1.9211   1.9339
     1.9713   1.9959   2.0170   2.0730   2.0909   2.1427   2.1637   2.2202
     2.3349   2.4050   2.4253   2.4875   2.4986   2.5116   2.5985   2.6216
     2.6545   2.7221   2.7301   2.7384   2.7682   2.8321   2.8768   2.9315
     2.9498   2.9964   3.0006   3.0039   3.0126   3.0292   3.0407   3.0535
     3.0596   3.0780   3.0821   3.1051   3.1245   3.1294   3.2577   3.2651
     4.0747   4.1262   4.1867   4.3123   4.7869   4.8597   5.0412   5.0597
     5.4812   5.5085   5.6023   5.6492   6.0291   6.0486   6.3856   6.4735
     6.7940   7.0020   7.2761   7.2932   7.3597   7.4425   7.7728   7.8771
     7.8882   8.0450   8.2314   8.2514   8.3137   8.5021   8.5239   8.6278
     8.7567   8.8474   8.9191

     occupation numbers 
     1.0000   1.0000   1.0000   1.0000   1.0000   1.0000   1.0000   1.0000
     1.0000   1.0000   1.0000   1.0000   1.0000   1.0000   1.0000   1.0000
     1.0000   1.0000   1.0000   1.0000   1.0000   1.0000   1.0000   1.0000
     1.0000   1.0000   1.0000   1.0000   1.0000   1.0000   1.0000   1.0000
     1.0000   1.0000   1.0000   1.0000   1.0000   1.0000   1.0000   1.0000
     1.0000   1.0000   1.0000   1.0000   1.0000   1.0000   1.0000   1.0000
     1.0000   1.0000   1.0000   1.0000   1.0000   1.0000   1.0000   1.0000
     1.0000   1.0000   1.0000   1.0000   1.0000   1.0000   1.0000   1.0000
     1.0000   1.0000   1.0000   1.0000   1.0000   1.0000   1.0000   1.0000
     1.0000   1.0000   1.0000   1.0000   1.0000   1.0000   1.0000   1.0000
     1.0000   1.0000   1.0000   1.0000   1.0000   1.0000   1.0000   1.0000
     1.0000   1.0000   1.0000   1.0000   1.0000   1.0000   1.0000   1.0000
     1.0000   1.0000   1.0000   1.0000   1.0000   1.0000   1.0000   1.0000
     1.0000   1.0000   1.0000   1.0000   1.0000   1.0000   1.0000   1.0000
     1.0000   1.0000   1.0000   1.0000   1.0000   1.0000   1.0000   1.0000
     1.0000   1.0000   1.0000   1.0000   1.0000   1.0000   1.0000   1.0000
     1.0000   1.0000   1.0000   1.0000   1.0000   1.0000   1.0000   1.0000
     1.0000   1.0000   1.0000   1.0000   1.0000   1.0000   1.0000   1.0000
     1.0000   1.0000   1.0000   1.0000   1.0000   1.0000   1.0000   1.0000
     1.0000   1.0000   1.0000   1.0000   1.0000   1.0000   1.0000   0.9999
     0.9999   0.9999   0.9997   0.9997   0.9996   0.9995   0.9994   0.9993
     0.9991   0.9990   0.9987   0.9983   0.9979   0.9978   0.9919   0.9914
     0.9910   0.9898   0.9854   0.9846   0.9837   0.9832   0.9812   0.9803
     0.9775   0.9755   0.9736   0.9681   0.9662   0.9600   0.9572   0.9490
     0.9286   0.9133   0.9084   0.8923   0.8892   0.8855   0.8586   0.8507
     0.8391   0.8134   0.8102   0.8068   0.7944   0.7664   0.7456   0.7188
     0.7096   0.6855   0.6832   0.6815   0.6769   0.6680   0.6617   0.6548
     0.6515   0.6413   0.6390   0.6261   0.6152   0.6124   0.5379   0.5335
     0.1318   0.1161   0.0995   0.0707   0.0148   0.0112   0.0053   0.0049
     0.0007   0.0006   0.0004   0.0003   0.0000   0.0000   0.0000   0.0000
     0.0000   0.0000   0.0000   0.0000   0.0000   0.0000   0.0000   0.0000
     0.0000   0.0000   0.0000   0.0000   0.0000   0.0000   0.0000   0.0000
     0.0000   0.0000   0.0000

          k =-0.2500 0.2500 0.0000 ( 65198 PWs)   bands (ev):

   -92.7059 -92.6583 -92.5605 -92.5128 -92.4561 -92.4124 -92.3952 -92.2752
   -56.0593 -56.0452 -55.9175 -55.9066 -55.9005 -55.8934 -55.8620 -55.8295
   -55.8139 -55.8119 -55.8074 -55.7634 -55.7431 -55.7071 -55.6872 -55.6559
   -55.6484 -55.6008 -55.6004 -55.5976 -55.5892 -55.5505 -55.5255 -55.4408
   -31.2809 -31.2649 -31.1218 -31.0356 -31.0299 -30.9222 -30.8054 -30.7461
   -29.8506 -29.8093 -29.7844 -29.6766 -15.0221 -14.9768 -14.9057 -14.7897
   -14.6732 -14.5483 -14.4659 -14.2530 -14.1182 -14.0895 -14.0737 -14.0271
   -14.0024 -13.9847 -13.9742 -13.9536 -13.9131 -13.8386 -13.8241 -13.6766
   -13.6486 -13.6168 -13.5999 -13.5322 -13.5013 -13.4405 -13.4306 -13.2957
   -13.2463 -13.2264 -13.1503 -13.1071 -13.0442 -13.0142 -12.9996 -12.9807
   -12.9480 -12.9322 -12.8572 -12.8196 -12.7854 -12.7766 -12.7560 -12.7153
   -12.6972 -12.6661 -12.6413 -12.4808 -12.4471 -12.3845 -12.2875 -12.1137
   -12.0598 -11.8025 -11.7810 -11.7542 -11.7420 -11.7004 -11.6666 -11.6428
   -11.6219 -11.5991 -11.5154 -11.4698 -11.4603  -2.6700  -2.4627  -2.3416
    -2.2514  -2.1350  -2.0689  -1.8637  -1.7205  -1.7023  -1.6698  -1.5804
    -1.5444  -1.4514  -1.4172  -1.3911  -1.2492  -1.1952  -1.1632  -1.1192
    -1.0946  -1.0339  -1.0139  -0.9739  -0.9456  -0.9052  -0.8411  -0.7938
    -0.7251  -0.6614  -0.6364  -0.5865  -0.5569  -0.5120  -0.4527  -0.4009
    -0.3670  -0.2624  -0.2342  -0.2178  -0.1760  -0.1138  -0.0412   0.0015
     0.0439   0.1108   0.1405   0.3873   0.5645   0.5971   0.6406   0.6980
     0.7558   0.8053   0.8721   0.8998   1.1826   1.2897   1.3288   1.3615
     1.3707   1.4099   1.4247   1.4726   1.5022   1.5151   1.5415   1.5891
     1.6041   1.6460   1.6706   1.7116   1.7943   1.8133   1.8359   1.8687
     1.8988   1.9373   1.9935   2.1025   2.2037   2.2299   2.2807   2.3012
     2.3615   2.4024   2.4115   2.4303   2.4537   2.4750   2.4868   2.5821
     2.6193   2.7106   2.8795   2.8867   2.9010   2.9101   2.9212   2.9353
     2.9431   2.9612   2.9708   2.9832   2.9944   3.0051   3.0147   3.0220
     3.0570   3.0668   3.0734   3.1079   3.3996   3.4807   3.5486   3.6192
     3.6371   3.8442   3.9578   4.3005   4.5034   4.7177   4.9877   5.1643
     5.6445   5.6999   5.7888   5.8294   5.8926   6.1264   6.1697   6.1964
     6.8935   6.9833   7.1444   7.3192   7.5627   7.6103   7.6703   7.8778
     7.9010   8.0115   8.2030   8.2385   8.3336   8.3728   8.4446   8.4627
     8.5654   8.7658   8.9313

     occupation numbers 
     1.0000   1.0000   1.0000   1.0000   1.0000   1.0000   1.0000   1.0000
     1.0000   1.0000   1.0000   1.0000   1.0000   1.0000   1.0000   1.0000
     1.0000   1.0000   1.0000   1.0000   1.0000   1.0000   1.0000   1.0000
     1.0000   1.0000   1.0000   1.0000   1.0000   1.0000   1.0000   1.0000
     1.0000   1.0000   1.0000   1.0000   1.0000   1.0000   1.0000   1.0000
     1.0000   1.0000   1.0000   1.0000   1.0000   1.0000   1.0000   1.0000
     1.0000   1.0000   1.0000   1.0000   1.0000   1.0000   1.0000   1.0000
     1.0000   1.0000   1.0000   1.0000   1.0000   1.0000   1.0000   1.0000
     1.0000   1.0000   1.0000   1.0000   1.0000   1.0000   1.0000   1.0000
     1.0000   1.0000   1.0000   1.0000   1.0000   1.0000   1.0000   1.0000
     1.0000   1.0000   1.0000   1.0000   1.0000   1.0000   1.0000   1.0000
     1.0000   1.0000   1.0000   1.0000   1.0000   1.0000   1.0000   1.0000
     1.0000   1.0000   1.0000   1.0000   1.0000   1.0000   1.0000   1.0000
     1.0000   1.0000   1.0000   1.0000   1.0000   1.0000   1.0000   1.0000
     1.0000   1.0000   1.0000   1.0000   1.0000   1.0000   1.0000   1.0000
     1.0000   1.0000   1.0000   1.0000   1.0000   1.0000   1.0000   1.0000
     1.0000   1.0000   1.0000   1.0000   1.0000   1.0000   1.0000   1.0000
     1.0000   1.0000   1.0000   1.0000   1.0000   1.0000   1.0000   1.0000
     1.0000   1.0000   1.0000   1.0000   1.0000   1.0000   1.0000   1.0000
     1.0000   1.0000   1.0000   1.0000   1.0000   1.0000   1.0000   1.0000
     0.9999   0.9999   0.9999   0.9998   0.9993   0.9987   0.9985   0.9982
     0.9981   0.9977   0.9976   0.9970   0.9966   0.9963   0.9959   0.9950
     0.9946   0.9936   0.9929   0.9916   0.9883   0.9875   0.9863   0.9845
     0.9827   0.9801   0.9757   0.9649   0.9515   0.9475   0.9389   0.9352
     0.9230   0.9139   0.9117   0.9072   0.9013   0.8957   0.8925   0.8639
     0.8515   0.8179   0.7443   0.7408   0.7339   0.7294   0.7240   0.7169
     0.7130   0.7038   0.6989   0.6924   0.6865   0.6808   0.6758   0.6719
     0.6529   0.6474   0.6438   0.6245   0.4539   0.4067   0.3681   0.3293
     0.3198   0.2189   0.1724   0.0730   0.0396   0.0191   0.0067   0.0031
     0.0003   0.0002   0.0001   0.0001   0.0001   0.0000   0.0000   0.0000
     0.0000   0.0000   0.0000   0.0000   0.0000   0.0000   0.0000   0.0000
     0.0000   0.0000   0.0000   0.0000   0.0000   0.0000   0.0000   0.0000
     0.0000   0.0000   0.0000

          k =-0.5000 0.2500 0.0000 ( 65138 PWs)   bands (ev):

   -92.7059 -92.6583 -92.5605 -92.5128 -92.4561 -92.4124 -92.3952 -92.2752
   -56.0593 -56.0452 -55.9175 -55.9066 -55.9005 -55.8934 -55.8620 -55.8295
   -55.8139 -55.8119 -55.8074 -55.7634 -55.7431 -55.7071 -55.6872 -55.6559
   -55.6484 -55.6008 -55.6004 -55.5976 -55.5892 -55.5505 -55.5255 -55.4408
   -31.2787 -31.2671 -31.1214 -31.0360 -31.0297 -30.9221 -30.8055 -30.7463
   -29.8496 -29.8103 -29.7840 -29.6770 -14.9862 -14.9391 -14.8612 -14.7592
   -14.7213 -14.5951 -14.5042 -14.3714 -14.0688 -14.0366 -14.0243 -13.9818
   -13.9739 -13.9551 -13.9361 -13.8977 -13.8812 -13.8670 -13.8277 -13.8109
   -13.7040 -13.6423 -13.5930 -13.5858 -13.5534 -13.4742 -13.4614 -13.3398
   -13.2895 -13.2049 -13.1686 -13.0719 -13.0314 -13.0208 -12.9983 -12.9771
   -12.9523 -12.9428 -12.8671 -12.8308 -12.7755 -12.7629 -12.6862 -12.6713
   -12.6515 -12.6270 -12.6185 -12.5440 -12.3949 -12.3269 -12.2574 -12.1709
   -12.1415 -11.7755 -11.7627 -11.7482 -11.7364 -11.7147 -11.6845 -11.6047
   -11.5966 -11.5727 -11.5375 -11.5093 -11.5007  -2.4426  -2.4011  -2.2536
    -2.2113  -2.0499  -1.9723  -1.8325  -1.6961  -1.6383  -1.6117  -1.5734
    -1.5360  -1.4547  -1.3392  -1.2823  -1.2595  -1.2318  -1.1806  -1.1391
    -1.1252  -1.0868  -1.0718  -1.0107  -0.9793  -0.9421  -0.9070  -0.8786
    -0.8198  -0.7929  -0.7517  -0.7158  -0.6099  -0.5862  -0.4887  -0.4363
    -0.4013  -0.3383  -0.2629  -0.2304  -0.1250  -0.0923  -0.0285   0.0167
     0.0632   0.1168   0.1487   0.1815   0.2278   0.2678   0.5992   0.6434
     0.7072   0.7347   1.0124   1.0796   1.1481   1.1776   1.3502   1.3840
     1.4222   1.4347   1.4524   1.4695   1.5395   1.5857   1.6235   1.6615
     1.7710   1.8166   1.8435   1.8554   1.8891   1.9161   1.9340   1.9483
     1.9650   1.9876   2.0330   2.0482   2.0851   2.1100   2.1411   2.1982
     2.3257   2.3999   2.4194   2.4474   2.4830   2.5113   2.5492   2.6143
     2.6502   2.6558   2.6971   2.7265   2.7514   2.8321   2.8754   2.8889
     2.8942   2.9158   2.9365   2.9490   2.9643   2.9769   3.0004   3.0133
     3.0225   3.0321   3.0396   3.0522   3.5836   3.6181   3.7720   3.7904
     4.0817   4.1417   4.1972   4.3982   4.7813   4.8774   5.0448   5.0772
     5.4085   5.4285   5.5866   5.6270   5.7421   5.8043   6.3892   6.4816
     6.4933   6.6016   7.3253   7.4128   7.5879   7.7114   7.7907   7.8336
     7.8894   8.0244   8.2866   8.4480   8.5139   8.5370   8.5728   8.5802
     8.6612   8.7555   8.7983

     occupation numbers 
     1.0000   1.0000   1.0000   1.0000   1.0000   1.0000   1.0000   1.0000
     1.0000   1.0000   1.0000   1.0000   1.0000   1.0000   1.0000   1.0000
     1.0000   1.0000   1.0000   1.0000   1.0000   1.0000   1.0000   1.0000
     1.0000   1.0000   1.0000   1.0000   1.0000   1.0000   1.0000   1.0000
     1.0000   1.0000   1.0000   1.0000   1.0000   1.0000   1.0000   1.0000
     1.0000   1.0000   1.0000   1.0000   1.0000   1.0000   1.0000   1.0000
     1.0000   1.0000   1.0000   1.0000   1.0000   1.0000   1.0000   1.0000
     1.0000   1.0000   1.0000   1.0000   1.0000   1.0000   1.0000   1.0000
     1.0000   1.0000   1.0000   1.0000   1.0000   1.0000   1.0000   1.0000
     1.0000   1.0000   1.0000   1.0000   1.0000   1.0000   1.0000   1.0000
     1.0000   1.0000   1.0000   1.0000   1.0000   1.0000   1.0000   1.0000
     1.0000   1.0000   1.0000   1.0000   1.0000   1.0000   1.0000   1.0000
     1.0000   1.0000   1.0000   1.0000   1.0000   1.0000   1.0000   1.0000
     1.0000   1.0000   1.0000   1.0000   1.0000   1.0000   1.0000   1.0000
     1.0000   1.0000   1.0000   1.0000   1.0000   1.0000   1.0000   1.0000
     1.0000   1.0000   1.0000   1.0000   1.0000   1.0000   1.0000   1.0000
     1.0000   1.0000   1.0000   1.0000   1.0000   1.0000   1.0000   1.0000
     1.0000   1.0000   1.0000   1.0000   1.0000   1.0000   1.0000   1.0000
     1.0000   1.0000   1.0000   1.0000   1.0000   1.0000   1.0000   1.0000
     1.0000   1.0000   1.0000   1.0000   1.0000   1.0000   1.0000   1.0000
     0.9999   0.9999   0.9997   0.9996   0.9994   0.9993   0.9983   0.9980
     0.9976   0.9975   0.9972   0.9970   0.9959   0.9950   0.9942   0.9932
     0.9893   0.9873   0.9859   0.9853   0.9833   0.9816   0.9803   0.9793
     0.9780   0.9762   0.9722   0.9707   0.9668   0.9640   0.9602   0.9524
     0.9304   0.9145   0.9099   0.9029   0.8935   0.8856   0.8743   0.8532
     0.8407   0.8386   0.8232   0.8116   0.8015   0.7664   0.7463   0.7398
     0.7372   0.7266   0.7163   0.7100   0.7022   0.6957   0.6834   0.6765
     0.6716   0.6664   0.6623   0.6555   0.3487   0.3299   0.2519   0.2432
     0.1296   0.1117   0.0968   0.0550   0.0151   0.0104   0.0053   0.0046
     0.0010   0.0009   0.0004   0.0003   0.0002   0.0001   0.0000   0.0000
     0.0000   0.0000   0.0000   0.0000   0.0000   0.0000   0.0000   0.0000
     0.0000   0.0000   0.0000   0.0000   0.0000   0.0000   0.0000   0.0000
     0.0000   0.0000   0.0000

     the Fermi energy is     3.3217 ev

!    total energy              =   -4441.66555613 Ry
     estimated scf accuracy    <          7.4E-09 Ry
     smearing contrib. (-TS)   =      -1.15487222 Ry
     internal energy E=F+TS    =   -4440.51068391 Ry

     The total energy is F=E-TS. E is the sum of the following terms:
     one-electron contribution =  -20802.76646019 Ry
     hartree contribution      =   10533.29890485 Ry
     xc contribution           =    -694.18461253 Ry
     ewald contribution        =    6799.31052400 Ry
     one-center paw contrib.   =    -276.16904005 Ry
      -> PAW hartree energy AE =      25.16673322 Ry
      -> PAW hartree energy PS =     -25.05058160 Ry
      -> PAW xc energy AE      =     -16.51807184 Ry
      -> PAW xc energy PS      =       6.87754975 Ry
      -> total E_H with PAW    =   10533.41505648 Ry
      -> total E_XC with PAW   =    -703.82513463 Ry

     convergence has been achieved in  47 iterations

     Writing all to output data dir /bsuhome/zayahcortright/scratch/pwscf.save/
 
     init_run     :      8.27s CPU      8.77s WALL (       1 calls)
     electrons    :    792.48s CPU    878.65s WALL (       1 calls)

     Called by init_run:
     wfcinit      :      6.38s CPU      6.63s WALL (       1 calls)
     wfcinit:atom :      0.05s CPU      0.07s WALL (       5 calls)
     wfcinit:wfcr :      6.06s CPU      6.22s WALL (       5 calls)
     potinit      :      0.21s CPU      0.23s WALL (       1 calls)
     hinit0       :      0.76s CPU      0.79s WALL (       1 calls)

     Called by electrons:
     c_bands      :    640.19s CPU    653.23s WALL (      47 calls)
     sum_band     :    113.44s CPU    154.60s WALL (      47 calls)
     v_of_rho     :      5.21s CPU      5.64s WALL (      48 calls)
     v_h          :      0.43s CPU      0.44s WALL (      48 calls)
     v_xc         :      4.77s CPU      5.20s WALL (      48 calls)
     newd         :     18.87s CPU     49.81s WALL (      48 calls)
     PAW_pot      :      1.55s CPU      1.59s WALL (      48 calls)
     mix_rho      :     12.95s CPU     13.48s WALL (      47 calls)

     Called by c_bands:
     init_us_2    :      7.50s CPU      7.58s WALL (     475 calls)
     init_us_2:cp :      7.49s CPU      7.58s WALL (     475 calls)
     cegterg      :    605.87s CPU    618.57s WALL (     235 calls)

     Called by sum_band:
     sum_band:wei :      0.34s CPU      0.34s WALL (      47 calls)
     sum_band:loo :     94.61s CPU     95.36s WALL (      47 calls)
     sum_band:buf :      1.33s CPU      1.38s WALL (     235 calls)
     sum_band:ini :      3.32s CPU      3.32s WALL (     235 calls)
     sum_band:cal :     18.97s CPU     19.06s WALL (     235 calls)
     sum_band:bec :      0.57s CPU      0.60s WALL (     235 calls)
     addusdens    :     16.53s CPU     56.87s WALL (      47 calls)
                                        0.00s GPU  (      47 calls)
     addusd:skk   :      0.30s CPU      2.27s WALL (     188 calls)
                                        0.00s GPU  (     188 calls)

     Called by *egterg:
     cdiaghg      :     57.25s CPU     57.51s WALL (    1282 calls)
     cegterg:over :     44.84s CPU     45.05s WALL (    1047 calls)
     cegterg:upda :     51.19s CPU     52.35s WALL (    1047 calls)
     cegterg:last :     70.52s CPU     70.87s WALL (     429 calls)
     cdiaghg:chol :      3.36s CPU      3.38s WALL (    1282 calls)
     cdiaghg:inve :      3.65s CPU      3.67s WALL (    1282 calls)
     cdiaghg:para :      7.23s CPU      7.28s WALL (    2564 calls)
     h_psi        :    314.92s CPU    319.75s WALL (    1287 calls)
     s_psi        :     42.91s CPU     43.03s WALL (    1287 calls)
     g_psi        :      2.72s CPU      2.74s WALL (    1047 calls)

     Called by h_psi:
     h_psi:calbec :     45.05s CPU     45.35s WALL (    1287 calls)
     vloc_psi     :    219.46s CPU    221.38s WALL (    1287 calls)
     add_vuspsi   :     44.12s CPU     44.39s WALL (    1287 calls)

     General routines
     calbec       :     64.01s CPU     64.41s WALL (    1522 calls)
     fft          :      4.05s CPU      4.11s WALL (     622 calls)
     ffts         :      4.57s CPU      4.64s WALL (    5063 calls)
     fftw         :    163.00s CPU    164.34s WALL (  320007 calls)
     interpolate  :      0.40s CPU      0.41s WALL (      48 calls)
 
     Parallel routines

     PAW routines
     PAW_pot      :      1.55s CPU      1.59s WALL (      48 calls)
 
     PWSCF        :  13m22.37s CPU  14m51.90s WALL

 
   This run was terminated on:  15:42:47  21Jun2024            

=------------------------------------------------------------------------------=
   JOB DONE.
=------------------------------------------------------------------------------=
