
     Program PWSCF v.7.2 starts on 22Jun2024 at  1:21:21 

     This program is part of the open-source Quantum ESPRESSO suite
     for quantum simulation of materials; please cite
         "P. Giannozzi et al., J. Phys.:Condens. Matter 21 395502 (2009);
         "P. Giannozzi et al., J. Phys.:Condens. Matter 29 465901 (2017);
         "P. Giannozzi et al., J. Chem. Phys. 152 154105 (2020);
          URL http://www.quantum-espresso.org", 
     in publications or presentations arising from this work. More details at
     http://www.quantum-espresso.org/quote

     Parallel version (MPI & OpenMP), running on      48 processor cores
     Number of MPI processes:                48
     Threads/MPI process:                     1

     MPI processes distributed on     1 nodes
     33227 MiB available memory on the printing compute node when the environment starts
 
     Reading input from espresso.pwi
Warning: card &CELL ignored
Warning: card / ignored
Warning: card &FCP ignored
Warning: card / ignored
Warning: card &RISM ignored
Warning: card / ignored

     Current dimensions of program PWSCF are:
     Max number of different atomic species (ntypx) = 10
     Max number of k-points (npk) =  40000
     Max angular momentum in pseudopotentials (lmaxx) =  4
     file O.pbe-n-kjpaw_psl.0.1.UPF: wavefunction(s)  2P renormalized
     signal trapping enabled: kill the code with -SIGUSR1 to stop cleanly the simulation 
 
     K-points division:     npool     =       2
     R & G space division:  proc/nbgrp/npool/nimage =      24
     Subspace diagonalization in iterative solution of the eigenvalue problem:
     one sub-group per band group will be used
     scalapack distributed-memory algorithm (size of sub-group:  3*  3 procs)

 
     Parallelization info
     --------------------
     sticks:   dense  smooth     PW     G-vecs:    dense   smooth      PW
     Min         350     175     47                61430    21716    3036
     Max         351     177     48                61449    21727    3041
     Sum        8421    4205   1137              1474595   521381   72913
 
     Using Slab Decomposition
 


     bravais-lattice index     =            0
     lattice parameter (alat)  =      14.8599  a.u.
     unit-cell volume          =    8305.1283 (a.u.)^3
     number of atoms/cell      =           50
     number of atomic types    =            4
     number of electrons       =       431.00
     number of Kohn-Sham states=          259
     kinetic-energy cutoff     =      60.0000  Ry
     charge density cutoff     =     480.0000  Ry
     scf convergence threshold =      1.0E-08
     mixing beta               =       0.1500
     number of iterations used =            8  local-TF  mixing
     Exchange-correlation= PBE
                           (   1   4   3   4   0   0   0)

     celldm(1)=  14.859904  celldm(2)=   0.000000  celldm(3)=   0.000000
     celldm(4)=   0.000000  celldm(5)=   0.000000  celldm(6)=   0.000000

     crystal axes: (cart. coord. in units of alat)
               a(1) = (   1.000000   0.000000   0.000000 )  
               a(2) = (   0.000000   1.000000   0.000000 )  
               a(3) = (   0.000000   0.000000   2.531036 )  

     reciprocal axes: (cart. coord. in units 2 pi/alat)
               b(1) = (  1.000000  0.000000  0.000000 )  
               b(2) = (  0.000000  1.000000  0.000000 )  
               b(3) = (  0.000000  0.000000  0.395095 )  


     PseudoPot. # 1 for Sr read from file:
     /bsuhome/zayahcortright/q-e/pseudo/Sr_pbe_v1.uspp.F.UPF
     MD5 check sum: 6b418c05fbe9db5448babca5e47b7a5b
     Pseudo is Ultrasoft + core correction, Zval = 10.0
     Generated by new atomic code, or converted to UPF format
     Using radial grid of  883 points,  6 beta functions with: 
                l(1) =   0
                l(2) =   0
                l(3) =   1
                l(4) =   1
                l(5) =   2
                l(6) =   2
     Q(r) pseudized with  6 coefficients,  rinner =    1.400   1.400   1.400
                                                       1.400   1.400

     PseudoPot. # 2 for O  read from file:
     /bsuhome/zayahcortright/q-e/pseudo/O.pbe-n-kjpaw_psl.0.1.UPF
     MD5 check sum: 0234752ac141de4415c5fc33072bef88
     Pseudo is Projector augmented-wave + core cor, Zval =  6.0
     Generated using "atomic" code by A. Dal Corso  v.5.0.99 svn rev. 10869
     Shape of augmentation charge: BESSEL
     Using radial grid of 1095 points,  4 beta functions with: 
                l(1) =   0
                l(2) =   0
                l(3) =   1
                l(4) =   1
     Q(r) pseudized with 0 coefficients 


     PseudoPot. # 3 for Co read from file:
     /bsuhome/zayahcortright/q-e/pseudo/Co_pbe_v1.2.uspp.F.UPF
     MD5 check sum: 5f91765df6ddd3222702df6e7b74a16d
     Pseudo is Ultrasoft + core correction, Zval = 17.0
     Generated by new atomic code, or converted to UPF format
     Using radial grid of  863 points,  6 beta functions with: 
                l(1) =   0
                l(2) =   0
                l(3) =   1
                l(4) =   1
                l(5) =   2
                l(6) =   2
     Q(r) pseudized with  8 coefficients,  rinner =    1.200   1.200   1.200
                                                       1.200   1.200

     PseudoPot. # 4 for H  read from file:
     /bsuhome/zayahcortright/q-e/pseudo/H.pbe-rrkjus_psl.1.0.0.UPF
     MD5 check sum: f52b6d4d1c606e5624b1dc7b2218f220
     Pseudo is Ultrasoft, Zval =  1.0
     Generated using "atomic" code by A. Dal Corso  v.5.1
     Using radial grid of  929 points,  2 beta functions with: 
                l(1) =   0
                l(2) =   0
     Q(r) pseudized with 0 coefficients 


     atomic species   valence    mass     pseudopotential
        Sr            10.00    87.62000     Sr( 1.00)
        O              6.00    15.99900     O ( 1.00)
        Co            17.00    58.93319     Co( 1.00)
        H              1.00     1.00800     H ( 1.00)

     No symmetry found


                                    s                        frac. trans.

      isym =  1     identity                                     

 cryst.   s( 1) = (     1          0          0      )
                  (     0          1          0      )
                  (     0          0          1      )

 cart.    s( 1) = (  1.0000000  0.0000000  0.0000000 )
                  (  0.0000000  1.0000000  0.0000000 )
                  (  0.0000000  0.0000000  1.0000000 )


   Cartesian axes

     site n.     atom                  positions (alat units)
         1           Sr  tau(   1) = (   0.2508693   0.7491307   1.7574407  )
         2           O   tau(   2) = (   0.4985141   0.5014859   1.7715967  )
         3           Sr  tau(   3) = (   0.7482398   0.7454518   1.7648669  )
         4           Sr  tau(   4) = (   0.7441748   0.2558252   1.7667843  )
         5           Sr  tau(   5) = (   0.2508693   0.7491307   1.2696799  )
         6           Sr  tau(   6) = (   0.2508693   0.7491307   0.7632319  )
         7           Co  tau(   7) = (   0.4998914   0.5001086   1.0164559  )
         8           Co  tau(   8) = (   0.4936915   0.5063085   1.5135603  )
         9           O   tau(   9) = (   0.4988895   0.7610401   1.0164559  )
        10           O   tau(  10) = (   0.2389599   0.5011105   1.0164559  )
        11           O   tau(  11) = (   0.0070918   0.7374880   1.0164559  )
        12           O   tau(  12) = (   0.0088340   0.7405089   1.5135603  )
        13           O   tau(  13) = (   0.5066944   0.7415376   1.5135603  )
        14           O   tau(  14) = (   0.2584624   0.4933056   1.5135603  )
        15           O   tau(  15) = (   0.4985141   0.5014859   0.7773880  )
        16           O   tau(  16) = (   0.4985141   0.5014859   1.2555238  )
        17           Sr  tau(  17) = (   0.7482398   0.7454518   0.7706582  )
        18           Sr  tau(  18) = (   0.7482398   0.7454518   1.2622536  )
        19           Sr  tau(  19) = (   0.7441748   0.2558252   0.7725755  )
        20           Sr  tau(  20) = (   0.7441748   0.2558252   1.2603363  )
        21           O   tau(  21) = (   0.7322655   0.0078049   1.5135603  )
        22           O   tau(  22) = (   0.7558175   0.4996027   1.5135603  )
        23           O   tau(  23) = (   0.5003973   0.2441825   1.5135603  )
        24           O   tau(  24) = (   0.7527966   0.4978604   1.0164559  )
        25           O   tau(  25) = (   0.5021396   0.2472034   1.0164559  )
        26           O   tau(  26) = (   0.7517679   0.0000000   1.0164559  )
        27           O   tau(  27) = (   0.0114961   0.4948124   1.7455321  )
        28           O   tau(  28) = (   0.0048226   0.0077944   1.7715967  )
        29           Sr  tau(  29) = (   0.2545482   0.2517602   1.7648669  )
        30           O   tau(  30) = (   0.5048017   0.0015068   1.7786929  )
        31           Co  tau(  31) = (   0.0056869   0.5006215   1.0164559  )
        32           Co  tau(  32) = (   0.0065315   0.4997770   1.5135603  )
        33           Co  tau(  33) = (   0.0061999   0.0064171   1.0164559  )
        34           Co  tau(  34) = (   0.0000000   0.0126169   1.5135603  )
        35           O   tau(  35) = (   0.0114961   0.4948124   1.2815885  )
        36           O   tau(  36) = (   0.0114961   0.4948124   0.7513233  )
        37           O   tau(  37) = (   0.0051979   0.2673486   1.0164559  )
        38           O   tau(  38) = (   0.0130029   0.2478461   1.5135603  )
        39           O   tau(  39) = (   0.0048226   0.0077944   0.7773880  )
        40           O   tau(  40) = (   0.0048226   0.0077944   1.2555238  )
        41           Sr  tau(  41) = (   0.2545482   0.2517602   0.7706582  )
        42           Sr  tau(  42) = (   0.2545482   0.2517602   1.2622536  )
        43           Co  tau(  43) = (   0.4989925   0.0073160   1.5135603  )
        44           Co  tau(  44) = (   0.4998370   0.0064714   1.0164559  )
        45           O   tau(  45) = (   0.5048017   0.0015068   0.7844841  )
        46           O   tau(  46) = (   0.5048017   0.0015068   1.2484277  )
        47           O   tau(  47) = (   0.2621260   0.0059111   1.5135603  )
        48           O   tau(  48) = (   0.2591051   0.0041689   1.0164559  )
        49           O   tau(  49) = (   0.7108228   0.8529874   2.1602013  )
        50           H   tau(  50) = (   0.7108228   0.8529874   2.2847091  )

   Crystallographic axes

     site n.     atom                  positions (cryst. coord.)
         1           Sr  tau(   1) = (  0.2508693  0.7491307  0.6943562  )
         2           O   tau(   2) = (  0.4985141  0.5014859  0.6999492  )
         3           Sr  tau(   3) = (  0.7482398  0.7454518  0.6972903  )
         4           Sr  tau(   4) = (  0.7441748  0.2558252  0.6980478  )
         5           Sr  tau(   5) = (  0.2508693  0.7491307  0.5016443  )
         6           Sr  tau(   6) = (  0.2508693  0.7491307  0.3015492  )
         7           Co  tau(   7) = (  0.4998914  0.5001086  0.4015968  )
         8           Co  tau(   8) = (  0.4936915  0.5063085  0.5980003  )
         9           O   tau(   9) = (  0.4988895  0.7610401  0.4015968  )
        10           O   tau(  10) = (  0.2389599  0.5011105  0.4015968  )
        11           O   tau(  11) = (  0.0070918  0.7374880  0.4015968  )
        12           O   tau(  12) = (  0.0088340  0.7405089  0.5980003  )
        13           O   tau(  13) = (  0.5066944  0.7415376  0.5980003  )
        14           O   tau(  14) = (  0.2584624  0.4933056  0.5980003  )
        15           O   tau(  15) = (  0.4985141  0.5014859  0.3071422  )
        16           O   tau(  16) = (  0.4985141  0.5014859  0.4960513  )
        17           Sr  tau(  17) = (  0.7482398  0.7454518  0.3044833  )
        18           Sr  tau(  18) = (  0.7482398  0.7454518  0.4987103  )
        19           Sr  tau(  19) = (  0.7441748  0.2558252  0.3052408  )
        20           Sr  tau(  20) = (  0.7441748  0.2558252  0.4979527  )
        21           O   tau(  21) = (  0.7322655  0.0078049  0.5980003  )
        22           O   tau(  22) = (  0.7558175  0.4996027  0.5980003  )
        23           O   tau(  23) = (  0.5003973  0.2441825  0.5980003  )
        24           O   tau(  24) = (  0.7527966  0.4978604  0.4015968  )
        25           O   tau(  25) = (  0.5021396  0.2472034  0.4015968  )
        26           O   tau(  26) = (  0.7517679  0.0000000  0.4015968  )
        27           O   tau(  27) = (  0.0114961  0.4948124  0.6896512  )
        28           O   tau(  28) = (  0.0048226  0.0077944  0.6999492  )
        29           Sr  tau(  29) = (  0.2545482  0.2517602  0.6972903  )
        30           O   tau(  30) = (  0.5048017  0.0015068  0.7027529  )
        31           Co  tau(  31) = (  0.0056869  0.5006215  0.4015968  )
        32           Co  tau(  32) = (  0.0065315  0.4997770  0.5980003  )
        33           Co  tau(  33) = (  0.0061999  0.0064171  0.4015968  )
        34           Co  tau(  34) = (  0.0000000  0.0126169  0.5980003  )
        35           O   tau(  35) = (  0.0114961  0.4948124  0.5063494  )
        36           O   tau(  36) = (  0.0114961  0.4948124  0.2968442  )
        37           O   tau(  37) = (  0.0051979  0.2673486  0.4015968  )
        38           O   tau(  38) = (  0.0130029  0.2478461  0.5980003  )
        39           O   tau(  39) = (  0.0048226  0.0077944  0.3071422  )
        40           O   tau(  40) = (  0.0048226  0.0077944  0.4960513  )
        41           Sr  tau(  41) = (  0.2545482  0.2517602  0.3044833  )
        42           Sr  tau(  42) = (  0.2545482  0.2517602  0.4987103  )
        43           Co  tau(  43) = (  0.4989925  0.0073160  0.5980003  )
        44           Co  tau(  44) = (  0.4998370  0.0064714  0.4015968  )
        45           O   tau(  45) = (  0.5048017  0.0015068  0.3099459  )
        46           O   tau(  46) = (  0.5048017  0.0015068  0.4932477  )
        47           O   tau(  47) = (  0.2621260  0.0059111  0.5980003  )
        48           O   tau(  48) = (  0.2591051  0.0041689  0.4015968  )
        49           O   tau(  49) = (  0.7108228  0.8529874  0.8534850  )
        50           H   tau(  50) = (  0.7108228  0.8529874  0.9026774  )

     number of k points=    10  Gaussian smearing, width (Ry)=  0.0700
                       cart. coord. in units 2pi/alat
        k(    1) = (   0.0000000   0.0000000   0.0000000), wk =   0.1250000
        k(    2) = (   0.0000000   0.2500000   0.0000000), wk =   0.2500000
        k(    3) = (   0.0000000  -0.5000000   0.0000000), wk =   0.1250000
        k(    4) = (   0.2500000   0.2500000   0.0000000), wk =   0.2500000
        k(    5) = (   0.2500000  -0.5000000   0.0000000), wk =   0.2500000
        k(    6) = (  -0.5000000  -0.5000000   0.0000000), wk =   0.1250000
        k(    7) = (   0.2500000   0.0000000   0.0000000), wk =   0.2500000
        k(    8) = (  -0.5000000   0.0000000   0.0000000), wk =   0.1250000
        k(    9) = (  -0.2500000   0.2500000   0.0000000), wk =   0.2500000
        k(   10) = (  -0.5000000   0.2500000   0.0000000), wk =   0.2500000

                       cryst. coord.
        k(    1) = (   0.0000000   0.0000000   0.0000000), wk =   0.1250000
        k(    2) = (   0.0000000   0.2500000   0.0000000), wk =   0.2500000
        k(    3) = (   0.0000000  -0.5000000   0.0000000), wk =   0.1250000
        k(    4) = (   0.2500000   0.2500000   0.0000000), wk =   0.2500000
        k(    5) = (   0.2500000  -0.5000000   0.0000000), wk =   0.2500000
        k(    6) = (  -0.5000000  -0.5000000   0.0000000), wk =   0.1250000
        k(    7) = (   0.2500000   0.0000000   0.0000000), wk =   0.2500000
        k(    8) = (  -0.5000000   0.0000000   0.0000000), wk =   0.1250000
        k(    9) = (  -0.2500000   0.2500000   0.0000000), wk =   0.2500000
        k(   10) = (  -0.5000000   0.2500000   0.0000000), wk =   0.2500000

     Dense  grid:  1474595 G-vectors     FFT dimensions: ( 108, 108, 270)

     Smooth grid:   521381 G-vectors     FFT dimensions: (  75,  75, 192)

     Dynamical RAM for                 wfc:      10.73 MB

     Dynamical RAM for     wfc (w. buffer):      64.38 MB

     Dynamical RAM for           str. fact:       3.75 MB

     Dynamical RAM for           local pot:       0.00 MB

     Dynamical RAM for          nlocal pot:      24.61 MB

     Dynamical RAM for                qrad:       7.03 MB

     Dynamical RAM for          rho,v,vnew:       6.02 MB

     Dynamical RAM for               rhoin:       2.01 MB

     Dynamical RAM for            rho*nmix:      15.00 MB

     Dynamical RAM for           G-vectors:       3.68 MB

     Dynamical RAM for          h,s,v(r/c):       1.35 MB

     Dynamical RAM for          <psi|beta>:       2.35 MB

     Dynamical RAM for                 psi:      21.46 MB

     Dynamical RAM for                hpsi:      21.46 MB

     Dynamical RAM for                spsi:      21.46 MB

     Dynamical RAM for      wfcinit/wfcrot:      34.49 MB

     Dynamical RAM for           addusdens:     101.26 MB

     Estimated static dynamical RAM per process >     121.50 MB

     Estimated max dynamical RAM per process >     237.76 MB

     Estimated total dynamical RAM >      10.79 GB

     Check: negative core charge=   -0.000004

     Initial potential from superposition of free atoms

     starting charge     422.5961, renormalised to     431.0000

     negative rho (up, down):  7.819E-01 0.000E+00
     Starting wfcs are  377 randomized atomic wfcs
     Checking if some PAW data can be deallocated... 
       PAW data deallocated on   19 nodes for type:  2

     total cpu time spent up to now is        9.8 secs

     Self-consistent Calculation

     iteration #  1     ecut=    60.00 Ry     beta= 0.15
     Davidson diagonalization with overlap

---- Real-time Memory Report at c_bands before calling an iterative solver
             0 MiB given to the printing process from OS
             0 MiB allocation reported by mallinfo(arena+hblkhd)
         23994 MiB available memory on the node where the printing process lives
------------------
     ethr =  1.00E-02,  avg # of iterations =  2.0

     negative rho (up, down):  7.718E-01 0.000E+00

     total cpu time spent up to now is       26.8 secs

     total energy              =   -4446.66642260 Ry
     estimated scf accuracy    <      44.52756579 Ry

     iteration #  2     ecut=    60.00 Ry     beta= 0.15
     Davidson diagonalization with overlap

---- Real-time Memory Report at c_bands before calling an iterative solver
             0 MiB given to the printing process from OS
             0 MiB allocation reported by mallinfo(arena+hblkhd)
         24267 MiB available memory on the node where the printing process lives
------------------
     ethr =  1.00E-02,  avg # of iterations =  1.0

     negative rho (up, down):  7.586E-01 0.000E+00

     total cpu time spent up to now is       41.8 secs

     total energy              =   -4443.37585442 Ry
     estimated scf accuracy    <      29.92706802 Ry

     iteration #  3     ecut=    60.00 Ry     beta= 0.15
     Davidson diagonalization with overlap

---- Real-time Memory Report at c_bands before calling an iterative solver
             0 MiB given to the printing process from OS
             0 MiB allocation reported by mallinfo(arena+hblkhd)
         23427 MiB available memory on the node where the printing process lives
------------------
     ethr =  6.94E-03,  avg # of iterations =  1.0

     negative rho (up, down):  7.557E-01 0.000E+00

     total cpu time spent up to now is       56.7 secs

     total energy              =   -4444.27221466 Ry
     estimated scf accuracy    <      27.51048598 Ry

     iteration #  4     ecut=    60.00 Ry     beta= 0.15
     Davidson diagonalization with overlap

---- Real-time Memory Report at c_bands before calling an iterative solver
             0 MiB given to the printing process from OS
             0 MiB allocation reported by mallinfo(arena+hblkhd)
         23398 MiB available memory on the node where the printing process lives
------------------
     ethr =  6.38E-03,  avg # of iterations =  1.0

     negative rho (up, down):  7.503E-01 0.000E+00

     total cpu time spent up to now is       71.7 secs

     total energy              =   -4443.12797725 Ry
     estimated scf accuracy    <      20.08506009 Ry

     iteration #  5     ecut=    60.00 Ry     beta= 0.15
     Davidson diagonalization with overlap

---- Real-time Memory Report at c_bands before calling an iterative solver
             0 MiB given to the printing process from OS
             0 MiB allocation reported by mallinfo(arena+hblkhd)
         23385 MiB available memory on the node where the printing process lives
------------------
     ethr =  4.66E-03,  avg # of iterations =  1.0

     negative rho (up, down):  7.396E-01 0.000E+00

     total cpu time spent up to now is       86.6 secs

     total energy              =   -4442.45587854 Ry
     estimated scf accuracy    <      11.86609975 Ry

     iteration #  6     ecut=    60.00 Ry     beta= 0.15
     Davidson diagonalization with overlap

---- Real-time Memory Report at c_bands before calling an iterative solver
             0 MiB given to the printing process from OS
             0 MiB allocation reported by mallinfo(arena+hblkhd)
         23364 MiB available memory on the node where the printing process lives
------------------
     ethr =  2.75E-03,  avg # of iterations =  1.0

     negative rho (up, down):  7.427E-01 0.000E+00

     total cpu time spent up to now is      101.5 secs

     total energy              =   -4442.82401209 Ry
     estimated scf accuracy    <       5.05526512 Ry

     iteration #  7     ecut=    60.00 Ry     beta= 0.15
     Davidson diagonalization with overlap

---- Real-time Memory Report at c_bands before calling an iterative solver
             0 MiB given to the printing process from OS
             0 MiB allocation reported by mallinfo(arena+hblkhd)
         23340 MiB available memory on the node where the printing process lives
------------------
     ethr =  1.17E-03,  avg # of iterations =  1.7

     negative rho (up, down):  7.640E-01 0.000E+00

     total cpu time spent up to now is      117.1 secs

     total energy              =   -4441.60285652 Ry
     estimated scf accuracy    <       3.97729577 Ry

     iteration #  8     ecut=    60.00 Ry     beta= 0.15
     Davidson diagonalization with overlap

---- Real-time Memory Report at c_bands before calling an iterative solver
             0 MiB given to the printing process from OS
             0 MiB allocation reported by mallinfo(arena+hblkhd)
         23320 MiB available memory on the node where the printing process lives
------------------
     ethr =  9.23E-04,  avg # of iterations =  5.1

     negative rho (up, down):  7.725E-01 0.000E+00

     total cpu time spent up to now is      137.4 secs

     total energy              =   -4441.28996975 Ry
     estimated scf accuracy    <      19.12131806 Ry

     iteration #  9     ecut=    60.00 Ry     beta= 0.15
     Davidson diagonalization with overlap

---- Real-time Memory Report at c_bands before calling an iterative solver
             0 MiB given to the printing process from OS
             0 MiB allocation reported by mallinfo(arena+hblkhd)
         23122 MiB available memory on the node where the printing process lives
------------------
     ethr =  9.23E-04,  avg # of iterations = 10.2

     negative rho (up, down):  7.701E-01 0.000E+00

     total cpu time spent up to now is      160.3 secs

     total energy              =   -4441.74606734 Ry
     estimated scf accuracy    <       3.26626598 Ry

     iteration # 10     ecut=    60.00 Ry     beta= 0.15
     Davidson diagonalization with overlap

---- Real-time Memory Report at c_bands before calling an iterative solver
             0 MiB given to the printing process from OS
             0 MiB allocation reported by mallinfo(arena+hblkhd)
         22802 MiB available memory on the node where the printing process lives
------------------
     ethr =  7.58E-04,  avg # of iterations =  1.2

     negative rho (up, down):  7.767E-01 0.000E+00

     total cpu time spent up to now is      176.1 secs

     total energy              =   -4441.90218498 Ry
     estimated scf accuracy    <       1.37434292 Ry

     iteration # 11     ecut=    60.00 Ry     beta= 0.15
     Davidson diagonalization with overlap

---- Real-time Memory Report at c_bands before calling an iterative solver
             0 MiB given to the printing process from OS
             0 MiB allocation reported by mallinfo(arena+hblkhd)
         22792 MiB available memory on the node where the printing process lives
------------------
     ethr =  3.19E-04,  avg # of iterations =  3.5

     negative rho (up, down):  8.030E-01 0.000E+00

     total cpu time spent up to now is      195.1 secs

     total energy              =   -4441.75845500 Ry
     estimated scf accuracy    <       1.36209455 Ry

     iteration # 12     ecut=    60.00 Ry     beta= 0.15
     Davidson diagonalization with overlap

---- Real-time Memory Report at c_bands before calling an iterative solver
             0 MiB given to the printing process from OS
             0 MiB allocation reported by mallinfo(arena+hblkhd)
         22756 MiB available memory on the node where the printing process lives
------------------
     ethr =  3.16E-04,  avg # of iterations =  5.5

     negative rho (up, down):  8.120E-01 0.000E+00

     total cpu time spent up to now is      214.5 secs

     total energy              =   -4441.86862630 Ry
     estimated scf accuracy    <       1.06448478 Ry

     iteration # 13     ecut=    60.00 Ry     beta= 0.15
     Davidson diagonalization with overlap

---- Real-time Memory Report at c_bands before calling an iterative solver
             0 MiB given to the printing process from OS
             0 MiB allocation reported by mallinfo(arena+hblkhd)
         22739 MiB available memory on the node where the printing process lives
------------------
     ethr =  2.47E-04,  avg # of iterations =  5.6

     negative rho (up, down):  8.196E-01 0.000E+00

     total cpu time spent up to now is      233.4 secs

     total energy              =   -4441.81225290 Ry
     estimated scf accuracy    <       0.71769959 Ry

     iteration # 14     ecut=    60.00 Ry     beta= 0.15
     Davidson diagonalization with overlap

---- Real-time Memory Report at c_bands before calling an iterative solver
             0 MiB given to the printing process from OS
             0 MiB allocation reported by mallinfo(arena+hblkhd)
         22717 MiB available memory on the node where the printing process lives
------------------
     ethr =  1.67E-04,  avg # of iterations =  5.1

     negative rho (up, down):  8.246E-01 0.000E+00

     total cpu time spent up to now is      252.2 secs

     total energy              =   -4441.74078515 Ry
     estimated scf accuracy    <       0.38300143 Ry

     iteration # 15     ecut=    60.00 Ry     beta= 0.15
     Davidson diagonalization with overlap

---- Real-time Memory Report at c_bands before calling an iterative solver
             0 MiB given to the printing process from OS
             0 MiB allocation reported by mallinfo(arena+hblkhd)
         22710 MiB available memory on the node where the printing process lives
------------------
     ethr =  8.89E-05,  avg # of iterations = 11.0

     negative rho (up, down):  8.301E-01 0.000E+00

     total cpu time spent up to now is      274.0 secs

     total energy              =   -4441.73853164 Ry
     estimated scf accuracy    <       0.40022941 Ry

     iteration # 16     ecut=    60.00 Ry     beta= 0.15
     Davidson diagonalization with overlap

---- Real-time Memory Report at c_bands before calling an iterative solver
             0 MiB given to the printing process from OS
             0 MiB allocation reported by mallinfo(arena+hblkhd)
         22718 MiB available memory on the node where the printing process lives
------------------
     ethr =  8.89E-05,  avg # of iterations =  2.0

     negative rho (up, down):  8.306E-01 0.000E+00

     total cpu time spent up to now is      291.4 secs

     total energy              =   -4441.72259567 Ry
     estimated scf accuracy    <       0.30588555 Ry

     iteration # 17     ecut=    60.00 Ry     beta= 0.15
     Davidson diagonalization with overlap

---- Real-time Memory Report at c_bands before calling an iterative solver
             0 MiB given to the printing process from OS
             0 MiB allocation reported by mallinfo(arena+hblkhd)
         22718 MiB available memory on the node where the printing process lives
------------------
     ethr =  7.10E-05,  avg # of iterations =  4.3

     negative rho (up, down):  8.114E-01 0.000E+00

     total cpu time spent up to now is      310.2 secs

     total energy              =   -4441.69636180 Ry
     estimated scf accuracy    <       0.18021090 Ry

     iteration # 18     ecut=    60.00 Ry     beta= 0.15
     Davidson diagonalization with overlap

---- Real-time Memory Report at c_bands before calling an iterative solver
             0 MiB given to the printing process from OS
             0 MiB allocation reported by mallinfo(arena+hblkhd)
         22707 MiB available memory on the node where the printing process lives
------------------
     ethr =  4.18E-05,  avg # of iterations = 10.1

     negative rho (up, down):  8.284E-01 0.000E+00

     total cpu time spent up to now is      332.5 secs

     total energy              =   -4441.67604692 Ry
     estimated scf accuracy    <       0.16285009 Ry

     iteration # 19     ecut=    60.00 Ry     beta= 0.15
     Davidson diagonalization with overlap

---- Real-time Memory Report at c_bands before calling an iterative solver
             0 MiB given to the printing process from OS
             0 MiB allocation reported by mallinfo(arena+hblkhd)
         22669 MiB available memory on the node where the printing process lives
------------------
     ethr =  3.78E-05,  avg # of iterations =  9.5

     negative rho (up, down):  8.362E-01 0.000E+00

     total cpu time spent up to now is      354.3 secs

     total energy              =   -4441.67457383 Ry
     estimated scf accuracy    <       0.06249589 Ry

     iteration # 20     ecut=    60.00 Ry     beta= 0.15
     Davidson diagonalization with overlap

---- Real-time Memory Report at c_bands before calling an iterative solver
             0 MiB given to the printing process from OS
             0 MiB allocation reported by mallinfo(arena+hblkhd)
         22703 MiB available memory on the node where the printing process lives
------------------
     ethr =  1.45E-05,  avg # of iterations =  9.7

     negative rho (up, down):  8.184E-01 0.000E+00

     total cpu time spent up to now is      375.9 secs

     total energy              =   -4441.67485259 Ry
     estimated scf accuracy    <       0.03082040 Ry

     iteration # 21     ecut=    60.00 Ry     beta= 0.15
     Davidson diagonalization with overlap

---- Real-time Memory Report at c_bands before calling an iterative solver
             0 MiB given to the printing process from OS
             0 MiB allocation reported by mallinfo(arena+hblkhd)
         22669 MiB available memory on the node where the printing process lives
------------------
     ethr =  7.15E-06,  avg # of iterations =  4.3

     negative rho (up, down):  8.128E-01 0.000E+00

     total cpu time spent up to now is      394.0 secs

     total energy              =   -4441.67259764 Ry
     estimated scf accuracy    <       0.02635723 Ry

     iteration # 22     ecut=    60.00 Ry     beta= 0.15
     Davidson diagonalization with overlap

---- Real-time Memory Report at c_bands before calling an iterative solver
             0 MiB given to the printing process from OS
             0 MiB allocation reported by mallinfo(arena+hblkhd)
         22669 MiB available memory on the node where the printing process lives
------------------
     ethr =  6.12E-06,  avg # of iterations =  3.7

     negative rho (up, down):  7.949E-01 0.000E+00

     total cpu time spent up to now is      412.1 secs

     total energy              =   -4441.66883909 Ry
     estimated scf accuracy    <       0.01928195 Ry

     iteration # 23     ecut=    60.00 Ry     beta= 0.15
     Davidson diagonalization with overlap

---- Real-time Memory Report at c_bands before calling an iterative solver
             0 MiB given to the printing process from OS
             0 MiB allocation reported by mallinfo(arena+hblkhd)
         22689 MiB available memory on the node where the printing process lives
------------------
     c_bands:  1 eigenvalues not converged
     ethr =  4.47E-06,  avg # of iterations = 13.1

     negative rho (up, down):  7.953E-01 0.000E+00

     total cpu time spent up to now is      435.5 secs

     total energy              =   -4441.66836584 Ry
     estimated scf accuracy    <       0.01148653 Ry

     iteration # 24     ecut=    60.00 Ry     beta= 0.15
     Davidson diagonalization with overlap

---- Real-time Memory Report at c_bands before calling an iterative solver
             0 MiB given to the printing process from OS
             0 MiB allocation reported by mallinfo(arena+hblkhd)
         22686 MiB available memory on the node where the printing process lives
------------------
     ethr =  2.67E-06,  avg # of iterations =  6.0

     negative rho (up, down):  7.936E-01 0.000E+00

     total cpu time spent up to now is      455.0 secs

     total energy              =   -4441.66793083 Ry
     estimated scf accuracy    <       0.00751007 Ry

     iteration # 25     ecut=    60.00 Ry     beta= 0.15
     Davidson diagonalization with overlap

---- Real-time Memory Report at c_bands before calling an iterative solver
             0 MiB given to the printing process from OS
             0 MiB allocation reported by mallinfo(arena+hblkhd)
         22686 MiB available memory on the node where the printing process lives
------------------
     ethr =  1.74E-06,  avg # of iterations =  5.7

     negative rho (up, down):  7.931E-01 0.000E+00

     total cpu time spent up to now is      473.5 secs

     total energy              =   -4441.66704774 Ry
     estimated scf accuracy    <       0.00484433 Ry

     iteration # 26     ecut=    60.00 Ry     beta= 0.15
     Davidson diagonalization with overlap

---- Real-time Memory Report at c_bands before calling an iterative solver
             0 MiB given to the printing process from OS
             0 MiB allocation reported by mallinfo(arena+hblkhd)
         22697 MiB available memory on the node where the printing process lives
------------------
     ethr =  1.12E-06,  avg # of iterations = 10.7

     negative rho (up, down):  7.936E-01 0.000E+00

     total cpu time spent up to now is      496.3 secs

     total energy              =   -4441.66734196 Ry
     estimated scf accuracy    <       0.00214148 Ry

     iteration # 27     ecut=    60.00 Ry     beta= 0.15
     Davidson diagonalization with overlap

---- Real-time Memory Report at c_bands before calling an iterative solver
             0 MiB given to the printing process from OS
             0 MiB allocation reported by mallinfo(arena+hblkhd)
         22685 MiB available memory on the node where the printing process lives
------------------
     ethr =  4.97E-07,  avg # of iterations =  8.5

     negative rho (up, down):  7.931E-01 0.000E+00

     total cpu time spent up to now is      516.5 secs

     total energy              =   -4441.66741025 Ry
     estimated scf accuracy    <       0.00126385 Ry

     iteration # 28     ecut=    60.00 Ry     beta= 0.15
     Davidson diagonalization with overlap

---- Real-time Memory Report at c_bands before calling an iterative solver
             0 MiB given to the printing process from OS
             0 MiB allocation reported by mallinfo(arena+hblkhd)
         22658 MiB available memory on the node where the printing process lives
------------------
     ethr =  2.93E-07,  avg # of iterations =  2.0

     negative rho (up, down):  7.921E-01 0.000E+00

     total cpu time spent up to now is      533.5 secs

     total energy              =   -4441.66743102 Ry
     estimated scf accuracy    <       0.00093885 Ry

     iteration # 29     ecut=    60.00 Ry     beta= 0.15
     Davidson diagonalization with overlap

---- Real-time Memory Report at c_bands before calling an iterative solver
             0 MiB given to the printing process from OS
             0 MiB allocation reported by mallinfo(arena+hblkhd)
         22757 MiB available memory on the node where the printing process lives
------------------
     c_bands:  1 eigenvalues not converged
     c_bands:  1 eigenvalues not converged
     ethr =  2.18E-07,  avg # of iterations = 10.6

     negative rho (up, down):  7.913E-01 0.000E+00

     total cpu time spent up to now is      554.6 secs

     total energy              =   -4441.66742355 Ry
     estimated scf accuracy    <       0.00058589 Ry

     iteration # 30     ecut=    60.00 Ry     beta= 0.15
     Davidson diagonalization with overlap

---- Real-time Memory Report at c_bands before calling an iterative solver
             0 MiB given to the printing process from OS
             0 MiB allocation reported by mallinfo(arena+hblkhd)
         22730 MiB available memory on the node where the printing process lives
------------------
     ethr =  1.36E-07,  avg # of iterations =  3.5

     negative rho (up, down):  7.913E-01 0.000E+00

     total cpu time spent up to now is      572.4 secs

     total energy              =   -4441.66741091 Ry
     estimated scf accuracy    <       0.00024871 Ry

     iteration # 31     ecut=    60.00 Ry     beta= 0.15
     Davidson diagonalization with overlap

---- Real-time Memory Report at c_bands before calling an iterative solver
             0 MiB given to the printing process from OS
             0 MiB allocation reported by mallinfo(arena+hblkhd)
         22742 MiB available memory on the node where the printing process lives
------------------
     ethr =  5.77E-08,  avg # of iterations =  7.4

     negative rho (up, down):  7.909E-01 0.000E+00

     total cpu time spent up to now is      591.9 secs

     total energy              =   -4441.66738716 Ry
     estimated scf accuracy    <       0.00013432 Ry

     iteration # 32     ecut=    60.00 Ry     beta= 0.15
     Davidson diagonalization with overlap

---- Real-time Memory Report at c_bands before calling an iterative solver
             0 MiB given to the printing process from OS
             0 MiB allocation reported by mallinfo(arena+hblkhd)
         22754 MiB available memory on the node where the printing process lives
------------------
     ethr =  3.12E-08,  avg # of iterations =  4.4

     negative rho (up, down):  7.913E-01 0.000E+00

     total cpu time spent up to now is      609.9 secs

     total energy              =   -4441.66733052 Ry
     estimated scf accuracy    <       0.00009872 Ry

     iteration # 33     ecut=    60.00 Ry     beta= 0.15
     Davidson diagonalization with overlap

---- Real-time Memory Report at c_bands before calling an iterative solver
             0 MiB given to the printing process from OS
             0 MiB allocation reported by mallinfo(arena+hblkhd)
         22771 MiB available memory on the node where the printing process lives
------------------
     ethr =  2.29E-08,  avg # of iterations =  7.1

     negative rho (up, down):  7.917E-01 0.000E+00

     total cpu time spent up to now is      629.8 secs

     total energy              =   -4441.66732561 Ry
     estimated scf accuracy    <       0.00005221 Ry

     iteration # 34     ecut=    60.00 Ry     beta= 0.15
     Davidson diagonalization with overlap

---- Real-time Memory Report at c_bands before calling an iterative solver
             0 MiB given to the printing process from OS
             0 MiB allocation reported by mallinfo(arena+hblkhd)
         22754 MiB available memory on the node where the printing process lives
------------------
     ethr =  1.21E-08,  avg # of iterations =  2.1

     negative rho (up, down):  7.922E-01 0.000E+00

     total cpu time spent up to now is      646.9 secs

     total energy              =   -4441.66735293 Ry
     estimated scf accuracy    <       0.00003520 Ry

     iteration # 35     ecut=    60.00 Ry     beta= 0.15
     Davidson diagonalization with overlap

---- Real-time Memory Report at c_bands before calling an iterative solver
             0 MiB given to the printing process from OS
             0 MiB allocation reported by mallinfo(arena+hblkhd)
         22773 MiB available memory on the node where the printing process lives
------------------
     ethr =  8.17E-09,  avg # of iterations =  2.8

     negative rho (up, down):  7.926E-01 0.000E+00

     total cpu time spent up to now is      664.3 secs

     total energy              =   -4441.66737057 Ry
     estimated scf accuracy    <       0.00002065 Ry

     iteration # 36     ecut=    60.00 Ry     beta= 0.15
     Davidson diagonalization with overlap

---- Real-time Memory Report at c_bands before calling an iterative solver
             0 MiB given to the printing process from OS
             0 MiB allocation reported by mallinfo(arena+hblkhd)
         22762 MiB available memory on the node where the printing process lives
------------------
     ethr =  4.79E-09,  avg # of iterations =  3.6

     negative rho (up, down):  7.927E-01 0.000E+00

     total cpu time spent up to now is      682.2 secs

     total energy              =   -4441.66737810 Ry
     estimated scf accuracy    <       0.00001455 Ry

     iteration # 37     ecut=    60.00 Ry     beta= 0.15
     Davidson diagonalization with overlap

---- Real-time Memory Report at c_bands before calling an iterative solver
             0 MiB given to the printing process from OS
             0 MiB allocation reported by mallinfo(arena+hblkhd)
         22760 MiB available memory on the node where the printing process lives
------------------
     ethr =  3.38E-09,  avg # of iterations =  3.5

     negative rho (up, down):  7.928E-01 0.000E+00

     total cpu time spent up to now is      699.9 secs

     total energy              =   -4441.66738059 Ry
     estimated scf accuracy    <       0.00001024 Ry

     iteration # 38     ecut=    60.00 Ry     beta= 0.15
     Davidson diagonalization with overlap

---- Real-time Memory Report at c_bands before calling an iterative solver
             0 MiB given to the printing process from OS
             0 MiB allocation reported by mallinfo(arena+hblkhd)
         22766 MiB available memory on the node where the printing process lives
------------------
     c_bands:  1 eigenvalues not converged
     ethr =  2.38E-09,  avg # of iterations =  5.9

     negative rho (up, down):  7.929E-01 0.000E+00

     total cpu time spent up to now is      719.4 secs

     total energy              =   -4441.66738063 Ry
     estimated scf accuracy    <       0.00000387 Ry

     iteration # 39     ecut=    60.00 Ry     beta= 0.15
     Davidson diagonalization with overlap

---- Real-time Memory Report at c_bands before calling an iterative solver
             0 MiB given to the printing process from OS
             0 MiB allocation reported by mallinfo(arena+hblkhd)
         22750 MiB available memory on the node where the printing process lives
------------------
     ethr =  8.97E-10,  avg # of iterations =  2.9

     negative rho (up, down):  7.928E-01 0.000E+00

     total cpu time spent up to now is      736.9 secs

     total energy              =   -4441.66738060 Ry
     estimated scf accuracy    <       0.00000152 Ry

     iteration # 40     ecut=    60.00 Ry     beta= 0.15
     Davidson diagonalization with overlap

---- Real-time Memory Report at c_bands before calling an iterative solver
             0 MiB given to the printing process from OS
             0 MiB allocation reported by mallinfo(arena+hblkhd)
         22787 MiB available memory on the node where the printing process lives
------------------
     ethr =  3.52E-10,  avg # of iterations =  2.1

     negative rho (up, down):  7.926E-01 0.000E+00

     total cpu time spent up to now is      753.9 secs

     total energy              =   -4441.66738120 Ry
     estimated scf accuracy    <       0.00000079 Ry

     iteration # 41     ecut=    60.00 Ry     beta= 0.15
     Davidson diagonalization with overlap

---- Real-time Memory Report at c_bands before calling an iterative solver
             0 MiB given to the printing process from OS
             0 MiB allocation reported by mallinfo(arena+hblkhd)
         22775 MiB available memory on the node where the printing process lives
------------------
     ethr =  1.82E-10,  avg # of iterations =  3.2

     negative rho (up, down):  7.925E-01 0.000E+00

     total cpu time spent up to now is      772.5 secs

     total energy              =   -4441.66738136 Ry
     estimated scf accuracy    <       0.00000024 Ry

     iteration # 42     ecut=    60.00 Ry     beta= 0.15
     Davidson diagonalization with overlap

---- Real-time Memory Report at c_bands before calling an iterative solver
             0 MiB given to the printing process from OS
             0 MiB allocation reported by mallinfo(arena+hblkhd)
         22762 MiB available memory on the node where the printing process lives
------------------
     ethr =  5.49E-11,  avg # of iterations =  2.2

     negative rho (up, down):  7.925E-01 0.000E+00

     total cpu time spent up to now is      789.7 secs

     total energy              =   -4441.66738145 Ry
     estimated scf accuracy    <       0.00000009 Ry

     iteration # 43     ecut=    60.00 Ry     beta= 0.15
     Davidson diagonalization with overlap

---- Real-time Memory Report at c_bands before calling an iterative solver
             0 MiB given to the printing process from OS
             0 MiB allocation reported by mallinfo(arena+hblkhd)
         22774 MiB available memory on the node where the printing process lives
------------------
     ethr =  2.06E-11,  avg # of iterations =  3.7

     negative rho (up, down):  7.925E-01 0.000E+00

     total cpu time spent up to now is      808.3 secs

     total energy              =   -4441.66738150 Ry
     estimated scf accuracy    <       0.00000005 Ry

     iteration # 44     ecut=    60.00 Ry     beta= 0.15
     Davidson diagonalization with overlap

---- Real-time Memory Report at c_bands before calling an iterative solver
             0 MiB given to the printing process from OS
             0 MiB allocation reported by mallinfo(arena+hblkhd)
         22757 MiB available memory on the node where the printing process lives
------------------
     ethr =  1.18E-11,  avg # of iterations =  3.2

     negative rho (up, down):  7.925E-01 0.000E+00

     total cpu time spent up to now is      825.8 secs

     total energy              =   -4441.66738151 Ry
     estimated scf accuracy    <       0.00000002 Ry

     iteration # 45     ecut=    60.00 Ry     beta= 0.15
     Davidson diagonalization with overlap

---- Real-time Memory Report at c_bands before calling an iterative solver
             0 MiB given to the printing process from OS
             0 MiB allocation reported by mallinfo(arena+hblkhd)
         22763 MiB available memory on the node where the printing process lives
------------------
     ethr =  4.98E-12,  avg # of iterations =  2.1

     negative rho (up, down):  7.925E-01 0.000E+00

     total cpu time spent up to now is      842.8 secs

     total energy              =   -4441.66738151 Ry
     estimated scf accuracy    <       0.00000001 Ry

     iteration # 46     ecut=    60.00 Ry     beta= 0.15
     Davidson diagonalization with overlap

---- Real-time Memory Report at c_bands before calling an iterative solver
             0 MiB given to the printing process from OS
             0 MiB allocation reported by mallinfo(arena+hblkhd)
         22771 MiB available memory on the node where the printing process lives
------------------
     ethr =  3.03E-12,  avg # of iterations =  3.2

     negative rho (up, down):  7.925E-01 0.000E+00

     total cpu time spent up to now is      860.1 secs

     End of self-consistent calculation

          k = 0.0000 0.0000 0.0000 ( 65197 PWs)   bands (ev):

   -92.6954 -92.6435 -92.5489 -92.5033 -92.4453 -92.4015 -92.3841 -92.2638
   -56.0489 -56.0302 -55.9062 -55.8959 -55.8892 -55.8828 -55.8478 -55.8181
   -55.8027 -55.8010 -55.7939 -55.7527 -55.7342 -55.6958 -55.6752 -55.6452
   -55.6387 -55.5897 -55.5885 -55.5868 -55.5783 -55.5391 -55.5145 -55.4303
   -31.2724 -31.2531 -31.1115 -31.0249 -30.9740 -30.8905 -30.8185 -30.7385
   -29.8412 -29.7976 -29.7720 -29.6654 -15.0755 -15.0312 -14.9496 -14.8207
   -14.6255 -14.5039 -14.2130 -14.1853 -14.1621 -14.1144 -14.0712 -14.0639
   -14.0497 -14.0291 -14.0037 -13.9802 -13.9558 -13.9214 -13.7702 -13.5944
   -13.5583 -13.5300 -13.4962 -13.4821 -13.4252 -13.3916 -13.3171 -13.2447
   -13.1061 -13.0919 -13.0858 -13.0687 -13.0512 -13.0097 -12.9958 -12.9800
   -12.9538 -12.9389 -12.9176 -12.8948 -12.8417 -12.8086 -12.7791 -12.7506
   -12.7059 -12.6898 -12.6717 -12.6513 -12.5832 -12.3371 -12.1914 -12.0003
   -11.9356 -11.8545 -11.7805 -11.7693 -11.7467 -11.7288 -11.6656 -11.6484
   -11.6131 -11.5833 -11.4739 -11.3936 -11.3900  -2.9351  -2.7030  -2.4735
    -2.3263  -2.2635  -2.1217  -1.8145  -1.8003  -1.7808  -1.6968  -1.6765
    -1.6088  -1.5922  -1.5515  -1.5075  -1.3269  -1.2276  -1.1001  -1.0701
    -0.9247  -0.9101  -0.8629  -0.8436  -0.7984  -0.7813  -0.7271  -0.7007
    -0.6255  -0.6130  -0.5403  -0.4086  -0.3957  -0.3658  -0.2850  -0.2670
    -0.2625  -0.1939  -0.1206  -0.0648  -0.0206   0.0090   0.0761   0.1426
     0.1874   0.2135   0.2205   0.4834   0.4939   0.6717   0.7329   0.8036
     0.8466   0.9375   0.9490   0.9656   1.0301   1.0577   1.0913   1.1493
     1.2804   1.3422   1.3605   1.3797   1.3945   1.4610   1.5276   1.6393
     1.6500   1.7173   1.7269   1.7702   1.7848   1.7929   1.8510   1.9083
     1.9412   1.9614   2.0007   2.0349   2.1672   2.2527   2.2924   2.3154
     2.4409   2.4610   2.4680   2.4891   2.5194   2.5288   2.6355   2.6655
     2.6907   2.7102   2.7251   2.8054   2.9144   2.9448   2.9571   2.9637
     3.0317   3.0356   3.0600   3.0670   3.0763   3.0909   3.0959   3.1097
     3.1146   3.1275   3.1352   3.1432   3.1630   3.1842   3.1889   3.2013
     3.2321   3.3421   3.4189   4.1131   4.4432   4.7764   4.8679   5.0510
     5.7805   5.9434   5.9941   6.0147   6.3205   6.3670   6.4836   6.4919
     6.7371   7.0099   7.0929   7.3242   7.3956   7.6458   7.6624   7.6884
     7.7270   7.9126   7.9916   8.0423   8.1153   8.1828   8.4559   8.5241
     8.7074   8.7970   8.8571

     occupation numbers 
     1.0000   1.0000   1.0000   1.0000   1.0000   1.0000   1.0000   1.0000
     1.0000   1.0000   1.0000   1.0000   1.0000   1.0000   1.0000   1.0000
     1.0000   1.0000   1.0000   1.0000   1.0000   1.0000   1.0000   1.0000
     1.0000   1.0000   1.0000   1.0000   1.0000   1.0000   1.0000   1.0000
     1.0000   1.0000   1.0000   1.0000   1.0000   1.0000   1.0000   1.0000
     1.0000   1.0000   1.0000   1.0000   1.0000   1.0000   1.0000   1.0000
     1.0000   1.0000   1.0000   1.0000   1.0000   1.0000   1.0000   1.0000
     1.0000   1.0000   1.0000   1.0000   1.0000   1.0000   1.0000   1.0000
     1.0000   1.0000   1.0000   1.0000   1.0000   1.0000   1.0000   1.0000
     1.0000   1.0000   1.0000   1.0000   1.0000   1.0000   1.0000   1.0000
     1.0000   1.0000   1.0000   1.0000   1.0000   1.0000   1.0000   1.0000
     1.0000   1.0000   1.0000   1.0000   1.0000   1.0000   1.0000   1.0000
     1.0000   1.0000   1.0000   1.0000   1.0000   1.0000   1.0000   1.0000
     1.0000   1.0000   1.0000   1.0000   1.0000   1.0000   1.0000   1.0000
     1.0000   1.0000   1.0000   1.0000   1.0000   1.0000   1.0000   1.0000
     1.0000   1.0000   1.0000   1.0000   1.0000   1.0000   1.0000   1.0000
     1.0000   1.0000   1.0000   1.0000   1.0000   1.0000   1.0000   1.0000
     1.0000   1.0000   1.0000   1.0000   1.0000   1.0000   1.0000   1.0000
     1.0000   1.0000   1.0000   1.0000   1.0000   1.0000   1.0000   1.0000
     1.0000   1.0000   1.0000   1.0000   1.0000   1.0000   0.9999   0.9999
     0.9999   0.9998   0.9998   0.9998   0.9997   0.9996   0.9996   0.9994
     0.9988   0.9984   0.9983   0.9981   0.9980   0.9973   0.9963   0.9940
     0.9938   0.9918   0.9914   0.9898   0.9892   0.9889   0.9861   0.9828
     0.9806   0.9791   0.9760   0.9730   0.9582   0.9456   0.9388   0.9345
     0.9073   0.9022   0.9004   0.8948   0.8864   0.8837   0.8497   0.8391
     0.8297   0.8223   0.8165   0.7832   0.7327   0.7176   0.7115   0.7081
     0.6725   0.6704   0.6572   0.6534   0.6483   0.6402   0.6374   0.6297
     0.6269   0.6196   0.6153   0.6108   0.5994   0.5872   0.5845   0.5773
     0.5593   0.4943   0.4490   0.1233   0.0496   0.0160   0.0113   0.0054
     0.0001   0.0001   0.0000   0.0000   0.0000   0.0000   0.0000   0.0000
     0.0000   0.0000   0.0000   0.0000   0.0000   0.0000   0.0000   0.0000
     0.0000   0.0000   0.0000   0.0000   0.0000   0.0000   0.0000   0.0000
     0.0000   0.0000   0.0000

          k = 0.0000 0.2500 0.0000 ( 65257 PWs)   bands (ev):

   -92.6954 -92.6435 -92.5489 -92.5033 -92.4453 -92.4015 -92.3841 -92.2638
   -56.0489 -56.0302 -55.9062 -55.8959 -55.8892 -55.8828 -55.8478 -55.8181
   -55.8027 -55.8010 -55.7939 -55.7527 -55.7342 -55.6958 -55.6752 -55.6452
   -55.6387 -55.5897 -55.5885 -55.5868 -55.5783 -55.5391 -55.5145 -55.4303
   -31.2722 -31.2530 -31.1117 -31.0251 -30.9739 -30.8901 -30.8190 -30.7386
   -29.8405 -29.7973 -29.7727 -29.6658 -15.0389 -15.0055 -14.9245 -14.7909
   -14.6669 -14.4929 -14.3576 -14.1784 -14.1394 -14.1184 -14.0905 -14.0334
   -14.0287 -14.0153 -13.9933 -13.9748 -13.9293 -13.8415 -13.8003 -13.6418
   -13.6171 -13.5700 -13.5361 -13.4882 -13.4455 -13.3950 -13.3362 -13.3019
   -13.1940 -13.1458 -13.1392 -13.1029 -13.0827 -12.9855 -12.9751 -12.9499
   -12.9289 -12.8960 -12.8622 -12.8589 -12.7934 -12.7782 -12.7660 -12.7478
   -12.6823 -12.6611 -12.6024 -12.5567 -12.4729 -12.3985 -12.2427 -12.0567
   -12.0040 -11.8201 -11.7773 -11.7492 -11.7211 -11.7045 -11.6573 -11.6459
   -11.6230 -11.5882 -11.4884 -11.4354 -11.4247  -2.7998  -2.5787  -2.4410
    -2.2590  -2.2155  -2.0519  -1.8328  -1.7482  -1.7353  -1.6779  -1.5750
    -1.5587  -1.5256  -1.4981  -1.4545  -1.2616  -1.2244  -1.1260  -1.1155
    -1.0396  -1.0290  -0.9237  -0.8953  -0.8361  -0.8104  -0.7717  -0.7077
    -0.6799  -0.6484  -0.6128  -0.5977  -0.5652  -0.4925  -0.4419  -0.3768
    -0.2640  -0.2464  -0.2015  -0.0814  -0.0421   0.0208   0.0669   0.1326
     0.1408   0.1694   0.2316   0.5292   0.6157   0.6480   0.7383   0.7840
     0.8066   0.9190   0.9363   1.0375   1.0602   1.0841   1.1979   1.2917
     1.3173   1.3389   1.3562   1.3828   1.4418   1.4705   1.4982   1.5450
     1.5813   1.6139   1.7010   1.7276   1.7724   1.8183   1.8754   1.9359
     1.9502   1.9686   1.9886   2.0857   2.2028   2.2755   2.2963   2.3665
     2.4127   2.4358   2.4571   2.4685   2.4883   2.5269   2.5609   2.6513
     2.6855   2.7003   2.8712   2.8936   2.9270   2.9485   2.9649   2.9734
     2.9805   2.9895   3.0189   3.0209   3.0399   3.0437   3.0544   3.0737
     3.0844   3.0922   3.1139   3.1248   3.1296   3.1648   3.1819   3.2420
     3.6190   3.6431   3.8866   4.3037   4.4403   4.7163   5.0203   5.0749
     5.6478   5.8026   5.9494   5.9925   6.0899   6.1142   6.1896   6.5991
     6.8451   7.0911   7.1290   7.3332   7.4877   7.5017   7.6072   7.6487
     7.8670   7.9687   8.0193   8.1722   8.3055   8.3828   8.4206   8.5151
     8.5856   8.8406   8.9390

     occupation numbers 
     1.0000   1.0000   1.0000   1.0000   1.0000   1.0000   1.0000   1.0000
     1.0000   1.0000   1.0000   1.0000   1.0000   1.0000   1.0000   1.0000
     1.0000   1.0000   1.0000   1.0000   1.0000   1.0000   1.0000   1.0000
     1.0000   1.0000   1.0000   1.0000   1.0000   1.0000   1.0000   1.0000
     1.0000   1.0000   1.0000   1.0000   1.0000   1.0000   1.0000   1.0000
     1.0000   1.0000   1.0000   1.0000   1.0000   1.0000   1.0000   1.0000
     1.0000   1.0000   1.0000   1.0000   1.0000   1.0000   1.0000   1.0000
     1.0000   1.0000   1.0000   1.0000   1.0000   1.0000   1.0000   1.0000
     1.0000   1.0000   1.0000   1.0000   1.0000   1.0000   1.0000   1.0000
     1.0000   1.0000   1.0000   1.0000   1.0000   1.0000   1.0000   1.0000
     1.0000   1.0000   1.0000   1.0000   1.0000   1.0000   1.0000   1.0000
     1.0000   1.0000   1.0000   1.0000   1.0000   1.0000   1.0000   1.0000
     1.0000   1.0000   1.0000   1.0000   1.0000   1.0000   1.0000   1.0000
     1.0000   1.0000   1.0000   1.0000   1.0000   1.0000   1.0000   1.0000
     1.0000   1.0000   1.0000   1.0000   1.0000   1.0000   1.0000   1.0000
     1.0000   1.0000   1.0000   1.0000   1.0000   1.0000   1.0000   1.0000
     1.0000   1.0000   1.0000   1.0000   1.0000   1.0000   1.0000   1.0000
     1.0000   1.0000   1.0000   1.0000   1.0000   1.0000   1.0000   1.0000
     1.0000   1.0000   1.0000   1.0000   1.0000   1.0000   1.0000   1.0000
     1.0000   1.0000   1.0000   1.0000   1.0000   1.0000   0.9999   0.9999
     0.9999   0.9998   0.9998   0.9997   0.9996   0.9996   0.9992   0.9988
     0.9986   0.9985   0.9983   0.9981   0.9975   0.9972   0.9968   0.9960
     0.9953   0.9946   0.9923   0.9914   0.9897   0.9877   0.9848   0.9810
     0.9799   0.9786   0.9770   0.9680   0.9533   0.9418   0.9381   0.9243
     0.9140   0.9085   0.9032   0.9003   0.8950   0.8842   0.8741   0.8442
     0.8317   0.8261   0.7534   0.7428   0.7265   0.7158   0.7075   0.7031
     0.6994   0.6948   0.6793   0.6782   0.6681   0.6660   0.6603   0.6497
     0.6438   0.6394   0.6273   0.6212   0.6184   0.5984   0.5885   0.5535
     0.3353   0.3224   0.2054   0.0746   0.0500   0.0200   0.0061   0.0048
     0.0003   0.0001   0.0001   0.0000   0.0000   0.0000   0.0000   0.0000
     0.0000   0.0000   0.0000   0.0000   0.0000   0.0000   0.0000   0.0000
     0.0000   0.0000   0.0000   0.0000   0.0000   0.0000   0.0000   0.0000
     0.0000   0.0000   0.0000

          k = 0.0000-0.5000 0.0000 ( 65180 PWs)   bands (ev):

   -92.6954 -92.6435 -92.5489 -92.5033 -92.4453 -92.4015 -92.3841 -92.2638
   -56.0489 -56.0302 -55.9062 -55.8959 -55.8892 -55.8828 -55.8478 -55.8181
   -55.8027 -55.8010 -55.7939 -55.7527 -55.7342 -55.6958 -55.6752 -55.6452
   -55.6387 -55.5897 -55.5885 -55.5868 -55.5783 -55.5391 -55.5145 -55.4303
   -31.2720 -31.2528 -31.1119 -31.0252 -30.9738 -30.8897 -30.8194 -30.7388
   -29.8399 -29.7970 -29.7733 -29.6661 -15.0040 -14.9548 -14.9031 -14.7680
   -14.6904 -14.5495 -14.4015 -14.2663 -14.1516 -14.0698 -14.0345 -14.0258
   -13.9823 -13.9785 -13.9626 -13.9163 -13.8926 -13.8680 -13.8316 -13.7755
   -13.7554 -13.5774 -13.5188 -13.4938 -13.4509 -13.3824 -13.3529 -13.2795
   -13.2775 -13.2235 -13.2125 -13.1037 -13.0825 -12.9751 -12.9632 -12.9429
   -12.9241 -12.8992 -12.8738 -12.7865 -12.7556 -12.7366 -12.7005 -12.6809
   -12.6625 -12.6464 -12.5933 -12.5094 -12.4093 -12.3178 -12.2403 -12.1763
   -12.1338 -11.7741 -11.7717 -11.7441 -11.7075 -11.6726 -11.6608 -11.6183
   -11.6144 -11.5698 -11.5105 -11.4966 -11.4822  -2.5857  -2.5252  -2.3760
    -2.3036  -2.0224  -1.9378  -1.8119  -1.6739  -1.6377  -1.6174  -1.5391
    -1.5047  -1.4263  -1.3896  -1.3123  -1.2726  -1.2369  -1.2309  -1.2056
    -1.1495  -1.1110  -1.0630  -1.0230  -0.9963  -0.9573  -0.8518  -0.8072
    -0.7720  -0.7699  -0.6836  -0.6518  -0.6273  -0.5776  -0.4967  -0.4215
    -0.3360  -0.3097  -0.2019  -0.1562  -0.0232   0.0156   0.0443   0.1024
     0.2428   0.2777   0.3980   0.4704   0.4762   0.6031   0.6563   0.7698
     0.8822   0.9914   1.0234   1.0611   1.0665   1.1080   1.1199   1.1586
     1.1822   1.1883   1.2954   1.3568   1.3829   1.4099   1.6731   1.7060
     1.7397   1.8282   1.8591   1.8792   1.8957   1.9200   1.9449   1.9607
     1.9804   2.0118   2.0403   2.0741   2.0795   2.1085   2.1609   2.2457
     2.2783   2.4333   2.4562   2.4827   2.6109   2.6235   2.6439   2.6754
     2.6823   2.6901   2.7393   2.7506   2.8049   2.8262   2.9066   2.9168
     2.9862   2.9943   3.0161   3.0190   3.0366   3.0415   3.0446   3.0500
     3.0532   3.0664   3.0845   3.0855   3.1498   3.1552   3.1716   3.2253
     4.1405   4.1666   4.1984   4.2624   4.7469   4.9093   5.0312   5.1676
     5.4188   5.4697   5.5889   5.7282   6.0296   6.0566   6.2949   6.5246
     6.8543   6.9552   7.2281   7.3175   7.3535   7.4961   7.7070   7.7575
     7.9128   7.9943   8.1775   8.3064   8.4164   8.5196   8.5282   8.6722
     8.8153   8.8410   8.8708

     occupation numbers 
     1.0000   1.0000   1.0000   1.0000   1.0000   1.0000   1.0000   1.0000
     1.0000   1.0000   1.0000   1.0000   1.0000   1.0000   1.0000   1.0000
     1.0000   1.0000   1.0000   1.0000   1.0000   1.0000   1.0000   1.0000
     1.0000   1.0000   1.0000   1.0000   1.0000   1.0000   1.0000   1.0000
     1.0000   1.0000   1.0000   1.0000   1.0000   1.0000   1.0000   1.0000
     1.0000   1.0000   1.0000   1.0000   1.0000   1.0000   1.0000   1.0000
     1.0000   1.0000   1.0000   1.0000   1.0000   1.0000   1.0000   1.0000
     1.0000   1.0000   1.0000   1.0000   1.0000   1.0000   1.0000   1.0000
     1.0000   1.0000   1.0000   1.0000   1.0000   1.0000   1.0000   1.0000
     1.0000   1.0000   1.0000   1.0000   1.0000   1.0000   1.0000   1.0000
     1.0000   1.0000   1.0000   1.0000   1.0000   1.0000   1.0000   1.0000
     1.0000   1.0000   1.0000   1.0000   1.0000   1.0000   1.0000   1.0000
     1.0000   1.0000   1.0000   1.0000   1.0000   1.0000   1.0000   1.0000
     1.0000   1.0000   1.0000   1.0000   1.0000   1.0000   1.0000   1.0000
     1.0000   1.0000   1.0000   1.0000   1.0000   1.0000   1.0000   1.0000
     1.0000   1.0000   1.0000   1.0000   1.0000   1.0000   1.0000   1.0000
     1.0000   1.0000   1.0000   1.0000   1.0000   1.0000   1.0000   1.0000
     1.0000   1.0000   1.0000   1.0000   1.0000   1.0000   1.0000   1.0000
     1.0000   1.0000   1.0000   1.0000   1.0000   1.0000   1.0000   1.0000
     1.0000   1.0000   1.0000   1.0000   1.0000   1.0000   1.0000   0.9999
     0.9999   0.9997   0.9997   0.9996   0.9996   0.9995   0.9995   0.9994
     0.9993   0.9993   0.9988   0.9983   0.9981   0.9978   0.9931   0.9921
     0.9910   0.9873   0.9857   0.9845   0.9836   0.9820   0.9803   0.9792
     0.9777   0.9751   0.9725   0.9692   0.9686   0.9654   0.9591   0.9467
     0.9413   0.9091   0.9034   0.8965   0.8581   0.8538   0.8468   0.8355
     0.8329   0.8300   0.8108   0.8063   0.7834   0.7740   0.7365   0.7315
     0.6965   0.6923   0.6808   0.6793   0.6699   0.6672   0.6656   0.6626
     0.6609   0.6537   0.6437   0.6432   0.6070   0.6039   0.5945   0.5633
     0.1151   0.1078   0.0993   0.0837   0.0179   0.0096   0.0058   0.0032
     0.0010   0.0008   0.0004   0.0002   0.0000   0.0000   0.0000   0.0000
     0.0000   0.0000   0.0000   0.0000   0.0000   0.0000   0.0000   0.0000
     0.0000   0.0000   0.0000   0.0000   0.0000   0.0000   0.0000   0.0000
     0.0000   0.0000   0.0000

          k = 0.2500 0.2500 0.0000 ( 65198 PWs)   bands (ev):

   -92.6954 -92.6435 -92.5489 -92.5033 -92.4453 -92.4015 -92.3841 -92.2638
   -56.0489 -56.0302 -55.9062 -55.8959 -55.8892 -55.8828 -55.8478 -55.8181
   -55.8027 -55.8010 -55.7939 -55.7527 -55.7342 -55.6958 -55.6752 -55.6452
   -55.6387 -55.5897 -55.5885 -55.5868 -55.5783 -55.5391 -55.5145 -55.4303
   -31.2705 -31.2547 -31.1113 -31.0254 -30.9737 -30.8899 -30.8192 -30.7388
   -29.8396 -29.7983 -29.7722 -29.6662 -15.0101 -14.9715 -14.8966 -14.7800
   -14.6593 -14.5335 -14.4627 -14.2516 -14.1015 -14.0865 -14.0505 -14.0198
   -14.0015 -13.9816 -13.9766 -13.9328 -13.8903 -13.8312 -13.8143 -13.6568
   -13.6412 -13.6125 -13.5931 -13.5352 -13.5045 -13.4248 -13.4190 -13.2558
   -13.2299 -13.2117 -13.1359 -13.0954 -13.0429 -13.0124 -12.9728 -12.9439
   -12.9325 -12.9077 -12.8635 -12.7960 -12.7751 -12.7387 -12.7292 -12.7087
   -12.6937 -12.6636 -12.5892 -12.5146 -12.4469 -12.3436 -12.2718 -12.0809
   -12.0642 -11.7922 -11.7608 -11.7499 -11.7424 -11.6800 -11.6449 -11.6388
   -11.6037 -11.5944 -11.5052 -11.4635 -11.4464  -2.6615  -2.4529  -2.3350
    -2.2408  -2.1201  -2.0553  -1.8577  -1.7129  -1.6939  -1.6647  -1.5699
    -1.5358  -1.4416  -1.4141  -1.3638  -1.2338  -1.2301  -1.1801  -1.1116
    -1.0658  -1.0216  -0.9966  -0.9737  -0.9301  -0.9156  -0.8253  -0.7740
    -0.7104  -0.6595  -0.6282  -0.5813  -0.5657  -0.5020  -0.4544  -0.3966
    -0.3636  -0.2769  -0.2226  -0.1942  -0.1567  -0.1009  -0.0164   0.0126
     0.0381   0.1238   0.1501   0.4170   0.5650   0.6003   0.6611   0.7045
     0.7690   0.8224   0.8784   0.9133   1.1827   1.2489   1.3211   1.3464
     1.3961   1.4282   1.4626   1.4997   1.5166   1.5439   1.5902   1.5967
     1.6121   1.6571   1.6985   1.7370   1.8029   1.8395   1.8469   1.8882
     1.9174   1.9746   2.0098   2.1255   2.1855   2.2205   2.2415   2.3111
     2.3783   2.4031   2.4388   2.4424   2.4580   2.4752   2.4940   2.5941
     2.6246   2.7140   2.8828   2.8995   2.9058   2.9214   2.9373   2.9495
     2.9624   2.9692   2.9800   2.9930   3.0055   3.0240   3.0301   3.0425
     3.0655   3.0759   3.0854   3.1166   3.4172   3.5114   3.5531   3.6269
     3.6551   3.8632   3.9603   4.3141   4.5264   4.7233   4.9897   5.1677
     5.6528   5.7086   5.7663   5.8425   5.9013   6.1027   6.1624   6.2167
     6.8995   6.9522   7.0767   7.3082   7.5556   7.6068   7.7161   7.8485
     7.9125   8.0343   8.1847   8.2850   8.3135   8.3542   8.4517   8.5168
     8.5413   8.8146   8.9319

     occupation numbers 
     1.0000   1.0000   1.0000   1.0000   1.0000   1.0000   1.0000   1.0000
     1.0000   1.0000   1.0000   1.0000   1.0000   1.0000   1.0000   1.0000
     1.0000   1.0000   1.0000   1.0000   1.0000   1.0000   1.0000   1.0000
     1.0000   1.0000   1.0000   1.0000   1.0000   1.0000   1.0000   1.0000
     1.0000   1.0000   1.0000   1.0000   1.0000   1.0000   1.0000   1.0000
     1.0000   1.0000   1.0000   1.0000   1.0000   1.0000   1.0000   1.0000
     1.0000   1.0000   1.0000   1.0000   1.0000   1.0000   1.0000   1.0000
     1.0000   1.0000   1.0000   1.0000   1.0000   1.0000   1.0000   1.0000
     1.0000   1.0000   1.0000   1.0000   1.0000   1.0000   1.0000   1.0000
     1.0000   1.0000   1.0000   1.0000   1.0000   1.0000   1.0000   1.0000
     1.0000   1.0000   1.0000   1.0000   1.0000   1.0000   1.0000   1.0000
     1.0000   1.0000   1.0000   1.0000   1.0000   1.0000   1.0000   1.0000
     1.0000   1.0000   1.0000   1.0000   1.0000   1.0000   1.0000   1.0000
     1.0000   1.0000   1.0000   1.0000   1.0000   1.0000   1.0000   1.0000
     1.0000   1.0000   1.0000   1.0000   1.0000   1.0000   1.0000   1.0000
     1.0000   1.0000   1.0000   1.0000   1.0000   1.0000   1.0000   1.0000
     1.0000   1.0000   1.0000   1.0000   1.0000   1.0000   1.0000   1.0000
     1.0000   1.0000   1.0000   1.0000   1.0000   1.0000   1.0000   1.0000
     1.0000   1.0000   1.0000   1.0000   1.0000   1.0000   1.0000   1.0000
     1.0000   1.0000   1.0000   1.0000   1.0000   1.0000   1.0000   1.0000
     0.9999   0.9999   0.9999   0.9998   0.9993   0.9990   0.9986   0.9984
     0.9980   0.9977   0.9973   0.9968   0.9965   0.9960   0.9952   0.9950
     0.9947   0.9936   0.9924   0.9911   0.9884   0.9867   0.9863   0.9840
     0.9822   0.9781   0.9752   0.9635   0.9557   0.9507   0.9474   0.9353
     0.9218   0.9162   0.9078   0.9069   0.9030   0.8985   0.8935   0.8636
     0.8534   0.8209   0.7479   0.7399   0.7369   0.7292   0.7214   0.7153
     0.7087   0.7053   0.6997   0.6930   0.6864   0.6766   0.6733   0.6667
     0.6542   0.6485   0.6432   0.6258   0.4500   0.3953   0.3717   0.3311
     0.3160   0.2154   0.1756   0.0725   0.0381   0.0195   0.0069   0.0032
     0.0003   0.0002   0.0002   0.0001   0.0001   0.0000   0.0000   0.0000
     0.0000   0.0000   0.0000   0.0000   0.0000   0.0000   0.0000   0.0000
     0.0000   0.0000   0.0000   0.0000   0.0000   0.0000   0.0000   0.0000
     0.0000   0.0000   0.0000

          k = 0.2500-0.5000 0.0000 ( 65138 PWs)   bands (ev):

   -92.6954 -92.6435 -92.5489 -92.5033 -92.4453 -92.4015 -92.3841 -92.2638
   -56.0489 -56.0302 -55.9062 -55.8959 -55.8892 -55.8828 -55.8478 -55.8181
   -55.8027 -55.8010 -55.7939 -55.7527 -55.7342 -55.6958 -55.6752 -55.6452
   -55.6387 -55.5897 -55.5885 -55.5868 -55.5783 -55.5391 -55.5145 -55.4303
   -31.2703 -31.2546 -31.1115 -31.0256 -30.9736 -30.8895 -30.8197 -30.7390
   -29.8390 -29.7980 -29.7729 -29.6665 -14.9738 -14.9281 -14.8605 -14.7386
   -14.7117 -14.5910 -14.5010 -14.3651 -14.0659 -14.0099 -13.9870 -13.9802
   -13.9643 -13.9423 -13.9369 -13.9009 -13.8814 -13.8427 -13.8125 -13.7744
   -13.7394 -13.6600 -13.6110 -13.5520 -13.5327 -13.4632 -13.4266 -13.3108
   -13.2766 -13.2014 -13.1368 -13.1116 -13.0270 -12.9868 -12.9716 -12.9415
   -12.9328 -12.9059 -12.8590 -12.7918 -12.7783 -12.7407 -12.6944 -12.6578
   -12.6497 -12.6189 -12.5911 -12.5157 -12.3963 -12.3153 -12.2359 -12.1567
   -12.1263 -11.7680 -11.7559 -11.7451 -11.7177 -11.6857 -11.6577 -11.6152
   -11.5895 -11.5664 -11.5236 -11.4977 -11.4864  -2.4438  -2.3769  -2.2499
    -2.1723  -2.0428  -1.9579  -1.8362  -1.6853  -1.6322  -1.6096  -1.5458
    -1.5329  -1.4371  -1.3675  -1.2844  -1.2377  -1.2292  -1.2223  -1.1619
    -1.1197  -1.0848  -1.0364  -0.9986  -0.9640  -0.9244  -0.9135  -0.8666
    -0.8372  -0.7955  -0.7649  -0.6987  -0.5976  -0.5553  -0.4793  -0.4129
    -0.3634  -0.3221  -0.3011  -0.2450  -0.0842  -0.0727   0.0277   0.0658
     0.0756   0.1159   0.1513   0.1966   0.2181   0.2819   0.5603   0.6548
     0.7378   0.7964   1.0435   1.0722   1.1575   1.1798   1.3452   1.3794
     1.4208   1.4448   1.4586   1.4789   1.5414   1.5881   1.6246   1.7058
     1.8002   1.8395   1.8576   1.8708   1.9075   1.9192   1.9280   1.9727
     1.9819   2.0097   2.0356   2.0543   2.0679   2.1045   2.1612   2.2002
     2.2803   2.4160   2.4436   2.4716   2.5633   2.5822   2.6028   2.6270
     2.6521   2.6770   2.6978   2.7129   2.7359   2.8322   2.8834   2.9010
     2.9045   2.9193   2.9393   2.9530   2.9721   2.9801   3.0137   3.0242
     3.0382   3.0476   3.0557   3.0678   3.5942   3.6009   3.7489   3.8014
     4.1540   4.1967   4.2052   4.3222   4.7663   4.9312   5.0681   5.1405
     5.3119   5.4363   5.6091   5.6377   5.7759   5.7949   6.3860   6.4055
     6.4949   6.6549   7.2492   7.3423   7.5697   7.7040   7.8180   7.8769
     7.9168   8.0461   8.3152   8.4269   8.4541   8.5476   8.5732   8.6255
     8.7157   8.7650   8.7886

     occupation numbers 
     1.0000   1.0000   1.0000   1.0000   1.0000   1.0000   1.0000   1.0000
     1.0000   1.0000   1.0000   1.0000   1.0000   1.0000   1.0000   1.0000
     1.0000   1.0000   1.0000   1.0000   1.0000   1.0000   1.0000   1.0000
     1.0000   1.0000   1.0000   1.0000   1.0000   1.0000   1.0000   1.0000
     1.0000   1.0000   1.0000   1.0000   1.0000   1.0000   1.0000   1.0000
     1.0000   1.0000   1.0000   1.0000   1.0000   1.0000   1.0000   1.0000
     1.0000   1.0000   1.0000   1.0000   1.0000   1.0000   1.0000   1.0000
     1.0000   1.0000   1.0000   1.0000   1.0000   1.0000   1.0000   1.0000
     1.0000   1.0000   1.0000   1.0000   1.0000   1.0000   1.0000   1.0000
     1.0000   1.0000   1.0000   1.0000   1.0000   1.0000   1.0000   1.0000
     1.0000   1.0000   1.0000   1.0000   1.0000   1.0000   1.0000   1.0000
     1.0000   1.0000   1.0000   1.0000   1.0000   1.0000   1.0000   1.0000
     1.0000   1.0000   1.0000   1.0000   1.0000   1.0000   1.0000   1.0000
     1.0000   1.0000   1.0000   1.0000   1.0000   1.0000   1.0000   1.0000
     1.0000   1.0000   1.0000   1.0000   1.0000   1.0000   1.0000   1.0000
     1.0000   1.0000   1.0000   1.0000   1.0000   1.0000   1.0000   1.0000
     1.0000   1.0000   1.0000   1.0000   1.0000   1.0000   1.0000   1.0000
     1.0000   1.0000   1.0000   1.0000   1.0000   1.0000   1.0000   1.0000
     1.0000   1.0000   1.0000   1.0000   1.0000   1.0000   1.0000   1.0000
     1.0000   1.0000   1.0000   1.0000   1.0000   1.0000   1.0000   1.0000
     0.9999   0.9999   0.9997   0.9996   0.9994   0.9993   0.9984   0.9981
     0.9977   0.9975   0.9973   0.9970   0.9961   0.9952   0.9944   0.9921
     0.9886   0.9867   0.9857   0.9850   0.9828   0.9821   0.9815   0.9783
     0.9776   0.9753   0.9729   0.9712   0.9698   0.9659   0.9590   0.9537
     0.9409   0.9133   0.9066   0.8995   0.8734   0.8674   0.8608   0.8526
     0.8439   0.8349   0.8271   0.8213   0.8122   0.7713   0.7476   0.7392
     0.7375   0.7303   0.7204   0.7135   0.7038   0.6996   0.6821   0.6765
     0.6690   0.6639   0.6595   0.6529   0.3488   0.3452   0.2682   0.2432
     0.1113   0.0997   0.0975   0.0709   0.0166   0.0088   0.0050   0.0036
     0.0016   0.0009   0.0004   0.0003   0.0001   0.0001   0.0000   0.0000
     0.0000   0.0000   0.0000   0.0000   0.0000   0.0000   0.0000   0.0000
     0.0000   0.0000   0.0000   0.0000   0.0000   0.0000   0.0000   0.0000
     0.0000   0.0000   0.0000

          k =-0.5000-0.5000 0.0000 ( 65132 PWs)   bands (ev):

   -92.6954 -92.6435 -92.5489 -92.5033 -92.4453 -92.4015 -92.3841 -92.2638
   -56.0489 -56.0302 -55.9062 -55.8959 -55.8892 -55.8827 -55.8478 -55.8181
   -55.8027 -55.8010 -55.7939 -55.7527 -55.7342 -55.6958 -55.6752 -55.6452
   -55.6387 -55.5897 -55.5885 -55.5868 -55.5783 -55.5391 -55.5145 -55.4303
   -31.2681 -31.2568 -31.1112 -31.0260 -30.9734 -30.8893 -30.8199 -30.7392
   -29.8379 -29.7990 -29.7725 -29.6670 -14.9285 -14.9013 -14.7834 -14.7716
   -14.6724 -14.6409 -14.5976 -14.4656 -13.9832 -13.9774 -13.9631 -13.9282
   -13.9102 -13.8953 -13.8802 -13.8537 -13.8434 -13.8272 -13.8144 -13.7916
   -13.7255 -13.7199 -13.6791 -13.6543 -13.6457 -13.5531 -13.4785 -13.3488
   -13.3188 -13.1525 -13.1075 -13.0445 -13.0200 -12.9863 -12.9789 -12.9693
   -12.9502 -12.9091 -12.8342 -12.8051 -12.7877 -12.7466 -12.6921 -12.6590
   -12.6043 -12.5992 -12.5889 -12.5321 -12.3832 -12.3117 -12.2287 -12.1378
   -12.1197 -11.7648 -11.7522 -11.7339 -11.7174 -11.6819 -11.6641 -11.6293
   -11.5702 -11.5487 -11.5456 -11.4954 -11.4924  -2.2196  -2.1444  -2.1323
    -2.0620  -2.0238  -1.9451  -1.8774  -1.7512  -1.6359  -1.6053  -1.5668
    -1.5092  -1.4362  -1.4225  -1.3516  -1.3086  -1.2301  -1.1899  -1.1612
    -1.1129  -1.0861  -1.0216  -0.9761  -0.9558  -0.9436  -0.8911  -0.8466
    -0.8288  -0.7162  -0.6603  -0.6149  -0.5632  -0.5358  -0.5254  -0.4897
    -0.4446  -0.4106  -0.3961  -0.3150  -0.2451  -0.2041  -0.1739  -0.1032
    -0.0447  -0.0243   0.0276   0.0499   0.0652   0.0753   0.5308   0.5778
     0.6906   0.7174   1.0818   1.0878   1.1207   1.1595   1.4291   1.4496
     1.4566   1.4946   1.6235   1.7197   1.7469   1.7834   1.8087   1.8318
     1.8399   1.8687   1.8818   1.9044   1.9062   1.9570   1.9574   1.9880
     2.0220   2.0309   2.0441   2.0832   2.1025   2.1198   2.1472   2.1785
     2.2404   2.3093   2.4352   2.4705   2.5807   2.6064   2.6298   2.6437
     2.6591   2.6862   2.6881   2.7082   2.7197   2.7348   2.7562   2.7673
     2.8335   2.8374   2.8577   2.8720   2.8862   2.9046   2.9075   2.9174
     3.0216   3.0271   3.0527   3.0628   4.0167   4.0411   4.0867   4.1023
     4.3256   4.4002   4.4243   4.6660   4.7876   4.8698   4.9991   5.0888
     5.0987   5.2124   5.3100   5.4108   5.8582   5.8899   5.9589   6.0329
     6.6210   6.8497   6.9258   7.1433   7.9171   7.9228   7.9656   7.9799
     8.0108   8.0464   8.0979   8.2759   8.5195   8.5980   8.6248   8.6589
     8.6697   8.7464   8.7848

     occupation numbers 
     1.0000   1.0000   1.0000   1.0000   1.0000   1.0000   1.0000   1.0000
     1.0000   1.0000   1.0000   1.0000   1.0000   1.0000   1.0000   1.0000
     1.0000   1.0000   1.0000   1.0000   1.0000   1.0000   1.0000   1.0000
     1.0000   1.0000   1.0000   1.0000   1.0000   1.0000   1.0000   1.0000
     1.0000   1.0000   1.0000   1.0000   1.0000   1.0000   1.0000   1.0000
     1.0000   1.0000   1.0000   1.0000   1.0000   1.0000   1.0000   1.0000
     1.0000   1.0000   1.0000   1.0000   1.0000   1.0000   1.0000   1.0000
     1.0000   1.0000   1.0000   1.0000   1.0000   1.0000   1.0000   1.0000
     1.0000   1.0000   1.0000   1.0000   1.0000   1.0000   1.0000   1.0000
     1.0000   1.0000   1.0000   1.0000   1.0000   1.0000   1.0000   1.0000
     1.0000   1.0000   1.0000   1.0000   1.0000   1.0000   1.0000   1.0000
     1.0000   1.0000   1.0000   1.0000   1.0000   1.0000   1.0000   1.0000
     1.0000   1.0000   1.0000   1.0000   1.0000   1.0000   1.0000   1.0000
     1.0000   1.0000   1.0000   1.0000   1.0000   1.0000   1.0000   1.0000
     1.0000   1.0000   1.0000   1.0000   1.0000   1.0000   1.0000   1.0000
     1.0000   1.0000   1.0000   1.0000   1.0000   1.0000   1.0000   1.0000
     1.0000   1.0000   1.0000   1.0000   1.0000   1.0000   1.0000   1.0000
     1.0000   1.0000   1.0000   1.0000   1.0000   1.0000   1.0000   1.0000
     1.0000   1.0000   1.0000   1.0000   1.0000   1.0000   1.0000   1.0000
     1.0000   1.0000   1.0000   1.0000   1.0000   1.0000   1.0000   1.0000
     1.0000   0.9999   0.9996   0.9996   0.9995   0.9994   0.9976   0.9974
     0.9973   0.9968   0.9944   0.9917   0.9907   0.9893   0.9882   0.9871
     0.9867   0.9851   0.9844   0.9830   0.9829   0.9795   0.9794   0.9771
     0.9742   0.9734   0.9721   0.9682   0.9661   0.9641   0.9608   0.9567
     0.9476   0.9357   0.9087   0.8997   0.8679   0.8596   0.8517   0.8468
     0.8414   0.8314   0.8307   0.8231   0.8186   0.8126   0.8040   0.7994
     0.7707   0.7689   0.7597   0.7530   0.7463   0.7375   0.7360   0.7312
     0.6779   0.6750   0.6612   0.6557   0.1549   0.1464   0.1314   0.1265
     0.0702   0.0565   0.0525   0.0239   0.0154   0.0112   0.0067   0.0046
     0.0044   0.0026   0.0017   0.0010   0.0001   0.0001   0.0000   0.0000
     0.0000   0.0000   0.0000   0.0000   0.0000   0.0000   0.0000   0.0000
     0.0000   0.0000   0.0000   0.0000   0.0000   0.0000   0.0000   0.0000
     0.0000   0.0000   0.0000

          k = 0.2500 0.0000 0.0000 ( 65257 PWs)   bands (ev):

   -92.6954 -92.6435 -92.5489 -92.5033 -92.4453 -92.4015 -92.3841 -92.2638
   -56.0489 -56.0302 -55.9062 -55.8959 -55.8892 -55.8828 -55.8478 -55.8181
   -55.8027 -55.8010 -55.7939 -55.7527 -55.7342 -55.6958 -55.6752 -55.6452
   -55.6387 -55.5897 -55.5885 -55.5868 -55.5783 -55.5391 -55.5145 -55.4303
   -31.2707 -31.2548 -31.1111 -31.0253 -30.9738 -30.8904 -30.8187 -30.7387
   -29.8402 -29.7986 -29.7716 -29.6659 -15.0425 -15.0014 -14.9297 -14.7841
   -14.6743 -14.4842 -14.3465 -14.1643 -14.1512 -14.1192 -14.0906 -14.0626
   -14.0356 -14.0129 -13.9908 -13.9775 -13.9346 -13.8313 -13.7993 -13.6535
   -13.5796 -13.5742 -13.5114 -13.4856 -13.4731 -13.4034 -13.3385 -13.3074
   -13.1900 -13.1533 -13.1348 -13.0552 -13.0386 -13.0218 -13.0073 -12.9715
   -12.9648 -12.9264 -12.8663 -12.8147 -12.7694 -12.7653 -12.7465 -12.7274
   -12.6998 -12.6875 -12.6166 -12.5367 -12.4766 -12.4006 -12.2437 -12.0561
   -12.0048 -11.8193 -11.7674 -11.7502 -11.7371 -11.7097 -11.6600 -11.6363
   -11.6283 -11.5766 -11.4899 -11.4336 -11.4277  -2.7993  -2.5778  -2.4477
    -2.2751  -2.2115  -2.0420  -1.8342  -1.7573  -1.7134  -1.6786  -1.5776
    -1.5632  -1.5282  -1.5090  -1.4402  -1.2643  -1.2242  -1.1495  -1.1104
    -1.0132  -1.0020  -0.9230  -0.8963  -0.8446  -0.8036  -0.7510  -0.7230
    -0.6733  -0.6461  -0.6255  -0.5723  -0.5551  -0.4675  -0.4580  -0.3938
    -0.2980  -0.2466  -0.1228  -0.1093  -0.0475   0.0044   0.0542   0.0801
     0.1180   0.1822   0.2224   0.5034   0.6380   0.6719   0.7609   0.7946
     0.8218   0.8401   0.9155   1.0262   1.0757   1.0989   1.1377   1.2863
     1.3188   1.3523   1.3587   1.3996   1.4464   1.4871   1.5212   1.5753
     1.6265   1.6413   1.6999   1.7430   1.7840   1.8063   1.8918   1.9036
[...]
     0.3502   0.3283   0.2046   0.0788   0.0447   0.0216   0.0060   0.0049
     0.0003   0.0001   0.0001   0.0000   0.0000   0.0000   0.0000   0.0000
     0.0000   0.0000   0.0000   0.0000   0.0000   0.0000   0.0000   0.0000
     0.0000   0.0000   0.0000   0.0000   0.0000   0.0000   0.0000   0.0000
     0.0000   0.0000   0.0000

          k =-0.5000 0.0000 0.0000 ( 65180 PWs)   bands (ev):

   -92.6954 -92.6435 -92.5489 -92.5033 -92.4453 -92.4015 -92.3841 -92.2638
   -56.0489 -56.0302 -55.9062 -55.8959 -55.8892 -55.8828 -55.8478 -55.8181
   -55.8027 -55.8010 -55.7939 -55.7527 -55.7342 -55.6958 -55.6752 -55.6452
   -55.6387 -55.5897 -55.5885 -55.5868 -55.5783 -55.5391 -55.5145 -55.4303
   -31.2685 -31.2570 -31.1108 -31.0257 -30.9736 -30.8902 -30.8189 -30.7389
   -29.8392 -29.7996 -29.7712 -29.6663 -15.0089 -14.9585 -14.8954 -14.7797
   -14.6828 -14.5378 -14.3957 -14.2387 -14.1260 -14.1053 -14.1015 -14.0347
   -13.9875 -13.9800 -13.9541 -13.9028 -13.8888 -13.8773 -13.8307 -13.7939
   -13.6953 -13.5490 -13.5211 -13.4891 -13.4804 -13.3922 -13.3589 -13.2894
   -13.2625 -13.2390 -13.1974 -13.0490 -13.0367 -13.0128 -13.0032 -12.9466
   -12.9420 -12.9231 -12.9123 -12.7670 -12.7378 -12.7141 -12.7062 -12.6825
   -12.6349 -12.6258 -12.6017 -12.5356 -12.4021 -12.3218 -12.2427 -12.1756
   -12.1351 -11.7715 -11.7500 -11.7429 -11.7289 -11.7102 -11.6686 -11.6066
   -11.5882 -11.5540 -11.5130 -11.5036 -11.4877  -2.5752  -2.5365  -2.3735
    -2.3336  -2.0208  -1.9460  -1.7983  -1.6792  -1.6411  -1.5956  -1.5479
    -1.5225  -1.3988  -1.3542  -1.3390  -1.2577  -1.2380  -1.2195  -1.2004
    -1.1738  -1.1141  -1.0477  -1.0196  -0.9881  -0.8861  -0.8467  -0.7984
    -0.7663  -0.7441  -0.7137  -0.6661  -0.6396  -0.6003  -0.5069  -0.4287
    -0.3673  -0.3047  -0.1279  -0.1012  -0.0489  -0.0165   0.0579   0.0612
     0.2125   0.2360   0.2769   0.4468   0.5461   0.5973   0.6838   0.7668
     0.8697   0.8879   1.0158   1.0389   1.0915   1.1189   1.1615   1.1716
     1.2212   1.2395   1.3077   1.3580   1.4030   1.4119   1.7137   1.7282
     1.7410   1.7716   1.8674   1.8767   1.8986   1.9118   1.9324   1.9450
     1.9857   2.0062   2.0423   2.0837   2.1037   2.1526   2.1789   2.2285
     2.3414   2.4426   2.4499   2.4613   2.5203   2.5256   2.6111   2.6324
     2.6639   2.7318   2.7370   2.7453   2.7745   2.8427   2.8893   2.9343
     2.9646   3.0074   3.0112   3.0117   3.0239   3.0383   3.0505   3.0639
     3.0678   3.0896   3.0926   3.1173   3.1354   3.1405   3.2710   3.2777
     4.0802   4.1301   4.1998   4.3492   4.7970   4.8705   5.0492   5.0601
     5.4899   5.5141   5.6018   5.6585   6.0352   6.0444   6.3120   6.4808
     6.8001   7.0067   7.2757   7.3010   7.3296   7.4615   7.7574   7.7843
     7.8896   8.0701   8.1433   8.2796   8.4284   8.5097   8.5528   8.6351
     8.7672   8.8734   8.9202

     occupation numbers 
     1.0000   1.0000   1.0000   1.0000   1.0000   1.0000   1.0000   1.0000
     1.0000   1.0000   1.0000   1.0000   1.0000   1.0000   1.0000   1.0000
     1.0000   1.0000   1.0000   1.0000   1.0000   1.0000   1.0000   1.0000
     1.0000   1.0000   1.0000   1.0000   1.0000   1.0000   1.0000   1.0000
     1.0000   1.0000   1.0000   1.0000   1.0000   1.0000   1.0000   1.0000
     1.0000   1.0000   1.0000   1.0000   1.0000   1.0000   1.0000   1.0000
     1.0000   1.0000   1.0000   1.0000   1.0000   1.0000   1.0000   1.0000
     1.0000   1.0000   1.0000   1.0000   1.0000   1.0000   1.0000   1.0000
     1.0000   1.0000   1.0000   1.0000   1.0000   1.0000   1.0000   1.0000
     1.0000   1.0000   1.0000   1.0000   1.0000   1.0000   1.0000   1.0000
     1.0000   1.0000   1.0000   1.0000   1.0000   1.0000   1.0000   1.0000
     1.0000   1.0000   1.0000   1.0000   1.0000   1.0000   1.0000   1.0000
     1.0000   1.0000   1.0000   1.0000   1.0000   1.0000   1.0000   1.0000
     1.0000   1.0000   1.0000   1.0000   1.0000   1.0000   1.0000   1.0000
     1.0000   1.0000   1.0000   1.0000   1.0000   1.0000   1.0000   1.0000
     1.0000   1.0000   1.0000   1.0000   1.0000   1.0000   1.0000   1.0000
     1.0000   1.0000   1.0000   1.0000   1.0000   1.0000   1.0000   1.0000
     1.0000   1.0000   1.0000   1.0000   1.0000   1.0000   1.0000   1.0000
     1.0000   1.0000   1.0000   1.0000   1.0000   1.0000   1.0000   1.0000
     1.0000   1.0000   1.0000   1.0000   1.0000   1.0000   1.0000   0.9999
     0.9999   0.9999   0.9997   0.9997   0.9996   0.9995   0.9994   0.9993
     0.9991   0.9991   0.9987   0.9983   0.9979   0.9978   0.9919   0.9914
     0.9909   0.9898   0.9852   0.9847   0.9834   0.9826   0.9812   0.9803
     0.9773   0.9756   0.9723   0.9682   0.9660   0.9601   0.9567   0.9494
     0.9295   0.9069   0.9050   0.9021   0.8861   0.8846   0.8580   0.8508
     0.8396   0.8138   0.8118   0.8084   0.7964   0.7665   0.7448   0.7229
     0.7076   0.6854   0.6834   0.6831   0.6766   0.6689   0.6624   0.6550
     0.6529   0.6409   0.6392   0.6254   0.6152   0.6123   0.5364   0.5325
     0.1335   0.1182   0.0989   0.0656   0.0148   0.0112   0.0054   0.0052
     0.0007   0.0006   0.0004   0.0003   0.0000   0.0000   0.0000   0.0000
     0.0000   0.0000   0.0000   0.0000   0.0000   0.0000   0.0000   0.0000
     0.0000   0.0000   0.0000   0.0000   0.0000   0.0000   0.0000   0.0000
     0.0000   0.0000   0.0000

          k =-0.2500 0.2500 0.0000 ( 65198 PWs)   bands (ev):

   -92.6954 -92.6435 -92.5489 -92.5033 -92.4453 -92.4015 -92.3841 -92.2638
   -56.0489 -56.0302 -55.9062 -55.8959 -55.8892 -55.8828 -55.8478 -55.8181
   -55.8027 -55.8010 -55.7939 -55.7527 -55.7342 -55.6958 -55.6752 -55.6452
   -55.6387 -55.5897 -55.5885 -55.5868 -55.5783 -55.5391 -55.5145 -55.4303
   -31.2705 -31.2547 -31.1113 -31.0254 -30.9737 -30.8899 -30.8192 -30.7388
   -29.8396 -29.7983 -29.7722 -29.6662 -15.0115 -14.9705 -14.8948 -14.7791
   -14.6643 -14.5393 -14.4546 -14.2419 -14.1076 -14.0792 -14.0612 -14.0184
   -13.9933 -13.9799 -13.9755 -13.9496 -13.8952 -13.8269 -13.8133 -13.6660
   -13.6375 -13.6095 -13.5892 -13.5427 -13.4902 -13.4300 -13.4067 -13.2625
   -13.2330 -13.2144 -13.1402 -13.0962 -13.0344 -13.0019 -12.9816 -12.9488
   -12.9279 -12.9218 -12.8645 -12.7952 -12.7813 -12.7641 -12.7121 -12.6986
   -12.6867 -12.6531 -12.5988 -12.4557 -12.4367 -12.4074 -12.2775 -12.0976
   -12.0399 -11.7914 -11.7701 -11.7430 -11.7307 -11.6894 -11.6547 -11.6318
   -11.6101 -11.5876 -11.5049 -11.4589 -11.4497  -2.6599  -2.4519  -2.3309
    -2.2422  -2.1242  -2.0581  -1.8554  -1.7097  -1.6916  -1.6627  -1.5705
    -1.5346  -1.4411  -1.4073  -1.3814  -1.2420  -1.2279  -1.1794  -1.1132
    -1.0854  -1.0259  -1.0020  -0.9632  -0.9348  -0.8948  -0.8302  -0.7828
    -0.7204  -0.6523  -0.6243  -0.5748  -0.5438  -0.5000  -0.4445  -0.3987
    -0.3589  -0.2589  -0.2251  -0.2119  -0.1699  -0.1033  -0.0219   0.0171
     0.0459   0.1263   0.1483   0.3984   0.5681   0.6086   0.6511   0.7093
     0.7671   0.8270   0.8901   0.9084   1.1898   1.3011   1.3386   1.3710
     1.3772   1.4191   1.4360   1.4825   1.5126   1.5259   1.5523   1.5979
     1.6136   1.6570   1.6730   1.7194   1.8103   1.8326   1.8484   1.8970
     1.9153   1.9561   2.0142   2.1140   2.2141   2.2406   2.2892   2.3090
     2.3793   2.4134   2.4354   2.4471   2.4657   2.4781   2.4958   2.5952
     2.6242   2.7131   2.8889   2.8979   2.9112   2.9217   2.9323   2.9461
     2.9529   2.9714   2.9792   2.9940   3.0037   3.0157   3.0250   3.0320
     3.0658   3.0765   3.0841   3.1186   3.4104   3.4925   3.5570   3.6409
     3.6530   3.8483   3.9690   4.3132   4.5255   4.7237   4.9989   5.1677
     5.6540   5.7055   5.7696   5.8400   5.9025   6.1039   6.1757   6.2026
     6.8995   6.9506   7.0937   7.2790   7.5696   7.6145   7.6746   7.8831
     7.9122   8.0319   8.2002   8.2320   8.3280   8.3768   8.4540   8.5018
     8.6271   8.7438   8.9171

     occupation numbers 
     1.0000   1.0000   1.0000   1.0000   1.0000   1.0000   1.0000   1.0000
     1.0000   1.0000   1.0000   1.0000   1.0000   1.0000   1.0000   1.0000
     1.0000   1.0000   1.0000   1.0000   1.0000   1.0000   1.0000   1.0000
     1.0000   1.0000   1.0000   1.0000   1.0000   1.0000   1.0000   1.0000
     1.0000   1.0000   1.0000   1.0000   1.0000   1.0000   1.0000   1.0000
     1.0000   1.0000   1.0000   1.0000   1.0000   1.0000   1.0000   1.0000
     1.0000   1.0000   1.0000   1.0000   1.0000   1.0000   1.0000   1.0000
     1.0000   1.0000   1.0000   1.0000   1.0000   1.0000   1.0000   1.0000
     1.0000   1.0000   1.0000   1.0000   1.0000   1.0000   1.0000   1.0000
     1.0000   1.0000   1.0000   1.0000   1.0000   1.0000   1.0000   1.0000
     1.0000   1.0000   1.0000   1.0000   1.0000   1.0000   1.0000   1.0000
     1.0000   1.0000   1.0000   1.0000   1.0000   1.0000   1.0000   1.0000
     1.0000   1.0000   1.0000   1.0000   1.0000   1.0000   1.0000   1.0000
     1.0000   1.0000   1.0000   1.0000   1.0000   1.0000   1.0000   1.0000
     1.0000   1.0000   1.0000   1.0000   1.0000   1.0000   1.0000   1.0000
     1.0000   1.0000   1.0000   1.0000   1.0000   1.0000   1.0000   1.0000
     1.0000   1.0000   1.0000   1.0000   1.0000   1.0000   1.0000   1.0000
     1.0000   1.0000   1.0000   1.0000   1.0000   1.0000   1.0000   1.0000
     1.0000   1.0000   1.0000   1.0000   1.0000   1.0000   1.0000   1.0000
     1.0000   1.0000   1.0000   1.0000   1.0000   1.0000   1.0000   1.0000
     0.9999   0.9999   0.9999   0.9998   0.9993   0.9987   0.9985   0.9982
     0.9982   0.9978   0.9976   0.9970   0.9966   0.9963   0.9959   0.9950
     0.9947   0.9936   0.9931   0.9917   0.9881   0.9870   0.9862   0.9835
     0.9823   0.9795   0.9749   0.9648   0.9516   0.9475   0.9393   0.9357
     0.9215   0.9139   0.9086   0.9057   0.9010   0.8977   0.8930   0.8632
     0.8536   0.8212   0.7450   0.7407   0.7343   0.7291   0.7239   0.7170
     0.7135   0.7041   0.7001   0.6924   0.6874   0.6811   0.6761   0.6723
     0.6540   0.6481   0.6440   0.6247   0.4541   0.4062   0.3695   0.3236
     0.3171   0.2219   0.1723   0.0727   0.0382   0.0194   0.0067   0.0032
     0.0003   0.0002   0.0001   0.0001   0.0001   0.0000   0.0000   0.0000
     0.0000   0.0000   0.0000   0.0000   0.0000   0.0000   0.0000   0.0000
     0.0000   0.0000   0.0000   0.0000   0.0000   0.0000   0.0000   0.0000
     0.0000   0.0000   0.0000

          k =-0.5000 0.2500 0.0000 ( 65138 PWs)   bands (ev):

   -92.6954 -92.6435 -92.5489 -92.5033 -92.4453 -92.4015 -92.3841 -92.2638
   -56.0489 -56.0302 -55.9062 -55.8959 -55.8892 -55.8828 -55.8478 -55.8181
   -55.8027 -55.8010 -55.7939 -55.7527 -55.7342 -55.6958 -55.6752 -55.6452
   -55.6387 -55.5897 -55.5885 -55.5868 -55.5783 -55.5391 -55.5145 -55.4303
   -31.2683 -31.2569 -31.1110 -31.0258 -30.9735 -30.8897 -30.8194 -30.7390
   -29.8386 -29.7993 -29.7718 -29.6666 -14.9763 -14.9321 -14.8528 -14.7475
   -14.7096 -14.5849 -14.4964 -14.3580 -14.0581 -14.0262 -14.0143 -13.9835
   -13.9730 -13.9454 -13.9263 -13.8888 -13.8712 -13.8583 -13.8173 -13.7942
   -13.6895 -13.6314 -13.5830 -13.5789 -13.5638 -13.4635 -13.4363 -13.3189
   -13.2582 -13.1950 -13.1577 -13.0607 -13.0213 -13.0103 -12.9807 -12.9486
   -12.9346 -12.9188 -12.8845 -12.7857 -12.7620 -12.7290 -12.7048 -12.6644
   -12.6182 -12.6106 -12.5939 -12.5336 -12.3931 -12.3170 -12.2371 -12.1561
   -12.1273 -11.7643 -11.7517 -11.7372 -11.7250 -11.7038 -11.6733 -11.5926
   -11.5851 -11.5600 -11.5275 -11.4992 -11.4901  -2.4327  -2.3909  -2.2433
    -2.2001  -2.0398  -1.9646  -1.8225  -1.6852  -1.6299  -1.6026  -1.5639
    -1.5251  -1.4441  -1.3284  -1.2719  -1.2482  -1.2320  -1.2217  -1.1445
    -1.1162  -1.0778  -1.0610  -1.0009  -0.9703  -0.9321  -0.8961  -0.8681
    -0.8099  -0.7817  -0.7382  -0.7065  -0.6024  -0.5742  -0.4881  -0.4227
    -0.3950  -0.3380  -0.2517  -0.2155  -0.1174  -0.0726  -0.0206   0.0372
     0.0538   0.1301   0.1580   0.1889   0.2379   0.2802   0.5925   0.6585
     0.7333   0.7591   1.0288   1.0817   1.1594   1.1806   1.3587   1.3942
     1.4320   1.4439   1.4626   1.4803   1.5482   1.5943   1.6351   1.6616
     1.7962   1.8280   1.8523   1.8673   1.9151   1.9300   1.9467   1.9633
     1.9790   2.0023   2.0542   2.0616   2.0977   2.1204   2.1558   2.2079
     2.3306   2.4299   2.4387   2.4493   2.4813   2.5295   2.5595   2.6281
     2.6600   2.6656   2.7037   2.7352   2.7593   2.8426   2.8864   2.8979
     2.9036   2.9251   2.9472   2.9599   2.9743   2.9888   3.0099   3.0219
     3.0320   3.0401   3.0502   3.0618   3.5902   3.6418   3.7816   3.8040
     4.0859   4.1565   4.2074   4.4248   4.7916   4.8887   5.0459   5.0885
     5.4110   5.4371   5.5929   5.6285   5.7544   5.7938   6.3937   6.4093
     6.5042   6.6074   7.2943   7.3222   7.5766   7.7210   7.8011   7.8919
     7.9156   8.0323   8.3153   8.4368   8.4676   8.5532   8.5790   8.6041
     8.6720   8.7466   8.7794

     occupation numbers 
     1.0000   1.0000   1.0000   1.0000   1.0000   1.0000   1.0000   1.0000
     1.0000   1.0000   1.0000   1.0000   1.0000   1.0000   1.0000   1.0000
     1.0000   1.0000   1.0000   1.0000   1.0000   1.0000   1.0000   1.0000
     1.0000   1.0000   1.0000   1.0000   1.0000   1.0000   1.0000   1.0000
     1.0000   1.0000   1.0000   1.0000   1.0000   1.0000   1.0000   1.0000
     1.0000   1.0000   1.0000   1.0000   1.0000   1.0000   1.0000   1.0000
     1.0000   1.0000   1.0000   1.0000   1.0000   1.0000   1.0000   1.0000
     1.0000   1.0000   1.0000   1.0000   1.0000   1.0000   1.0000   1.0000
     1.0000   1.0000   1.0000   1.0000   1.0000   1.0000   1.0000   1.0000
     1.0000   1.0000   1.0000   1.0000   1.0000   1.0000   1.0000   1.0000
     1.0000   1.0000   1.0000   1.0000   1.0000   1.0000   1.0000   1.0000
     1.0000   1.0000   1.0000   1.0000   1.0000   1.0000   1.0000   1.0000
     1.0000   1.0000   1.0000   1.0000   1.0000   1.0000   1.0000   1.0000
     1.0000   1.0000   1.0000   1.0000   1.0000   1.0000   1.0000   1.0000
     1.0000   1.0000   1.0000   1.0000   1.0000   1.0000   1.0000   1.0000
     1.0000   1.0000   1.0000   1.0000   1.0000   1.0000   1.0000   1.0000
     1.0000   1.0000   1.0000   1.0000   1.0000   1.0000   1.0000   1.0000
     1.0000   1.0000   1.0000   1.0000   1.0000   1.0000   1.0000   1.0000
     1.0000   1.0000   1.0000   1.0000   1.0000   1.0000   1.0000   1.0000
     1.0000   1.0000   1.0000   1.0000   1.0000   1.0000   1.0000   1.0000
     0.9999   0.9999   0.9997   0.9996   0.9994   0.9993   0.9983   0.9980
     0.9976   0.9975   0.9973   0.9970   0.9960   0.9951   0.9941   0.9935
     0.9887   0.9873   0.9860   0.9852   0.9823   0.9814   0.9802   0.9790
     0.9778   0.9759   0.9712   0.9704   0.9666   0.9641   0.9597   0.9525
     0.9316   0.9099   0.9078   0.9052   0.8969   0.8835   0.8745   0.8522
     0.8411   0.8390   0.8248   0.8125   0.8027   0.7666   0.7462   0.7407
     0.7379   0.7275   0.7165   0.7100   0.7026   0.6951   0.6841   0.6777
     0.6723   0.6680   0.6625   0.6562   0.3510   0.3231   0.2525   0.2420
     0.1317   0.1106   0.0970   0.0524   0.0151   0.0104   0.0055   0.0046
     0.0010   0.0009   0.0004   0.0003   0.0002   0.0001   0.0000   0.0000
     0.0000   0.0000   0.0000   0.0000   0.0000   0.0000   0.0000   0.0000
     0.0000   0.0000   0.0000   0.0000   0.0000   0.0000   0.0000   0.0000
     0.0000   0.0000   0.0000

     the Fermi energy is     3.3326 ev

!    total energy              =   -4441.66738151 Ry
     estimated scf accuracy    <          5.7E-09 Ry
     smearing contrib. (-TS)   =      -1.15474776 Ry
     internal energy E=F+TS    =   -4440.51263375 Ry

     The total energy is F=E-TS. E is the sum of the following terms:
     one-electron contribution =  -20804.32427733 Ry
     hartree contribution      =   10534.25230147 Ry
     xc contribution           =    -694.18968189 Ry
     ewald contribution        =    6799.91733746 Ry
     one-center paw contrib.   =    -276.16831345 Ry
      -> PAW hartree energy AE =      25.15647015 Ry
      -> PAW hartree energy PS =     -25.04042606 Ry
      -> PAW xc energy AE      =     -16.51659789 Ry
      -> PAW xc energy PS      =       6.87601120 Ry
      -> total E_H with PAW    =   10534.36834556 Ry
      -> total E_XC with PAW   =    -703.83026858 Ry

     convergence has been achieved in  46 iterations

     Writing all to output data dir /bsuhome/zayahcortright/scratch/pwscf.save/
 
     init_run     :      7.96s CPU      8.96s WALL (       1 calls)
     electrons    :    770.51s CPU    850.55s WALL (       1 calls)

     Called by init_run:
     wfcinit      :      6.60s CPU      6.86s WALL (       1 calls)
     wfcinit:atom :      0.05s CPU      0.07s WALL (       5 calls)
     wfcinit:wfcr :      6.28s CPU      6.45s WALL (       5 calls)
     potinit      :      0.18s CPU      0.20s WALL (       1 calls)
     hinit0       :      0.32s CPU      0.79s WALL (       1 calls)

     Called by electrons:
     c_bands      :    625.62s CPU    637.27s WALL (      46 calls)
     sum_band     :    108.55s CPU    147.24s WALL (      46 calls)
     v_of_rho     :      5.01s CPU      5.40s WALL (      47 calls)
     v_h          :      0.44s CPU      0.45s WALL (      47 calls)
     v_xc         :      4.57s CPU      4.95s WALL (      47 calls)
     newd         :     17.41s CPU     46.30s WALL (      47 calls)
     PAW_pot      :      1.55s CPU      1.57s WALL (      47 calls)
     mix_rho      :     12.04s CPU     12.47s WALL (      46 calls)

     Called by c_bands:
     init_us_2    :      6.45s CPU      6.53s WALL (     465 calls)
     init_us_2:cp :      6.44s CPU      6.52s WALL (     465 calls)
     cegterg      :    590.73s CPU    602.07s WALL (     230 calls)

     Called by sum_band:
     sum_band:wei :      0.33s CPU      0.33s WALL (      46 calls)
     sum_band:loo :     90.17s CPU     90.92s WALL (      46 calls)
     sum_band:buf :      1.36s CPU      1.48s WALL (     230 calls)
     sum_band:ini :      2.99s CPU      3.00s WALL (     230 calls)
     sum_band:cal :     18.16s CPU     18.22s WALL (     230 calls)
     sum_band:bec :      0.52s CPU      0.53s WALL (     230 calls)
     addusdens    :     15.96s CPU     53.84s WALL (      46 calls)
                                        0.00s GPU  (      46 calls)
     addusd:skk   :      0.28s CPU      2.30s WALL (     184 calls)
                                        0.00s GPU  (     184 calls)

     Called by *egterg:
     cdiaghg      :     58.71s CPU     58.98s WALL (    1371 calls)
     cegterg:over :     42.17s CPU     42.42s WALL (    1141 calls)
     cegterg:upda :     46.34s CPU     47.20s WALL (    1141 calls)
     cegterg:last :     68.79s CPU     69.08s WALL (     425 calls)
     cdiaghg:chol :      3.36s CPU      3.39s WALL (    1371 calls)
     cdiaghg:inve :      3.60s CPU      3.62s WALL (    1371 calls)
     cdiaghg:para :      7.48s CPU      7.53s WALL (    2742 calls)
     h_psi        :    308.62s CPU    313.39s WALL (    1376 calls)
     s_psi        :     42.39s CPU     42.51s WALL (    1376 calls)
     g_psi        :      2.22s CPU      2.23s WALL (    1141 calls)

     Called by h_psi:
     h_psi:calbec :     44.04s CPU     44.27s WALL (    1376 calls)
     vloc_psi     :    217.06s CPU    219.23s WALL (    1376 calls)
     add_vuspsi   :     42.54s CPU     42.80s WALL (    1376 calls)

     General routines
     calbec       :     62.19s CPU     62.48s WALL (    1606 calls)
     fft          :      4.20s CPU      4.24s WALL (     609 calls)
     ffts         :      4.37s CPU      4.42s WALL (    4934 calls)
     fftw         :    174.02s CPU    175.34s WALL (  313208 calls)
     interpolate  :      0.39s CPU      0.40s WALL (      47 calls)
 
     Parallel routines

     PAW routines
     PAW_pot      :      1.55s CPU      1.57s WALL (      47 calls)
 
     PWSCF        :  13m 1.69s CPU  14m25.97s WALL

 
   This run was terminated on:   1:35:47  22Jun2024            

=------------------------------------------------------------------------------=
   JOB DONE.
=------------------------------------------------------------------------------=
