
     Program PWSCF v.7.2 starts on 21Jun2024 at 15:36:54 

     This program is part of the open-source Quantum ESPRESSO suite
     for quantum simulation of materials; please cite
         "P. Giannozzi et al., J. Phys.:Condens. Matter 21 395502 (2009);
         "P. Giannozzi et al., J. Phys.:Condens. Matter 29 465901 (2017);
         "P. Giannozzi et al., J. Chem. Phys. 152 154105 (2020);
          URL http://www.quantum-espresso.org", 
     in publications or presentations arising from this work. More details at
     http://www.quantum-espresso.org/quote

     Parallel version (MPI & OpenMP), running on      48 processor cores
     Number of MPI processes:                48
     Threads/MPI process:                     1

     MPI processes distributed on     1 nodes
     180161 MiB available memory on the printing compute node when the environment starts
 
     Reading input from espresso.pwi
Warning: card &CELL ignored
Warning: card / ignored
Warning: card &FCP ignored
Warning: card / ignored
Warning: card &RISM ignored
Warning: card / ignored

     Current dimensions of program PWSCF are:
     Max number of different atomic species (ntypx) = 10
     Max number of k-points (npk) =  40000
     Max angular momentum in pseudopotentials (lmaxx) =  4
     file O.pbe-n-kjpaw_psl.0.1.UPF: wavefunction(s)  2P renormalized
     signal trapping enabled: kill the code with -SIGUSR1 to stop cleanly the simulation 
 
     K-points division:     npool     =       2
     R & G space division:  proc/nbgrp/npool/nimage =      24
     Subspace diagonalization in iterative solution of the eigenvalue problem:
     one sub-group per band group will be used
     scalapack distributed-memory algorithm (size of sub-group:  3*  3 procs)

 
     Parallelization info
     --------------------
     sticks:   dense  smooth     PW     G-vecs:    dense   smooth      PW
     Min         350     175     47                61430    21716    3036
     Max         351     177     48                61449    21727    3041
     Sum        8421    4205   1137              1474595   521381   72913
 
     Using Slab Decomposition
 


     bravais-lattice index     =            0
     lattice parameter (alat)  =      14.8599  a.u.
     unit-cell volume          =    8305.1283 (a.u.)^3
     number of atoms/cell      =           49
     number of atomic types    =            4
     number of electrons       =       425.00
     number of Kohn-Sham states=          256
     kinetic-energy cutoff     =      60.0000  Ry
     charge density cutoff     =     480.0000  Ry
     scf convergence threshold =      1.0E-08
     mixing beta               =       0.1500
     number of iterations used =            8  local-TF  mixing
     Exchange-correlation= PBE
                           (   1   4   3   4   0   0   0)

     celldm(1)=  14.859904  celldm(2)=   0.000000  celldm(3)=   0.000000
     celldm(4)=   0.000000  celldm(5)=   0.000000  celldm(6)=   0.000000

     crystal axes: (cart. coord. in units of alat)
               a(1) = (   1.000000   0.000000   0.000000 )  
               a(2) = (   0.000000   1.000000   0.000000 )  
               a(3) = (   0.000000   0.000000   2.531036 )  

     reciprocal axes: (cart. coord. in units 2 pi/alat)
               b(1) = (  1.000000  0.000000  0.000000 )  
               b(2) = (  0.000000  1.000000  0.000000 )  
               b(3) = (  0.000000  0.000000  0.395095 )  


     PseudoPot. # 1 for Sr read from file:
     /bsuhome/zayahcortright/q-e/pseudo/Sr_pbe_v1.uspp.F.UPF
     MD5 check sum: 6b418c05fbe9db5448babca5e47b7a5b
     Pseudo is Ultrasoft + core correction, Zval = 10.0
     Generated by new atomic code, or converted to UPF format
     Using radial grid of  883 points,  6 beta functions with: 
                l(1) =   0
                l(2) =   0
                l(3) =   1
                l(4) =   1
                l(5) =   2
                l(6) =   2
     Q(r) pseudized with  6 coefficients,  rinner =    1.400   1.400   1.400
                                                       1.400   1.400

     PseudoPot. # 2 for O  read from file:
     /bsuhome/zayahcortright/q-e/pseudo/O.pbe-n-kjpaw_psl.0.1.UPF
     MD5 check sum: 0234752ac141de4415c5fc33072bef88
     Pseudo is Projector augmented-wave + core cor, Zval =  6.0
     Generated using "atomic" code by A. Dal Corso  v.5.0.99 svn rev. 10869
     Shape of augmentation charge: BESSEL
     Using radial grid of 1095 points,  4 beta functions with: 
                l(1) =   0
                l(2) =   0
                l(3) =   1
                l(4) =   1
     Q(r) pseudized with 0 coefficients 


     PseudoPot. # 3 for Co read from file:
     /bsuhome/zayahcortright/q-e/pseudo/Co_pbe_v1.2.uspp.F.UPF
     MD5 check sum: 5f91765df6ddd3222702df6e7b74a16d
     Pseudo is Ultrasoft + core correction, Zval = 17.0
     Generated by new atomic code, or converted to UPF format
     Using radial grid of  863 points,  6 beta functions with: 
                l(1) =   0
                l(2) =   0
                l(3) =   1
                l(4) =   1
                l(5) =   2
                l(6) =   2
     Q(r) pseudized with  8 coefficients,  rinner =    1.200   1.200   1.200
                                                       1.200   1.200

     PseudoPot. # 4 for H  read from file:
     /bsuhome/zayahcortright/q-e/pseudo/H.pbe-rrkjus_psl.1.0.0.UPF
     MD5 check sum: f52b6d4d1c606e5624b1dc7b2218f220
     Pseudo is Ultrasoft, Zval =  1.0
     Generated using "atomic" code by A. Dal Corso  v.5.1
     Using radial grid of  929 points,  2 beta functions with: 
                l(1) =   0
                l(2) =   0
     Q(r) pseudized with 0 coefficients 


     atomic species   valence    mass     pseudopotential
        Sr            10.00    87.62000     Sr( 1.00)
        O              6.00    15.99900     O ( 1.00)
        Co            17.00    58.93319     Co( 1.00)
        H              1.00     1.00800     H ( 1.00)

     No symmetry found


                                    s                        frac. trans.

      isym =  1     identity                                     

 cryst.   s( 1) = (     1          0          0      )
                  (     0          1          0      )
                  (     0          0          1      )

 cart.    s( 1) = (  1.0000000  0.0000000  0.0000000 )
                  (  0.0000000  1.0000000  0.0000000 )
                  (  0.0000000  0.0000000  1.0000000 )


   Cartesian axes

     site n.     atom                  positions (alat units)
         1           Sr  tau(   1) = (   0.2508693   0.7491307   1.7574407  )
         2           O   tau(   2) = (   0.4985141   0.5014859   1.7715967  )
         3           Sr  tau(   3) = (   0.7482398   0.7454518   1.7648669  )
         4           Sr  tau(   4) = (   0.7441748   0.2558252   1.7667843  )
         5           Sr  tau(   5) = (   0.2508693   0.7491307   1.2696799  )
         6           Sr  tau(   6) = (   0.2508693   0.7491307   0.7632319  )
         7           Co  tau(   7) = (   0.4998914   0.5001086   1.0164559  )
         8           Co  tau(   8) = (   0.4936915   0.5063085   1.5135603  )
         9           O   tau(   9) = (   0.4988895   0.7610401   1.0164559  )
        10           O   tau(  10) = (   0.2389599   0.5011105   1.0164559  )
        11           O   tau(  11) = (   0.0070918   0.7374880   1.0164559  )
        12           O   tau(  12) = (   0.0088340   0.7405089   1.5135603  )
        13           O   tau(  13) = (   0.5066944   0.7415376   1.5135603  )
        14           O   tau(  14) = (   0.2584624   0.4933056   1.5135603  )
        15           O   tau(  15) = (   0.4985141   0.5014859   0.7773880  )
        16           O   tau(  16) = (   0.4985141   0.5014859   1.2555238  )
        17           Sr  tau(  17) = (   0.7482398   0.7454518   0.7706582  )
        18           Sr  tau(  18) = (   0.7482398   0.7454518   1.2622536  )
        19           Sr  tau(  19) = (   0.7441748   0.2558252   0.7725755  )
        20           Sr  tau(  20) = (   0.7441748   0.2558252   1.2603363  )
        21           O   tau(  21) = (   0.7322655   0.0078049   1.5135603  )
        22           O   tau(  22) = (   0.7558175   0.4996027   1.5135603  )
        23           O   tau(  23) = (   0.5003973   0.2441825   1.5135603  )
        24           O   tau(  24) = (   0.7527966   0.4978604   1.0164559  )
        25           O   tau(  25) = (   0.5021396   0.2472034   1.0164559  )
        26           O   tau(  26) = (   0.7517679   0.0000000   1.0164559  )
        27           O   tau(  27) = (   0.0114961   0.4948124   1.7455321  )
        28           O   tau(  28) = (   0.0048226   0.0077944   1.7715967  )
        29           Sr  tau(  29) = (   0.2545482   0.2517602   1.7648669  )
        30           O   tau(  30) = (   0.5048017   0.0015068   1.7786929  )
        31           Co  tau(  31) = (   0.0056869   0.5006215   1.0164559  )
        32           Co  tau(  32) = (   0.0065315   0.4997770   1.5135603  )
        33           Co  tau(  33) = (   0.0061999   0.0064171   1.0164559  )
        34           Co  tau(  34) = (   0.0000000   0.0126169   1.5135603  )
        35           O   tau(  35) = (   0.0114961   0.4948124   1.2815885  )
        36           O   tau(  36) = (   0.0114961   0.4948124   0.7513233  )
        37           O   tau(  37) = (   0.0051979   0.2673486   1.0164559  )
        38           O   tau(  38) = (   0.0130029   0.2478461   1.5135603  )
        39           O   tau(  39) = (   0.0048226   0.0077944   0.7773880  )
        40           O   tau(  40) = (   0.0048226   0.0077944   1.2555238  )
        41           Sr  tau(  41) = (   0.2545482   0.2517602   0.7706582  )
        42           Sr  tau(  42) = (   0.2545482   0.2517602   1.2622536  )
        43           Co  tau(  43) = (   0.4989925   0.0073160   1.5135603  )
        44           Co  tau(  44) = (   0.4998370   0.0064714   1.0164559  )
        45           O   tau(  45) = (   0.5048017   0.0015068   0.7844841  )
        46           O   tau(  46) = (   0.5048017   0.0015068   1.2484277  )
        47           O   tau(  47) = (   0.2621260   0.0059111   1.5135603  )
        48           O   tau(  48) = (   0.2591051   0.0041689   1.0164559  )
        49           H   tau(  49) = (   0.2843291   0.2843291   2.1602013  )

   Crystallographic axes

     site n.     atom                  positions (cryst. coord.)
         1           Sr  tau(   1) = (  0.2508693  0.7491307  0.6943562  )
         2           O   tau(   2) = (  0.4985141  0.5014859  0.6999492  )
         3           Sr  tau(   3) = (  0.7482398  0.7454518  0.6972903  )
         4           Sr  tau(   4) = (  0.7441748  0.2558252  0.6980478  )
         5           Sr  tau(   5) = (  0.2508693  0.7491307  0.5016443  )
         6           Sr  tau(   6) = (  0.2508693  0.7491307  0.3015492  )
         7           Co  tau(   7) = (  0.4998914  0.5001086  0.4015968  )
         8           Co  tau(   8) = (  0.4936915  0.5063085  0.5980003  )
         9           O   tau(   9) = (  0.4988895  0.7610401  0.4015968  )
        10           O   tau(  10) = (  0.2389599  0.5011105  0.4015968  )
        11           O   tau(  11) = (  0.0070918  0.7374880  0.4015968  )
        12           O   tau(  12) = (  0.0088340  0.7405089  0.5980003  )
        13           O   tau(  13) = (  0.5066944  0.7415376  0.5980003  )
        14           O   tau(  14) = (  0.2584624  0.4933056  0.5980003  )
        15           O   tau(  15) = (  0.4985141  0.5014859  0.3071422  )
        16           O   tau(  16) = (  0.4985141  0.5014859  0.4960513  )
        17           Sr  tau(  17) = (  0.7482398  0.7454518  0.3044833  )
        18           Sr  tau(  18) = (  0.7482398  0.7454518  0.4987103  )
        19           Sr  tau(  19) = (  0.7441748  0.2558252  0.3052408  )
        20           Sr  tau(  20) = (  0.7441748  0.2558252  0.4979527  )
        21           O   tau(  21) = (  0.7322655  0.0078049  0.5980003  )
        22           O   tau(  22) = (  0.7558175  0.4996027  0.5980003  )
        23           O   tau(  23) = (  0.5003973  0.2441825  0.5980003  )
        24           O   tau(  24) = (  0.7527966  0.4978604  0.4015968  )
        25           O   tau(  25) = (  0.5021396  0.2472034  0.4015968  )
        26           O   tau(  26) = (  0.7517679  0.0000000  0.4015968  )
        27           O   tau(  27) = (  0.0114961  0.4948124  0.6896512  )
        28           O   tau(  28) = (  0.0048226  0.0077944  0.6999492  )
        29           Sr  tau(  29) = (  0.2545482  0.2517602  0.6972903  )
        30           O   tau(  30) = (  0.5048017  0.0015068  0.7027529  )
        31           Co  tau(  31) = (  0.0056869  0.5006215  0.4015968  )
        32           Co  tau(  32) = (  0.0065315  0.4997770  0.5980003  )
        33           Co  tau(  33) = (  0.0061999  0.0064171  0.4015968  )
        34           Co  tau(  34) = (  0.0000000  0.0126169  0.5980003  )
        35           O   tau(  35) = (  0.0114961  0.4948124  0.5063494  )
        36           O   tau(  36) = (  0.0114961  0.4948124  0.2968442  )
        37           O   tau(  37) = (  0.0051979  0.2673486  0.4015968  )
        38           O   tau(  38) = (  0.0130029  0.2478461  0.5980003  )
        39           O   tau(  39) = (  0.0048226  0.0077944  0.3071422  )
        40           O   tau(  40) = (  0.0048226  0.0077944  0.4960513  )
        41           Sr  tau(  41) = (  0.2545482  0.2517602  0.3044833  )
        42           Sr  tau(  42) = (  0.2545482  0.2517602  0.4987103  )
        43           Co  tau(  43) = (  0.4989925  0.0073160  0.5980003  )
        44           Co  tau(  44) = (  0.4998370  0.0064714  0.4015968  )
        45           O   tau(  45) = (  0.5048017  0.0015068  0.3099459  )
        46           O   tau(  46) = (  0.5048017  0.0015068  0.4932477  )
        47           O   tau(  47) = (  0.2621260  0.0059111  0.5980003  )
        48           O   tau(  48) = (  0.2591051  0.0041689  0.4015968  )
        49           H   tau(  49) = (  0.2843291  0.2843291  0.8534850  )

     number of k points=    10  Gaussian smearing, width (Ry)=  0.0700
                       cart. coord. in units 2pi/alat
        k(    1) = (   0.0000000   0.0000000   0.0000000), wk =   0.1250000
        k(    2) = (   0.0000000   0.2500000   0.0000000), wk =   0.2500000
        k(    3) = (   0.0000000  -0.5000000   0.0000000), wk =   0.1250000
        k(    4) = (   0.2500000   0.2500000   0.0000000), wk =   0.2500000
        k(    5) = (   0.2500000  -0.5000000   0.0000000), wk =   0.2500000
        k(    6) = (  -0.5000000  -0.5000000   0.0000000), wk =   0.1250000
        k(    7) = (   0.2500000   0.0000000   0.0000000), wk =   0.2500000
        k(    8) = (  -0.5000000   0.0000000   0.0000000), wk =   0.1250000
        k(    9) = (  -0.2500000   0.2500000   0.0000000), wk =   0.2500000
        k(   10) = (  -0.5000000   0.2500000   0.0000000), wk =   0.2500000

                       cryst. coord.
        k(    1) = (   0.0000000   0.0000000   0.0000000), wk =   0.1250000
        k(    2) = (   0.0000000   0.2500000   0.0000000), wk =   0.2500000
        k(    3) = (   0.0000000  -0.5000000   0.0000000), wk =   0.1250000
        k(    4) = (   0.2500000   0.2500000   0.0000000), wk =   0.2500000
        k(    5) = (   0.2500000  -0.5000000   0.0000000), wk =   0.2500000
        k(    6) = (  -0.5000000  -0.5000000   0.0000000), wk =   0.1250000
        k(    7) = (   0.2500000   0.0000000   0.0000000), wk =   0.2500000
        k(    8) = (  -0.5000000   0.0000000   0.0000000), wk =   0.1250000
        k(    9) = (  -0.2500000   0.2500000   0.0000000), wk =   0.2500000
        k(   10) = (  -0.5000000   0.2500000   0.0000000), wk =   0.2500000

     Dense  grid:  1474595 G-vectors     FFT dimensions: ( 108, 108, 270)

     Smooth grid:   521381 G-vectors     FFT dimensions: (  75,  75, 192)

     Dynamical RAM for                 wfc:      10.61 MB

     Dynamical RAM for     wfc (w. buffer):      63.63 MB

     Dynamical RAM for           str. fact:       3.75 MB

     Dynamical RAM for           local pot:       0.00 MB

     Dynamical RAM for          nlocal pot:      24.28 MB

     Dynamical RAM for                qrad:       7.03 MB

     Dynamical RAM for          rho,v,vnew:       6.02 MB

     Dynamical RAM for               rhoin:       2.01 MB

     Dynamical RAM for            rho*nmix:      15.00 MB

     Dynamical RAM for           G-vectors:       3.68 MB

     Dynamical RAM for          h,s,v(r/c):       1.32 MB

     Dynamical RAM for          <psi|beta>:       2.29 MB

     Dynamical RAM for                 psi:      21.21 MB

     Dynamical RAM for                hpsi:      21.21 MB

     Dynamical RAM for                spsi:      21.21 MB

     Dynamical RAM for      wfcinit/wfcrot:      34.09 MB

     Dynamical RAM for           addusdens:     100.79 MB

     Estimated static dynamical RAM per process >     120.42 MB

     Estimated max dynamical RAM per process >     236.21 MB

     Estimated total dynamical RAM >      10.72 GB

     Check: negative core charge=   -0.000004

     Initial potential from superposition of free atoms

     starting charge     416.5961, renormalised to     425.0000

     negative rho (up, down):  7.826E-01 0.000E+00
     Starting wfcs are  373 randomized atomic wfcs
     Checking if some PAW data can be deallocated... 
       PAW data deallocated on   20 nodes for type:  2

     total cpu time spent up to now is        8.3 secs

     Self-consistent Calculation

     iteration #  1     ecut=    60.00 Ry     beta= 0.15
     Davidson diagonalization with overlap

---- Real-time Memory Report at c_bands before calling an iterative solver
             0 MiB given to the printing process from OS
             0 MiB allocation reported by mallinfo(arena+hblkhd)
        170491 MiB available memory on the node where the printing process lives
------------------
     ethr =  1.00E-02,  avg # of iterations =  2.0

     negative rho (up, down):  7.717E-01 0.000E+00

     total cpu time spent up to now is       23.1 secs

     total energy              =   -4404.73858144 Ry
     estimated scf accuracy    <      42.20455253 Ry

     iteration #  2     ecut=    60.00 Ry     beta= 0.15
     Davidson diagonalization with overlap

---- Real-time Memory Report at c_bands before calling an iterative solver
             0 MiB given to the printing process from OS
             0 MiB allocation reported by mallinfo(arena+hblkhd)
        170737 MiB available memory on the node where the printing process lives
------------------
     ethr =  9.93E-03,  avg # of iterations =  1.0

     negative rho (up, down):  7.532E-01 0.000E+00

     total cpu time spent up to now is       35.8 secs

     total energy              =   -4400.03324187 Ry
     estimated scf accuracy    <      26.62910033 Ry

     iteration #  3     ecut=    60.00 Ry     beta= 0.15
     Davidson diagonalization with overlap

---- Real-time Memory Report at c_bands before calling an iterative solver
             0 MiB given to the printing process from OS
             0 MiB allocation reported by mallinfo(arena+hblkhd)
        169977 MiB available memory on the node where the printing process lives
------------------
     ethr =  6.27E-03,  avg # of iterations =  2.0

     negative rho (up, down):  7.544E-01 0.000E+00

     total cpu time spent up to now is       49.7 secs

     total energy              =   -4402.37604867 Ry
     estimated scf accuracy    <      49.03641156 Ry

     iteration #  4     ecut=    60.00 Ry     beta= 0.15
     Davidson diagonalization with overlap

---- Real-time Memory Report at c_bands before calling an iterative solver
             0 MiB given to the printing process from OS
             0 MiB allocation reported by mallinfo(arena+hblkhd)
        169845 MiB available memory on the node where the printing process lives
------------------
     ethr =  6.27E-03,  avg # of iterations =  1.0

     negative rho (up, down):  7.411E-01 0.000E+00

     total cpu time spent up to now is       62.2 secs

     total energy              =   -4401.62980167 Ry
     estimated scf accuracy    <      29.18802823 Ry

     iteration #  5     ecut=    60.00 Ry     beta= 0.15
     Davidson diagonalization with overlap

---- Real-time Memory Report at c_bands before calling an iterative solver
             0 MiB given to the printing process from OS
             0 MiB allocation reported by mallinfo(arena+hblkhd)
        169828 MiB available memory on the node where the printing process lives
------------------
     ethr =  6.27E-03,  avg # of iterations =  1.0

     negative rho (up, down):  7.475E-01 0.000E+00

     total cpu time spent up to now is       74.4 secs

     total energy              =   -4399.68964788 Ry
     estimated scf accuracy    <      43.80418880 Ry

     iteration #  6     ecut=    60.00 Ry     beta= 0.15
     Davidson diagonalization with overlap

---- Real-time Memory Report at c_bands before calling an iterative solver
             0 MiB given to the printing process from OS
             0 MiB allocation reported by mallinfo(arena+hblkhd)
        169804 MiB available memory on the node where the printing process lives
------------------
     ethr =  6.27E-03,  avg # of iterations =  1.0

     negative rho (up, down):  7.424E-01 0.000E+00

     total cpu time spent up to now is       86.5 secs

     total energy              =   -4400.65455075 Ry
     estimated scf accuracy    <      12.55324005 Ry

     iteration #  7     ecut=    60.00 Ry     beta= 0.15
     Davidson diagonalization with overlap

---- Real-time Memory Report at c_bands before calling an iterative solver
             0 MiB given to the printing process from OS
             0 MiB allocation reported by mallinfo(arena+hblkhd)
        169786 MiB available memory on the node where the printing process lives
------------------
     ethr =  2.95E-03,  avg # of iterations =  1.1

     negative rho (up, down):  7.444E-01 0.000E+00

     total cpu time spent up to now is       98.7 secs

     total energy              =   -4400.83637446 Ry
     estimated scf accuracy    <       3.92819390 Ry

     iteration #  8     ecut=    60.00 Ry     beta= 0.15
     Davidson diagonalization with overlap

---- Real-time Memory Report at c_bands before calling an iterative solver
             0 MiB given to the printing process from OS
             0 MiB allocation reported by mallinfo(arena+hblkhd)
        169771 MiB available memory on the node where the printing process lives
------------------
     ethr =  9.24E-04,  avg # of iterations =  1.5

     negative rho (up, down):  7.538E-01 0.000E+00

     total cpu time spent up to now is      111.3 secs

     total energy              =   -4400.29434598 Ry
     estimated scf accuracy    <       3.12421036 Ry

     iteration #  9     ecut=    60.00 Ry     beta= 0.15
     Davidson diagonalization with overlap

---- Real-time Memory Report at c_bands before calling an iterative solver
             0 MiB given to the printing process from OS
             0 MiB allocation reported by mallinfo(arena+hblkhd)
        169752 MiB available memory on the node where the printing process lives
------------------
     ethr =  7.35E-04,  avg # of iterations =  5.6

     negative rho (up, down):  7.749E-01 0.000E+00

     total cpu time spent up to now is      127.4 secs

     total energy              =   -4399.68865044 Ry
     estimated scf accuracy    <      43.60312026 Ry

     iteration # 10     ecut=    60.00 Ry     beta= 0.15
     Davidson diagonalization with overlap

---- Real-time Memory Report at c_bands before calling an iterative solver
             0 MiB given to the printing process from OS
             0 MiB allocation reported by mallinfo(arena+hblkhd)
        169581 MiB available memory on the node where the printing process lives
------------------
     ethr =  7.35E-04,  avg # of iterations =  9.8

     negative rho (up, down):  7.768E-01 0.000E+00

     total cpu time spent up to now is      145.6 secs

     total energy              =   -4399.92149467 Ry
     estimated scf accuracy    <      11.54548062 Ry

     iteration # 11     ecut=    60.00 Ry     beta= 0.15
     Davidson diagonalization with overlap

---- Real-time Memory Report at c_bands before calling an iterative solver
             0 MiB given to the printing process from OS
             0 MiB allocation reported by mallinfo(arena+hblkhd)
        169275 MiB available memory on the node where the printing process lives
------------------
     ethr =  7.35E-04,  avg # of iterations =  1.1

     negative rho (up, down):  7.807E-01 0.000E+00

     total cpu time spent up to now is      157.7 secs

     total energy              =   -4400.12235322 Ry
     estimated scf accuracy    <       1.89313594 Ry

     iteration # 12     ecut=    60.00 Ry     beta= 0.15
     Davidson diagonalization with overlap

---- Real-time Memory Report at c_bands before calling an iterative solver
             0 MiB given to the printing process from OS
             0 MiB allocation reported by mallinfo(arena+hblkhd)
        169298 MiB available memory on the node where the printing process lives
------------------
     ethr =  4.45E-04,  avg # of iterations =  1.0

     negative rho (up, down):  7.874E-01 0.000E+00

     total cpu time spent up to now is      169.7 secs

     total energy              =   -4400.11849041 Ry
     estimated scf accuracy    <       0.79850965 Ry

     iteration # 13     ecut=    60.00 Ry     beta= 0.15
     Davidson diagonalization with overlap

---- Real-time Memory Report at c_bands before calling an iterative solver
             0 MiB given to the printing process from OS
             0 MiB allocation reported by mallinfo(arena+hblkhd)
        169305 MiB available memory on the node where the printing process lives
------------------
     ethr =  1.88E-04,  avg # of iterations =  4.1

     negative rho (up, down):  7.980E-01 0.000E+00

     total cpu time spent up to now is      183.9 secs

     total energy              =   -4400.12009264 Ry
     estimated scf accuracy    <       1.44130114 Ry

     iteration # 14     ecut=    60.00 Ry     beta= 0.15
     Davidson diagonalization with overlap

---- Real-time Memory Report at c_bands before calling an iterative solver
             0 MiB given to the printing process from OS
             0 MiB allocation reported by mallinfo(arena+hblkhd)
        169303 MiB available memory on the node where the printing process lives
------------------
     ethr =  1.88E-04,  avg # of iterations =  5.4

     negative rho (up, down):  8.030E-01 0.000E+00

     total cpu time spent up to now is      199.8 secs

     total energy              =   -4400.02267868 Ry
     estimated scf accuracy    <       1.98046115 Ry

     iteration # 15     ecut=    60.00 Ry     beta= 0.15
     Davidson diagonalization with overlap

---- Real-time Memory Report at c_bands before calling an iterative solver
             0 MiB given to the printing process from OS
             0 MiB allocation reported by mallinfo(arena+hblkhd)
        169284 MiB available memory on the node where the printing process lives
------------------
     ethr =  1.88E-04,  avg # of iterations =  4.5

     negative rho (up, down):  8.082E-01 0.000E+00

     total cpu time spent up to now is      214.7 secs

     total energy              =   -4400.05455460 Ry
     estimated scf accuracy    <       0.41273622 Ry

     iteration # 16     ecut=    60.00 Ry     beta= 0.15
     Davidson diagonalization with overlap

---- Real-time Memory Report at c_bands before calling an iterative solver
             0 MiB given to the printing process from OS
             0 MiB allocation reported by mallinfo(arena+hblkhd)
        169292 MiB available memory on the node where the printing process lives
------------------
     ethr =  9.71E-05,  avg # of iterations =  9.5

     negative rho (up, down):  8.111E-01 0.000E+00

     total cpu time spent up to now is      231.5 secs

     total energy              =   -4400.04046537 Ry
     estimated scf accuracy    <       0.32397348 Ry

     iteration # 17     ecut=    60.00 Ry     beta= 0.15
     Davidson diagonalization with overlap

---- Real-time Memory Report at c_bands before calling an iterative solver
             0 MiB given to the printing process from OS
             0 MiB allocation reported by mallinfo(arena+hblkhd)
        169254 MiB available memory on the node where the printing process lives
------------------
     ethr =  7.62E-05,  avg # of iterations =  5.0

     negative rho (up, down):  8.158E-01 0.000E+00

     total cpu time spent up to now is      246.4 secs

     total energy              =   -4399.96492076 Ry
     estimated scf accuracy    <       0.27946716 Ry

     iteration # 18     ecut=    60.00 Ry     beta= 0.15
     Davidson diagonalization with overlap

---- Real-time Memory Report at c_bands before calling an iterative solver
             0 MiB given to the printing process from OS
             0 MiB allocation reported by mallinfo(arena+hblkhd)
        169262 MiB available memory on the node where the printing process lives
------------------
     c_bands:  1 eigenvalues not converged
     ethr =  6.58E-05,  avg # of iterations = 13.1

     negative rho (up, down):  8.270E-01 0.000E+00

     total cpu time spent up to now is      264.9 secs

     total energy              =   -4399.93996665 Ry
     estimated scf accuracy    <       0.73938423 Ry

     iteration # 19     ecut=    60.00 Ry     beta= 0.15
     Davidson diagonalization with overlap

---- Real-time Memory Report at c_bands before calling an iterative solver
             0 MiB given to the printing process from OS
             0 MiB allocation reported by mallinfo(arena+hblkhd)
        169218 MiB available memory on the node where the printing process lives
------------------
     ethr =  6.58E-05,  avg # of iterations =  5.2

     negative rho (up, down):  8.261E-01 0.000E+00

     total cpu time spent up to now is      280.0 secs

     total energy              =   -4399.95272182 Ry
     estimated scf accuracy    <       0.10635743 Ry

     iteration # 20     ecut=    60.00 Ry     beta= 0.15
     Davidson diagonalization with overlap

---- Real-time Memory Report at c_bands before calling an iterative solver
             0 MiB given to the printing process from OS
             0 MiB allocation reported by mallinfo(arena+hblkhd)
        169237 MiB available memory on the node where the printing process lives
------------------
     ethr =  2.50E-05,  avg # of iterations =  5.7

     negative rho (up, down):  8.241E-01 0.000E+00

     total cpu time spent up to now is      296.0 secs

     total energy              =   -4399.94585083 Ry
     estimated scf accuracy    <       0.09062731 Ry

     iteration # 21     ecut=    60.00 Ry     beta= 0.15
     Davidson diagonalization with overlap

---- Real-time Memory Report at c_bands before calling an iterative solver
             0 MiB given to the printing process from OS
             0 MiB allocation reported by mallinfo(arena+hblkhd)
        169219 MiB available memory on the node where the printing process lives
------------------
     ethr =  2.13E-05,  avg # of iterations =  6.3

     negative rho (up, down):  8.123E-01 0.000E+00

     total cpu time spent up to now is      311.8 secs

     total energy              =   -4399.92697071 Ry
     estimated scf accuracy    <       0.07411492 Ry

     iteration # 22     ecut=    60.00 Ry     beta= 0.15
     Davidson diagonalization with overlap

---- Real-time Memory Report at c_bands before calling an iterative solver
             0 MiB given to the printing process from OS
             0 MiB allocation reported by mallinfo(arena+hblkhd)
        169111 MiB available memory on the node where the printing process lives
------------------
     ethr =  1.74E-05,  avg # of iterations = 11.2

     negative rho (up, down):  8.152E-01 0.000E+00

     total cpu time spent up to now is      330.7 secs

     total energy              =   -4399.92731180 Ry
     estimated scf accuracy    <       0.02846179 Ry

     iteration # 23     ecut=    60.00 Ry     beta= 0.15
     Davidson diagonalization with overlap

---- Real-time Memory Report at c_bands before calling an iterative solver
             0 MiB given to the printing process from OS
             0 MiB allocation reported by mallinfo(arena+hblkhd)
        168898 MiB available memory on the node where the printing process lives
------------------
     ethr =  6.70E-06,  avg # of iterations = 11.8

     negative rho (up, down):  8.107E-01 0.000E+00

     total cpu time spent up to now is      349.2 secs

     total energy              =   -4399.92644932 Ry
     estimated scf accuracy    <       0.02038134 Ry

     iteration # 24     ecut=    60.00 Ry     beta= 0.15
     Davidson diagonalization with overlap

---- Real-time Memory Report at c_bands before calling an iterative solver
             0 MiB given to the printing process from OS
             0 MiB allocation reported by mallinfo(arena+hblkhd)
        168882 MiB available memory on the node where the printing process lives
------------------
     ethr =  4.80E-06,  avg # of iterations =  3.3

     negative rho (up, down):  7.975E-01 0.000E+00

     total cpu time spent up to now is      363.4 secs

     total energy              =   -4399.92524397 Ry
     estimated scf accuracy    <       0.01427427 Ry

     iteration # 25     ecut=    60.00 Ry     beta= 0.15
     Davidson diagonalization with overlap

---- Real-time Memory Report at c_bands before calling an iterative solver
             0 MiB given to the printing process from OS
             0 MiB allocation reported by mallinfo(arena+hblkhd)
        168903 MiB available memory on the node where the printing process lives
------------------
     ethr =  3.36E-06,  avg # of iterations =  2.8

     negative rho (up, down):  7.931E-01 0.000E+00

     total cpu time spent up to now is      377.3 secs

     total energy              =   -4399.92474460 Ry
     estimated scf accuracy    <       0.01000077 Ry

     iteration # 26     ecut=    60.00 Ry     beta= 0.15
     Davidson diagonalization with overlap

---- Real-time Memory Report at c_bands before calling an iterative solver
             0 MiB given to the printing process from OS
             0 MiB allocation reported by mallinfo(arena+hblkhd)
        168913 MiB available memory on the node where the printing process lives
------------------
     ethr =  2.35E-06,  avg # of iterations =  6.5

     negative rho (up, down):  7.889E-01 0.000E+00

     total cpu time spent up to now is      393.0 secs

     total energy              =   -4399.92424189 Ry
     estimated scf accuracy    <       0.00640512 Ry

     iteration # 27     ecut=    60.00 Ry     beta= 0.15
     Davidson diagonalization with overlap

---- Real-time Memory Report at c_bands before calling an iterative solver
             0 MiB given to the printing process from OS
             0 MiB allocation reported by mallinfo(arena+hblkhd)
        168878 MiB available memory on the node where the printing process lives
------------------
     c_bands:  1 eigenvalues not converged
     ethr =  1.51E-06,  avg # of iterations =  9.6

     negative rho (up, down):  7.907E-01 0.000E+00

     total cpu time spent up to now is      409.8 secs

     total energy              =   -4399.92424828 Ry
     estimated scf accuracy    <       0.00365241 Ry

     iteration # 28     ecut=    60.00 Ry     beta= 0.15
     Davidson diagonalization with overlap

---- Real-time Memory Report at c_bands before calling an iterative solver
             0 MiB given to the printing process from OS
             0 MiB allocation reported by mallinfo(arena+hblkhd)
        168924 MiB available memory on the node where the printing process lives
------------------
     ethr =  8.59E-07,  avg # of iterations =  4.4

     negative rho (up, down):  7.920E-01 0.000E+00

     total cpu time spent up to now is      424.7 secs

     total energy              =   -4399.92440445 Ry
     estimated scf accuracy    <       0.00227057 Ry

     iteration # 29     ecut=    60.00 Ry     beta= 0.15
     Davidson diagonalization with overlap

---- Real-time Memory Report at c_bands before calling an iterative solver
             0 MiB given to the printing process from OS
             0 MiB allocation reported by mallinfo(arena+hblkhd)
        168885 MiB available memory on the node where the printing process lives
------------------
     ethr =  5.34E-07,  avg # of iterations =  2.0

     negative rho (up, down):  7.921E-01 0.000E+00

     total cpu time spent up to now is      438.5 secs

     total energy              =   -4399.92435043 Ry
     estimated scf accuracy    <       0.00187355 Ry

     iteration # 30     ecut=    60.00 Ry     beta= 0.15
     Davidson diagonalization with overlap

---- Real-time Memory Report at c_bands before calling an iterative solver
             0 MiB given to the printing process from OS
             0 MiB allocation reported by mallinfo(arena+hblkhd)
        168912 MiB available memory on the node where the printing process lives
------------------
     ethr =  4.41E-07,  avg # of iterations =  2.0

     negative rho (up, down):  7.904E-01 0.000E+00

     total cpu time spent up to now is      452.0 secs

     total energy              =   -4399.92411982 Ry
     estimated scf accuracy    <       0.00147797 Ry

     iteration # 31     ecut=    60.00 Ry     beta= 0.15
     Davidson diagonalization with overlap

---- Real-time Memory Report at c_bands before calling an iterative solver
             0 MiB given to the printing process from OS
             0 MiB allocation reported by mallinfo(arena+hblkhd)
        168914 MiB available memory on the node where the printing process lives
------------------
     c_bands:  1 eigenvalues not converged
     ethr =  3.48E-07,  avg # of iterations =  8.7

     negative rho (up, down):  7.921E-01 0.000E+00

     total cpu time spent up to now is      467.9 secs

     total energy              =   -4399.92412594 Ry
     estimated scf accuracy    <       0.00058087 Ry

     iteration # 32     ecut=    60.00 Ry     beta= 0.15
     Davidson diagonalization with overlap

---- Real-time Memory Report at c_bands before calling an iterative solver
             0 MiB given to the printing process from OS
             0 MiB allocation reported by mallinfo(arena+hblkhd)
        168927 MiB available memory on the node where the printing process lives
------------------
     c_bands:  1 eigenvalues not converged
     c_bands:  1 eigenvalues not converged
     ethr =  1.37E-07,  avg # of iterations = 10.8

     negative rho (up, down):  7.927E-01 0.000E+00

     total cpu time spent up to now is      487.9 secs

     total energy              =   -4399.92418754 Ry
     estimated scf accuracy    <       0.00007965 Ry

     iteration # 33     ecut=    60.00 Ry     beta= 0.15
     Davidson diagonalization with overlap

---- Real-time Memory Report at c_bands before calling an iterative solver
             0 MiB given to the printing process from OS
             0 MiB allocation reported by mallinfo(arena+hblkhd)
        168880 MiB available memory on the node where the printing process lives
------------------
     ethr =  1.87E-08,  avg # of iterations =  2.3

     negative rho (up, down):  7.924E-01 0.000E+00

     total cpu time spent up to now is      502.6 secs

     total energy              =   -4399.92418535 Ry
     estimated scf accuracy    <       0.00003885 Ry

     iteration # 34     ecut=    60.00 Ry     beta= 0.15
     Davidson diagonalization with overlap

---- Real-time Memory Report at c_bands before calling an iterative solver
             0 MiB given to the printing process from OS
             0 MiB allocation reported by mallinfo(arena+hblkhd)
        168826 MiB available memory on the node where the printing process lives
------------------
     ethr =  9.14E-09,  avg # of iterations =  2.9

     negative rho (up, down):  7.924E-01 0.000E+00

     total cpu time spent up to now is      516.6 secs

     total energy              =   -4399.92418429 Ry
     estimated scf accuracy    <       0.00002268 Ry

     iteration # 35     ecut=    60.00 Ry     beta= 0.15
     Davidson diagonalization with overlap

---- Real-time Memory Report at c_bands before calling an iterative solver
             0 MiB given to the printing process from OS
             0 MiB allocation reported by mallinfo(arena+hblkhd)
        168864 MiB available memory on the node where the printing process lives
------------------
     ethr =  5.34E-09,  avg # of iterations =  2.3

     negative rho (up, down):  7.924E-01 0.000E+00

     total cpu time spent up to now is      530.2 secs

     total energy              =   -4399.92418440 Ry
     estimated scf accuracy    <       0.00001992 Ry

     iteration # 36     ecut=    60.00 Ry     beta= 0.15
     Davidson diagonalization with overlap

---- Real-time Memory Report at c_bands before calling an iterative solver
             0 MiB given to the printing process from OS
             0 MiB allocation reported by mallinfo(arena+hblkhd)
        168921 MiB available memory on the node where the printing process lives
------------------
     ethr =  4.69E-09,  avg # of iterations =  2.2

     negative rho (up, down):  7.923E-01 0.000E+00

     total cpu time spent up to now is      543.7 secs

     total energy              =   -4399.92418553 Ry
     estimated scf accuracy    <       0.00001481 Ry

     iteration # 37     ecut=    60.00 Ry     beta= 0.15
     Davidson diagonalization with overlap

---- Real-time Memory Report at c_bands before calling an iterative solver
             0 MiB given to the printing process from OS
             0 MiB allocation reported by mallinfo(arena+hblkhd)
        168946 MiB available memory on the node where the printing process lives
------------------
     ethr =  3.48E-09,  avg # of iterations =  2.3

     negative rho (up, down):  7.923E-01 0.000E+00

     total cpu time spent up to now is      557.6 secs

     total energy              =   -4399.92418617 Ry
     estimated scf accuracy    <       0.00000904 Ry

     iteration # 38     ecut=    60.00 Ry     beta= 0.15
     Davidson diagonalization with overlap

---- Real-time Memory Report at c_bands before calling an iterative solver
             0 MiB given to the printing process from OS
             0 MiB allocation reported by mallinfo(arena+hblkhd)
        168949 MiB available memory on the node where the printing process lives
------------------
     ethr =  2.13E-09,  avg # of iterations =  2.7

     negative rho (up, down):  7.923E-01 0.000E+00

     total cpu time spent up to now is      571.3 secs

     total energy              =   -4399.92418889 Ry
     estimated scf accuracy    <       0.00000578 Ry

     iteration # 39     ecut=    60.00 Ry     beta= 0.15
     Davidson diagonalization with overlap

---- Real-time Memory Report at c_bands before calling an iterative solver
             0 MiB given to the printing process from OS
             0 MiB allocation reported by mallinfo(arena+hblkhd)
        168954 MiB available memory on the node where the printing process lives
------------------
     ethr =  1.36E-09,  avg # of iterations =  2.5

     negative rho (up, down):  7.924E-01 0.000E+00

     total cpu time spent up to now is      585.1 secs

     total energy              =   -4399.92419120 Ry
     estimated scf accuracy    <       0.00000320 Ry

     iteration # 40     ecut=    60.00 Ry     beta= 0.15
     Davidson diagonalization with overlap

---- Real-time Memory Report at c_bands before calling an iterative solver
             0 MiB given to the printing process from OS
             0 MiB allocation reported by mallinfo(arena+hblkhd)
        168960 MiB available memory on the node where the printing process lives
------------------
     ethr =  7.52E-10,  avg # of iterations =  2.9

     negative rho (up, down):  7.924E-01 0.000E+00

     total cpu time spent up to now is      599.0 secs

     total energy              =   -4399.92419162 Ry
     estimated scf accuracy    <       0.00000275 Ry

     iteration # 41     ecut=    60.00 Ry     beta= 0.15
     Davidson diagonalization with overlap

---- Real-time Memory Report at c_bands before calling an iterative solver
             0 MiB given to the printing process from OS
             0 MiB allocation reported by mallinfo(arena+hblkhd)
        168958 MiB available memory on the node where the printing process lives
------------------
     ethr =  6.48E-10,  avg # of iterations =  3.6

     negative rho (up, down):  7.925E-01 0.000E+00

     total cpu time spent up to now is      613.2 secs

     total energy              =   -4399.92419175 Ry
     estimated scf accuracy    <       0.00000131 Ry

     iteration # 42     ecut=    60.00 Ry     beta= 0.15
     Davidson diagonalization with overlap

---- Real-time Memory Report at c_bands before calling an iterative solver
             0 MiB given to the printing process from OS
             0 MiB allocation reported by mallinfo(arena+hblkhd)
        168954 MiB available memory on the node where the printing process lives
------------------
     ethr =  3.07E-10,  avg # of iterations =  2.3

     negative rho (up, down):  7.925E-01 0.000E+00

     total cpu time spent up to now is      626.9 secs

     total energy              =   -4399.92419178 Ry
     estimated scf accuracy    <       0.00000094 Ry

     iteration # 43     ecut=    60.00 Ry     beta= 0.15
     Davidson diagonalization with overlap

---- Real-time Memory Report at c_bands before calling an iterative solver
             0 MiB given to the printing process from OS
             0 MiB allocation reported by mallinfo(arena+hblkhd)
        168965 MiB available memory on the node where the printing process lives
------------------
     ethr =  2.21E-10,  avg # of iterations =  2.1

     negative rho (up, down):  7.925E-01 0.000E+00

     total cpu time spent up to now is      640.8 secs

     total energy              =   -4399.92419181 Ry
     estimated scf accuracy    <       0.00000032 Ry

     iteration # 44     ecut=    60.00 Ry     beta= 0.15
     Davidson diagonalization with overlap

---- Real-time Memory Report at c_bands before calling an iterative solver
             0 MiB given to the printing process from OS
             0 MiB allocation reported by mallinfo(arena+hblkhd)
        168963 MiB available memory on the node where the printing process lives
------------------
     ethr =  7.49E-11,  avg # of iterations =  2.2

     negative rho (up, down):  7.925E-01 0.000E+00

     total cpu time spent up to now is      654.6 secs

     total energy              =   -4399.92419180 Ry
     estimated scf accuracy    <       0.00000024 Ry

     iteration # 45     ecut=    60.00 Ry     beta= 0.15
     Davidson diagonalization with overlap

---- Real-time Memory Report at c_bands before calling an iterative solver
             0 MiB given to the printing process from OS
             0 MiB allocation reported by mallinfo(arena+hblkhd)
        168961 MiB available memory on the node where the printing process lives
------------------
     ethr =  5.68E-11,  avg # of iterations =  2.2

     negative rho (up, down):  7.925E-01 0.000E+00

     total cpu time spent up to now is      668.4 secs

     total energy              =   -4399.92419184 Ry
     estimated scf accuracy    <       0.00000014 Ry

     iteration # 46     ecut=    60.00 Ry     beta= 0.15
     Davidson diagonalization with overlap

---- Real-time Memory Report at c_bands before calling an iterative solver
             0 MiB given to the printing process from OS
             0 MiB allocation reported by mallinfo(arena+hblkhd)
        168967 MiB available memory on the node where the printing process lives
------------------
     ethr =  3.22E-11,  avg # of iterations =  2.2

     negative rho (up, down):  7.925E-01 0.000E+00

     total cpu time spent up to now is      682.0 secs

     total energy              =   -4399.92419184 Ry
     estimated scf accuracy    <       0.00000006 Ry

     iteration # 47     ecut=    60.00 Ry     beta= 0.15
     Davidson diagonalization with overlap

---- Real-time Memory Report at c_bands before calling an iterative solver
             0 MiB given to the printing process from OS
             0 MiB allocation reported by mallinfo(arena+hblkhd)
        168984 MiB available memory on the node where the printing process lives
------------------
     ethr =  1.51E-11,  avg # of iterations =  2.1

     negative rho (up, down):  7.925E-01 0.000E+00

     total cpu time spent up to now is      695.5 secs

     total energy              =   -4399.92419188 Ry
     estimated scf accuracy    <       0.00000003 Ry

     iteration # 48     ecut=    60.00 Ry     beta= 0.15
     Davidson diagonalization with overlap

---- Real-time Memory Report at c_bands before calling an iterative solver
             0 MiB given to the printing process from OS
             0 MiB allocation reported by mallinfo(arena+hblkhd)
        168996 MiB available memory on the node where the printing process lives
------------------
     ethr =  8.14E-12,  avg # of iterations =  2.7

     negative rho (up, down):  7.925E-01 0.000E+00

     total cpu time spent up to now is      709.3 secs

     total energy              =   -4399.92419188 Ry
     estimated scf accuracy    <       0.00000002 Ry

     iteration # 49     ecut=    60.00 Ry     beta= 0.15
     Davidson diagonalization with overlap

---- Real-time Memory Report at c_bands before calling an iterative solver
             0 MiB given to the printing process from OS
             0 MiB allocation reported by mallinfo(arena+hblkhd)
        168996 MiB available memory on the node where the printing process lives
------------------
     ethr =  4.51E-12,  avg # of iterations =  1.5

     negative rho (up, down):  7.925E-01 0.000E+00

     total cpu time spent up to now is      722.0 secs

     total energy              =   -4399.92419190 Ry
     estimated scf accuracy    <       0.00000001 Ry

     iteration # 50     ecut=    60.00 Ry     beta= 0.15
     Davidson diagonalization with overlap

---- Real-time Memory Report at c_bands before calling an iterative solver
             0 MiB given to the printing process from OS
             0 MiB allocation reported by mallinfo(arena+hblkhd)
        168996 MiB available memory on the node where the printing process lives
------------------
     ethr =  2.69E-12,  avg # of iterations =  2.8

     negative rho (up, down):  7.924E-01 0.000E+00

     total cpu time spent up to now is      735.4 secs

     End of self-consistent calculation

          k = 0.0000 0.0000 0.0000 ( 65197 PWs)   bands (ev):

   -92.7399 -92.6872 -92.5940 -92.5471 -92.4888 -92.4466 -92.4289 -92.3075
   -56.0934 -56.0737 -55.9513 -55.9406 -55.9339 -55.9274 -55.8910 -55.8632
   -55.8474 -55.8462 -55.8381 -55.7964 -55.7785 -55.7397 -55.7206 -55.6885
   -55.6825 -55.6346 -55.6344 -55.6317 -55.6233 -55.5821 -55.5593 -55.4734
   -31.3159 -31.2960 -31.1968 -31.1543 -31.0666 -31.0615 -30.9526 -30.4811
   -29.8885 -29.8435 -29.8179 -29.7089 -15.1197 -15.0728 -14.9954 -14.8647
   -14.6717 -14.5474 -14.2592 -14.2373 -14.2095 -14.1655 -14.1167 -14.1032
   -14.0983 -14.0766 -14.0626 -14.0299 -13.9706 -13.8187 -13.6387 -13.6067
   -13.5759 -13.5446 -13.5274 -13.4734 -13.4399 -13.3599 -13.2886 -13.1945
   -13.1785 -13.1483 -13.1353 -13.1132 -13.0952 -13.0625 -13.0442 -13.0275
   -13.0015 -12.9822 -12.9734 -12.9592 -12.9390 -12.9275 -12.8754 -12.8515
   -12.8348 -12.5588 -12.5536 -12.4196 -12.3800 -12.2342 -12.0057 -11.9369
   -11.9000 -11.8272 -11.8157 -11.7913 -11.7736 -11.7109 -11.6936 -11.6593
   -11.6311 -11.5167 -11.4384 -11.4348  -2.9803  -2.7480  -2.5186  -2.3713
    -2.3084  -2.1663  -1.8591  -1.8448  -1.8256  -1.7407  -1.7212  -1.6535
    -1.6365  -1.5961  -1.5526  -1.3698  -1.1461  -1.1156  -0.9698  -0.9553
    -0.9086  -0.8899  -0.8455  -0.8290  -0.7729  -0.7462  -0.6722  -0.6607
    -0.5859  -0.4541  -0.4414  -0.4121  -0.3318  -0.3081  -0.3002  -0.2395
    -0.1671  -0.1202  -0.0707  -0.0452   0.0214   0.0898   0.1417   0.1629
     0.1744   0.4329   0.4462   0.6180   0.6867   0.7518   0.7968   0.8844
     0.8974   0.9143   0.9824   1.0107   1.0441   1.1032   1.2346   1.2924
     1.3133   1.3354   1.3465   1.4094   1.4825   1.5896   1.6009   1.6633
     1.6771   1.7196   1.7364   1.7463   1.8025   1.8596   1.8664   1.9024
     1.9407   1.9864   2.1192   2.2058   2.2465   2.2624   2.4127   2.4268
     2.4732   2.4753   2.5827   2.6186   2.6437   2.6633   2.6786   2.7337
     2.7725   2.8689   2.9004   2.9127   2.9192   2.9870   2.9900   3.0140
     3.0225   3.0309   3.0412   3.0510   3.0632   3.0692   3.0820   3.0905
     3.0979   3.1183   3.1399   3.1440   3.1562   3.1885   3.2974   3.3908
     4.0702   4.3887   4.7319   4.8481   5.0014   5.8163   5.8973   5.9435
     5.9657   6.2750   6.3223   6.4621   6.4715   6.7494   6.9837   7.0748
     7.1884   7.2838   7.5558   7.6040   7.6352   7.6606   7.6625   7.8822
     7.9450   8.0890   8.1208   8.2118   8.2208   8.5819   8.8335   8.8779

     occupation numbers 
     1.0000   1.0000   1.0000   1.0000   1.0000   1.0000   1.0000   1.0000
     1.0000   1.0000   1.0000   1.0000   1.0000   1.0000   1.0000   1.0000
     1.0000   1.0000   1.0000   1.0000   1.0000   1.0000   1.0000   1.0000
     1.0000   1.0000   1.0000   1.0000   1.0000   1.0000   1.0000   1.0000
     1.0000   1.0000   1.0000   1.0000   1.0000   1.0000   1.0000   1.0000
     1.0000   1.0000   1.0000   1.0000   1.0000   1.0000   1.0000   1.0000
     1.0000   1.0000   1.0000   1.0000   1.0000   1.0000   1.0000   1.0000
     1.0000   1.0000   1.0000   1.0000   1.0000   1.0000   1.0000   1.0000
     1.0000   1.0000   1.0000   1.0000   1.0000   1.0000   1.0000   1.0000
     1.0000   1.0000   1.0000   1.0000   1.0000   1.0000   1.0000   1.0000
     1.0000   1.0000   1.0000   1.0000   1.0000   1.0000   1.0000   1.0000
     1.0000   1.0000   1.0000   1.0000   1.0000   1.0000   1.0000   1.0000
     1.0000   1.0000   1.0000   1.0000   1.0000   1.0000   1.0000   1.0000
     1.0000   1.0000   1.0000   1.0000   1.0000   1.0000   1.0000   1.0000
     1.0000   1.0000   1.0000   1.0000   1.0000   1.0000   1.0000   1.0000
     1.0000   1.0000   1.0000   1.0000   1.0000   1.0000   1.0000   1.0000
     1.0000   1.0000   1.0000   1.0000   1.0000   1.0000   1.0000   1.0000
     1.0000   1.0000   1.0000   1.0000   1.0000   1.0000   1.0000   1.0000
     1.0000   1.0000   1.0000   1.0000   1.0000   1.0000   1.0000   1.0000
     1.0000   1.0000   1.0000   1.0000   0.9999   0.9999   0.9999   0.9998
     0.9998   0.9998   0.9997   0.9996   0.9996   0.9994   0.9989   0.9985
     0.9983   0.9981   0.9980   0.9974   0.9963   0.9942   0.9939   0.9921
     0.9916   0.9901   0.9894   0.9890   0.9863   0.9830   0.9826   0.9802
     0.9773   0.9733   0.9586   0.9459   0.9390   0.9361   0.9031   0.8995
     0.8868   0.8862   0.8525   0.8398   0.8306   0.8231   0.8171   0.7947
     0.7779   0.7330   0.7175   0.7112   0.7079   0.6724   0.6708   0.6578
     0.6532   0.6486   0.6429   0.6375   0.6306   0.6272   0.6200   0.6152
     0.6110   0.5994   0.5869   0.5845   0.5775   0.5586   0.4943   0.4392
     0.1227   0.0511   0.0160   0.0103   0.0055   0.0001   0.0001   0.0000
     0.0000   0.0000   0.0000   0.0000   0.0000   0.0000   0.0000   0.0000
     0.0000   0.0000   0.0000   0.0000   0.0000   0.0000   0.0000   0.0000
     0.0000   0.0000   0.0000   0.0000   0.0000   0.0000   0.0000   0.0000

          k = 0.0000 0.2500 0.0000 ( 65257 PWs)   bands (ev):

   -92.7399 -92.6872 -92.5940 -92.5471 -92.4888 -92.4466 -92.4289 -92.3075
   -56.0934 -56.0737 -55.9513 -55.9406 -55.9339 -55.9274 -55.8910 -55.8632
   -55.8474 -55.8462 -55.8381 -55.7964 -55.7785 -55.7397 -55.7206 -55.6885
   -55.6825 -55.6346 -55.6344 -55.6317 -55.6233 -55.5821 -55.5593 -55.4734
   -31.3157 -31.2959 -31.1966 -31.1545 -31.0667 -31.0618 -30.9525 -30.4812
   -29.8879 -29.8432 -29.8186 -29.7093 -15.0834 -15.0461 -14.9700 -14.8355
   -14.7127 -14.5390 -14.4029 -14.2241 -14.1893 -14.1687 -14.1416 -14.0822
   -14.0753 -14.0583 -14.0425 -14.0013 -13.8888 -13.8497 -13.6860 -13.6651
   -13.6176 -13.5805 -13.5346 -13.4920 -13.4495 -13.3816 -13.3460 -13.2971
   -13.2368 -13.1862 -13.1665 -13.1456 -13.1241 -13.0398 -13.0123 -12.9858
   -12.9705 -12.9438 -12.9380 -12.9107 -12.8976 -12.8746 -12.8352 -12.7877
   -12.7391 -12.5145 -12.4744 -12.4414 -12.4190 -12.2854 -12.0531 -11.9924
   -11.8651 -11.8239 -11.7953 -11.7665 -11.7498 -11.7028 -11.6917 -11.6692
   -11.6359 -11.5310 -11.4799 -11.4694  -2.8449  -2.6236  -2.4859  -2.3038
    -2.2604  -2.0967  -1.8774  -1.7928  -1.7798  -1.7216  -1.6191  -1.6036
    -1.5703  -1.5427  -1.4993  -1.3009  -1.1724  -1.1610  -1.0845  -1.0745
    -0.9705  -0.9407  -0.8823  -0.8575  -0.8169  -0.7529  -0.7267  -0.6940
    -0.6621  -0.6448  -0.6130  -0.5385  -0.4877  -0.4201  -0.3074  -0.2879
    -0.2471  -0.1289  -0.0907  -0.0334   0.0164   0.0745   0.0925   0.1202
     0.1810   0.4797   0.5671   0.5997   0.6860   0.7322   0.7548   0.8702
     0.8894   0.9832   1.0104   1.0375   1.1514   1.2458   1.2675   1.2928
     1.3099   1.3353   1.3958   1.4222   1.4509   1.4977   1.5334   1.5626
     1.6484   1.6831   1.7159   1.7680   1.8247   1.8650   1.8924   1.9179
     1.9355   2.0261   2.1575   2.2281   2.2450   2.3205   2.3670   2.4084
     2.4158   2.4765   2.5156   2.5990   2.6387   2.6551   2.7463   2.8261
     2.8529   2.8831   2.9038   2.9196   2.9279   2.9355   2.9477   2.9744
     2.9765   2.9958   3.0018   3.0090   3.0261   3.0387   3.0465   3.0690
     3.0796   3.0847   3.1220   3.1367   3.1960   3.5703   3.6067   3.8398
     4.2586   4.3842   4.6732   5.0025   5.0267   5.6098   5.7588   5.9042
     5.9436   6.0545   6.0727   6.1507   6.5778   6.8731   6.9292   7.0884
     7.3050   7.4515   7.4707   7.5768   7.6188   7.7121   7.7803   8.0126
     8.0908   8.1219   8.1940   8.2536   8.3769   8.5221   8.7019   8.9230

     occupation numbers 
     1.0000   1.0000   1.0000   1.0000   1.0000   1.0000   1.0000   1.0000
     1.0000   1.0000   1.0000   1.0000   1.0000   1.0000   1.0000   1.0000
     1.0000   1.0000   1.0000   1.0000   1.0000   1.0000   1.0000   1.0000
     1.0000   1.0000   1.0000   1.0000   1.0000   1.0000   1.0000   1.0000
     1.0000   1.0000   1.0000   1.0000   1.0000   1.0000   1.0000   1.0000
     1.0000   1.0000   1.0000   1.0000   1.0000   1.0000   1.0000   1.0000
     1.0000   1.0000   1.0000   1.0000   1.0000   1.0000   1.0000   1.0000
     1.0000   1.0000   1.0000   1.0000   1.0000   1.0000   1.0000   1.0000
     1.0000   1.0000   1.0000   1.0000   1.0000   1.0000   1.0000   1.0000
     1.0000   1.0000   1.0000   1.0000   1.0000   1.0000   1.0000   1.0000
     1.0000   1.0000   1.0000   1.0000   1.0000   1.0000   1.0000   1.0000
     1.0000   1.0000   1.0000   1.0000   1.0000   1.0000   1.0000   1.0000
     1.0000   1.0000   1.0000   1.0000   1.0000   1.0000   1.0000   1.0000
     1.0000   1.0000   1.0000   1.0000   1.0000   1.0000   1.0000   1.0000
     1.0000   1.0000   1.0000   1.0000   1.0000   1.0000   1.0000   1.0000
     1.0000   1.0000   1.0000   1.0000   1.0000   1.0000   1.0000   1.0000
     1.0000   1.0000   1.0000   1.0000   1.0000   1.0000   1.0000   1.0000
     1.0000   1.0000   1.0000   1.0000   1.0000   1.0000   1.0000   1.0000
     1.0000   1.0000   1.0000   1.0000   1.0000   1.0000   1.0000   1.0000
     1.0000   1.0000   1.0000   1.0000   0.9999   0.9999   0.9999   0.9998
     0.9998   0.9997   0.9996   0.9996   0.9992   0.9988   0.9986   0.9985
     0.9983   0.9981   0.9975   0.9972   0.9968   0.9961   0.9954   0.9948
     0.9925   0.9914   0.9902   0.9880   0.9851   0.9827   0.9809   0.9790
     0.9777   0.9695   0.9534   0.9422   0.9392   0.9246   0.9142   0.9042
     0.9023   0.8858   0.8742   0.8468   0.8324   0.8263   0.7893   0.7535
     0.7408   0.7260   0.7157   0.7077   0.7035   0.6995   0.6932   0.6792
     0.6780   0.6677   0.6645   0.6606   0.6512   0.6443   0.6399   0.6274
     0.6214   0.6185   0.5972   0.5888   0.5542   0.3374   0.3179   0.2062
     0.0747   0.0518   0.0198   0.0054   0.0049   0.0003   0.0001   0.0001
     0.0000   0.0000   0.0000   0.0000   0.0000   0.0000   0.0000   0.0000
     0.0000   0.0000   0.0000   0.0000   0.0000   0.0000   0.0000   0.0000
     0.0000   0.0000   0.0000   0.0000   0.0000   0.0000   0.0000   0.0000

          k = 0.0000-0.5000 0.0000 ( 65180 PWs)   bands (ev):

   -92.7399 -92.6872 -92.5940 -92.5471 -92.4888 -92.4466 -92.4289 -92.3075
   -56.0934 -56.0737 -55.9513 -55.9406 -55.9339 -55.9274 -55.8910 -55.8632
   -55.8474 -55.8462 -55.8381 -55.7964 -55.7785 -55.7397 -55.7206 -55.6885
   -55.6825 -55.6346 -55.6344 -55.6317 -55.6233 -55.5820 -55.5593 -55.4734
   -31.3155 -31.2958 -31.1964 -31.1547 -31.0669 -31.0620 -30.9525 -30.4812
   -29.8873 -29.8429 -29.8192 -29.7096 -15.0466 -14.9992 -14.9420 -14.8197
   -14.7322 -14.5999 -14.4371 -14.3257 -14.1959 -14.1281 -14.0822 -14.0766
   -14.0259 -14.0098 -13.9593 -13.9394 -13.9131 -13.8833 -13.8519 -13.8022
   -13.6218 -13.5631 -13.5397 -13.4950 -13.4486 -13.3972 -13.3642 -13.3218
   -13.3208 -13.2553 -13.1652 -13.1456 -13.1143 -13.0617 -13.0031 -12.9893
   -12.9661 -12.9371 -12.9199 -12.8964 -12.8778 -12.7435 -12.7422 -12.6986
   -12.6898 -12.5522 -12.4400 -12.4152 -12.3605 -12.3493 -12.1246 -12.0745
   -11.8209 -11.8171 -11.7898 -11.7524 -11.7183 -11.7072 -11.6656 -11.6615
   -11.6174 -11.5529 -11.5397 -11.5262  -2.6298  -2.5715  -2.4200  -2.3487
    -2.0665  -1.9837  -1.8548  -1.7193  -1.6797  -1.6616  -1.5837  -1.5536
    -1.4687  -1.4351  -1.3562  -1.3173  -1.2794  -1.2526  -1.1900  -1.1573
    -1.1107  -1.0754  -1.0405  -1.0085  -0.8969  -0.8531  -0.8176  -0.8142
    -0.7290  -0.6985  -0.6759  -0.6266  -0.5402  -0.4678  -0.3804  -0.3531
    -0.2445  -0.2108  -0.0685  -0.0295  -0.0015   0.0467   0.1699   0.2330
     0.3529   0.4218   0.4297   0.5575   0.6093   0.7046   0.8394   0.9420
     0.9741   1.0139   1.0228   1.0564   1.0749   1.1096   1.1253   1.1383
     1.2489   1.3099   1.3383   1.3604   1.6287   1.6572   1.6798   1.7721
     1.7955   1.8311   1.8480   1.8729   1.8935   1.8979   1.9270   1.9625
     1.9919   2.0204   2.0299   2.0592   2.1124   2.1991   2.2335   2.4039
     2.5633   2.5675   2.5910   2.6230   2.6341   2.6408   2.6924   2.7069
     2.7587   2.7674   2.7840   2.8571   2.8756   2.9423   2.9523   2.9710
     2.9735   2.9914   2.9961   3.0003   3.0060   3.0140   3.0202   3.0390
     3.0397   3.1069   3.1105   3.1266   3.1810   4.0861   4.1110   4.1524
     4.2185   4.6950   4.8705   4.9948   5.1268   5.3869   5.4358   5.5553
     5.6909   5.9802   6.0091   6.0409   6.6609   6.8288   6.9345   7.1952
     7.3042   7.3752   7.4362   7.5379   7.7208   7.7970   7.8755   7.9603
     8.1023   8.2682   8.4480   8.5165   8.6330   8.7315   8.7847   8.8337

     occupation numbers 
     1.0000   1.0000   1.0000   1.0000   1.0000   1.0000   1.0000   1.0000
     1.0000   1.0000   1.0000   1.0000   1.0000   1.0000   1.0000   1.0000
     1.0000   1.0000   1.0000   1.0000   1.0000   1.0000   1.0000   1.0000
     1.0000   1.0000   1.0000   1.0000   1.0000   1.0000   1.0000   1.0000
     1.0000   1.0000   1.0000   1.0000   1.0000   1.0000   1.0000   1.0000
     1.0000   1.0000   1.0000   1.0000   1.0000   1.0000   1.0000   1.0000
     1.0000   1.0000   1.0000   1.0000   1.0000   1.0000   1.0000   1.0000
     1.0000   1.0000   1.0000   1.0000   1.0000   1.0000   1.0000   1.0000
     1.0000   1.0000   1.0000   1.0000   1.0000   1.0000   1.0000   1.0000
     1.0000   1.0000   1.0000   1.0000   1.0000   1.0000   1.0000   1.0000
     1.0000   1.0000   1.0000   1.0000   1.0000   1.0000   1.0000   1.0000
     1.0000   1.0000   1.0000   1.0000   1.0000   1.0000   1.0000   1.0000
     1.0000   1.0000   1.0000   1.0000   1.0000   1.0000   1.0000   1.0000
     1.0000   1.0000   1.0000   1.0000   1.0000   1.0000   1.0000   1.0000
     1.0000   1.0000   1.0000   1.0000   1.0000   1.0000   1.0000   1.0000
     1.0000   1.0000   1.0000   1.0000   1.0000   1.0000   1.0000   1.0000
     1.0000   1.0000   1.0000   1.0000   1.0000   1.0000   1.0000   1.0000
     1.0000   1.0000   1.0000   1.0000   1.0000   1.0000   1.0000   1.0000
     1.0000   1.0000   1.0000   1.0000   1.0000   1.0000   1.0000   1.0000
     1.0000   1.0000   1.0000   1.0000   1.0000   0.9999   0.9999   0.9998
     0.9997   0.9996   0.9996   0.9995   0.9995   0.9994   0.9993   0.9993
     0.9988   0.9983   0.9981   0.9979   0.9931   0.9923   0.9915   0.9878
     0.9867   0.9847   0.9837   0.9822   0.9808   0.9805   0.9783   0.9755
     0.9728   0.9701   0.9691   0.9659   0.9595   0.9470   0.9413   0.9053
     0.8590   0.8576   0.8496   0.8382   0.8342   0.8317   0.8117   0.8058
     0.7839   0.7801   0.7728   0.7388   0.7297   0.6960   0.6908   0.6810
     0.6797   0.6701   0.6675   0.6653   0.6622   0.6578   0.6544   0.6441
     0.6437   0.6059   0.6039   0.5946   0.5630   0.1179   0.1108   0.0996
     0.0835   0.0183   0.0094   0.0056   0.0032   0.0009   0.0007   0.0004
     0.0002   0.0000   0.0000   0.0000   0.0000   0.0000   0.0000   0.0000
     0.0000   0.0000   0.0000   0.0000   0.0000   0.0000   0.0000   0.0000
     0.0000   0.0000   0.0000   0.0000   0.0000   0.0000   0.0000   0.0000

          k = 0.2500 0.2500 0.0000 ( 65198 PWs)   bands (ev):

   -92.7399 -92.6872 -92.5940 -92.5471 -92.4888 -92.4466 -92.4289 -92.3075
   -56.0934 -56.0737 -55.9513 -55.9406 -55.9339 -55.9274 -55.8910 -55.8632
   -55.8474 -55.8462 -55.8381 -55.7964 -55.7785 -55.7397 -55.7206 -55.6885
   -55.6825 -55.6346 -55.6344 -55.6317 -55.6233 -55.5821 -55.5593 -55.4734
   -31.3141 -31.2976 -31.1965 -31.1541 -31.0671 -31.0617 -30.9527 -30.4812
   -29.8869 -29.8441 -29.8182 -29.7097 -15.0544 -15.0109 -14.9419 -14.8254
   -14.7056 -14.5785 -14.5095 -14.3047 -14.1474 -14.1344 -14.1001 -14.0694
   -14.0469 -14.0129 -13.9893 -13.9638 -13.8802 -13.8641 -13.7024 -13.6892
   -13.6580 -13.6395 -13.5854 -13.5492 -13.4865 -13.4647 -13.3526 -13.3126
   -13.2674 -13.1827 -13.1466 -13.1291 -13.0854 -13.0575 -13.0322 -12.9987
   -12.9838 -12.9621 -12.9283 -12.8813 -12.8594 -12.8127 -12.7813 -12.7515
   -12.7013 -12.5234 -12.4901 -12.4181 -12.3627 -12.3145 -12.0681 -12.0416
   -11.8380 -11.8067 -11.7955 -11.7892 -11.7259 -11.6906 -11.6843 -11.6494
   -11.6421 -11.5477 -11.5080 -11.4908  -2.7066  -2.4978  -2.3799  -2.2856
    -2.1647  -2.0999  -1.9022  -1.7574  -1.7386  -1.7085  -1.6140  -1.5808
    -1.4865  -1.4574  -1.4086  -1.2773  -1.2280  -1.1566  -1.1119  -1.0663
    -1.0439  -1.0196  -0.9768  -0.9617  -0.8715  -0.8210  -0.7552  -0.7059
    -0.6757  -0.6267  -0.6135  -0.5488  -0.4999  -0.4411  -0.4074  -0.3217
    -0.2694  -0.2410  -0.2028  -0.1477  -0.0676  -0.0360  -0.0117   0.0656
     0.0982   0.3699   0.5195   0.5533   0.6115   0.6530   0.7108   0.7625
     0.8250   0.8637   1.1347   1.2019   1.2750   1.3000   1.3492   1.3793
     1.4161   1.4534   1.4703   1.4977   1.5444   1.5498   1.5651   1.6095
     1.6482   1.6890   1.7516   1.7848   1.7949   1.8271   1.8652   1.9159
     1.9463   2.0652   2.1384   2.1734   2.1959   2.2613   2.3274   2.3566
     2.3926   2.4201   2.4301   2.5409   2.5785   2.6683   2.7544   2.8376
     2.8549   2.8607   2.8793   2.8951   2.9057   2.9172   2.9264   2.9346
     2.9485   2.9611   2.9807   2.9854   2.9968   3.0185   3.0310   3.0424
     3.0709   3.3721   3.4660   3.5087   3.5757   3.6107   3.8194   3.9151
     4.2646   4.4741   4.6779   4.9420   5.1513   5.6095   5.6657   5.7244
     5.7987   5.8580   5.9858   6.1424   6.1910   6.7729   6.8782   7.0746
     7.2191   7.5250   7.5737   7.6807   7.8384   7.9077   7.9918   8.1218
     8.1442   8.1858   8.3006   8.3637   8.4155   8.4402   8.5526   8.7917

     occupation numbers 
     1.0000   1.0000   1.0000   1.0000   1.0000   1.0000   1.0000   1.0000
     1.0000   1.0000   1.0000   1.0000   1.0000   1.0000   1.0000   1.0000
     1.0000   1.0000   1.0000   1.0000   1.0000   1.0000   1.0000   1.0000
     1.0000   1.0000   1.0000   1.0000   1.0000   1.0000   1.0000   1.0000
     1.0000   1.0000   1.0000   1.0000   1.0000   1.0000   1.0000   1.0000
     1.0000   1.0000   1.0000   1.0000   1.0000   1.0000   1.0000   1.0000
     1.0000   1.0000   1.0000   1.0000   1.0000   1.0000   1.0000   1.0000
     1.0000   1.0000   1.0000   1.0000   1.0000   1.0000   1.0000   1.0000
     1.0000   1.0000   1.0000   1.0000   1.0000   1.0000   1.0000   1.0000
     1.0000   1.0000   1.0000   1.0000   1.0000   1.0000   1.0000   1.0000
     1.0000   1.0000   1.0000   1.0000   1.0000   1.0000   1.0000   1.0000
     1.0000   1.0000   1.0000   1.0000   1.0000   1.0000   1.0000   1.0000
     1.0000   1.0000   1.0000   1.0000   1.0000   1.0000   1.0000   1.0000
     1.0000   1.0000   1.0000   1.0000   1.0000   1.0000   1.0000   1.0000
     1.0000   1.0000   1.0000   1.0000   1.0000   1.0000   1.0000   1.0000
     1.0000   1.0000   1.0000   1.0000   1.0000   1.0000   1.0000   1.0000
     1.0000   1.0000   1.0000   1.0000   1.0000   1.0000   1.0000   1.0000
     1.0000   1.0000   1.0000   1.0000   1.0000   1.0000   1.0000   1.0000
     1.0000   1.0000   1.0000   1.0000   1.0000   1.0000   1.0000   1.0000
     1.0000   1.0000   1.0000   1.0000   1.0000   1.0000   0.9999   0.9999
     0.9999   0.9998   0.9993   0.9990   0.9986   0.9984   0.9980   0.9977
     0.9973   0.9968   0.9965   0.9961   0.9952   0.9951   0.9947   0.9936
     0.9925   0.9912   0.9887   0.9872   0.9867   0.9850   0.9827   0.9792
     0.9768   0.9653   0.9561   0.9510   0.9475   0.9363   0.9231   0.9166
     0.9081   0.9012   0.8986   0.8663   0.8539   0.8212   0.7858   0.7481
     0.7398   0.7370   0.7280   0.7201   0.7148   0.7090   0.7042   0.7000
     0.6928   0.6862   0.6758   0.6733   0.6671   0.6554   0.6485   0.6422
     0.6263   0.4502   0.3957   0.3714   0.3345   0.3158   0.2150   0.1758
     0.0735   0.0391   0.0195   0.0070   0.0028   0.0003   0.0002   0.0001
     0.0001   0.0001   0.0000   0.0000   0.0000   0.0000   0.0000   0.0000
     0.0000   0.0000   0.0000   0.0000   0.0000   0.0000   0.0000   0.0000
     0.0000   0.0000   0.0000   0.0000   0.0000   0.0000   0.0000   0.0000

          k = 0.2500-0.5000 0.0000 ( 65138 PWs)   bands (ev):

   -92.7399 -92.6872 -92.5940 -92.5471 -92.4888 -92.4466 -92.4289 -92.3075
   -56.0934 -56.0737 -55.9513 -55.9406 -55.9339 -55.9274 -55.8910 -55.8632
   -55.8474 -55.8462 -55.8381 -55.7964 -55.7785 -55.7397 -55.7206 -55.6885
   -55.6825 -55.6346 -55.6344 -55.6317 -55.6233 -55.5820 -55.5593 -55.4734
   -31.3139 -31.2974 -31.1963 -31.1543 -31.0672 -31.0619 -30.9526 -30.4813
   -29.8863 -29.8438 -29.8188 -29.7100 -15.0155 -14.9722 -14.8986 -14.7906
   -14.7554 -14.6395 -14.5435 -14.4207 -14.1123 -14.0603 -14.0335 -14.0098
   -13.9955 -13.9810 -13.9439 -13.9268 -13.8971 -13.8585 -13.8396 -13.7941
   -13.7042 -13.6563 -13.6025 -13.5764 -13.5084 -13.4965 -13.4089 -13.3745
   -13.2448 -13.1801 -13.1665 -13.1103 -13.0681 -13.0402 -13.0224 -12.9992
   -12.9793 -12.9491 -12.9293 -12.8855 -12.8622 -12.7745 -12.7444 -12.6937
   -12.6623 -12.5589 -12.4326 -12.3942 -12.3580 -12.3167 -12.1168 -12.0780
   -11.8142 -11.8017 -11.7907 -11.7637 -11.7327 -11.7034 -11.6633 -11.6341
   -11.6134 -11.5660 -11.5413 -11.5305  -2.4878  -2.4232  -2.2937  -2.2174
    -2.0870  -2.0036  -1.8792  -1.7304  -1.6751  -1.6538  -1.5919  -1.5788
    -1.4795  -1.4148  -1.3297  -1.2787  -1.2696  -1.2070  -1.1624  -1.1303
    -1.0828  -1.0459  -1.0106  -0.9706  -0.9574  -0.9144  -0.8850  -0.8430
    -0.8118  -0.7448  -0.6427  -0.6033  -0.5244  -0.4587  -0.4075  -0.3670
    -0.3481  -0.2899  -0.1314  -0.1234  -0.0177   0.0159   0.0225   0.0680
     0.1035   0.1393   0.1709   0.2371   0.5122   0.6104   0.6711   0.7277
     0.9998   1.0175   1.1062   1.1348   1.2985   1.3334   1.3744   1.3971
     1.4123   1.4329   1.4956   1.5435   1.5771   1.6537   1.7533   1.7900
     1.8073   1.8154   1.8542   1.8676   1.8764   1.9198   1.9298   1.9503
     1.9791   1.9972   2.0214   2.0548   2.1117   2.1535   2.2327   2.3695
     2.5155   2.5321   2.5493   2.5776   2.5993   2.6278   2.6527   2.6649
     2.6876   2.7677   2.7913   2.8376   2.8574   2.8661   2.8751   2.8951
     2.9088   2.9289   2.9376   2.9690   2.9786   2.9950   3.0015   3.0107
     3.0210   3.5392   3.5630   3.7037   3.7568   4.0914   4.1466   4.1599
     4.2782   4.7151   4.8916   5.0282   5.0978   5.2669   5.4030   5.5730
     5.6110   5.7305   5.7572   6.1365   6.3726   6.4678   6.5886   7.0394
     7.4882   7.5216   7.6738   7.7815   7.8471   8.0062   8.0433   8.1495
     8.2758   8.3985   8.4758   8.5045   8.5288   8.6419   8.6833   8.7379

     occupation numbers 
     1.0000   1.0000   1.0000   1.0000   1.0000   1.0000   1.0000   1.0000
     1.0000   1.0000   1.0000   1.0000   1.0000   1.0000   1.0000   1.0000
     1.0000   1.0000   1.0000   1.0000   1.0000   1.0000   1.0000   1.0000
     1.0000   1.0000   1.0000   1.0000   1.0000   1.0000   1.0000   1.0000
     1.0000   1.0000   1.0000   1.0000   1.0000   1.0000   1.0000   1.0000
     1.0000   1.0000   1.0000   1.0000   1.0000   1.0000   1.0000   1.0000
     1.0000   1.0000   1.0000   1.0000   1.0000   1.0000   1.0000   1.0000
     1.0000   1.0000   1.0000   1.0000   1.0000   1.0000   1.0000   1.0000
     1.0000   1.0000   1.0000   1.0000   1.0000   1.0000   1.0000   1.0000
     1.0000   1.0000   1.0000   1.0000   1.0000   1.0000   1.0000   1.0000
     1.0000   1.0000   1.0000   1.0000   1.0000   1.0000   1.0000   1.0000
     1.0000   1.0000   1.0000   1.0000   1.0000   1.0000   1.0000   1.0000
     1.0000   1.0000   1.0000   1.0000   1.0000   1.0000   1.0000   1.0000
     1.0000   1.0000   1.0000   1.0000   1.0000   1.0000   1.0000   1.0000
     1.0000   1.0000   1.0000   1.0000   1.0000   1.0000   1.0000   1.0000
     1.0000   1.0000   1.0000   1.0000   1.0000   1.0000   1.0000   1.0000
     1.0000   1.0000   1.0000   1.0000   1.0000   1.0000   1.0000   1.0000
     1.0000   1.0000   1.0000   1.0000   1.0000   1.0000   1.0000   1.0000
     1.0000   1.0000   1.0000   1.0000   1.0000   1.0000   1.0000   1.0000
     1.0000   1.0000   1.0000   1.0000   1.0000   1.0000   0.9999   0.9999
     0.9997   0.9996   0.9994   0.9993   0.9984   0.9981   0.9978   0.9975
     0.9973   0.9971   0.9961   0.9952   0.9945   0.9924   0.9887   0.9869
     0.9860   0.9856   0.9834   0.9825   0.9819   0.9789   0.9781   0.9765
     0.9740   0.9723   0.9700   0.9664   0.9596   0.9539   0.9414   0.9137
     0.8743   0.8691   0.8636   0.8542   0.8467   0.8365   0.8272   0.8225
     0.8136   0.7800   0.7695   0.7481   0.7386   0.7344   0.7300   0.7201
     0.7132   0.7029   0.6985   0.6820   0.6769   0.6681   0.6646   0.6597
     0.6540   0.3545   0.3414   0.2684   0.2431   0.1164   0.1011   0.0977
     0.0707   0.0170   0.0086   0.0049   0.0036   0.0016   0.0008   0.0003
     0.0003   0.0001   0.0001   0.0000   0.0000   0.0000   0.0000   0.0000
     0.0000   0.0000   0.0000   0.0000   0.0000   0.0000   0.0000   0.0000
     0.0000   0.0000   0.0000   0.0000   0.0000   0.0000   0.0000   0.0000

          k =-0.5000-0.5000 0.0000 ( 65132 PWs)   bands (ev):

   -92.7399 -92.6872 -92.5940 -92.5471 -92.4888 -92.4466 -92.4289 -92.3075
   -56.0934 -56.0737 -55.9513 -55.9406 -55.9339 -55.9274 -55.8910 -55.8632
   -55.8474 -55.8462 -55.8381 -55.7964 -55.7785 -55.7397 -55.7206 -55.6885
   -55.6825 -55.6346 -55.6344 -55.6317 -55.6233 -55.5821 -55.5593 -55.4734
   -31.3118 -31.2995 -31.1962 -31.1540 -31.0676 -31.0619 -30.9527 -30.4814
   -29.8854 -29.8448 -29.8184 -29.7104 -14.9673 -14.9448 -14.8285 -14.8114
   -14.7197 -14.6842 -14.6534 -14.5189 -14.0235 -14.0119 -13.9755 -13.9605
   -13.9400 -13.9204 -13.8997 -13.8877 -13.8724 -13.8678 -13.8523 -13.7725
   -13.7651 -13.7418 -13.7019 -13.6867 -13.5961 -13.5665 -13.4465 -13.4213
   -13.1958 -13.1638 -13.0884 -13.0848 -13.0633 -13.0325 -13.0214 -13.0122
   -12.9953 -12.9841 -12.8986 -12.8815 -12.8459 -12.8088 -12.7969 -12.6436
   -12.6358 -12.5752 -12.4344 -12.3691 -12.3540 -12.2868 -12.1102 -12.0806
   -11.8100 -11.7986 -11.7810 -11.7634 -11.7293 -11.7105 -11.6757 -11.6132
   -11.5955 -11.5889 -11.5396 -11.5364  -2.2631  -2.1883  -2.1793  -2.1064
    -2.0677  -1.9895  -1.9212  -1.7964  -1.6805  -1.6506  -1.6100  -1.5534
    -1.4826  -1.4665  -1.3972  -1.3546  -1.2377  -1.2064  -1.1611  -1.1313
    -1.0668  -1.0196  -1.0018  -0.9892  -0.9356  -0.8917  -0.8762  -0.7632
    -0.7055  -0.6560  -0.6095  -0.5831  -0.5702  -0.5352  -0.4926  -0.4555
    -0.4477  -0.3609  -0.2932  -0.2491  -0.2213  -0.1497  -0.0898  -0.0793
    -0.0196   0.0052   0.0134   0.0251   0.4822   0.5359   0.6172   0.6400
     1.0285   1.0406   1.0733   1.1119   1.3838   1.4015   1.4105   1.4492
     1.5793   1.6735   1.7004   1.7373   1.7620   1.7788   1.7907   1.8198
     1.8327   1.8531   1.8605   1.9069   1.9113   1.9371   1.9627   1.9747
     1.9871   2.0281   2.0532   2.0647   2.0979   2.1253   2.1934   2.2601
     2.5281   2.5593   2.5787   2.5932   2.5990   2.6338   2.6412   2.6597
     2.6749   2.6911   2.7009   2.7234   2.7800   2.7899   2.8052   2.8132
     2.8267   2.8383   2.8575   2.8699   2.8856   2.9751   2.9809   3.0057
     3.0167   3.9630   4.0010   4.0227   4.0513   4.2798   4.3521   4.3795
     4.6199   4.7424   4.8251   4.9547   5.0475   5.0534   5.1673   5.2683
     5.3667   5.8334   5.8646   5.9353   6.0205   6.3482   6.5448   6.6100
     7.8269   7.8888   7.9037   7.9215   7.9448   7.9849   8.0497   8.1898
     8.2319   8.2821   8.4768   8.5510   8.5802   8.5877   8.6266   8.7128

     occupation numbers 
     1.0000   1.0000   1.0000   1.0000   1.0000   1.0000   1.0000   1.0000
     1.0000   1.0000   1.0000   1.0000   1.0000   1.0000   1.0000   1.0000
     1.0000   1.0000   1.0000   1.0000   1.0000   1.0000   1.0000   1.0000
     1.0000   1.0000   1.0000   1.0000   1.0000   1.0000   1.0000   1.0000
     1.0000   1.0000   1.0000   1.0000   1.0000   1.0000   1.0000   1.0000
     1.0000   1.0000   1.0000   1.0000   1.0000   1.0000   1.0000   1.0000
     1.0000   1.0000   1.0000   1.0000   1.0000   1.0000   1.0000   1.0000
     1.0000   1.0000   1.0000   1.0000   1.0000   1.0000   1.0000   1.0000
     1.0000   1.0000   1.0000   1.0000   1.0000   1.0000   1.0000   1.0000
     1.0000   1.0000   1.0000   1.0000   1.0000   1.0000   1.0000   1.0000
     1.0000   1.0000   1.0000   1.0000   1.0000   1.0000   1.0000   1.0000
     1.0000   1.0000   1.0000   1.0000   1.0000   1.0000   1.0000   1.0000
     1.0000   1.0000   1.0000   1.0000   1.0000   1.0000   1.0000   1.0000
     1.0000   1.0000   1.0000   1.0000   1.0000   1.0000   1.0000   1.0000
     1.0000   1.0000   1.0000   1.0000   1.0000   1.0000   1.0000   1.0000
     1.0000   1.0000   1.0000   1.0000   1.0000   1.0000   1.0000   1.0000
     1.0000   1.0000   1.0000   1.0000   1.0000   1.0000   1.0000   1.0000
     1.0000   1.0000   1.0000   1.0000   1.0000   1.0000   1.0000   1.0000
     1.0000   1.0000   1.0000   1.0000   1.0000   1.0000   1.0000   1.0000
     1.0000   1.0000   1.0000   1.0000   1.0000   1.0000   1.0000   1.0000
     0.9996   0.9996   0.9995   0.9994   0.9977   0.9975   0.9973   0.9968
     0.9944   0.9917   0.9908   0.9893   0.9883   0.9875   0.9869   0.9854
     0.9846   0.9834   0.9830   0.9798   0.9795   0.9776   0.9754   0.9744
     0.9733   0.9693   0.9666   0.9653   0.9614   0.9578   0.9479   0.9365
     0.8703   0.8603   0.8538   0.8488   0.8468   0.8342   0.8315   0.8245
     0.8186   0.8122   0.8083   0.7990   0.7746   0.7702   0.7632   0.7595
[...]
     0.7451   0.7296   0.7174   0.7146   0.7039   0.6988   0.6916   0.6802
     0.6755   0.6637   0.6568   0.6535   0.6465   0.6358   0.6215   0.6189
     0.6142   0.6110   0.6049   0.5997   0.5246   0.3551   0.3226   0.2040
     0.0787   0.0460   0.0220   0.0056   0.0047   0.0003   0.0001   0.0001
     0.0000   0.0000   0.0000   0.0000   0.0000   0.0000   0.0000   0.0000
     0.0000   0.0000   0.0000   0.0000   0.0000   0.0000   0.0000   0.0000
     0.0000   0.0000   0.0000   0.0000   0.0000   0.0000   0.0000   0.0000

          k =-0.5000 0.0000 0.0000 ( 65180 PWs)   bands (ev):

   -92.7399 -92.6872 -92.5940 -92.5471 -92.4888 -92.4466 -92.4289 -92.3075
   -56.0934 -56.0737 -55.9513 -55.9406 -55.9339 -55.9274 -55.8910 -55.8632
   -55.8474 -55.8462 -55.8381 -55.7964 -55.7785 -55.7397 -55.7206 -55.6885
   -55.6825 -55.6346 -55.6344 -55.6317 -55.6233 -55.5820 -55.5593 -55.4734
   -31.3122 -31.2998 -31.1966 -31.1536 -31.0673 -31.0614 -30.9529 -30.4812
   -29.8866 -29.8454 -29.8172 -29.7098 -15.0529 -14.9980 -14.9373 -14.8327
   -14.7256 -14.5836 -14.4317 -14.3015 -14.1710 -14.1608 -14.1469 -14.0880
   -14.0296 -13.9956 -13.9476 -13.9447 -13.9257 -13.8768 -13.8674 -13.7562
   -13.5933 -13.5629 -13.5331 -13.5263 -13.4655 -13.4026 -13.3503 -13.3056
   -13.2818 -13.2762 -13.1620 -13.0923 -13.0808 -13.0592 -13.0479 -13.0453
   -12.9843 -12.9716 -12.9665 -12.9443 -12.8604 -12.6843 -12.6781 -12.6690
   -12.6408 -12.5782 -12.4716 -12.4211 -12.3855 -12.3643 -12.1158 -12.0677
   -11.8182 -11.7957 -11.7897 -11.7735 -11.7557 -11.7149 -11.6520 -11.6351
   -11.6031 -11.5552 -11.5466 -11.5314  -2.6200  -2.5821  -2.4177  -2.3791
    -2.0650  -1.9901  -1.8412  -1.7248  -1.6855  -1.6401  -1.5914  -1.5674
    -1.4439  -1.3997  -1.3836  -1.3014  -1.2673  -1.2493  -1.2197  -1.1614
    -1.0929  -1.0643  -1.0341  -0.9408  -0.8928  -0.8432  -0.8114  -0.7898
    -0.7602  -0.7121  -0.6875  -0.6463  -0.5488  -0.4787  -0.4099  -0.3500
    -0.1827  -0.1516  -0.0949  -0.0591   0.0073   0.0162   0.1553   0.1858
     0.2282   0.4018   0.5008   0.5483   0.6278   0.7036   0.8220   0.8325
     0.9691   0.9924   1.0458   1.0750   1.1098   1.1259   1.1673   1.1941
     1.2628   1.3077   1.3560   1.3626   1.6636   1.6702   1.6947   1.7101
     1.8197   1.8333   1.8450   1.8536   1.8839   1.8951   1.9343   1.9577
     1.9796   2.0386   2.0517   2.1051   2.1243   2.1830   2.2886   2.3939
     2.4630   2.4778   2.5564   2.5875   2.6111   2.6788   2.6920   2.6992
     2.7289   2.7601   2.8075   2.8473   2.8924   2.9209   2.9618   2.9655
     2.9661   2.9779   2.9929   3.0046   3.0189   3.0261   3.0464   3.0533
     3.0702   3.0904   3.0964   3.2248   3.2324   4.0245   4.0960   4.1493
     4.2863   4.7547   4.8308   5.0040   5.0160   5.4620   5.4834   5.5684
     5.6144   5.9588   5.9966   6.0333   6.7556   6.7773   6.9833   7.2554
     7.2939   7.3559   7.3937   7.5093   7.7267   7.7446   7.8562   8.0245
     8.1136   8.2890   8.4660   8.4978   8.5929   8.7151   8.7309   8.8456

     occupation numbers 
     1.0000   1.0000   1.0000   1.0000   1.0000   1.0000   1.0000   1.0000
     1.0000   1.0000   1.0000   1.0000   1.0000   1.0000   1.0000   1.0000
     1.0000   1.0000   1.0000   1.0000   1.0000   1.0000   1.0000   1.0000
     1.0000   1.0000   1.0000   1.0000   1.0000   1.0000   1.0000   1.0000
     1.0000   1.0000   1.0000   1.0000   1.0000   1.0000   1.0000   1.0000
     1.0000   1.0000   1.0000   1.0000   1.0000   1.0000   1.0000   1.0000
     1.0000   1.0000   1.0000   1.0000   1.0000   1.0000   1.0000   1.0000
     1.0000   1.0000   1.0000   1.0000   1.0000   1.0000   1.0000   1.0000
     1.0000   1.0000   1.0000   1.0000   1.0000   1.0000   1.0000   1.0000
     1.0000   1.0000   1.0000   1.0000   1.0000   1.0000   1.0000   1.0000
     1.0000   1.0000   1.0000   1.0000   1.0000   1.0000   1.0000   1.0000
     1.0000   1.0000   1.0000   1.0000   1.0000   1.0000   1.0000   1.0000
     1.0000   1.0000   1.0000   1.0000   1.0000   1.0000   1.0000   1.0000
     1.0000   1.0000   1.0000   1.0000   1.0000   1.0000   1.0000   1.0000
     1.0000   1.0000   1.0000   1.0000   1.0000   1.0000   1.0000   1.0000
     1.0000   1.0000   1.0000   1.0000   1.0000   1.0000   1.0000   1.0000
     1.0000   1.0000   1.0000   1.0000   1.0000   1.0000   1.0000   1.0000
     1.0000   1.0000   1.0000   1.0000   1.0000   1.0000   1.0000   1.0000
     1.0000   1.0000   1.0000   1.0000   1.0000   1.0000   1.0000   1.0000
     1.0000   1.0000   1.0000   1.0000   1.0000   0.9999   0.9999   0.9999
     0.9997   0.9997   0.9996   0.9995   0.9994   0.9993   0.9992   0.9991
     0.9987   0.9984   0.9979   0.9979   0.9921   0.9918   0.9910   0.9904
     0.9854   0.9846   0.9839   0.9834   0.9815   0.9807   0.9778   0.9759
     0.9740   0.9682   0.9668   0.9605   0.9580   0.9496   0.9311   0.9078
     0.8897   0.8855   0.8613   0.8508   0.8425   0.8171   0.8118   0.8089
     0.7967   0.7834   0.7621   0.7435   0.7214   0.7071   0.6858   0.6839
     0.6836   0.6773   0.6693   0.6630   0.6551   0.6512   0.6400   0.6362
     0.6267   0.6153   0.6119   0.5373   0.5328   0.1370   0.1151   0.1004
     0.0691   0.0147   0.0110   0.0054   0.0051   0.0006   0.0006   0.0004
     0.0003   0.0000   0.0000   0.0000   0.0000   0.0000   0.0000   0.0000
     0.0000   0.0000   0.0000   0.0000   0.0000   0.0000   0.0000   0.0000
     0.0000   0.0000   0.0000   0.0000   0.0000   0.0000   0.0000   0.0000

          k =-0.2500 0.2500 0.0000 ( 65198 PWs)   bands (ev):

   -92.7399 -92.6872 -92.5940 -92.5471 -92.4888 -92.4466 -92.4289 -92.3075
   -56.0934 -56.0737 -55.9513 -55.9406 -55.9339 -55.9274 -55.8910 -55.8632
   -55.8474 -55.8462 -55.8381 -55.7964 -55.7785 -55.7397 -55.7206 -55.6885
   -55.6825 -55.6346 -55.6344 -55.6317 -55.6233 -55.5821 -55.5593 -55.4734
   -31.3141 -31.2976 -31.1965 -31.1541 -31.0671 -31.0617 -30.9527 -30.4812
   -29.8869 -29.8441 -29.8182 -29.7097 -15.0557 -15.0097 -14.9409 -14.8235
   -14.7115 -14.5844 -14.5010 -14.2944 -14.1548 -14.1251 -14.1113 -14.0645
   -14.0388 -14.0188 -14.0018 -13.9686 -13.8758 -13.8647 -13.7108 -13.6857
   -13.6557 -13.6350 -13.5880 -13.5352 -13.4748 -13.4729 -13.3568 -13.3262
   -13.2614 -13.1857 -13.1478 -13.1193 -13.0782 -13.0496 -13.0290 -12.9994
   -12.9814 -12.9638 -12.9553 -12.8967 -12.8770 -12.8144 -12.8077 -12.7298
   -12.6419 -12.4889 -12.4796 -12.4327 -12.4088 -12.3203 -12.0901 -12.0146
   -11.8372 -11.8164 -11.7882 -11.7768 -11.7355 -11.7002 -11.6778 -11.6566
   -11.6342 -11.5475 -11.5034 -11.4941  -2.7050  -2.4967  -2.3760  -2.2871
    -2.1689  -2.1026  -1.8997  -1.7542  -1.7363  -1.7065  -1.6146  -1.5797
    -1.4856  -1.4523  -1.4251  -1.2831  -1.2274  -1.1587  -1.1292  -1.0703
    -1.0499  -1.0098  -0.9810  -0.9404  -0.8777  -0.8300  -0.7661  -0.6981
    -0.6721  -0.6203  -0.5926  -0.5468  -0.4897  -0.4435  -0.4039  -0.3019
    -0.2706  -0.2584  -0.2153  -0.1501  -0.0713  -0.0342  -0.0038   0.0694
     0.0954   0.3519   0.5207   0.5614   0.6007   0.6612   0.7113   0.7643
     0.8336   0.8597   1.1426   1.2525   1.2914   1.3258   1.3299   1.3742
     1.3896   1.4351   1.4656   1.4798   1.5057   1.5513   1.5677   1.6068
     1.6257   1.6698   1.7632   1.7771   1.7959   1.8326   1.8601   1.9008
     1.9493   2.0584   2.1667   2.1934   2.2416   2.2606   2.3265   2.3684
     2.3951   2.4203   2.4402   2.5422   2.5782   2.6682   2.7529   2.8447
     2.8539   2.8667   2.8769   2.8873   2.9049   2.9086   2.9254   2.9353
     2.9495   2.9594   2.9722   2.9807   2.9888   3.0199   3.0303   3.0399
     3.0730   3.3653   3.4474   3.5102   3.5882   3.6128   3.8039   3.9235
     4.2657   4.4700   4.6815   4.9496   5.1513   5.6127   5.6594   5.7195
     5.7954   5.8586   6.0011   6.1458   6.1850   6.7865   6.8758   7.0668
     7.2174   7.5376   7.5816   7.6414   7.8507   7.8884   7.9788   8.1279
     8.1624   8.2084   8.2884   8.3332   8.4211   8.4585   8.5718   8.7904

     occupation numbers 
     1.0000   1.0000   1.0000   1.0000   1.0000   1.0000   1.0000   1.0000
     1.0000   1.0000   1.0000   1.0000   1.0000   1.0000   1.0000   1.0000
     1.0000   1.0000   1.0000   1.0000   1.0000   1.0000   1.0000   1.0000
     1.0000   1.0000   1.0000   1.0000   1.0000   1.0000   1.0000   1.0000
     1.0000   1.0000   1.0000   1.0000   1.0000   1.0000   1.0000   1.0000
     1.0000   1.0000   1.0000   1.0000   1.0000   1.0000   1.0000   1.0000
     1.0000   1.0000   1.0000   1.0000   1.0000   1.0000   1.0000   1.0000
     1.0000   1.0000   1.0000   1.0000   1.0000   1.0000   1.0000   1.0000
     1.0000   1.0000   1.0000   1.0000   1.0000   1.0000   1.0000   1.0000
     1.0000   1.0000   1.0000   1.0000   1.0000   1.0000   1.0000   1.0000
     1.0000   1.0000   1.0000   1.0000   1.0000   1.0000   1.0000   1.0000
     1.0000   1.0000   1.0000   1.0000   1.0000   1.0000   1.0000   1.0000
     1.0000   1.0000   1.0000   1.0000   1.0000   1.0000   1.0000   1.0000
     1.0000   1.0000   1.0000   1.0000   1.0000   1.0000   1.0000   1.0000
     1.0000   1.0000   1.0000   1.0000   1.0000   1.0000   1.0000   1.0000
     1.0000   1.0000   1.0000   1.0000   1.0000   1.0000   1.0000   1.0000
     1.0000   1.0000   1.0000   1.0000   1.0000   1.0000   1.0000   1.0000
     1.0000   1.0000   1.0000   1.0000   1.0000   1.0000   1.0000   1.0000
     1.0000   1.0000   1.0000   1.0000   1.0000   1.0000   1.0000   1.0000
     1.0000   1.0000   1.0000   1.0000   1.0000   1.0000   0.9999   0.9999
     0.9999   0.9998   0.9993   0.9987   0.9985   0.9982   0.9982   0.9978
     0.9976   0.9970   0.9966   0.9964   0.9959   0.9950   0.9947   0.9937
     0.9932   0.9919   0.9882   0.9876   0.9866   0.9846   0.9830   0.9803
     0.9766   0.9660   0.9520   0.9479   0.9399   0.9364   0.9233   0.9139
     0.9075   0.9012   0.8959   0.8659   0.8540   0.8212   0.7865   0.7447
     0.7403   0.7341   0.7291   0.7240   0.7152   0.7133   0.7048   0.6997
     0.6923   0.6871   0.6803   0.6758   0.6715   0.6546   0.6489   0.6436
     0.6251   0.4542   0.4064   0.3706   0.3278   0.3147   0.2217   0.1726
     0.0732   0.0396   0.0193   0.0068   0.0028   0.0003   0.0002   0.0002
     0.0001   0.0001   0.0000   0.0000   0.0000   0.0000   0.0000   0.0000
     0.0000   0.0000   0.0000   0.0000   0.0000   0.0000   0.0000   0.0000
     0.0000   0.0000   0.0000   0.0000   0.0000   0.0000   0.0000   0.0000

          k =-0.5000 0.2500 0.0000 ( 65138 PWs)   bands (ev):

   -92.7399 -92.6872 -92.5940 -92.5471 -92.4888 -92.4466 -92.4289 -92.3075
   -56.0934 -56.0737 -55.9513 -55.9406 -55.9339 -55.9274 -55.8910 -55.8632
   -55.8474 -55.8462 -55.8381 -55.7964 -55.7785 -55.7397 -55.7206 -55.6885
   -55.6825 -55.6346 -55.6344 -55.6317 -55.6233 -55.5820 -55.5593 -55.4734
   -31.3120 -31.2997 -31.1964 -31.1538 -31.0675 -31.0617 -30.9528 -30.4813
   -29.8860 -29.8451 -29.8178 -29.7101 -15.0195 -14.9721 -14.8941 -14.7986
   -14.7553 -14.6304 -14.5383 -14.4156 -14.1050 -14.0746 -14.0629 -14.0151
   -13.9963 -13.9690 -13.9338 -13.9315 -13.9033 -13.8692 -13.8575 -13.7499
   -13.6759 -13.6268 -13.6227 -13.6095 -13.5167 -13.5062 -13.3969 -13.3567
   -13.2379 -13.2038 -13.1264 -13.1007 -13.0644 -13.0536 -13.0310 -13.0033
   -12.9849 -12.9768 -12.9610 -12.9028 -12.8670 -12.7438 -12.7131 -12.6603
   -12.6529 -12.5765 -12.4360 -12.4048 -12.3598 -12.3313 -12.1121 -12.0745
   -11.8105 -11.7973 -11.7836 -11.7719 -11.7493 -11.7197 -11.6395 -11.6296
   -11.6081 -11.5698 -11.5428 -11.5341  -2.4776  -2.4362  -2.2873  -2.2456
    -2.0845  -2.0087  -1.8654  -1.7311  -1.6738  -1.6474  -1.6078  -1.5696
    -1.4888  -1.3738  -1.3163  -1.2938  -1.2680  -1.1886  -1.1632  -1.1240
    -1.1069  -1.0459  -1.0159  -0.9785  -0.9430  -0.9140  -0.8558  -0.8293
    -0.7878  -0.7527  -0.6483  -0.6203  -0.5310  -0.4729  -0.4379  -0.3818
    -0.2984  -0.2645  -0.1641  -0.1228  -0.0681  -0.0155   0.0095   0.0824
     0.1068   0.1391   0.1930   0.2322   0.5432   0.6114   0.6678   0.6872
     0.9788   1.0350   1.1080   1.1363   1.3117   1.3481   1.3851   1.3969
     1.4148   1.4326   1.5036   1.5460   1.5888   1.6156   1.7418   1.7782
     1.8052   1.8148   1.8561   1.8823   1.8948   1.9075   1.9286   1.9512
     1.9942   2.0126   2.0465   2.0704   2.1019   2.1598   2.2802   2.3803
     2.4100   2.4773   2.5143   2.5731   2.6103   2.6184   2.6575   2.6860
     2.7134   2.7583   2.8054   2.8406   2.8578   2.8657   2.8799   2.9042
     2.9158   2.9338   2.9448   2.9644   2.9763   2.9868   2.9940   3.0041
     3.0163   3.5436   3.5969   3.7352   3.7573   4.0314   4.1136   4.1579
     4.3685   4.7488   4.8466   5.0028   5.0406   5.3692   5.3956   5.5668
     5.6030   5.7135   5.7476   6.1019   6.3717   6.4776   6.6758   6.9850
     7.4861   7.5281   7.6873   7.7667   7.8571   7.9917   8.0760   8.1106
     8.2907   8.4156   8.4533   8.5168   8.5489   8.6139   8.6486   8.7241

     occupation numbers 
     1.0000   1.0000   1.0000   1.0000   1.0000   1.0000   1.0000   1.0000
     1.0000   1.0000   1.0000   1.0000   1.0000   1.0000   1.0000   1.0000
     1.0000   1.0000   1.0000   1.0000   1.0000   1.0000   1.0000   1.0000
     1.0000   1.0000   1.0000   1.0000   1.0000   1.0000   1.0000   1.0000
     1.0000   1.0000   1.0000   1.0000   1.0000   1.0000   1.0000   1.0000
     1.0000   1.0000   1.0000   1.0000   1.0000   1.0000   1.0000   1.0000
     1.0000   1.0000   1.0000   1.0000   1.0000   1.0000   1.0000   1.0000
     1.0000   1.0000   1.0000   1.0000   1.0000   1.0000   1.0000   1.0000
     1.0000   1.0000   1.0000   1.0000   1.0000   1.0000   1.0000   1.0000
     1.0000   1.0000   1.0000   1.0000   1.0000   1.0000   1.0000   1.0000
     1.0000   1.0000   1.0000   1.0000   1.0000   1.0000   1.0000   1.0000
     1.0000   1.0000   1.0000   1.0000   1.0000   1.0000   1.0000   1.0000
     1.0000   1.0000   1.0000   1.0000   1.0000   1.0000   1.0000   1.0000
     1.0000   1.0000   1.0000   1.0000   1.0000   1.0000   1.0000   1.0000
     1.0000   1.0000   1.0000   1.0000   1.0000   1.0000   1.0000   1.0000
     1.0000   1.0000   1.0000   1.0000   1.0000   1.0000   1.0000   1.0000
     1.0000   1.0000   1.0000   1.0000   1.0000   1.0000   1.0000   1.0000
     1.0000   1.0000   1.0000   1.0000   1.0000   1.0000   1.0000   1.0000
     1.0000   1.0000   1.0000   1.0000   1.0000   1.0000   1.0000   1.0000
     1.0000   1.0000   1.0000   1.0000   1.0000   1.0000   0.9999   0.9999
     0.9997   0.9996   0.9994   0.9993   0.9983   0.9980   0.9976   0.9975
     0.9973   0.9971   0.9960   0.9952   0.9942   0.9935   0.9892   0.9875
     0.9861   0.9856   0.9832   0.9816   0.9807   0.9798   0.9782   0.9764
     0.9726   0.9709   0.9674   0.9647   0.9609   0.9530   0.9327   0.9111
     0.9038   0.8856   0.8746   0.8557   0.8428   0.8399   0.8254   0.8142
     0.8032   0.7842   0.7631   0.7467   0.7384   0.7346   0.7276   0.7155
     0.7097   0.7005   0.6947   0.6845   0.6781   0.6725   0.6687   0.6632
     0.6566   0.3520   0.3231   0.2533   0.2429   0.1348   0.1101   0.0982
     0.0543   0.0150   0.0103   0.0054   0.0046   0.0010   0.0009   0.0004
     0.0003   0.0002   0.0001   0.0000   0.0000   0.0000   0.0000   0.0000
     0.0000   0.0000   0.0000   0.0000   0.0000   0.0000   0.0000   0.0000
     0.0000   0.0000   0.0000   0.0000   0.0000   0.0000   0.0000   0.0000

     the Fermi energy is     3.2878 ev

!    total energy              =   -4399.92419194 Ry
     estimated scf accuracy    <          9.1E-09 Ry
     smearing contrib. (-TS)   =      -1.14722871 Ry
     internal energy E=F+TS    =   -4398.77696323 Ry

     The total energy is F=E-TS. E is the sum of the following terms:
     one-electron contribution =  -21252.46920588 Ry
     hartree contribution      =   10753.81593982 Ry
     xc contribution           =    -686.73445389 Ry
     ewald contribution        =    7053.25594039 Ry
     one-center paw contrib.   =    -266.64518368 Ry
      -> PAW hartree energy AE =      25.13821720 Ry
      -> PAW hartree energy PS =     -25.02240752 Ry
      -> PAW xc energy AE      =     -16.51393200 Ry
      -> PAW xc energy PS      =       6.87324043 Ry
      -> total E_H with PAW    =   10753.93174950 Ry
      -> total E_XC with PAW   =    -696.37514547 Ry

     convergence has been achieved in  50 iterations

     Writing all to output data dir /bsuhome/zayahcortright/scratch/pwscf.save/
 
     init_run     :      7.51s CPU      7.92s WALL (       1 calls)
     electrons    :    715.00s CPU    727.54s WALL (       1 calls)

     Called by init_run:
     wfcinit      :      5.91s CPU      6.04s WALL (       1 calls)
     wfcinit:atom :      0.05s CPU      0.06s WALL (       5 calls)
     wfcinit:wfcr :      5.59s CPU      5.67s WALL (       5 calls)
     potinit      :      0.20s CPU      0.22s WALL (       1 calls)
     hinit0       :      0.53s CPU      0.72s WALL (       1 calls)

     Called by electrons:
     c_bands      :    562.12s CPU    566.95s WALL (      50 calls)
     sum_band     :    114.62s CPU    119.05s WALL (      50 calls)
     v_of_rho     :      5.49s CPU      5.81s WALL (      51 calls)
     v_h          :      0.50s CPU      0.50s WALL (      51 calls)
     v_xc         :      4.99s CPU      5.31s WALL (      51 calls)
     newd         :     17.09s CPU     19.63s WALL (      51 calls)
     PAW_pot      :      1.59s CPU      1.62s WALL (      51 calls)
     mix_rho      :     13.58s CPU     13.86s WALL (      50 calls)

     Called by c_bands:
     init_us_2    :      7.07s CPU      7.13s WALL (     505 calls)
     init_us_2:cp :      7.07s CPU      7.12s WALL (     505 calls)
     cegterg      :    532.40s CPU    537.04s WALL (     250 calls)

     Called by sum_band:
     sum_band:wei :      0.35s CPU      0.35s WALL (      50 calls)
     sum_band:loo :     94.76s CPU     95.40s WALL (      50 calls)
     sum_band:buf :      1.67s CPU      1.69s WALL (     250 calls)
     sum_band:ini :      3.34s CPU      3.35s WALL (     250 calls)
     sum_band:cal :     19.09s CPU     19.15s WALL (     250 calls)
     sum_band:bec :      0.60s CPU      0.60s WALL (     250 calls)
     addusdens    :     18.56s CPU     22.30s WALL (      50 calls)
                                        0.00s GPU  (      50 calls)
     addusd:skk   :      0.35s CPU      0.68s WALL (     200 calls)
                                        0.00s GPU  (     200 calls)

     Called by *egterg:
     cdiaghg      :     56.57s CPU     56.79s WALL (    1330 calls)
     cegterg:over :     38.88s CPU     39.00s WALL (    1080 calls)
     cegterg:upda :     28.42s CPU     28.77s WALL (    1080 calls)
     cegterg:last :     58.76s CPU     58.92s WALL (     454 calls)
     cdiaghg:chol :      3.29s CPU      3.31s WALL (    1330 calls)
     cdiaghg:inve :      3.52s CPU      3.53s WALL (    1330 calls)
     cdiaghg:para :      7.26s CPU      7.30s WALL (    2660 calls)
     h_psi        :    294.19s CPU    296.83s WALL (    1335 calls)
     s_psi        :     39.05s CPU     39.18s WALL (    1335 calls)
     g_psi        :      1.22s CPU      1.23s WALL (    1080 calls)

     Called by h_psi:
     h_psi:calbec :     43.41s CPU     43.55s WALL (    1335 calls)
     vloc_psi     :    208.37s CPU    210.34s WALL (    1335 calls)
     add_vuspsi   :     39.07s CPU     39.20s WALL (    1335 calls)

     General routines
     calbec       :     62.50s CPU     62.69s WALL (    1585 calls)
     fft          :      3.65s CPU      3.70s WALL (     661 calls)
     ffts         :      4.86s CPU      4.90s WALL (    5366 calls)
     fftw         :    176.48s CPU    177.84s WALL (  334264 calls)
     interpolate  :      0.40s CPU      0.41s WALL (      51 calls)
 
     Parallel routines

     PAW routines
     PAW_pot      :      1.59s CPU      1.62s WALL (      51 calls)
 
     PWSCF        :  12m 4.10s CPU  12m20.00s WALL

 
   This run was terminated on:  15:49:14  21Jun2024            

=------------------------------------------------------------------------------=
   JOB DONE.
=------------------------------------------------------------------------------=
