
     Program PWSCF v.7.2 starts on 21Jun2024 at 22:27:51 

     This program is part of the open-source Quantum ESPRESSO suite
     for quantum simulation of materials; please cite
         "P. Giannozzi et al., J. Phys.:Condens. Matter 21 395502 (2009);
         "P. Giannozzi et al., J. Phys.:Condens. Matter 29 465901 (2017);
         "P. Giannozzi et al., J. Chem. Phys. 152 154105 (2020);
          URL http://www.quantum-espresso.org", 
     in publications or presentations arising from this work. More details at
     http://www.quantum-espresso.org/quote

     Parallel version (MPI & OpenMP), running on      48 processor cores
     Number of MPI processes:                48
     Threads/MPI process:                     1

     MPI processes distributed on     1 nodes
     33223 MiB available memory on the printing compute node when the environment starts
 
     Reading input from espresso.pwi
Warning: card &CELL ignored
Warning: card / ignored
Warning: card &FCP ignored
Warning: card / ignored
Warning: card &RISM ignored
Warning: card / ignored

     Current dimensions of program PWSCF are:
     Max number of different atomic species (ntypx) = 10
     Max number of k-points (npk) =  40000
     Max angular momentum in pseudopotentials (lmaxx) =  4
     file O.pbe-n-kjpaw_psl.0.1.UPF: wavefunction(s)  2P renormalized
     signal trapping enabled: kill the code with -SIGUSR1 to stop cleanly the simulation 
 
     K-points division:     npool     =       2
     R & G space division:  proc/nbgrp/npool/nimage =      24
     Subspace diagonalization in iterative solution of the eigenvalue problem:
     one sub-group per band group will be used
     scalapack distributed-memory algorithm (size of sub-group:  3*  3 procs)

 
     Parallelization info
     --------------------
     sticks:   dense  smooth     PW     G-vecs:    dense   smooth      PW
     Min         350     175     47                61430    21716    3036
     Max         351     177     48                61449    21727    3041
     Sum        8421    4205   1137              1474595   521381   72913
 
     Using Slab Decomposition
 


     bravais-lattice index     =            0
     lattice parameter (alat)  =      14.8599  a.u.
     unit-cell volume          =    8305.1283 (a.u.)^3
     number of atoms/cell      =           50
     number of atomic types    =            4
     number of electrons       =       431.00
     number of Kohn-Sham states=          259
     kinetic-energy cutoff     =      60.0000  Ry
     charge density cutoff     =     480.0000  Ry
     scf convergence threshold =      1.0E-08
     mixing beta               =       0.1500
     number of iterations used =            8  local-TF  mixing
     Exchange-correlation= PBE
                           (   1   4   3   4   0   0   0)

     celldm(1)=  14.859904  celldm(2)=   0.000000  celldm(3)=   0.000000
     celldm(4)=   0.000000  celldm(5)=   0.000000  celldm(6)=   0.000000

     crystal axes: (cart. coord. in units of alat)
               a(1) = (   1.000000   0.000000   0.000000 )  
               a(2) = (   0.000000   1.000000   0.000000 )  
               a(3) = (   0.000000   0.000000   2.531036 )  

     reciprocal axes: (cart. coord. in units 2 pi/alat)
               b(1) = (  1.000000  0.000000  0.000000 )  
               b(2) = (  0.000000  1.000000  0.000000 )  
               b(3) = (  0.000000  0.000000  0.395095 )  


     PseudoPot. # 1 for Sr read from file:
     /bsuhome/zayahcortright/q-e/pseudo/Sr_pbe_v1.uspp.F.UPF
     MD5 check sum: 6b418c05fbe9db5448babca5e47b7a5b
     Pseudo is Ultrasoft + core correction, Zval = 10.0
     Generated by new atomic code, or converted to UPF format
     Using radial grid of  883 points,  6 beta functions with: 
                l(1) =   0
                l(2) =   0
                l(3) =   1
                l(4) =   1
                l(5) =   2
                l(6) =   2
     Q(r) pseudized with  6 coefficients,  rinner =    1.400   1.400   1.400
                                                       1.400   1.400

     PseudoPot. # 2 for O  read from file:
     /bsuhome/zayahcortright/q-e/pseudo/O.pbe-n-kjpaw_psl.0.1.UPF
     MD5 check sum: 0234752ac141de4415c5fc33072bef88
     Pseudo is Projector augmented-wave + core cor, Zval =  6.0
     Generated using "atomic" code by A. Dal Corso  v.5.0.99 svn rev. 10869
     Shape of augmentation charge: BESSEL
     Using radial grid of 1095 points,  4 beta functions with: 
                l(1) =   0
                l(2) =   0
                l(3) =   1
                l(4) =   1
     Q(r) pseudized with 0 coefficients 


     PseudoPot. # 3 for Co read from file:
     /bsuhome/zayahcortright/q-e/pseudo/Co_pbe_v1.2.uspp.F.UPF
     MD5 check sum: 5f91765df6ddd3222702df6e7b74a16d
     Pseudo is Ultrasoft + core correction, Zval = 17.0
     Generated by new atomic code, or converted to UPF format
     Using radial grid of  863 points,  6 beta functions with: 
                l(1) =   0
                l(2) =   0
                l(3) =   1
                l(4) =   1
                l(5) =   2
                l(6) =   2
     Q(r) pseudized with  8 coefficients,  rinner =    1.200   1.200   1.200
                                                       1.200   1.200

     PseudoPot. # 4 for H  read from file:
     /bsuhome/zayahcortright/q-e/pseudo/H.pbe-rrkjus_psl.1.0.0.UPF
     MD5 check sum: f52b6d4d1c606e5624b1dc7b2218f220
     Pseudo is Ultrasoft, Zval =  1.0
     Generated using "atomic" code by A. Dal Corso  v.5.1
     Using radial grid of  929 points,  2 beta functions with: 
                l(1) =   0
                l(2) =   0
     Q(r) pseudized with 0 coefficients 


     atomic species   valence    mass     pseudopotential
        Sr            10.00    87.62000     Sr( 1.00)
        O              6.00    15.99900     O ( 1.00)
        Co            17.00    58.93319     Co( 1.00)
        H              1.00     1.00800     H ( 1.00)

     No symmetry found


                                    s                        frac. trans.

      isym =  1     identity                                     

 cryst.   s( 1) = (     1          0          0      )
                  (     0          1          0      )
                  (     0          0          1      )

 cart.    s( 1) = (  1.0000000  0.0000000  0.0000000 )
                  (  0.0000000  1.0000000  0.0000000 )
                  (  0.0000000  0.0000000  1.0000000 )


   Cartesian axes

     site n.     atom                  positions (alat units)
         1           Sr  tau(   1) = (   0.2508693   0.7491307   1.7574407  )
         2           O   tau(   2) = (   0.4985141   0.5014859   1.7715967  )
         3           Sr  tau(   3) = (   0.7482398   0.7454518   1.7648669  )
         4           Sr  tau(   4) = (   0.7441748   0.2558252   1.7667843  )
         5           Sr  tau(   5) = (   0.2508693   0.7491307   1.2696799  )
         6           Sr  tau(   6) = (   0.2508693   0.7491307   0.7632319  )
         7           Co  tau(   7) = (   0.4998914   0.5001086   1.0164559  )
         8           Co  tau(   8) = (   0.4936915   0.5063085   1.5135603  )
         9           O   tau(   9) = (   0.4988895   0.7610401   1.0164559  )
        10           O   tau(  10) = (   0.2389599   0.5011105   1.0164559  )
        11           O   tau(  11) = (   0.0070918   0.7374880   1.0164559  )
        12           O   tau(  12) = (   0.0088340   0.7405089   1.5135603  )
        13           O   tau(  13) = (   0.5066944   0.7415376   1.5135603  )
        14           O   tau(  14) = (   0.2584624   0.4933056   1.5135603  )
        15           O   tau(  15) = (   0.4985141   0.5014859   0.7773880  )
        16           O   tau(  16) = (   0.4985141   0.5014859   1.2555238  )
        17           Sr  tau(  17) = (   0.7482398   0.7454518   0.7706582  )
        18           Sr  tau(  18) = (   0.7482398   0.7454518   1.2622536  )
        19           Sr  tau(  19) = (   0.7441748   0.2558252   0.7725755  )
        20           Sr  tau(  20) = (   0.7441748   0.2558252   1.2603363  )
        21           O   tau(  21) = (   0.7322655   0.0078049   1.5135603  )
        22           O   tau(  22) = (   0.7558175   0.4996027   1.5135603  )
        23           O   tau(  23) = (   0.5003973   0.2441825   1.5135603  )
        24           O   tau(  24) = (   0.7527966   0.4978604   1.0164559  )
        25           O   tau(  25) = (   0.5021396   0.2472034   1.0164559  )
        26           O   tau(  26) = (   0.7517679   0.0000000   1.0164559  )
        27           O   tau(  27) = (   0.0114961   0.4948124   1.7455321  )
        28           O   tau(  28) = (   0.0048226   0.0077944   1.7715967  )
        29           Sr  tau(  29) = (   0.2545482   0.2517602   1.7648669  )
        30           O   tau(  30) = (   0.5048017   0.0015068   1.7786929  )
        31           Co  tau(  31) = (   0.0056869   0.5006215   1.0164559  )
        32           Co  tau(  32) = (   0.0065315   0.4997770   1.5135603  )
        33           Co  tau(  33) = (   0.0061999   0.0064171   1.0164559  )
        34           Co  tau(  34) = (   0.0000000   0.0126169   1.5135603  )
        35           O   tau(  35) = (   0.0114961   0.4948124   1.2815885  )
        36           O   tau(  36) = (   0.0114961   0.4948124   0.7513233  )
        37           O   tau(  37) = (   0.0051979   0.2673486   1.0164559  )
        38           O   tau(  38) = (   0.0130029   0.2478461   1.5135603  )
        39           O   tau(  39) = (   0.0048226   0.0077944   0.7773880  )
        40           O   tau(  40) = (   0.0048226   0.0077944   1.2555238  )
        41           Sr  tau(  41) = (   0.2545482   0.2517602   0.7706582  )
        42           Sr  tau(  42) = (   0.2545482   0.2517602   1.2622536  )
        43           Co  tau(  43) = (   0.4989925   0.0073160   1.5135603  )
        44           Co  tau(  44) = (   0.4998370   0.0064714   1.0164559  )
        45           O   tau(  45) = (   0.5048017   0.0015068   0.7844841  )
        46           O   tau(  46) = (   0.5048017   0.0015068   1.2484277  )
        47           O   tau(  47) = (   0.2621260   0.0059111   1.5135603  )
        48           O   tau(  48) = (   0.2591051   0.0041689   1.0164559  )
        49           O   tau(  49) = (   0.5686583   0.2843291   2.1602013  )
        50           H   tau(  50) = (   0.5686583   0.2843291   2.2847091  )

   Crystallographic axes

     site n.     atom                  positions (cryst. coord.)
         1           Sr  tau(   1) = (  0.2508693  0.7491307  0.6943562  )
         2           O   tau(   2) = (  0.4985141  0.5014859  0.6999492  )
         3           Sr  tau(   3) = (  0.7482398  0.7454518  0.6972903  )
         4           Sr  tau(   4) = (  0.7441748  0.2558252  0.6980478  )
         5           Sr  tau(   5) = (  0.2508693  0.7491307  0.5016443  )
         6           Sr  tau(   6) = (  0.2508693  0.7491307  0.3015492  )
         7           Co  tau(   7) = (  0.4998914  0.5001086  0.4015968  )
         8           Co  tau(   8) = (  0.4936915  0.5063085  0.5980003  )
         9           O   tau(   9) = (  0.4988895  0.7610401  0.4015968  )
        10           O   tau(  10) = (  0.2389599  0.5011105  0.4015968  )
        11           O   tau(  11) = (  0.0070918  0.7374880  0.4015968  )
        12           O   tau(  12) = (  0.0088340  0.7405089  0.5980003  )
        13           O   tau(  13) = (  0.5066944  0.7415376  0.5980003  )
        14           O   tau(  14) = (  0.2584624  0.4933056  0.5980003  )
        15           O   tau(  15) = (  0.4985141  0.5014859  0.3071422  )
        16           O   tau(  16) = (  0.4985141  0.5014859  0.4960513  )
        17           Sr  tau(  17) = (  0.7482398  0.7454518  0.3044833  )
        18           Sr  tau(  18) = (  0.7482398  0.7454518  0.4987103  )
        19           Sr  tau(  19) = (  0.7441748  0.2558252  0.3052408  )
        20           Sr  tau(  20) = (  0.7441748  0.2558252  0.4979527  )
        21           O   tau(  21) = (  0.7322655  0.0078049  0.5980003  )
        22           O   tau(  22) = (  0.7558175  0.4996027  0.5980003  )
        23           O   tau(  23) = (  0.5003973  0.2441825  0.5980003  )
        24           O   tau(  24) = (  0.7527966  0.4978604  0.4015968  )
        25           O   tau(  25) = (  0.5021396  0.2472034  0.4015968  )
        26           O   tau(  26) = (  0.7517679  0.0000000  0.4015968  )
        27           O   tau(  27) = (  0.0114961  0.4948124  0.6896512  )
        28           O   tau(  28) = (  0.0048226  0.0077944  0.6999492  )
        29           Sr  tau(  29) = (  0.2545482  0.2517602  0.6972903  )
        30           O   tau(  30) = (  0.5048017  0.0015068  0.7027529  )
        31           Co  tau(  31) = (  0.0056869  0.5006215  0.4015968  )
        32           Co  tau(  32) = (  0.0065315  0.4997770  0.5980003  )
        33           Co  tau(  33) = (  0.0061999  0.0064171  0.4015968  )
        34           Co  tau(  34) = (  0.0000000  0.0126169  0.5980003  )
        35           O   tau(  35) = (  0.0114961  0.4948124  0.5063494  )
        36           O   tau(  36) = (  0.0114961  0.4948124  0.2968442  )
        37           O   tau(  37) = (  0.0051979  0.2673486  0.4015968  )
        38           O   tau(  38) = (  0.0130029  0.2478461  0.5980003  )
        39           O   tau(  39) = (  0.0048226  0.0077944  0.3071422  )
        40           O   tau(  40) = (  0.0048226  0.0077944  0.4960513  )
        41           Sr  tau(  41) = (  0.2545482  0.2517602  0.3044833  )
        42           Sr  tau(  42) = (  0.2545482  0.2517602  0.4987103  )
        43           Co  tau(  43) = (  0.4989925  0.0073160  0.5980003  )
        44           Co  tau(  44) = (  0.4998370  0.0064714  0.4015968  )
        45           O   tau(  45) = (  0.5048017  0.0015068  0.3099459  )
        46           O   tau(  46) = (  0.5048017  0.0015068  0.4932477  )
        47           O   tau(  47) = (  0.2621260  0.0059111  0.5980003  )
        48           O   tau(  48) = (  0.2591051  0.0041689  0.4015968  )
        49           O   tau(  49) = (  0.5686583  0.2843291  0.8534850  )
        50           H   tau(  50) = (  0.5686583  0.2843291  0.9026774  )

     number of k points=    10  Gaussian smearing, width (Ry)=  0.0700
                       cart. coord. in units 2pi/alat
        k(    1) = (   0.0000000   0.0000000   0.0000000), wk =   0.1250000
        k(    2) = (   0.0000000   0.2500000   0.0000000), wk =   0.2500000
        k(    3) = (   0.0000000  -0.5000000   0.0000000), wk =   0.1250000
        k(    4) = (   0.2500000   0.2500000   0.0000000), wk =   0.2500000
        k(    5) = (   0.2500000  -0.5000000   0.0000000), wk =   0.2500000
        k(    6) = (  -0.5000000  -0.5000000   0.0000000), wk =   0.1250000
        k(    7) = (   0.2500000   0.0000000   0.0000000), wk =   0.2500000
        k(    8) = (  -0.5000000   0.0000000   0.0000000), wk =   0.1250000
        k(    9) = (  -0.2500000   0.2500000   0.0000000), wk =   0.2500000
        k(   10) = (  -0.5000000   0.2500000   0.0000000), wk =   0.2500000

                       cryst. coord.
        k(    1) = (   0.0000000   0.0000000   0.0000000), wk =   0.1250000
        k(    2) = (   0.0000000   0.2500000   0.0000000), wk =   0.2500000
        k(    3) = (   0.0000000  -0.5000000   0.0000000), wk =   0.1250000
        k(    4) = (   0.2500000   0.2500000   0.0000000), wk =   0.2500000
        k(    5) = (   0.2500000  -0.5000000   0.0000000), wk =   0.2500000
        k(    6) = (  -0.5000000  -0.5000000   0.0000000), wk =   0.1250000
        k(    7) = (   0.2500000   0.0000000   0.0000000), wk =   0.2500000
        k(    8) = (  -0.5000000   0.0000000   0.0000000), wk =   0.1250000
        k(    9) = (  -0.2500000   0.2500000   0.0000000), wk =   0.2500000
        k(   10) = (  -0.5000000   0.2500000   0.0000000), wk =   0.2500000

     Dense  grid:  1474595 G-vectors     FFT dimensions: ( 108, 108, 270)

     Smooth grid:   521381 G-vectors     FFT dimensions: (  75,  75, 192)

     Dynamical RAM for                 wfc:      10.73 MB

     Dynamical RAM for     wfc (w. buffer):      64.38 MB

     Dynamical RAM for           str. fact:       3.75 MB

     Dynamical RAM for           local pot:       0.00 MB

     Dynamical RAM for          nlocal pot:      24.61 MB

     Dynamical RAM for                qrad:       7.03 MB

     Dynamical RAM for          rho,v,vnew:       6.02 MB

     Dynamical RAM for               rhoin:       2.01 MB

     Dynamical RAM for            rho*nmix:      15.00 MB

     Dynamical RAM for           G-vectors:       3.68 MB

     Dynamical RAM for          h,s,v(r/c):       1.35 MB

     Dynamical RAM for          <psi|beta>:       2.35 MB

     Dynamical RAM for                 psi:      21.46 MB

     Dynamical RAM for                hpsi:      21.46 MB

     Dynamical RAM for                spsi:      21.46 MB

     Dynamical RAM for      wfcinit/wfcrot:      34.49 MB

     Dynamical RAM for           addusdens:     101.26 MB

     Estimated static dynamical RAM per process >     121.50 MB

     Estimated max dynamical RAM per process >     237.76 MB

     Estimated total dynamical RAM >      10.79 GB

     Check: negative core charge=   -0.000004

     Initial potential from superposition of free atoms

     starting charge     422.5961, renormalised to     431.0000

     negative rho (up, down):  7.820E-01 0.000E+00
     Starting wfcs are  377 randomized atomic wfcs
     Checking if some PAW data can be deallocated... 
       PAW data deallocated on   19 nodes for type:  2

     total cpu time spent up to now is        9.4 secs

     Self-consistent Calculation

     iteration #  1     ecut=    60.00 Ry     beta= 0.15
     Davidson diagonalization with overlap

---- Real-time Memory Report at c_bands before calling an iterative solver
             0 MiB given to the printing process from OS
             0 MiB allocation reported by mallinfo(arena+hblkhd)
         24000 MiB available memory on the node where the printing process lives
------------------
     ethr =  1.00E-02,  avg # of iterations =  2.0

     negative rho (up, down):  7.716E-01 0.000E+00

     total cpu time spent up to now is       25.7 secs

     total energy              =   -4446.63532728 Ry
     estimated scf accuracy    <      44.66615498 Ry

     iteration #  2     ecut=    60.00 Ry     beta= 0.15
     Davidson diagonalization with overlap

---- Real-time Memory Report at c_bands before calling an iterative solver
             0 MiB given to the printing process from OS
             0 MiB allocation reported by mallinfo(arena+hblkhd)
         24264 MiB available memory on the node where the printing process lives
------------------
     ethr =  1.00E-02,  avg # of iterations =  1.0

     negative rho (up, down):  7.584E-01 0.000E+00

     total cpu time spent up to now is       40.0 secs

     total energy              =   -4443.33057464 Ry
     estimated scf accuracy    <      29.75887937 Ry

     iteration #  3     ecut=    60.00 Ry     beta= 0.15
     Davidson diagonalization with overlap

---- Real-time Memory Report at c_bands before calling an iterative solver
             0 MiB given to the printing process from OS
             0 MiB allocation reported by mallinfo(arena+hblkhd)
         23423 MiB available memory on the node where the printing process lives
------------------
     ethr =  6.90E-03,  avg # of iterations =  1.0

     negative rho (up, down):  7.555E-01 0.000E+00

     total cpu time spent up to now is       54.4 secs

     total energy              =   -4444.26820217 Ry
     estimated scf accuracy    <      28.10098769 Ry

     iteration #  4     ecut=    60.00 Ry     beta= 0.15
     Davidson diagonalization with overlap

---- Real-time Memory Report at c_bands before calling an iterative solver
             0 MiB given to the printing process from OS
             0 MiB allocation reported by mallinfo(arena+hblkhd)
         23397 MiB available memory on the node where the printing process lives
------------------
     ethr =  6.52E-03,  avg # of iterations =  1.0

     negative rho (up, down):  7.500E-01 0.000E+00

     total cpu time spent up to now is       68.9 secs

     total energy              =   -4443.08663528 Ry
     estimated scf accuracy    <      20.49885048 Ry

     iteration #  5     ecut=    60.00 Ry     beta= 0.15
     Davidson diagonalization with overlap

---- Real-time Memory Report at c_bands before calling an iterative solver
             0 MiB given to the printing process from OS
             0 MiB allocation reported by mallinfo(arena+hblkhd)
         23380 MiB available memory on the node where the printing process lives
------------------
     ethr =  4.76E-03,  avg # of iterations =  1.0

     negative rho (up, down):  7.399E-01 0.000E+00

     total cpu time spent up to now is       83.4 secs

     total energy              =   -4442.49365010 Ry
     estimated scf accuracy    <      11.44732136 Ry

     iteration #  6     ecut=    60.00 Ry     beta= 0.15
     Davidson diagonalization with overlap

---- Real-time Memory Report at c_bands before calling an iterative solver
             0 MiB given to the printing process from OS
             0 MiB allocation reported by mallinfo(arena+hblkhd)
         23359 MiB available memory on the node where the printing process lives
------------------
     ethr =  2.66E-03,  avg # of iterations =  1.1

     negative rho (up, down):  7.427E-01 0.000E+00

     total cpu time spent up to now is       97.9 secs

     total energy              =   -4442.82236340 Ry
     estimated scf accuracy    <       5.02926568 Ry

     iteration #  7     ecut=    60.00 Ry     beta= 0.15
     Davidson diagonalization with overlap

---- Real-time Memory Report at c_bands before calling an iterative solver
             0 MiB given to the printing process from OS
             0 MiB allocation reported by mallinfo(arena+hblkhd)
         23343 MiB available memory on the node where the printing process lives
------------------
     ethr =  1.17E-03,  avg # of iterations =  1.7

     negative rho (up, down):  7.637E-01 0.000E+00

     total cpu time spent up to now is      112.7 secs

     total energy              =   -4441.65528306 Ry
     estimated scf accuracy    <       3.97137022 Ry

     iteration #  8     ecut=    60.00 Ry     beta= 0.15
     Davidson diagonalization with overlap

---- Real-time Memory Report at c_bands before calling an iterative solver
             0 MiB given to the printing process from OS
             0 MiB allocation reported by mallinfo(arena+hblkhd)
         23321 MiB available memory on the node where the printing process lives
------------------
     ethr =  9.21E-04,  avg # of iterations =  4.4

     negative rho (up, down):  7.727E-01 0.000E+00

     total cpu time spent up to now is      131.9 secs

     total energy              =   -4441.32837103 Ry
     estimated scf accuracy    <      19.03513635 Ry

     iteration #  9     ecut=    60.00 Ry     beta= 0.15
     Davidson diagonalization with overlap

---- Real-time Memory Report at c_bands before calling an iterative solver
             0 MiB given to the printing process from OS
             0 MiB allocation reported by mallinfo(arena+hblkhd)
         23174 MiB available memory on the node where the printing process lives
------------------
     ethr =  9.21E-04,  avg # of iterations =  9.8

     negative rho (up, down):  7.702E-01 0.000E+00

     total cpu time spent up to now is      153.6 secs

     total energy              =   -4441.74638378 Ry
     estimated scf accuracy    <       3.15736305 Ry

     iteration # 10     ecut=    60.00 Ry     beta= 0.15
     Davidson diagonalization with overlap

---- Real-time Memory Report at c_bands before calling an iterative solver
             0 MiB given to the printing process from OS
             0 MiB allocation reported by mallinfo(arena+hblkhd)
         22804 MiB available memory on the node where the printing process lives
------------------
     ethr =  7.33E-04,  avg # of iterations =  1.0

     negative rho (up, down):  7.766E-01 0.000E+00

     total cpu time spent up to now is      168.0 secs

     total energy              =   -4441.90224417 Ry
     estimated scf accuracy    <       1.42133955 Ry

     iteration # 11     ecut=    60.00 Ry     beta= 0.15
     Davidson diagonalization with overlap

---- Real-time Memory Report at c_bands before calling an iterative solver
             0 MiB given to the printing process from OS
             0 MiB allocation reported by mallinfo(arena+hblkhd)
         22791 MiB available memory on the node where the printing process lives
------------------
     ethr =  3.30E-04,  avg # of iterations =  2.4

     negative rho (up, down):  8.043E-01 0.000E+00

     total cpu time spent up to now is      184.6 secs

     total energy              =   -4441.74251239 Ry
     estimated scf accuracy    <       1.32815273 Ry

     iteration # 12     ecut=    60.00 Ry     beta= 0.15
     Davidson diagonalization with overlap

---- Real-time Memory Report at c_bands before calling an iterative solver
             0 MiB given to the printing process from OS
             0 MiB allocation reported by mallinfo(arena+hblkhd)
         22793 MiB available memory on the node where the printing process lives
------------------
     ethr =  3.08E-04,  avg # of iterations =  6.6

     negative rho (up, down):  8.134E-01 0.000E+00

     total cpu time spent up to now is      203.1 secs

     total energy              =   -4441.86462832 Ry
     estimated scf accuracy    <       1.15228015 Ry

     iteration # 13     ecut=    60.00 Ry     beta= 0.15
     Davidson diagonalization with overlap

---- Real-time Memory Report at c_bands before calling an iterative solver
             0 MiB given to the printing process from OS
             0 MiB allocation reported by mallinfo(arena+hblkhd)
         22780 MiB available memory on the node where the printing process lives
------------------
     ethr =  2.67E-04,  avg # of iterations =  6.0

     negative rho (up, down):  8.188E-01 0.000E+00

     total cpu time spent up to now is      221.6 secs

     total energy              =   -4441.80525453 Ry
     estimated scf accuracy    <       0.76621779 Ry

     iteration # 14     ecut=    60.00 Ry     beta= 0.15
     Davidson diagonalization with overlap

---- Real-time Memory Report at c_bands before calling an iterative solver
             0 MiB given to the printing process from OS
             0 MiB allocation reported by mallinfo(arena+hblkhd)
         22755 MiB available memory on the node where the printing process lives
------------------
     ethr =  1.78E-04,  avg # of iterations =  8.1

     negative rho (up, down):  8.234E-01 0.000E+00

     total cpu time spent up to now is      241.6 secs

     total energy              =   -4441.74634140 Ry
     estimated scf accuracy    <       0.37435866 Ry

     iteration # 15     ecut=    60.00 Ry     beta= 0.15
     Davidson diagonalization with overlap

---- Real-time Memory Report at c_bands before calling an iterative solver
             0 MiB given to the printing process from OS
             0 MiB allocation reported by mallinfo(arena+hblkhd)
         22749 MiB available memory on the node where the printing process lives
------------------
     ethr =  8.69E-05,  avg # of iterations =  8.8

     negative rho (up, down):  8.308E-01 0.000E+00

     total cpu time spent up to now is      262.5 secs

     total energy              =   -4441.73299689 Ry
     estimated scf accuracy    <       0.33775699 Ry

     iteration # 16     ecut=    60.00 Ry     beta= 0.15
     Davidson diagonalization with overlap

---- Real-time Memory Report at c_bands before calling an iterative solver
             0 MiB given to the printing process from OS
             0 MiB allocation reported by mallinfo(arena+hblkhd)
         22722 MiB available memory on the node where the printing process lives
------------------
     ethr =  7.84E-05,  avg # of iterations =  7.7

     negative rho (up, down):  8.308E-01 0.000E+00

     total cpu time spent up to now is      281.9 secs

     total energy              =   -4441.72290471 Ry
     estimated scf accuracy    <       0.30282622 Ry

     iteration # 17     ecut=    60.00 Ry     beta= 0.15
     Davidson diagonalization with overlap

---- Real-time Memory Report at c_bands before calling an iterative solver
             0 MiB given to the printing process from OS
             0 MiB allocation reported by mallinfo(arena+hblkhd)
         22787 MiB available memory on the node where the printing process lives
------------------
     ethr =  7.03E-05,  avg # of iterations =  1.3

     negative rho (up, down):  8.156E-01 0.000E+00

     total cpu time spent up to now is      297.2 secs

     total energy              =   -4441.70164897 Ry
     estimated scf accuracy    <       0.19182841 Ry

     iteration # 18     ecut=    60.00 Ry     beta= 0.15
     Davidson diagonalization with overlap

---- Real-time Memory Report at c_bands before calling an iterative solver
             0 MiB given to the printing process from OS
             0 MiB allocation reported by mallinfo(arena+hblkhd)
         22761 MiB available memory on the node where the printing process lives
------------------
     ethr =  4.45E-05,  avg # of iterations = 10.3

     negative rho (up, down):  8.119E-01 0.000E+00

     total cpu time spent up to now is      318.3 secs

     total energy              =   -4441.67609492 Ry
     estimated scf accuracy    <       0.15296419 Ry

     iteration # 19     ecut=    60.00 Ry     beta= 0.15
     Davidson diagonalization with overlap

---- Real-time Memory Report at c_bands before calling an iterative solver
             0 MiB given to the printing process from OS
             0 MiB allocation reported by mallinfo(arena+hblkhd)
         22701 MiB available memory on the node where the printing process lives
------------------
     ethr =  3.55E-05,  avg # of iterations =  9.2

     negative rho (up, down):  8.250E-01 0.000E+00

     total cpu time spent up to now is      338.9 secs

     total energy              =   -4441.67086767 Ry
     estimated scf accuracy    <       0.07668598 Ry

     iteration # 20     ecut=    60.00 Ry     beta= 0.15
     Davidson diagonalization with overlap

---- Real-time Memory Report at c_bands before calling an iterative solver
             0 MiB given to the printing process from OS
             0 MiB allocation reported by mallinfo(arena+hblkhd)
         22727 MiB available memory on the node where the printing process lives
------------------
     c_bands:  1 eigenvalues not converged
     ethr =  1.78E-05,  avg # of iterations = 11.5

     negative rho (up, down):  8.291E-01 0.000E+00

     total cpu time spent up to now is      362.9 secs

     total energy              =   -4441.67272317 Ry
     estimated scf accuracy    <       0.03266797 Ry

     iteration # 21     ecut=    60.00 Ry     beta= 0.15
     Davidson diagonalization with overlap

---- Real-time Memory Report at c_bands before calling an iterative solver
             0 MiB given to the printing process from OS
             0 MiB allocation reported by mallinfo(arena+hblkhd)
         22656 MiB available memory on the node where the printing process lives
------------------
     c_bands:  1 eigenvalues not converged
     ethr =  7.58E-06,  avg # of iterations =  6.9

     negative rho (up, down):  8.235E-01 0.000E+00

     total cpu time spent up to now is      382.0 secs

     total energy              =   -4441.67127992 Ry
     estimated scf accuracy    <       0.02691845 Ry

     iteration # 22     ecut=    60.00 Ry     beta= 0.15
     Davidson diagonalization with overlap

---- Real-time Memory Report at c_bands before calling an iterative solver
             0 MiB given to the printing process from OS
             0 MiB allocation reported by mallinfo(arena+hblkhd)
         22667 MiB available memory on the node where the printing process lives
------------------
     ethr =  6.25E-06,  avg # of iterations =  3.1

     negative rho (up, down):  8.005E-01 0.000E+00

     total cpu time spent up to now is      398.7 secs

     total energy              =   -4441.66617594 Ry
     estimated scf accuracy    <       0.02170661 Ry

     iteration # 23     ecut=    60.00 Ry     beta= 0.15
     Davidson diagonalization with overlap

---- Real-time Memory Report at c_bands before calling an iterative solver
             0 MiB given to the printing process from OS
             0 MiB allocation reported by mallinfo(arena+hblkhd)
         22716 MiB available memory on the node where the printing process lives
------------------
     ethr =  5.04E-06,  avg # of iterations = 11.1

     negative rho (up, down):  8.022E-01 0.000E+00

     total cpu time spent up to now is      420.0 secs

     total energy              =   -4441.66623887 Ry
     estimated scf accuracy    <       0.01235740 Ry

     iteration # 24     ecut=    60.00 Ry     beta= 0.15
     Davidson diagonalization with overlap

---- Real-time Memory Report at c_bands before calling an iterative solver
             0 MiB given to the printing process from OS
             0 MiB allocation reported by mallinfo(arena+hblkhd)
         22744 MiB available memory on the node where the printing process lives
------------------
     c_bands:  1 eigenvalues not converged
     ethr =  2.87E-06,  avg # of iterations =  9.7

     negative rho (up, down):  7.982E-01 0.000E+00

     total cpu time spent up to now is      441.2 secs

     total energy              =   -4441.66576895 Ry
     estimated scf accuracy    <       0.00841884 Ry

     iteration # 25     ecut=    60.00 Ry     beta= 0.15
     Davidson diagonalization with overlap

---- Real-time Memory Report at c_bands before calling an iterative solver
             0 MiB given to the printing process from OS
             0 MiB allocation reported by mallinfo(arena+hblkhd)
         22694 MiB available memory on the node where the printing process lives
------------------
     ethr =  1.95E-06,  avg # of iterations =  3.0

     negative rho (up, down):  7.947E-01 0.000E+00

     total cpu time spent up to now is      458.4 secs

     total energy              =   -4441.66424695 Ry
     estimated scf accuracy    <       0.00583507 Ry

     iteration # 26     ecut=    60.00 Ry     beta= 0.15
     Davidson diagonalization with overlap

---- Real-time Memory Report at c_bands before calling an iterative solver
             0 MiB given to the printing process from OS
             0 MiB allocation reported by mallinfo(arena+hblkhd)
         22713 MiB available memory on the node where the printing process lives
------------------
     ethr =  1.35E-06,  avg # of iterations = 10.3

     negative rho (up, down):  7.981E-01 0.000E+00

     total cpu time spent up to now is      481.4 secs

     total energy              =   -4441.66462291 Ry
     estimated scf accuracy    <       0.00193321 Ry

     iteration # 27     ecut=    60.00 Ry     beta= 0.15
     Davidson diagonalization with overlap

---- Real-time Memory Report at c_bands before calling an iterative solver
             0 MiB given to the printing process from OS
             0 MiB allocation reported by mallinfo(arena+hblkhd)
         22649 MiB available memory on the node where the printing process lives
------------------
     c_bands:  1 eigenvalues not converged
     ethr =  4.49E-07,  avg # of iterations = 10.2

     negative rho (up, down):  7.975E-01 0.000E+00

     total cpu time spent up to now is      503.5 secs

     total energy              =   -4441.66472143 Ry
     estimated scf accuracy    <       0.00073966 Ry

     iteration # 28     ecut=    60.00 Ry     beta= 0.15
     Davidson diagonalization with overlap

---- Real-time Memory Report at c_bands before calling an iterative solver
             0 MiB given to the printing process from OS
             0 MiB allocation reported by mallinfo(arena+hblkhd)
         22597 MiB available memory on the node where the printing process lives
------------------
     ethr =  1.72E-07,  avg # of iterations =  2.1

     negative rho (up, down):  7.945E-01 0.000E+00

     total cpu time spent up to now is      520.0 secs

     total energy              =   -4441.66468596 Ry
     estimated scf accuracy    <       0.00042824 Ry

     iteration # 29     ecut=    60.00 Ry     beta= 0.15
     Davidson diagonalization with overlap

---- Real-time Memory Report at c_bands before calling an iterative solver
             0 MiB given to the printing process from OS
             0 MiB allocation reported by mallinfo(arena+hblkhd)
         22638 MiB available memory on the node where the printing process lives
------------------
     c_bands:  1 eigenvalues not converged
     c_bands:  1 eigenvalues not converged
     ethr =  9.94E-08,  avg # of iterations = 10.6

     negative rho (up, down):  7.933E-01 0.000E+00

     total cpu time spent up to now is      541.2 secs

     total energy              =   -4441.66470599 Ry
     estimated scf accuracy    <       0.00013588 Ry

     iteration # 30     ecut=    60.00 Ry     beta= 0.15
     Davidson diagonalization with overlap

---- Real-time Memory Report at c_bands before calling an iterative solver
             0 MiB given to the printing process from OS
             0 MiB allocation reported by mallinfo(arena+hblkhd)
         22694 MiB available memory on the node where the printing process lives
------------------
     ethr =  3.15E-08,  avg # of iterations =  3.0

     negative rho (up, down):  7.927E-01 0.000E+00

     total cpu time spent up to now is      558.7 secs

     total energy              =   -4441.66472003 Ry
     estimated scf accuracy    <       0.00006259 Ry

     iteration # 31     ecut=    60.00 Ry     beta= 0.15
     Davidson diagonalization with overlap

---- Real-time Memory Report at c_bands before calling an iterative solver
             0 MiB given to the printing process from OS
             0 MiB allocation reported by mallinfo(arena+hblkhd)
         22736 MiB available memory on the node where the printing process lives
------------------
     ethr =  1.45E-08,  avg # of iterations =  2.2

     negative rho (up, down):  7.923E-01 0.000E+00

     total cpu time spent up to now is      575.3 secs

     total energy              =   -4441.66472755 Ry
     estimated scf accuracy    <       0.00003261 Ry

     iteration # 32     ecut=    60.00 Ry     beta= 0.15
     Davidson diagonalization with overlap

---- Real-time Memory Report at c_bands before calling an iterative solver
             0 MiB given to the printing process from OS
             0 MiB allocation reported by mallinfo(arena+hblkhd)
         22723 MiB available memory on the node where the printing process lives
------------------
     ethr =  7.57E-09,  avg # of iterations =  2.2

     negative rho (up, down):  7.924E-01 0.000E+00

     total cpu time spent up to now is      592.0 secs

     total energy              =   -4441.66472781 Ry
     estimated scf accuracy    <       0.00001649 Ry

     iteration # 33     ecut=    60.00 Ry     beta= 0.15
     Davidson diagonalization with overlap

---- Real-time Memory Report at c_bands before calling an iterative solver
             0 MiB given to the printing process from OS
             0 MiB allocation reported by mallinfo(arena+hblkhd)
         22730 MiB available memory on the node where the printing process lives
------------------
     ethr =  3.83E-09,  avg # of iterations =  1.8

     negative rho (up, down):  7.928E-01 0.000E+00

     total cpu time spent up to now is      608.1 secs

     total energy              =   -4441.66472650 Ry
     estimated scf accuracy    <       0.00001037 Ry

     iteration # 34     ecut=    60.00 Ry     beta= 0.15
     Davidson diagonalization with overlap

---- Real-time Memory Report at c_bands before calling an iterative solver
             0 MiB given to the printing process from OS
             0 MiB allocation reported by mallinfo(arena+hblkhd)
         22735 MiB available memory on the node where the printing process lives
------------------
     ethr =  2.41E-09,  avg # of iterations =  2.2

     negative rho (up, down):  7.929E-01 0.000E+00

     total cpu time spent up to now is      625.7 secs

     total energy              =   -4441.66472624 Ry
     estimated scf accuracy    <       0.00000788 Ry

     iteration # 35     ecut=    60.00 Ry     beta= 0.15
     Davidson diagonalization with overlap

---- Real-time Memory Report at c_bands before calling an iterative solver
             0 MiB given to the printing process from OS
             0 MiB allocation reported by mallinfo(arena+hblkhd)
         22732 MiB available memory on the node where the printing process lives
------------------
     ethr =  1.83E-09,  avg # of iterations =  2.1

     negative rho (up, down):  7.928E-01 0.000E+00

     total cpu time spent up to now is      643.2 secs

     total energy              =   -4441.66472691 Ry
     estimated scf accuracy    <       0.00000510 Ry

     iteration # 36     ecut=    60.00 Ry     beta= 0.15
     Davidson diagonalization with overlap

---- Real-time Memory Report at c_bands before calling an iterative solver
             0 MiB given to the printing process from OS
             0 MiB allocation reported by mallinfo(arena+hblkhd)
         22746 MiB available memory on the node where the printing process lives
------------------
     ethr =  1.18E-09,  avg # of iterations =  2.3

     negative rho (up, down):  7.927E-01 0.000E+00

     total cpu time spent up to now is      660.7 secs

     total energy              =   -4441.66472802 Ry
     estimated scf accuracy    <       0.00000359 Ry

     iteration # 37     ecut=    60.00 Ry     beta= 0.15
     Davidson diagonalization with overlap

---- Real-time Memory Report at c_bands before calling an iterative solver
             0 MiB given to the printing process from OS
             0 MiB allocation reported by mallinfo(arena+hblkhd)
         22753 MiB available memory on the node where the printing process lives
------------------
     ethr =  8.34E-10,  avg # of iterations =  2.8

     negative rho (up, down):  7.926E-01 0.000E+00

     total cpu time spent up to now is      678.3 secs

     total energy              =   -4441.66472913 Ry
     estimated scf accuracy    <       0.00000305 Ry

     iteration # 38     ecut=    60.00 Ry     beta= 0.15
     Davidson diagonalization with overlap

---- Real-time Memory Report at c_bands before calling an iterative solver
             0 MiB given to the printing process from OS
             0 MiB allocation reported by mallinfo(arena+hblkhd)
         22766 MiB available memory on the node where the printing process lives
------------------
     ethr =  7.07E-10,  avg # of iterations =  3.0

     negative rho (up, down):  7.925E-01 0.000E+00

     total cpu time spent up to now is      695.9 secs

     total energy              =   -4441.66472931 Ry
     estimated scf accuracy    <       0.00000159 Ry

     iteration # 39     ecut=    60.00 Ry     beta= 0.15
     Davidson diagonalization with overlap

---- Real-time Memory Report at c_bands before calling an iterative solver
             0 MiB given to the printing process from OS
             0 MiB allocation reported by mallinfo(arena+hblkhd)
         22761 MiB available memory on the node where the printing process lives
------------------
     ethr =  3.69E-10,  avg # of iterations =  3.3

     negative rho (up, down):  7.925E-01 0.000E+00

     total cpu time spent up to now is      713.7 secs

     total energy              =   -4441.66472890 Ry
     estimated scf accuracy    <       0.00000100 Ry

     iteration # 40     ecut=    60.00 Ry     beta= 0.15
     Davidson diagonalization with overlap

---- Real-time Memory Report at c_bands before calling an iterative solver
             0 MiB given to the printing process from OS
             0 MiB allocation reported by mallinfo(arena+hblkhd)
         22763 MiB available memory on the node where the printing process lives
------------------
     ethr =  2.32E-10,  avg # of iterations =  2.9

     negative rho (up, down):  7.925E-01 0.000E+00

     total cpu time spent up to now is      731.3 secs

     total energy              =   -4441.66472901 Ry
     estimated scf accuracy    <       0.00000039 Ry

     iteration # 41     ecut=    60.00 Ry     beta= 0.15
     Davidson diagonalization with overlap

---- Real-time Memory Report at c_bands before calling an iterative solver
             0 MiB given to the printing process from OS
             0 MiB allocation reported by mallinfo(arena+hblkhd)
         22762 MiB available memory on the node where the printing process lives
------------------
     ethr =  9.12E-11,  avg # of iterations =  2.1

     negative rho (up, down):  7.925E-01 0.000E+00

     total cpu time spent up to now is      748.4 secs

     total energy              =   -4441.66472920 Ry
     estimated scf accuracy    <       0.00000023 Ry

     iteration # 42     ecut=    60.00 Ry     beta= 0.15
     Davidson diagonalization with overlap

---- Real-time Memory Report at c_bands before calling an iterative solver
             0 MiB given to the printing process from OS
             0 MiB allocation reported by mallinfo(arena+hblkhd)
         22769 MiB available memory on the node where the printing process lives
------------------
     ethr =  5.26E-11,  avg # of iterations =  2.8

     negative rho (up, down):  7.925E-01 0.000E+00

     total cpu time spent up to now is      765.8 secs

     total energy              =   -4441.66472942 Ry
     estimated scf accuracy    <       0.00000014 Ry

     iteration # 43     ecut=    60.00 Ry     beta= 0.15
     Davidson diagonalization with overlap

---- Real-time Memory Report at c_bands before calling an iterative solver
             0 MiB given to the printing process from OS
             0 MiB allocation reported by mallinfo(arena+hblkhd)
         22773 MiB available memory on the node where the printing process lives
------------------
     ethr =  3.27E-11,  avg # of iterations =  3.9

     negative rho (up, down):  7.925E-01 0.000E+00

     total cpu time spent up to now is      783.9 secs

     total energy              =   -4441.66472945 Ry
     estimated scf accuracy    <       0.00000010 Ry

     iteration # 44     ecut=    60.00 Ry     beta= 0.15
     Davidson diagonalization with overlap

---- Real-time Memory Report at c_bands before calling an iterative solver
             0 MiB given to the printing process from OS
             0 MiB allocation reported by mallinfo(arena+hblkhd)
         22762 MiB available memory on the node where the printing process lives
------------------
     ethr =  2.23E-11,  avg # of iterations =  3.7

     negative rho (up, down):  7.925E-01 0.000E+00

     total cpu time spent up to now is      802.1 secs

     total energy              =   -4441.66472942 Ry
     estimated scf accuracy    <       0.00000005 Ry

     iteration # 45     ecut=    60.00 Ry     beta= 0.15
     Davidson diagonalization with overlap

---- Real-time Memory Report at c_bands before calling an iterative solver
             0 MiB given to the printing process from OS
             0 MiB allocation reported by mallinfo(arena+hblkhd)
         22762 MiB available memory on the node where the printing process lives
------------------
     ethr =  1.23E-11,  avg # of iterations =  3.8

     negative rho (up, down):  7.925E-01 0.000E+00

     total cpu time spent up to now is      820.2 secs

     total energy              =   -4441.66472940 Ry
     estimated scf accuracy    <       0.00000004 Ry

     iteration # 46     ecut=    60.00 Ry     beta= 0.15
     Davidson diagonalization with overlap

---- Real-time Memory Report at c_bands before calling an iterative solver
             0 MiB given to the printing process from OS
             0 MiB allocation reported by mallinfo(arena+hblkhd)
         22762 MiB available memory on the node where the printing process lives
------------------
     ethr =  9.30E-12,  avg # of iterations =  2.9

     negative rho (up, down):  7.925E-01 0.000E+00

     total cpu time spent up to now is      837.9 secs

     total energy              =   -4441.66472938 Ry
     estimated scf accuracy    <       0.00000002 Ry

     iteration # 47     ecut=    60.00 Ry     beta= 0.15
     Davidson diagonalization with overlap

---- Real-time Memory Report at c_bands before calling an iterative solver
             0 MiB given to the printing process from OS
             0 MiB allocation reported by mallinfo(arena+hblkhd)
         22761 MiB available memory on the node where the printing process lives
------------------
     ethr =  5.52E-12,  avg # of iterations =  2.2

     negative rho (up, down):  7.925E-01 0.000E+00

     total cpu time spent up to now is      854.9 secs

     total energy              =   -4441.66472939 Ry
     estimated scf accuracy    <       0.00000001 Ry

     iteration # 48     ecut=    60.00 Ry     beta= 0.15
     Davidson diagonalization with overlap

---- Real-time Memory Report at c_bands before calling an iterative solver
             0 MiB given to the printing process from OS
             0 MiB allocation reported by mallinfo(arena+hblkhd)
         22765 MiB available memory on the node where the printing process lives
------------------
     ethr =  3.25E-12,  avg # of iterations =  2.1

     negative rho (up, down):  7.925E-01 0.000E+00

     total cpu time spent up to now is      871.8 secs

     total energy              =   -4441.66472941 Ry
     estimated scf accuracy    <       0.00000001 Ry

     iteration # 49     ecut=    60.00 Ry     beta= 0.15
     Davidson diagonalization with overlap

---- Real-time Memory Report at c_bands before calling an iterative solver
             0 MiB given to the printing process from OS
             0 MiB allocation reported by mallinfo(arena+hblkhd)
         22765 MiB available memory on the node where the printing process lives
------------------
     ethr =  2.71E-12,  avg # of iterations =  2.2

     negative rho (up, down):  7.925E-01 0.000E+00

     total cpu time spent up to now is      888.7 secs

     End of self-consistent calculation

          k = 0.0000 0.0000 0.0000 ( 65197 PWs)   bands (ev):

   -92.6949 -92.6425 -92.5486 -92.5039 -92.4453 -92.4018 -92.3836 -92.2623
   -56.0484 -56.0293 -55.9060 -55.8955 -55.8891 -55.8824 -55.8459 -55.8179
   -55.8021 -55.8016 -55.7938 -55.7517 -55.7358 -55.6959 -55.6750 -55.6453
   -55.6392 -55.5894 -55.5888 -55.5868 -55.5784 -55.5369 -55.5141 -55.4286
   -31.2723 -31.2530 -31.1109 -31.0964 -31.0242 -30.9242 -30.7378 -30.6881
   -29.8418 -29.7992 -29.7723 -29.6639 -15.0750 -15.0291 -14.9492 -14.8194
   -14.6246 -14.5013 -14.2119 -14.1933 -14.1638 -14.1155 -14.0688 -14.0563
   -14.0488 -14.0298 -14.0138 -13.9700 -13.9626 -13.9241 -13.7709 -13.5926
   -13.5584 -13.5288 -13.4972 -13.4811 -13.4213 -13.3846 -13.3168 -13.2446
   -13.1105 -13.1026 -13.0971 -13.0703 -13.0681 -13.0497 -12.9970 -12.9861
   -12.9746 -12.9449 -12.9175 -12.8974 -12.8779 -12.8567 -12.8315 -12.7316
   -12.7238 -12.6714 -12.6132 -12.5866 -12.5560 -12.3366 -12.1910 -11.9884
   -11.9170 -11.8550 -11.7813 -11.7698 -11.7473 -11.7295 -11.6658 -11.6483
   -11.6143 -11.5845 -11.4724 -11.3932 -11.3896  -2.9346  -2.7026  -2.4729
    -2.3261  -2.2630  -2.1213  -1.8139  -1.7997  -1.7805  -1.6963  -1.6760
    -1.6080  -1.5913  -1.5501  -1.5080  -1.3249  -1.1840  -1.0991  -1.0692
    -0.9246  -0.9098  -0.8635  -0.8424  -0.7983  -0.7800  -0.7278  -0.7002
    -0.6227  -0.6141  -0.5403  -0.4075  -0.3959  -0.3665  -0.2854  -0.2643
    -0.2586  -0.1957  -0.1215  -0.0513  -0.0233   0.0107   0.0849   0.1364
     0.1887   0.2071   0.2252   0.4807   0.4964   0.6694   0.7356   0.8072
     0.8468   0.9356   0.9464   0.9612   1.0319   1.0579   1.0917   1.1504
     1.2805   1.3404   1.3602   1.3806   1.3970   1.4591   1.5281   1.6385
     1.6494   1.7178   1.7294   1.7717   1.7834   1.7959   1.8561   1.9094
     1.9254   1.9764   2.0012   2.0360   2.1672   2.2603   2.2944   2.3080
     2.4229   2.4590   2.4824   2.5022   2.5192   2.5308   2.6295   2.6656
     2.6901   2.7089   2.7234   2.8066   2.9131   2.9462   2.9582   2.9639
     3.0319   3.0367   3.0599   3.0675   3.0762   3.0877   3.0961   3.1094
     3.1158   3.1279   3.1358   3.1441   3.1635   3.1845   3.1893   3.2017
     3.2325   3.3431   3.4179   4.1139   4.4446   4.7758   4.8689   5.0569
     5.7745   5.9506   5.9920   6.0093   6.3206   6.3672   6.4811   6.4944
     6.7352   7.0087   7.0976   7.3236   7.4930   7.6096   7.6609   7.6752
     7.7205   7.8654   8.0122   8.0442   8.1163   8.1854   8.3564   8.4374
     8.7279   8.8586   8.9026

     occupation numbers 
     1.0000   1.0000   1.0000   1.0000   1.0000   1.0000   1.0000   1.0000
     1.0000   1.0000   1.0000   1.0000   1.0000   1.0000   1.0000   1.0000
     1.0000   1.0000   1.0000   1.0000   1.0000   1.0000   1.0000   1.0000
     1.0000   1.0000   1.0000   1.0000   1.0000   1.0000   1.0000   1.0000
     1.0000   1.0000   1.0000   1.0000   1.0000   1.0000   1.0000   1.0000
     1.0000   1.0000   1.0000   1.0000   1.0000   1.0000   1.0000   1.0000
     1.0000   1.0000   1.0000   1.0000   1.0000   1.0000   1.0000   1.0000
     1.0000   1.0000   1.0000   1.0000   1.0000   1.0000   1.0000   1.0000
     1.0000   1.0000   1.0000   1.0000   1.0000   1.0000   1.0000   1.0000
     1.0000   1.0000   1.0000   1.0000   1.0000   1.0000   1.0000   1.0000
     1.0000   1.0000   1.0000   1.0000   1.0000   1.0000   1.0000   1.0000
     1.0000   1.0000   1.0000   1.0000   1.0000   1.0000   1.0000   1.0000
     1.0000   1.0000   1.0000   1.0000   1.0000   1.0000   1.0000   1.0000
     1.0000   1.0000   1.0000   1.0000   1.0000   1.0000   1.0000   1.0000
     1.0000   1.0000   1.0000   1.0000   1.0000   1.0000   1.0000   1.0000
     1.0000   1.0000   1.0000   1.0000   1.0000   1.0000   1.0000   1.0000
     1.0000   1.0000   1.0000   1.0000   1.0000   1.0000   1.0000   1.0000
     1.0000   1.0000   1.0000   1.0000   1.0000   1.0000   1.0000   1.0000
     1.0000   1.0000   1.0000   1.0000   1.0000   1.0000   1.0000   1.0000
     1.0000   1.0000   1.0000   1.0000   1.0000   1.0000   0.9999   0.9999
     0.9999   0.9998   0.9998   0.9998   0.9997   0.9996   0.9996   0.9994
     0.9988   0.9985   0.9983   0.9981   0.9980   0.9973   0.9963   0.9941
     0.9938   0.9918   0.9914   0.9898   0.9893   0.9888   0.9858   0.9827
     0.9817   0.9780   0.9760   0.9729   0.9583   0.9444   0.9385   0.9360
     0.9117   0.9028   0.8967   0.8913   0.8865   0.8832   0.8518   0.8391
     0.8301   0.8229   0.8173   0.7827   0.7335   0.7171   0.7110   0.7081
     0.6725   0.6700   0.6574   0.6532   0.6484   0.6421   0.6374   0.6300
     0.6264   0.6196   0.6151   0.6104   0.5993   0.5872   0.5844   0.5772
     0.5592   0.4940   0.4498   0.1231   0.0494   0.0161   0.0113   0.0052
     0.0001   0.0001   0.0000   0.0000   0.0000   0.0000   0.0000   0.0000
     0.0000   0.0000   0.0000   0.0000   0.0000   0.0000   0.0000   0.0000
     0.0000   0.0000   0.0000   0.0000   0.0000   0.0000   0.0000   0.0000
     0.0000   0.0000   0.0000

          k = 0.0000 0.2500 0.0000 ( 65257 PWs)   bands (ev):

   -92.6949 -92.6425 -92.5486 -92.5039 -92.4453 -92.4018 -92.3836 -92.2623
   -56.0484 -56.0293 -55.9060 -55.8955 -55.8891 -55.8824 -55.8459 -55.8179
   -55.8021 -55.8016 -55.7938 -55.7517 -55.7358 -55.6959 -55.6750 -55.6453
   -55.6392 -55.5894 -55.5888 -55.5868 -55.5784 -55.5369 -55.5141 -55.4286
   -31.2721 -31.2528 -31.1111 -31.0964 -31.0243 -30.9240 -30.7379 -30.6883
   -29.8412 -29.7989 -29.7729 -29.6642 -15.0385 -15.0029 -14.9238 -14.7900
   -14.6664 -14.4914 -14.3573 -14.1784 -14.1435 -14.1229 -14.0910 -14.0355
   -14.0246 -14.0120 -13.9955 -13.9700 -13.9334 -13.8426 -13.8027 -13.6414
   -13.6152 -13.5710 -13.5342 -13.4895 -13.4436 -13.3803 -13.3366 -13.3019
   -13.2083 -13.1576 -13.1417 -13.1039 -13.0921 -13.0552 -12.9786 -12.9536
   -12.9282 -12.9008 -12.8797 -12.8640 -12.8601 -12.8381 -12.7920 -12.6716
   -12.6328 -12.6083 -12.5818 -12.5473 -12.4878 -12.3979 -12.2422 -12.0414
   -11.9800 -11.8205 -11.7782 -11.7495 -11.7215 -11.7051 -11.6578 -11.6463
   -11.6235 -11.5901 -11.4866 -11.4347 -11.4243  -2.7993  -2.5783  -2.4404
    -2.2587  -2.2149  -2.0513  -1.8323  -1.7477  -1.7346  -1.6775  -1.5732
    -1.5582  -1.5258  -1.4974  -1.4542  -1.2564  -1.1832  -1.1248  -1.1152
    -1.0384  -1.0291  -0.9250  -0.8952  -0.8350  -0.8103  -0.7711  -0.7077
    -0.6800  -0.6482  -0.6130  -0.5972  -0.5654  -0.4915  -0.4421  -0.3778
    -0.2599  -0.2453  -0.2009  -0.0779  -0.0264   0.0179   0.0691   0.1206
     0.1405   0.1695   0.2343   0.5313   0.6182   0.6531   0.7372   0.7835
     0.8078   0.9160   0.9357   1.0378   1.0588   1.0849   1.1971   1.2923
     1.3162   1.3411   1.3553   1.3815   1.4435   1.4695   1.4997   1.5445
     1.5821   1.6134   1.7028   1.7314   1.7763   1.8171   1.8804   1.9320
     1.9472   1.9665   1.9866   2.0882   2.2085   2.2781   2.2924   2.3662
     2.4112   2.4310   2.4599   2.4696   2.4995   2.5262   2.5611   2.6452
     2.6841   2.7005   2.8712   2.8937   2.9280   2.9490   2.9650   2.9734
     2.9811   2.9898   3.0196   3.0213   3.0397   3.0430   3.0545   3.0735
     3.0850   3.0927   3.1143   3.1250   3.1299   3.1658   3.1822   3.2426
     3.6216   3.6437   3.8841   4.3052   4.4396   4.7210   5.0231   5.0750
     5.6510   5.8008   5.9364   5.9977   6.0898   6.1101   6.1901   6.6013
     6.8313   7.1031   7.1552   7.3345   7.4909   7.5046   7.6224   7.6492
     7.8466   7.9261   8.0206   8.1909   8.2929   8.3676   8.4129   8.4256
     8.6180   8.8659   8.9695

     occupation numbers 
     1.0000   1.0000   1.0000   1.0000   1.0000   1.0000   1.0000   1.0000
     1.0000   1.0000   1.0000   1.0000   1.0000   1.0000   1.0000   1.0000
     1.0000   1.0000   1.0000   1.0000   1.0000   1.0000   1.0000   1.0000
     1.0000   1.0000   1.0000   1.0000   1.0000   1.0000   1.0000   1.0000
     1.0000   1.0000   1.0000   1.0000   1.0000   1.0000   1.0000   1.0000
     1.0000   1.0000   1.0000   1.0000   1.0000   1.0000   1.0000   1.0000
     1.0000   1.0000   1.0000   1.0000   1.0000   1.0000   1.0000   1.0000
     1.0000   1.0000   1.0000   1.0000   1.0000   1.0000   1.0000   1.0000
     1.0000   1.0000   1.0000   1.0000   1.0000   1.0000   1.0000   1.0000
     1.0000   1.0000   1.0000   1.0000   1.0000   1.0000   1.0000   1.0000
     1.0000   1.0000   1.0000   1.0000   1.0000   1.0000   1.0000   1.0000
     1.0000   1.0000   1.0000   1.0000   1.0000   1.0000   1.0000   1.0000
     1.0000   1.0000   1.0000   1.0000   1.0000   1.0000   1.0000   1.0000
     1.0000   1.0000   1.0000   1.0000   1.0000   1.0000   1.0000   1.0000
     1.0000   1.0000   1.0000   1.0000   1.0000   1.0000   1.0000   1.0000
     1.0000   1.0000   1.0000   1.0000   1.0000   1.0000   1.0000   1.0000
     1.0000   1.0000   1.0000   1.0000   1.0000   1.0000   1.0000   1.0000
     1.0000   1.0000   1.0000   1.0000   1.0000   1.0000   1.0000   1.0000
     1.0000   1.0000   1.0000   1.0000   1.0000   1.0000   1.0000   1.0000
     1.0000   1.0000   1.0000   1.0000   1.0000   1.0000   0.9999   0.9999
     0.9999   0.9998   0.9998   0.9997   0.9996   0.9996   0.9992   0.9988
     0.9986   0.9985   0.9983   0.9981   0.9975   0.9972   0.9968   0.9960
     0.9953   0.9947   0.9923   0.9913   0.9896   0.9878   0.9845   0.9812
     0.9802   0.9788   0.9772   0.9677   0.9525   0.9413   0.9388   0.9244
     0.9144   0.9098   0.9026   0.9001   0.8921   0.8845   0.8741   0.8464
     0.8323   0.8262   0.7535   0.7429   0.7261   0.7156   0.7075   0.7033
     0.6993   0.6948   0.6791   0.6782   0.6683   0.6665   0.6603   0.6499
     0.6436   0.6393   0.6272   0.6212   0.6184   0.5980   0.5885   0.5533
     0.3340   0.3222   0.2065   0.0744   0.0502   0.0196   0.0060   0.0048
     0.0003   0.0001   0.0001   0.0000   0.0000   0.0000   0.0000   0.0000
     0.0000   0.0000   0.0000   0.0000   0.0000   0.0000   0.0000   0.0000
     0.0000   0.0000   0.0000   0.0000   0.0000   0.0000   0.0000   0.0000
     0.0000   0.0000   0.0000

          k = 0.0000-0.5000 0.0000 ( 65180 PWs)   bands (ev):

   -92.6949 -92.6425 -92.5486 -92.5039 -92.4453 -92.4018 -92.3836 -92.2623
   -56.0484 -56.0293 -55.9060 -55.8955 -55.8891 -55.8824 -55.8459 -55.8179
   -55.8021 -55.8016 -55.7938 -55.7517 -55.7358 -55.6959 -55.6750 -55.6453
   -55.6392 -55.5894 -55.5888 -55.5868 -55.5784 -55.5369 -55.5141 -55.4286
   -31.2719 -31.2527 -31.1113 -31.0963 -31.0245 -30.9239 -30.7380 -30.6884
   -29.8405 -29.7986 -29.7736 -29.6645 -15.0024 -14.9547 -14.8982 -14.7721
   -14.6861 -14.5545 -14.3892 -14.2790 -14.1513 -14.0727 -14.0342 -14.0279
   -13.9803 -13.9708 -13.9643 -13.9105 -13.8934 -13.8660 -13.8382 -13.7981
   -13.7382 -13.5767 -13.5184 -13.4950 -13.4506 -13.3568 -13.3513 -13.2895
   -13.2777 -13.2502 -13.2122 -13.1053 -13.0941 -13.0526 -12.9619 -12.9501
   -12.9232 -12.9092 -12.8773 -12.8656 -12.8356 -12.7000 -12.6639 -12.6469
   -12.6253 -12.5950 -12.5706 -12.5088 -12.4321 -12.3174 -12.2997 -12.1309
   -12.0843 -11.7751 -11.7721 -11.7443 -11.7072 -11.6728 -11.6617 -11.6203
   -11.6161 -11.5721 -11.5080 -11.4949 -11.4812  -2.5844  -2.5258  -2.3750
    -2.3035  -2.0213  -1.9380  -1.8095  -1.6739  -1.6360  -1.6161  -1.5389
    -1.5077  -1.4231  -1.3893  -1.3109  -1.2725  -1.2345  -1.2082  -1.1833
    -1.1466  -1.1088  -1.0637  -1.0278  -0.9940  -0.9626  -0.8509  -0.8075
    -0.7706  -0.7679  -0.6827  -0.6537  -0.6291  -0.5800  -0.4962  -0.4181
    -0.3351  -0.3073  -0.1860  -0.1595  -0.0233   0.0124   0.0507   0.0922
     0.2291   0.3008   0.3984   0.4690   0.4776   0.6039   0.6649   0.7593
     0.8892   0.9892   1.0211   1.0637   1.0705   1.1022   1.1226   1.1583
     1.1759   1.1939   1.2978   1.3594   1.3829   1.4050   1.6770   1.7148
     1.7399   1.8266   1.8448   1.8835   1.9025   1.9207   1.9487   1.9631
     1.9799   2.0093   2.0409   2.0698   2.0752   2.1066   2.1597   2.2458
     2.2899   2.4262   2.4576   2.4868   2.6089   2.6234   2.6363   2.6766
     2.6826   2.6921   2.7427   2.7524   2.8062   2.8275   2.9031   2.9174
     2.9882   2.9931   3.0172   3.0187   3.0365   3.0412   3.0439   3.0505
     3.0533   3.0671   3.0841   3.0864   3.1515   3.1545   3.1717   3.2280
     4.1309   4.1683   4.2135   4.2613   4.7389   4.9206   5.0303   5.1693
     5.4191   5.4690   5.5896   5.7278   6.0291   6.0554   6.2592   6.5474
     6.8556   6.9575   7.2270   7.3504   7.4160   7.4257   7.6917   7.7591
     7.9133   7.9689   8.1800   8.2842   8.3663   8.4952   8.5634   8.6801
     8.8161   8.8496   8.8764

     occupation numbers 
     1.0000   1.0000   1.0000   1.0000   1.0000   1.0000   1.0000   1.0000
     1.0000   1.0000   1.0000   1.0000   1.0000   1.0000   1.0000   1.0000
     1.0000   1.0000   1.0000   1.0000   1.0000   1.0000   1.0000   1.0000
     1.0000   1.0000   1.0000   1.0000   1.0000   1.0000   1.0000   1.0000
     1.0000   1.0000   1.0000   1.0000   1.0000   1.0000   1.0000   1.0000
     1.0000   1.0000   1.0000   1.0000   1.0000   1.0000   1.0000   1.0000
     1.0000   1.0000   1.0000   1.0000   1.0000   1.0000   1.0000   1.0000
     1.0000   1.0000   1.0000   1.0000   1.0000   1.0000   1.0000   1.0000
     1.0000   1.0000   1.0000   1.0000   1.0000   1.0000   1.0000   1.0000
     1.0000   1.0000   1.0000   1.0000   1.0000   1.0000   1.0000   1.0000
     1.0000   1.0000   1.0000   1.0000   1.0000   1.0000   1.0000   1.0000
     1.0000   1.0000   1.0000   1.0000   1.0000   1.0000   1.0000   1.0000
     1.0000   1.0000   1.0000   1.0000   1.0000   1.0000   1.0000   1.0000
     1.0000   1.0000   1.0000   1.0000   1.0000   1.0000   1.0000   1.0000
     1.0000   1.0000   1.0000   1.0000   1.0000   1.0000   1.0000   1.0000
     1.0000   1.0000   1.0000   1.0000   1.0000   1.0000   1.0000   1.0000
     1.0000   1.0000   1.0000   1.0000   1.0000   1.0000   1.0000   1.0000
     1.0000   1.0000   1.0000   1.0000   1.0000   1.0000   1.0000   1.0000
     1.0000   1.0000   1.0000   1.0000   1.0000   1.0000   1.0000   1.0000
     1.0000   1.0000   1.0000   1.0000   1.0000   1.0000   1.0000   0.9999
     0.9999   0.9997   0.9997   0.9996   0.9996   0.9995   0.9995   0.9994
     0.9993   0.9993   0.9987   0.9983   0.9981   0.9979   0.9930   0.9919
     0.9910   0.9873   0.9864   0.9843   0.9832   0.9820   0.9801   0.9790
     0.9777   0.9753   0.9725   0.9696   0.9691   0.9657   0.9593   0.9468
     0.9393   0.9109   0.9031   0.8955   0.8588   0.8539   0.8495   0.8351
     0.8329   0.8293   0.8096   0.8057   0.7829   0.7735   0.7383   0.7314
     0.6956   0.6931   0.6804   0.6796   0.6701   0.6675   0.6661   0.6625
     0.6610   0.6534   0.6441   0.6428   0.6062   0.6045   0.5946   0.5619
     0.1180   0.1074   0.0955   0.0840   0.0184   0.0092   0.0059   0.0032
     0.0010   0.0008   0.0004   0.0002   0.0000   0.0000   0.0000   0.0000
     0.0000   0.0000   0.0000   0.0000   0.0000   0.0000   0.0000   0.0000
     0.0000   0.0000   0.0000   0.0000   0.0000   0.0000   0.0000   0.0000
     0.0000   0.0000   0.0000

          k = 0.2500 0.2500 0.0000 ( 65198 PWs)   bands (ev):

   -92.6949 -92.6425 -92.5486 -92.5039 -92.4453 -92.4018 -92.3836 -92.2623
   -56.0484 -56.0293 -55.9060 -55.8955 -55.8891 -55.8824 -55.8459 -55.8179
   -55.8021 -55.8016 -55.7938 -55.7517 -55.7358 -55.6959 -55.6750 -55.6453
   -55.6392 -55.5894 -55.5888 -55.5868 -55.5784 -55.5369 -55.5141 -55.4286
   -31.2704 -31.2546 -31.1108 -31.0962 -31.0247 -30.9242 -30.7373 -30.6889
   -29.8402 -29.7999 -29.7726 -29.6646 -15.0096 -14.9687 -14.8955 -14.7796
   -14.6584 -14.5323 -14.4631 -14.2550 -14.1019 -14.0892 -14.0510 -14.0240
   -13.9976 -13.9737 -13.9669 -13.9404 -13.8959 -13.8326 -13.8164 -13.6559
   -13.6412 -13.6107 -13.5937 -13.5418 -13.5033 -13.4210 -13.3985 -13.2796
   -13.2451 -13.2198 -13.1373 -13.0968 -13.0523 -13.0264 -13.0121 -12.9658
   -12.9410 -12.9111 -12.8804 -12.8380 -12.7854 -12.7389 -12.7088 -12.7002
   -12.6702 -12.6333 -12.6171 -12.4507 -12.4464 -12.3577 -12.2714 -12.0767
   -12.0244 -11.7928 -11.7616 -11.7502 -11.7429 -11.6812 -11.6457 -11.6394
   -11.6039 -11.5956 -11.5034 -11.4630 -11.4456  -2.6610  -2.4525  -2.3342
    -2.2403  -2.1193  -2.0548  -1.8571  -1.7122  -1.6935  -1.6643  -1.5683
    -1.5361  -1.4408  -1.4131  -1.3633  -1.2343  -1.1866  -1.1771  -1.1096
    -1.0647  -1.0215  -0.9982  -0.9741  -0.9297  -0.9161  -0.8253  -0.7738
    -0.7089  -0.6599  -0.6272  -0.5802  -0.5640  -0.5023  -0.4539  -0.3967
    -0.3632  -0.2778  -0.2205  -0.1950  -0.1555  -0.1012  -0.0002   0.0143
     0.0341   0.1218   0.1476   0.4183   0.5683   0.6007   0.6651   0.7078
     0.7653   0.8172   0.8828   0.9115   1.1816   1.2481   1.3216   1.3485
     1.3959   1.4263   1.4619   1.5006   1.5168   1.5449   1.5934   1.5989
     1.6124   1.6550   1.6940   1.7362   1.8084   1.8415   1.8495   1.8973
     1.9184   1.9703   2.0013   2.1259   2.1885   2.2228   2.2416   2.3079
     2.3799   2.4004   2.4271   2.4388   2.4660   2.4802   2.5043   2.5892
     2.6256   2.7132   2.8828   2.8997   2.9059   2.9229   2.9380   2.9503
     2.9628   2.9696   2.9804   2.9931   3.0051   3.0240   3.0306   3.0422
     3.0639   3.0760   3.0859   3.1167   3.4172   3.5113   3.5530   3.6286
     3.6577   3.8613   3.9603   4.3199   4.5227   4.7236   4.9944   5.1694
     5.6561   5.7083   5.7668   5.8443   5.9024   6.0915   6.1606   6.2194
     6.9021   6.9240   7.1430   7.2862   7.5558   7.6087   7.7170   7.8586
     7.9057   8.0392   8.1860   8.2341   8.3213   8.3644   8.4424   8.4524
     8.5637   8.7735   8.9442

     occupation numbers 
     1.0000   1.0000   1.0000   1.0000   1.0000   1.0000   1.0000   1.0000
     1.0000   1.0000   1.0000   1.0000   1.0000   1.0000   1.0000   1.0000
     1.0000   1.0000   1.0000   1.0000   1.0000   1.0000   1.0000   1.0000
     1.0000   1.0000   1.0000   1.0000   1.0000   1.0000   1.0000   1.0000
     1.0000   1.0000   1.0000   1.0000   1.0000   1.0000   1.0000   1.0000
     1.0000   1.0000   1.0000   1.0000   1.0000   1.0000   1.0000   1.0000
     1.0000   1.0000   1.0000   1.0000   1.0000   1.0000   1.0000   1.0000
     1.0000   1.0000   1.0000   1.0000   1.0000   1.0000   1.0000   1.0000
     1.0000   1.0000   1.0000   1.0000   1.0000   1.0000   1.0000   1.0000
     1.0000   1.0000   1.0000   1.0000   1.0000   1.0000   1.0000   1.0000
     1.0000   1.0000   1.0000   1.0000   1.0000   1.0000   1.0000   1.0000
     1.0000   1.0000   1.0000   1.0000   1.0000   1.0000   1.0000   1.0000
     1.0000   1.0000   1.0000   1.0000   1.0000   1.0000   1.0000   1.0000
     1.0000   1.0000   1.0000   1.0000   1.0000   1.0000   1.0000   1.0000
     1.0000   1.0000   1.0000   1.0000   1.0000   1.0000   1.0000   1.0000
     1.0000   1.0000   1.0000   1.0000   1.0000   1.0000   1.0000   1.0000
     1.0000   1.0000   1.0000   1.0000   1.0000   1.0000   1.0000   1.0000
     1.0000   1.0000   1.0000   1.0000   1.0000   1.0000   1.0000   1.0000
     1.0000   1.0000   1.0000   1.0000   1.0000   1.0000   1.0000   1.0000
     1.0000   1.0000   1.0000   1.0000   1.0000   1.0000   1.0000   1.0000
     0.9999   0.9999   0.9999   0.9998   0.9993   0.9990   0.9986   0.9984
     0.9980   0.9977   0.9973   0.9967   0.9965   0.9960   0.9951   0.9950
     0.9947   0.9936   0.9925   0.9911   0.9882   0.9866   0.9862   0.9835
     0.9822   0.9785   0.9760   0.9635   0.9554   0.9504   0.9474   0.9360
     0.9215   0.9169   0.9107   0.9078   0.9010   0.8973   0.8907   0.8653
     0.8532   0.8213   0.7480   0.7400   0.7370   0.7287   0.7212   0.7150
     0.7087   0.7052   0.6997   0.6930   0.6868   0.6768   0.6732   0.6670
     0.6552   0.6485   0.6431   0.6259   0.4501   0.3955   0.3719   0.3303
     0.3148   0.2163   0.1757   0.0714   0.0386   0.0195   0.0068   0.0032
     0.0003   0.0002   0.0002   0.0001   0.0001   0.0000   0.0000   0.0000
     0.0000   0.0000   0.0000   0.0000   0.0000   0.0000   0.0000   0.0000
     0.0000   0.0000   0.0000   0.0000   0.0000   0.0000   0.0000   0.0000
     0.0000   0.0000   0.0000

          k = 0.2500-0.5000 0.0000 ( 65138 PWs)   bands (ev):

   -92.6949 -92.6425 -92.5486 -92.5039 -92.4453 -92.4018 -92.3836 -92.2623
   -56.0484 -56.0293 -55.9060 -55.8955 -55.8891 -55.8824 -55.8459 -55.8179
   -55.8021 -55.8016 -55.7938 -55.7517 -55.7358 -55.6959 -55.6750 -55.6453
   -55.6392 -55.5894 -55.5888 -55.5868 -55.5784 -55.5369 -55.5141 -55.4286
   -31.2702 -31.2544 -31.1110 -31.0961 -31.0249 -30.9241 -30.7374 -30.6891
   -29.8396 -29.7996 -29.7732 -29.6650 -14.9717 -14.9279 -14.8555 -14.7434
   -14.7080 -14.5942 -14.4939 -14.3733 -14.0662 -14.0107 -13.9872 -13.9722
   -13.9610 -13.9480 -13.9355 -13.8941 -13.8808 -13.8502 -13.8140 -13.7896
   -13.7285 -13.6591 -13.6114 -13.5560 -13.5321 -13.4626 -13.4048 -13.3307
   -13.2993 -13.2013 -13.1365 -13.1173 -13.0358 -13.0153 -12.9837 -12.9670
   -12.9374 -12.9058 -12.8734 -12.8548 -12.8142 -12.6742 -12.6560 -12.6490
   -12.6409 -12.6227 -12.6082 -12.5154 -12.3765 -12.3149 -12.2430 -12.1267
   -12.0967 -11.7686 -11.7565 -11.7454 -11.7179 -11.6872 -11.6579 -11.6178
   -11.5899 -11.5682 -11.5213 -11.4959 -11.4855  -2.4424  -2.3774  -2.2488
    -2.1721  -2.0417  -1.9581  -1.8339  -1.6853  -1.6309  -1.6088  -1.5467
    -1.5335  -1.4337  -1.3691  -1.2842  -1.2334  -1.2246  -1.1824  -1.1621
    -1.1178  -1.0847  -1.0359  -0.9999  -0.9642  -0.9250  -0.9091  -0.8682
    -0.8389  -0.7969  -0.7650  -0.6996  -0.5976  -0.5566  -0.4783  -0.4116
    -0.3619  -0.3207  -0.3014  -0.2367  -0.0799  -0.0691   0.0251   0.0624
     0.0705   0.1130   0.1557   0.1924   0.2254   0.2835   0.5690   0.6716
     0.7256   0.7876   1.0498   1.0682   1.1540   1.1862   1.3455   1.3783
     1.4219   1.4465   1.4584   1.4795   1.5418   1.5889   1.6234   1.6997
     1.8104   1.8431   1.8573   1.8691   1.9088   1.9161   1.9391   1.9761
     1.9810   2.0066   2.0288   2.0506   2.0690   2.1031   2.1599   2.2021
     2.2843   2.4126   2.4285   2.4894   2.5623   2.5787   2.5963   2.6274
     2.6513   2.6807   2.6993   2.7146   2.7415   2.8327   2.8820   2.9022
     2.9046   2.9191   2.9398   2.9531   2.9731   2.9797   3.0138   3.0240
     3.0396   3.0470   3.0557   3.0666   3.5880   3.6066   3.7491   3.8058
     4.1459   4.1994   4.2137   4.3232   4.7593   4.9412   5.0665   5.1432
     5.3119   5.4372   5.6085   5.6384   5.7747   5.7971   6.3515   6.4050
     6.4948   6.6847   7.2320   7.4084   7.5441   7.7077   7.7999   7.8776
     7.9170   8.0496   8.3168   8.3764   8.4742   8.5330   8.5522   8.5594
     8.7130   8.7696   8.7875

     occupation numbers 
     1.0000   1.0000   1.0000   1.0000   1.0000   1.0000   1.0000   1.0000
     1.0000   1.0000   1.0000   1.0000   1.0000   1.0000   1.0000   1.0000
     1.0000   1.0000   1.0000   1.0000   1.0000   1.0000   1.0000   1.0000
     1.0000   1.0000   1.0000   1.0000   1.0000   1.0000   1.0000   1.0000
     1.0000   1.0000   1.0000   1.0000   1.0000   1.0000   1.0000   1.0000
     1.0000   1.0000   1.0000   1.0000   1.0000   1.0000   1.0000   1.0000
     1.0000   1.0000   1.0000   1.0000   1.0000   1.0000   1.0000   1.0000
     1.0000   1.0000   1.0000   1.0000   1.0000   1.0000   1.0000   1.0000
     1.0000   1.0000   1.0000   1.0000   1.0000   1.0000   1.0000   1.0000
     1.0000   1.0000   1.0000   1.0000   1.0000   1.0000   1.0000   1.0000
     1.0000   1.0000   1.0000   1.0000   1.0000   1.0000   1.0000   1.0000
     1.0000   1.0000   1.0000   1.0000   1.0000   1.0000   1.0000   1.0000
     1.0000   1.0000   1.0000   1.0000   1.0000   1.0000   1.0000   1.0000
     1.0000   1.0000   1.0000   1.0000   1.0000   1.0000   1.0000   1.0000
     1.0000   1.0000   1.0000   1.0000   1.0000   1.0000   1.0000   1.0000
     1.0000   1.0000   1.0000   1.0000   1.0000   1.0000   1.0000   1.0000
     1.0000   1.0000   1.0000   1.0000   1.0000   1.0000   1.0000   1.0000
     1.0000   1.0000   1.0000   1.0000   1.0000   1.0000   1.0000   1.0000
     1.0000   1.0000   1.0000   1.0000   1.0000   1.0000   1.0000   1.0000
     1.0000   1.0000   1.0000   1.0000   1.0000   1.0000   1.0000   1.0000
     0.9999   0.9999   0.9997   0.9996   0.9994   0.9993   0.9984   0.9981
     0.9977   0.9975   0.9973   0.9970   0.9961   0.9952   0.9944   0.9923
     0.9881   0.9865   0.9858   0.9851   0.9828   0.9823   0.9808   0.9780
     0.9776   0.9755   0.9736   0.9715   0.9697   0.9661   0.9592   0.9534
     0.9403   0.9141   0.9103   0.8948   0.8737   0.8686   0.8630   0.8526
     0.8443   0.8336   0.8266   0.8207   0.8101   0.7712   0.7484   0.7387
     0.7376   0.7305   0.7203   0.7136   0.7034   0.7000   0.6822   0.6768
     0.6684   0.6644   0.6597   0.6537   0.3524   0.3422   0.2683   0.2413
     0.1137   0.0991   0.0954   0.0707   0.0171   0.0085   0.0050   0.0036
     0.0016   0.0009   0.0004   0.0003   0.0001   0.0001   0.0000   0.0000
     0.0000   0.0000   0.0000   0.0000   0.0000   0.0000   0.0000   0.0000
     0.0000   0.0000   0.0000   0.0000   0.0000   0.0000   0.0000   0.0000
     0.0000   0.0000   0.0000

          k =-0.5000-0.5000 0.0000 ( 65132 PWs)   bands (ev):

   -92.6949 -92.6425 -92.5486 -92.5039 -92.4453 -92.4018 -92.3836 -92.2623
   -56.0484 -56.0293 -55.9060 -55.8955 -55.8891 -55.8824 -55.8459 -55.8179
   -55.8021 -55.8016 -55.7938 -55.7517 -55.7358 -55.6959 -55.6750 -55.6453
   -55.6392 -55.5894 -55.5888 -55.5868 -55.5784 -55.5369 -55.5141 -55.4286
   -31.2680 -31.2566 -31.1106 -31.0959 -31.0252 -30.9243 -30.7367 -30.6897
   -29.8385 -29.8007 -29.7728 -29.6654 -14.9251 -14.9006 -14.7834 -14.7690
   -14.6691 -14.6411 -14.6003 -14.4709 -13.9764 -13.9717 -13.9649 -13.9322
   -13.9125 -13.8932 -13.8755 -13.8544 -13.8425 -13.8217 -13.8183 -13.8035
   -13.7253 -13.7200 -13.6794 -13.6567 -13.6456 -13.5526 -13.4695 -13.3660
   -13.3399 -13.1527 -13.1143 -13.0432 -13.0196 -12.9942 -12.9815 -12.9783
   -12.9684 -12.9497 -12.8660 -12.8036 -12.7887 -12.7181 -12.6955 -12.6571
   -12.6403 -12.5971 -12.5910 -12.5315 -12.3355 -12.3111 -12.1846 -12.1292
   -12.1140 -11.7651 -11.7526 -11.7349 -11.7179 -11.6831 -11.6665 -11.6298
   -11.5699 -11.5502 -11.5441 -11.4939 -11.4912  -2.2181  -2.1427  -2.1325
    -2.0619  -2.0231  -1.9443  -1.8761  -1.7511  -1.6355  -1.6053  -1.5662
    -1.5085  -1.4370  -1.4204  -1.3516  -1.3088  -1.1915  -1.1806  -1.1621
    -1.1133  -1.0860  -1.0215  -0.9743  -0.9554  -0.9438  -0.8899  -0.8465
    -0.8297  -0.7170  -0.6604  -0.6131  -0.5629  -0.5361  -0.5255  -0.4887
    -0.4436  -0.4103  -0.3983  -0.3147  -0.2419  -0.2034  -0.1724  -0.1034
    -0.0366  -0.0256   0.0333   0.0498   0.0619   0.0699   0.5320   0.6139
     0.6646   0.7132   1.0784   1.0924   1.1261   1.1574   1.4303   1.4494
     1.4570   1.4921   1.6252   1.7177   1.7465   1.7827   1.8177   1.8289
     1.8388   1.8695   1.8857   1.9031   1.9230   1.9526   1.9594   1.9866
     2.0218   2.0277   2.0439   2.0829   2.1024   2.1136   2.1518   2.1754
     2.2399   2.3059   2.4181   2.4833   2.5788   2.6073   2.6273   2.6442
     2.6582   2.6857   2.6926   2.7111   2.7226   2.7374   2.7573   2.7696
     2.8337   2.8367   2.8589   2.8719   2.8845   2.9035   2.9094   2.9192
     3.0202   3.0265   3.0521   3.0624   4.0052   4.0416   4.0911   4.1177
     4.3250   4.3972   4.4245   4.6660   4.7875   4.8701   4.9992   5.0891
     5.1059   5.2129   5.3096   5.4113   5.8588   5.8884   5.9602   6.0378
     6.5599   6.8603   7.0055   7.1367   7.8926   7.9498   7.9626   7.9810
     8.0042   8.0301   8.0925   8.2765   8.5304   8.5946   8.6025   8.6260
     8.6654   8.7442   8.7569

     occupation numbers 
     1.0000   1.0000   1.0000   1.0000   1.0000   1.0000   1.0000   1.0000
     1.0000   1.0000   1.0000   1.0000   1.0000   1.0000   1.0000   1.0000
     1.0000   1.0000   1.0000   1.0000   1.0000   1.0000   1.0000   1.0000
     1.0000   1.0000   1.0000   1.0000   1.0000   1.0000   1.0000   1.0000
     1.0000   1.0000   1.0000   1.0000   1.0000   1.0000   1.0000   1.0000
     1.0000   1.0000   1.0000   1.0000   1.0000   1.0000   1.0000   1.0000
     1.0000   1.0000   1.0000   1.0000   1.0000   1.0000   1.0000   1.0000
     1.0000   1.0000   1.0000   1.0000   1.0000   1.0000   1.0000   1.0000
     1.0000   1.0000   1.0000   1.0000   1.0000   1.0000   1.0000   1.0000
     1.0000   1.0000   1.0000   1.0000   1.0000   1.0000   1.0000   1.0000
     1.0000   1.0000   1.0000   1.0000   1.0000   1.0000   1.0000   1.0000
     1.0000   1.0000   1.0000   1.0000   1.0000   1.0000   1.0000   1.0000
     1.0000   1.0000   1.0000   1.0000   1.0000   1.0000   1.0000   1.0000
     1.0000   1.0000   1.0000   1.0000   1.0000   1.0000   1.0000   1.0000
     1.0000   1.0000   1.0000   1.0000   1.0000   1.0000   1.0000   1.0000
     1.0000   1.0000   1.0000   1.0000   1.0000   1.0000   1.0000   1.0000
     1.0000   1.0000   1.0000   1.0000   1.0000   1.0000   1.0000   1.0000
     1.0000   1.0000   1.0000   1.0000   1.0000   1.0000   1.0000   1.0000
     1.0000   1.0000   1.0000   1.0000   1.0000   1.0000   1.0000   1.0000
     1.0000   1.0000   1.0000   1.0000   1.0000   1.0000   1.0000   1.0000
     1.0000   0.9999   0.9996   0.9996   0.9995   0.9994   0.9976   0.9974
     0.9973   0.9969   0.9944   0.9918   0.9908   0.9893   0.9878   0.9872
     0.9867   0.9851   0.9842   0.9831   0.9818   0.9798   0.9793   0.9772
     0.9742   0.9737   0.9722   0.9683   0.9662   0.9649   0.9603   0.9572
     0.9477   0.9364   0.9128   0.8965   0.8686   0.8594   0.8526   0.8467
     0.8418   0.8317   0.8291   0.8221   0.8176   0.8117   0.8036   0.7985
     0.7707   0.7694   0.7592   0.7532   0.7472   0.7381   0.7353   0.7305
     0.6788   0.6754   0.6617   0.6560   0.1591   0.1463   0.1301   0.1219
[...]
     0.3523   0.3277   0.2037   0.0775   0.0451   0.0219   0.0060   0.0047
     0.0003   0.0001   0.0001   0.0000   0.0000   0.0000   0.0000   0.0000
     0.0000   0.0000   0.0000   0.0000   0.0000   0.0000   0.0000   0.0000
     0.0000   0.0000   0.0000   0.0000   0.0000   0.0000   0.0000   0.0000
     0.0000   0.0000   0.0000

          k =-0.5000 0.0000 0.0000 ( 65180 PWs)   bands (ev):

   -92.6949 -92.6425 -92.5486 -92.5039 -92.4453 -92.4018 -92.3836 -92.2623
   -56.0484 -56.0293 -55.9060 -55.8955 -55.8891 -55.8824 -55.8459 -55.8179
   -55.8021 -55.8016 -55.7938 -55.7517 -55.7358 -55.6959 -55.6750 -55.6453
   -55.6392 -55.5894 -55.5888 -55.5868 -55.5784 -55.5369 -55.5141 -55.4286
   -31.2684 -31.2569 -31.1102 -31.0961 -31.0250 -30.9245 -30.7366 -30.6894
   -29.8397 -29.8013 -29.7715 -29.6647 -15.0081 -14.9560 -14.8940 -14.7805
   -14.6813 -14.5376 -14.3917 -14.2415 -14.1263 -14.1121 -14.1023 -14.0409
   -13.9849 -13.9718 -13.9518 -13.9027 -13.8917 -13.8741 -13.8312 -13.8006
   -13.6975 -13.5487 -13.5212 -13.4889 -13.4810 -13.3823 -13.3582 -13.3007
   -13.2621 -13.2388 -13.2128 -13.0547 -13.0484 -13.0313 -13.0085 -12.9905
   -12.9474 -12.9319 -12.9111 -12.7947 -12.7860 -12.7062 -12.6814 -12.6361
   -12.6340 -12.6243 -12.6224 -12.5350 -12.3753 -12.3213 -12.2381 -12.1456
   -12.1106 -11.7718 -11.7505 -11.7435 -11.7297 -11.7115 -11.6702 -11.6066
   -11.5885 -11.5554 -11.5114 -11.5024 -11.4867  -2.5745  -2.5361  -2.3729
    -2.3333  -2.0198  -1.9455  -1.7973  -1.6790  -1.6405  -1.5955  -1.5470
    -1.5221  -1.3980  -1.3544  -1.3387  -1.2570  -1.2217  -1.2059  -1.1832
    -1.1733  -1.1142  -1.0469  -1.0195  -0.9872  -0.8873  -0.8469  -0.7986
    -0.7654  -0.7436  -0.7141  -0.6658  -0.6407  -0.5972  -0.5051  -0.4308
    -0.3665  -0.3054  -0.1190  -0.1054  -0.0484  -0.0135   0.0589   0.0732
     0.2112   0.2426   0.2716   0.4483   0.5472   0.5982   0.6731   0.7684
     0.8663   0.8905   1.0223   1.0402   1.0920   1.1182   1.1555   1.1756
     1.2175   1.2395   1.3107   1.3551   1.4010   1.4107   1.7157   1.7259
     1.7395   1.7842   1.8711   1.8831   1.9013   1.9091   1.9312   1.9476
     1.9898   2.0038   2.0385   2.0841   2.1030   2.1524   2.1775   2.2287
     2.3315   2.4171   2.4480   2.5021   2.5117   2.5317   2.6102   2.6328
     2.6651   2.7299   2.7376   2.7456   2.7741   2.8431   2.8903   2.9343
     2.9657   3.0058   3.0108   3.0122   3.0239   3.0375   3.0496   3.0640
     3.0676   3.0920   3.0934   3.1165   3.1356   3.1412   3.2707   3.2778
     4.0661   4.1370   4.2133   4.3441   4.7989   4.8783   5.0477   5.0580
     5.4907   5.5139   5.6053   5.6628   6.0387   6.0467   6.2999   6.4877
     6.8010   7.0069   7.2786   7.3022   7.3298   7.4568   7.7822   7.8223
     7.8946   8.0510   8.1554   8.3040   8.3624   8.4395   8.5376   8.6362
     8.7670   8.8292   8.9409

     occupation numbers 
     1.0000   1.0000   1.0000   1.0000   1.0000   1.0000   1.0000   1.0000
     1.0000   1.0000   1.0000   1.0000   1.0000   1.0000   1.0000   1.0000
     1.0000   1.0000   1.0000   1.0000   1.0000   1.0000   1.0000   1.0000
     1.0000   1.0000   1.0000   1.0000   1.0000   1.0000   1.0000   1.0000
     1.0000   1.0000   1.0000   1.0000   1.0000   1.0000   1.0000   1.0000
     1.0000   1.0000   1.0000   1.0000   1.0000   1.0000   1.0000   1.0000
     1.0000   1.0000   1.0000   1.0000   1.0000   1.0000   1.0000   1.0000
     1.0000   1.0000   1.0000   1.0000   1.0000   1.0000   1.0000   1.0000
     1.0000   1.0000   1.0000   1.0000   1.0000   1.0000   1.0000   1.0000
     1.0000   1.0000   1.0000   1.0000   1.0000   1.0000   1.0000   1.0000
     1.0000   1.0000   1.0000   1.0000   1.0000   1.0000   1.0000   1.0000
     1.0000   1.0000   1.0000   1.0000   1.0000   1.0000   1.0000   1.0000
     1.0000   1.0000   1.0000   1.0000   1.0000   1.0000   1.0000   1.0000
     1.0000   1.0000   1.0000   1.0000   1.0000   1.0000   1.0000   1.0000
     1.0000   1.0000   1.0000   1.0000   1.0000   1.0000   1.0000   1.0000
     1.0000   1.0000   1.0000   1.0000   1.0000   1.0000   1.0000   1.0000
     1.0000   1.0000   1.0000   1.0000   1.0000   1.0000   1.0000   1.0000
     1.0000   1.0000   1.0000   1.0000   1.0000   1.0000   1.0000   1.0000
     1.0000   1.0000   1.0000   1.0000   1.0000   1.0000   1.0000   1.0000
     1.0000   1.0000   1.0000   1.0000   1.0000   1.0000   1.0000   0.9999
     0.9999   0.9999   0.9997   0.9997   0.9996   0.9995   0.9994   0.9993
     0.9992   0.9991   0.9987   0.9983   0.9979   0.9978   0.9918   0.9915
     0.9910   0.9893   0.9850   0.9843   0.9832   0.9828   0.9813   0.9802
     0.9769   0.9758   0.9727   0.9682   0.9661   0.9602   0.9569   0.9494
     0.9315   0.9131   0.9056   0.8913   0.8886   0.8829   0.8584   0.8507
     0.8393   0.8147   0.8116   0.8084   0.7967   0.7665   0.7445   0.7230
     0.7072   0.6864   0.6838   0.6830   0.6768   0.6695   0.6630   0.6551
     0.6531   0.6397   0.6389   0.6260   0.6152   0.6120   0.5368   0.5326
     0.1381   0.1162   0.0955   0.0666   0.0147   0.0109   0.0054   0.0052
     0.0007   0.0006   0.0004   0.0003   0.0000   0.0000   0.0000   0.0000
     0.0000   0.0000   0.0000   0.0000   0.0000   0.0000   0.0000   0.0000
     0.0000   0.0000   0.0000   0.0000   0.0000   0.0000   0.0000   0.0000
     0.0000   0.0000   0.0000

          k =-0.2500 0.2500 0.0000 ( 65198 PWs)   bands (ev):

   -92.6949 -92.6425 -92.5486 -92.5039 -92.4453 -92.4018 -92.3836 -92.2623
   -56.0484 -56.0293 -55.9060 -55.8955 -55.8891 -55.8824 -55.8459 -55.8179
   -55.8021 -55.8016 -55.7938 -55.7517 -55.7358 -55.6959 -55.6750 -55.6453
   -55.6392 -55.5894 -55.5888 -55.5868 -55.5784 -55.5369 -55.5141 -55.4286
   -31.2704 -31.2546 -31.1108 -31.0962 -31.0247 -30.9242 -30.7373 -30.6889
   -29.8402 -29.7999 -29.7726 -29.6646 -15.0109 -14.9674 -14.8945 -14.7779
   -14.6642 -14.5375 -14.4546 -14.2459 -14.1081 -14.0801 -14.0656 -14.0175
   -13.9933 -13.9736 -13.9686 -13.9521 -13.9010 -13.8280 -13.8170 -13.6659
   -13.6376 -13.6084 -13.5885 -13.5425 -13.4899 -13.4297 -13.4000 -13.2752
   -13.2444 -13.2157 -13.1413 -13.0987 -13.0369 -13.0252 -12.9960 -12.9768
   -12.9389 -12.9209 -12.8841 -12.8431 -12.8009 -12.7653 -12.7081 -12.6864
   -12.6659 -12.6367 -12.6042 -12.4486 -12.4362 -12.3553 -12.2771 -12.0717
   -12.0309 -11.7920 -11.7706 -11.7434 -11.7311 -11.6907 -11.6554 -11.6329
   -11.6106 -11.5883 -11.5032 -11.4585 -11.4488  -2.6593  -2.4514  -2.3301
    -2.2420  -2.1235  -2.0576  -1.8547  -1.7090  -1.6912  -1.6624  -1.5689
    -1.5350  -1.4404  -1.4069  -1.3802  -1.2384  -1.1946  -1.1671  -1.1140
    -1.0850  -1.0239  -1.0032  -0.9634  -0.9349  -0.8944  -0.8321  -0.7822
    -0.7211  -0.6508  -0.6231  -0.5744  -0.5464  -0.4994  -0.4442  -0.3992
    -0.3585  -0.2572  -0.2241  -0.2109  -0.1690  -0.1019  -0.0074   0.0194
     0.0434   0.1274   0.1433   0.3993   0.5690   0.6097   0.6517   0.7190
     0.7649   0.8221   0.8836   0.9117   1.1899   1.2979   1.3407   1.3725
     1.3756   1.4206   1.4377   1.4814   1.5137   1.5270   1.5521   1.5989
     1.6163   1.6536   1.6717   1.7174   1.8245   1.8343   1.8500   1.8923
     1.9166   1.9533   2.0111   2.1160   2.2199   2.2416   2.2878   2.3068
     2.3746   2.4163   2.4260   2.4421   2.4679   2.4881   2.5058   2.5886
     2.6241   2.7135   2.8896   2.8985   2.9119   2.9215   2.9328   2.9472
     2.9531   2.9714   2.9784   2.9942   3.0031   3.0159   3.0250   3.0327
     3.0656   3.0760   3.0850   3.1185   3.4105   3.4925   3.5567   3.6336
     3.6648   3.8459   3.9693   4.3191   4.5212   4.7244   5.0040   5.1693
     5.6574   5.7055   5.7695   5.8406   5.9032   6.0924   6.1728   6.2049
     6.8979   6.9371   7.1247   7.3058   7.5688   7.6163   7.6762   7.8745
     7.9067   8.0128   8.2034   8.2526   8.3197   8.3617   8.4352   8.4552
     8.5468   8.8033   8.9481

     occupation numbers 
     1.0000   1.0000   1.0000   1.0000   1.0000   1.0000   1.0000   1.0000
     1.0000   1.0000   1.0000   1.0000   1.0000   1.0000   1.0000   1.0000
     1.0000   1.0000   1.0000   1.0000   1.0000   1.0000   1.0000   1.0000
     1.0000   1.0000   1.0000   1.0000   1.0000   1.0000   1.0000   1.0000
     1.0000   1.0000   1.0000   1.0000   1.0000   1.0000   1.0000   1.0000
     1.0000   1.0000   1.0000   1.0000   1.0000   1.0000   1.0000   1.0000
     1.0000   1.0000   1.0000   1.0000   1.0000   1.0000   1.0000   1.0000
     1.0000   1.0000   1.0000   1.0000   1.0000   1.0000   1.0000   1.0000
     1.0000   1.0000   1.0000   1.0000   1.0000   1.0000   1.0000   1.0000
     1.0000   1.0000   1.0000   1.0000   1.0000   1.0000   1.0000   1.0000
     1.0000   1.0000   1.0000   1.0000   1.0000   1.0000   1.0000   1.0000
     1.0000   1.0000   1.0000   1.0000   1.0000   1.0000   1.0000   1.0000
     1.0000   1.0000   1.0000   1.0000   1.0000   1.0000   1.0000   1.0000
     1.0000   1.0000   1.0000   1.0000   1.0000   1.0000   1.0000   1.0000
     1.0000   1.0000   1.0000   1.0000   1.0000   1.0000   1.0000   1.0000
     1.0000   1.0000   1.0000   1.0000   1.0000   1.0000   1.0000   1.0000
     1.0000   1.0000   1.0000   1.0000   1.0000   1.0000   1.0000   1.0000
     1.0000   1.0000   1.0000   1.0000   1.0000   1.0000   1.0000   1.0000
     1.0000   1.0000   1.0000   1.0000   1.0000   1.0000   1.0000   1.0000
     1.0000   1.0000   1.0000   1.0000   1.0000   1.0000   1.0000   0.9999
     0.9999   0.9999   0.9999   0.9998   0.9993   0.9987   0.9985   0.9982
     0.9982   0.9977   0.9976   0.9970   0.9965   0.9963   0.9959   0.9950
     0.9946   0.9937   0.9932   0.9918   0.9874   0.9870   0.9862   0.9838
     0.9823   0.9797   0.9752   0.9646   0.9508   0.9474   0.9397   0.9362
     0.9226   0.9133   0.9109   0.9070   0.9005   0.8951   0.8903   0.8654
     0.8537   0.8211   0.7448   0.7405   0.7341   0.7293   0.7238   0.7166
     0.7136   0.7043   0.7007   0.6925   0.6878   0.6811   0.6762   0.6721
     0.6543   0.6485   0.6436   0.6249   0.4541   0.4063   0.3698   0.3276
     0.3111   0.2231   0.1723   0.0715   0.0388   0.0194   0.0065   0.0032
     0.0003   0.0002   0.0001   0.0001   0.0001   0.0000   0.0000   0.0000
     0.0000   0.0000   0.0000   0.0000   0.0000   0.0000   0.0000   0.0000
     0.0000   0.0000   0.0000   0.0000   0.0000   0.0000   0.0000   0.0000
     0.0000   0.0000   0.0000

          k =-0.5000 0.2500 0.0000 ( 65138 PWs)   bands (ev):

   -92.6949 -92.6425 -92.5486 -92.5039 -92.4453 -92.4018 -92.3836 -92.2623
   -56.0484 -56.0293 -55.9060 -55.8955 -55.8891 -55.8824 -55.8459 -55.8179
   -55.8021 -55.8016 -55.7938 -55.7517 -55.7358 -55.6959 -55.6750 -55.6453
   -55.6392 -55.5894 -55.5888 -55.5868 -55.5784 -55.5369 -55.5141 -55.4286
   -31.2682 -31.2568 -31.1104 -31.0960 -31.0251 -30.9244 -30.7366 -30.6896
   -29.8391 -29.8010 -29.7722 -29.6651 -14.9752 -14.9297 -14.8511 -14.7487
   -14.7075 -14.5850 -14.4950 -14.3622 -14.0587 -14.0287 -14.0170 -13.9721
   -13.9709 -13.9491 -13.9238 -13.8889 -13.8774 -13.8547 -13.8167 -13.8001
   -13.6932 -13.6308 -13.5818 -13.5786 -13.5659 -13.4633 -13.4261 -13.3333
   -13.2776 -13.1948 -13.1588 -13.0636 -13.0264 -13.0134 -13.0081 -12.9730
   -12.9412 -12.9323 -12.8981 -12.8024 -12.7871 -12.7070 -12.6968 -12.6429
   -12.6316 -12.6137 -12.6078 -12.5331 -12.3547 -12.3166 -12.2123 -12.1367
   -12.1121 -11.7646 -11.7520 -11.7382 -11.7257 -11.7050 -11.6750 -11.5932
   -11.5851 -11.5617 -11.5257 -11.4981 -11.4889  -2.4319  -2.3904  -2.2425
    -2.1998  -2.0389  -1.9641  -1.8215  -1.6851  -1.6295  -1.6024  -1.5633
    -1.5244  -1.4436  -1.3280  -1.2712  -1.2480  -1.2227  -1.1827  -1.1446
    -1.1162  -1.0779  -1.0603  -1.0005  -0.9697  -0.9326  -0.8975  -0.8685
    -0.8104  -0.7809  -0.7379  -0.7061  -0.6025  -0.5721  -0.4866  -0.4239
    -0.3946  -0.3384  -0.2522  -0.2136  -0.1183  -0.0617  -0.0211   0.0377
     0.0602   0.1346   0.1542   0.1859   0.2378   0.2807   0.5892   0.6831
     0.7154   0.7559   1.0329   1.0811   1.1593   1.1811   1.3580   1.3943
     1.4319   1.4427   1.4612   1.4795   1.5485   1.5932   1.6381   1.6613
     1.8085   1.8320   1.8519   1.8630   1.9174   1.9335   1.9470   1.9608
     1.9810   2.0074   2.0493   2.0607   2.0961   2.1199   2.1540   2.2050
     2.3251   2.4128   2.4418   2.4573   2.4927   2.5318   2.5598   2.6267
     2.6609   2.6664   2.7036   2.7370   2.7592   2.8424   2.8863   2.8992
     2.9041   2.9255   2.9474   2.9600   2.9752   2.9890   3.0098   3.0216
     3.0320   3.0392   3.0498   3.0614   3.5875   3.6478   3.7799   3.8044
     4.0741   4.1647   4.2150   4.4222   4.7931   4.8959   5.0435   5.0868
     5.4116   5.4387   5.5972   5.6328   5.7548   5.7925   6.3913   6.3970
     6.5027   6.6138   7.3095   7.3440   7.5968   7.7194   7.8021   7.8677
     7.9019   8.0315   8.3296   8.4098   8.4788   8.5240   8.5777   8.5841
     8.6763   8.7112   8.8061

     occupation numbers 
     1.0000   1.0000   1.0000   1.0000   1.0000   1.0000   1.0000   1.0000
     1.0000   1.0000   1.0000   1.0000   1.0000   1.0000   1.0000   1.0000
     1.0000   1.0000   1.0000   1.0000   1.0000   1.0000   1.0000   1.0000
     1.0000   1.0000   1.0000   1.0000   1.0000   1.0000   1.0000   1.0000
     1.0000   1.0000   1.0000   1.0000   1.0000   1.0000   1.0000   1.0000
     1.0000   1.0000   1.0000   1.0000   1.0000   1.0000   1.0000   1.0000
     1.0000   1.0000   1.0000   1.0000   1.0000   1.0000   1.0000   1.0000
     1.0000   1.0000   1.0000   1.0000   1.0000   1.0000   1.0000   1.0000
     1.0000   1.0000   1.0000   1.0000   1.0000   1.0000   1.0000   1.0000
     1.0000   1.0000   1.0000   1.0000   1.0000   1.0000   1.0000   1.0000
     1.0000   1.0000   1.0000   1.0000   1.0000   1.0000   1.0000   1.0000
     1.0000   1.0000   1.0000   1.0000   1.0000   1.0000   1.0000   1.0000
     1.0000   1.0000   1.0000   1.0000   1.0000   1.0000   1.0000   1.0000
     1.0000   1.0000   1.0000   1.0000   1.0000   1.0000   1.0000   1.0000
     1.0000   1.0000   1.0000   1.0000   1.0000   1.0000   1.0000   1.0000
     1.0000   1.0000   1.0000   1.0000   1.0000   1.0000   1.0000   1.0000
     1.0000   1.0000   1.0000   1.0000   1.0000   1.0000   1.0000   1.0000
     1.0000   1.0000   1.0000   1.0000   1.0000   1.0000   1.0000   1.0000
     1.0000   1.0000   1.0000   1.0000   1.0000   1.0000   1.0000   1.0000
     1.0000   1.0000   1.0000   1.0000   1.0000   1.0000   1.0000   1.0000
     0.9999   0.9999   0.9997   0.9996   0.9994   0.9993   0.9983   0.9980
     0.9976   0.9975   0.9973   0.9970   0.9960   0.9951   0.9941   0.9935
     0.9882   0.9871   0.9861   0.9855   0.9822   0.9811   0.9802   0.9792
     0.9776   0.9755   0.9717   0.9706   0.9669   0.9642   0.9600   0.9530
     0.9327   0.9141   0.9071   0.9032   0.8939   0.8829   0.8745   0.8528
     0.8408   0.8388   0.8250   0.8119   0.8028   0.7668   0.7464   0.7402
     0.7379   0.7274   0.7165   0.7101   0.7023   0.6952   0.6843   0.6780
     0.6725   0.6686   0.6629   0.6566   0.3527   0.3200   0.2534   0.2419
     0.1355   0.1084   0.0951   0.0529   0.0151   0.0101   0.0055   0.0046
     0.0010   0.0009   0.0004   0.0003   0.0002   0.0001   0.0000   0.0000
     0.0000   0.0000   0.0000   0.0000   0.0000   0.0000   0.0000   0.0000
     0.0000   0.0000   0.0000   0.0000   0.0000   0.0000   0.0000   0.0000
     0.0000   0.0000   0.0000

     the Fermi energy is     3.3329 ev

!    total energy              =   -4441.66472943 Ry
     estimated scf accuracy    <          8.9E-09 Ry
     smearing contrib. (-TS)   =      -1.15459630 Ry
     internal energy E=F+TS    =   -4440.51013313 Ry

     The total energy is F=E-TS. E is the sum of the following terms:
     one-electron contribution =  -20805.28820221 Ry
     hartree contribution      =   10534.73887591 Ry
     xc contribution           =    -694.18556713 Ry
     ewald contribution        =    6800.39386710 Ry
     one-center paw contrib.   =    -276.16910681 Ry
      -> PAW hartree energy AE =      25.10196860 Ry
      -> PAW hartree energy PS =     -24.98653786 Ry
      -> PAW xc energy AE      =     -16.50875617 Ry
      -> PAW xc energy PS      =       6.86782733 Ry
      -> total E_H with PAW    =   10534.85430665 Ry
      -> total E_XC with PAW   =    -703.82649598 Ry

     convergence has been achieved in  49 iterations

     Writing all to output data dir /bsuhome/zayahcortright/scratch/pwscf.save/
 
     init_run     :      8.03s CPU      8.68s WALL (       1 calls)
     electrons    :    796.99s CPU    879.51s WALL (       1 calls)

     Called by init_run:
     wfcinit      :      6.34s CPU      6.56s WALL (       1 calls)
     wfcinit:atom :      0.05s CPU      0.07s WALL (       5 calls)
     wfcinit:wfcr :      6.03s CPU      6.17s WALL (       5 calls)
     potinit      :      0.16s CPU      0.19s WALL (       1 calls)
     hinit0       :      0.58s CPU      0.73s WALL (       1 calls)

     Called by electrons:
     c_bands      :    642.02s CPU    654.70s WALL (      49 calls)
     sum_band     :    115.59s CPU    154.18s WALL (      49 calls)
     v_of_rho     :      5.36s CPU      5.74s WALL (      50 calls)
     v_h          :      0.44s CPU      0.44s WALL (      50 calls)
     v_xc         :      4.93s CPU      5.30s WALL (      50 calls)
     newd         :     19.01s CPU     49.47s WALL (      50 calls)
     PAW_pot      :      1.63s CPU      1.67s WALL (      50 calls)
     mix_rho      :     13.03s CPU     13.44s WALL (      49 calls)

     Called by c_bands:
     init_us_2    :      6.72s CPU      6.82s WALL (     495 calls)
     init_us_2:cp :      6.72s CPU      6.82s WALL (     495 calls)
     cegterg      :    609.61s CPU    621.95s WALL (     245 calls)

     Called by sum_band:
     sum_band:wei :      0.35s CPU      0.35s WALL (      49 calls)
     sum_band:loo :     93.39s CPU     94.11s WALL (      49 calls)
     sum_band:buf :      1.43s CPU      1.47s WALL (     245 calls)
     sum_band:ini :      3.00s CPU      3.01s WALL (     245 calls)
     sum_band:cal :     19.43s CPU     19.51s WALL (     245 calls)
     sum_band:bec :      0.58s CPU      0.60s WALL (     245 calls)
     addusdens    :     18.92s CPU     56.70s WALL (      49 calls)
                                        0.00s GPU  (      49 calls)
     addusd:skk   :      0.32s CPU      2.11s WALL (     196 calls)
                                        0.00s GPU  (     196 calls)

     Called by *egterg:
     cdiaghg      :     61.68s CPU     61.98s WALL (    1376 calls)
     cegterg:over :     49.07s CPU     49.25s WALL (    1131 calls)
     cegterg:upda :     51.55s CPU     52.71s WALL (    1131 calls)
     cegterg:last :     72.26s CPU     72.74s WALL (     448 calls)
     cdiaghg:chol :      3.40s CPU      3.43s WALL (    1376 calls)
     cdiaghg:inve :      3.72s CPU      3.74s WALL (    1376 calls)
     cdiaghg:para :      7.85s CPU      7.92s WALL (    2752 calls)
     h_psi        :    307.56s CPU    312.21s WALL (    1381 calls)
     s_psi        :     40.39s CPU     40.51s WALL (    1381 calls)
     g_psi        :      2.62s CPU      2.63s WALL (    1131 calls)

     Called by h_psi:
     h_psi:calbec :     45.93s CPU     46.15s WALL (    1381 calls)
     vloc_psi     :    215.47s CPU    217.49s WALL (    1381 calls)
     add_vuspsi   :     40.36s CPU     40.58s WALL (    1381 calls)

     General routines
     calbec       :     65.36s CPU     65.66s WALL (    1626 calls)
     fft          :      5.12s CPU      5.18s WALL (     648 calls)
     ffts         :      4.74s CPU      4.80s WALL (    5321 calls)
     fftw         :    186.22s CPU    187.70s WALL (  331493 calls)
     interpolate  :      0.42s CPU      0.44s WALL (      50 calls)
 
     Parallel routines

     PAW routines
     PAW_pot      :      1.63s CPU      1.67s WALL (      50 calls)
 
     PWSCF        :  13m26.97s CPU  14m53.13s WALL

 
   This run was terminated on:  22:42:44  21Jun2024            

=------------------------------------------------------------------------------=
   JOB DONE.
=------------------------------------------------------------------------------=
