
     Program PWSCF v.7.2 starts on 21Jun2024 at 23:41:33 

     This program is part of the open-source Quantum ESPRESSO suite
     for quantum simulation of materials; please cite
         "P. Giannozzi et al., J. Phys.:Condens. Matter 21 395502 (2009);
         "P. Giannozzi et al., J. Phys.:Condens. Matter 29 465901 (2017);
         "P. Giannozzi et al., J. Chem. Phys. 152 154105 (2020);
          URL http://www.quantum-espresso.org", 
     in publications or presentations arising from this work. More details at
     http://www.quantum-espresso.org/quote

     Parallel version (MPI & OpenMP), running on      48 processor cores
     Number of MPI processes:                48
     Threads/MPI process:                     1

     MPI processes distributed on     1 nodes
     180146 MiB available memory on the printing compute node when the environment starts
 
     Reading input from espresso.pwi
Warning: card &CELL ignored
Warning: card / ignored
Warning: card &FCP ignored
Warning: card / ignored
Warning: card &RISM ignored
Warning: card / ignored

     Current dimensions of program PWSCF are:
     Max number of different atomic species (ntypx) = 10
     Max number of k-points (npk) =  40000
     Max angular momentum in pseudopotentials (lmaxx) =  4
     file O.pbe-n-kjpaw_psl.0.1.UPF: wavefunction(s)  2P renormalized
     signal trapping enabled: kill the code with -SIGUSR1 to stop cleanly the simulation 
 
     K-points division:     npool     =       2
     R & G space division:  proc/nbgrp/npool/nimage =      24
     Subspace diagonalization in iterative solution of the eigenvalue problem:
     one sub-group per band group will be used
     scalapack distributed-memory algorithm (size of sub-group:  3*  3 procs)

 
     Parallelization info
     --------------------
     sticks:   dense  smooth     PW     G-vecs:    dense   smooth      PW
     Min         350     175     47                61430    21716    3036
     Max         351     177     48                61449    21727    3041
     Sum        8421    4205   1137              1474595   521381   72913
 
     Using Slab Decomposition
 


     bravais-lattice index     =            0
     lattice parameter (alat)  =      14.8599  a.u.
     unit-cell volume          =    8305.1283 (a.u.)^3
     number of atoms/cell      =           49
     number of atomic types    =            4
     number of electrons       =       425.00
     number of Kohn-Sham states=          256
     kinetic-energy cutoff     =      60.0000  Ry
     charge density cutoff     =     480.0000  Ry
     scf convergence threshold =      1.0E-08
     mixing beta               =       0.1500
     number of iterations used =            8  local-TF  mixing
     Exchange-correlation= PBE
                           (   1   4   3   4   0   0   0)

     celldm(1)=  14.859904  celldm(2)=   0.000000  celldm(3)=   0.000000
     celldm(4)=   0.000000  celldm(5)=   0.000000  celldm(6)=   0.000000

     crystal axes: (cart. coord. in units of alat)
               a(1) = (   1.000000   0.000000   0.000000 )  
               a(2) = (   0.000000   1.000000   0.000000 )  
               a(3) = (   0.000000   0.000000   2.531036 )  

     reciprocal axes: (cart. coord. in units 2 pi/alat)
               b(1) = (  1.000000  0.000000  0.000000 )  
               b(2) = (  0.000000  1.000000  0.000000 )  
               b(3) = (  0.000000  0.000000  0.395095 )  


     PseudoPot. # 1 for Sr read from file:
     /bsuhome/zayahcortright/q-e/pseudo/Sr_pbe_v1.uspp.F.UPF
     MD5 check sum: 6b418c05fbe9db5448babca5e47b7a5b
     Pseudo is Ultrasoft + core correction, Zval = 10.0
     Generated by new atomic code, or converted to UPF format
     Using radial grid of  883 points,  6 beta functions with: 
                l(1) =   0
                l(2) =   0
                l(3) =   1
                l(4) =   1
                l(5) =   2
                l(6) =   2
     Q(r) pseudized with  6 coefficients,  rinner =    1.400   1.400   1.400
                                                       1.400   1.400

     PseudoPot. # 2 for O  read from file:
     /bsuhome/zayahcortright/q-e/pseudo/O.pbe-n-kjpaw_psl.0.1.UPF
     MD5 check sum: 0234752ac141de4415c5fc33072bef88
     Pseudo is Projector augmented-wave + core cor, Zval =  6.0
     Generated using "atomic" code by A. Dal Corso  v.5.0.99 svn rev. 10869
     Shape of augmentation charge: BESSEL
     Using radial grid of 1095 points,  4 beta functions with: 
                l(1) =   0
                l(2) =   0
                l(3) =   1
                l(4) =   1
     Q(r) pseudized with 0 coefficients 


     PseudoPot. # 3 for Co read from file:
     /bsuhome/zayahcortright/q-e/pseudo/Co_pbe_v1.2.uspp.F.UPF
     MD5 check sum: 5f91765df6ddd3222702df6e7b74a16d
     Pseudo is Ultrasoft + core correction, Zval = 17.0
     Generated by new atomic code, or converted to UPF format
     Using radial grid of  863 points,  6 beta functions with: 
                l(1) =   0
                l(2) =   0
                l(3) =   1
                l(4) =   1
                l(5) =   2
                l(6) =   2
     Q(r) pseudized with  8 coefficients,  rinner =    1.200   1.200   1.200
                                                       1.200   1.200

     PseudoPot. # 4 for H  read from file:
     /bsuhome/zayahcortright/q-e/pseudo/H.pbe-rrkjus_psl.1.0.0.UPF
     MD5 check sum: f52b6d4d1c606e5624b1dc7b2218f220
     Pseudo is Ultrasoft, Zval =  1.0
     Generated using "atomic" code by A. Dal Corso  v.5.1
     Using radial grid of  929 points,  2 beta functions with: 
                l(1) =   0
                l(2) =   0
     Q(r) pseudized with 0 coefficients 


     atomic species   valence    mass     pseudopotential
        Sr            10.00    87.62000     Sr( 1.00)
        O              6.00    15.99900     O ( 1.00)
        Co            17.00    58.93319     Co( 1.00)
        H              1.00     1.00800     H ( 1.00)

     No symmetry found


                                    s                        frac. trans.

      isym =  1     identity                                     

 cryst.   s( 1) = (     1          0          0      )
                  (     0          1          0      )
                  (     0          0          1      )

 cart.    s( 1) = (  1.0000000  0.0000000  0.0000000 )
                  (  0.0000000  1.0000000  0.0000000 )
                  (  0.0000000  0.0000000  1.0000000 )


   Cartesian axes

     site n.     atom                  positions (alat units)
         1           Sr  tau(   1) = (   0.2508693   0.7491307   1.7574407  )
         2           O   tau(   2) = (   0.4985141   0.5014859   1.7715967  )
         3           Sr  tau(   3) = (   0.7482398   0.7454518   1.7648669  )
         4           Sr  tau(   4) = (   0.7441748   0.2558252   1.7667843  )
         5           Sr  tau(   5) = (   0.2508693   0.7491307   1.2696799  )
         6           Sr  tau(   6) = (   0.2508693   0.7491307   0.7632319  )
         7           Co  tau(   7) = (   0.4998914   0.5001086   1.0164559  )
         8           Co  tau(   8) = (   0.4936915   0.5063085   1.5135603  )
         9           O   tau(   9) = (   0.4988895   0.7610401   1.0164559  )
        10           O   tau(  10) = (   0.2389599   0.5011105   1.0164559  )
        11           O   tau(  11) = (   0.0070918   0.7374880   1.0164559  )
        12           O   tau(  12) = (   0.0088340   0.7405089   1.5135603  )
        13           O   tau(  13) = (   0.5066944   0.7415376   1.5135603  )
        14           O   tau(  14) = (   0.2584624   0.4933056   1.5135603  )
        15           O   tau(  15) = (   0.4985141   0.5014859   0.7773880  )
        16           O   tau(  16) = (   0.4985141   0.5014859   1.2555238  )
        17           Sr  tau(  17) = (   0.7482398   0.7454518   0.7706582  )
        18           Sr  tau(  18) = (   0.7482398   0.7454518   1.2622536  )
        19           Sr  tau(  19) = (   0.7441748   0.2558252   0.7725755  )
        20           Sr  tau(  20) = (   0.7441748   0.2558252   1.2603363  )
        21           O   tau(  21) = (   0.7322655   0.0078049   1.5135603  )
        22           O   tau(  22) = (   0.7558175   0.4996027   1.5135603  )
        23           O   tau(  23) = (   0.5003973   0.2441825   1.5135603  )
        24           O   tau(  24) = (   0.7527966   0.4978604   1.0164559  )
        25           O   tau(  25) = (   0.5021396   0.2472034   1.0164559  )
        26           O   tau(  26) = (   0.7517679   0.0000000   1.0164559  )
        27           O   tau(  27) = (   0.0114961   0.4948124   1.7455321  )
        28           O   tau(  28) = (   0.0048226   0.0077944   1.7715967  )
        29           Sr  tau(  29) = (   0.2545482   0.2517602   1.7648669  )
        30           O   tau(  30) = (   0.5048017   0.0015068   1.7786929  )
        31           Co  tau(  31) = (   0.0056869   0.5006215   1.0164559  )
        32           Co  tau(  32) = (   0.0065315   0.4997770   1.5135603  )
        33           Co  tau(  33) = (   0.0061999   0.0064171   1.0164559  )
        34           Co  tau(  34) = (   0.0000000   0.0126169   1.5135603  )
        35           O   tau(  35) = (   0.0114961   0.4948124   1.2815885  )
        36           O   tau(  36) = (   0.0114961   0.4948124   0.7513233  )
        37           O   tau(  37) = (   0.0051979   0.2673486   1.0164559  )
        38           O   tau(  38) = (   0.0130029   0.2478461   1.5135603  )
        39           O   tau(  39) = (   0.0048226   0.0077944   0.7773880  )
        40           O   tau(  40) = (   0.0048226   0.0077944   1.2555238  )
        41           Sr  tau(  41) = (   0.2545482   0.2517602   0.7706582  )
        42           Sr  tau(  42) = (   0.2545482   0.2517602   1.2622536  )
        43           Co  tau(  43) = (   0.4989925   0.0073160   1.5135603  )
        44           Co  tau(  44) = (   0.4998370   0.0064714   1.0164559  )
        45           O   tau(  45) = (   0.5048017   0.0015068   0.7844841  )
        46           O   tau(  46) = (   0.5048017   0.0015068   1.2484277  )
        47           O   tau(  47) = (   0.2621260   0.0059111   1.5135603  )
        48           O   tau(  48) = (   0.2591051   0.0041689   1.0164559  )
        49           H   tau(  49) = (   0.9951520   0.2843291   2.1602013  )

   Crystallographic axes

     site n.     atom                  positions (cryst. coord.)
         1           Sr  tau(   1) = (  0.2508693  0.7491307  0.6943562  )
         2           O   tau(   2) = (  0.4985141  0.5014859  0.6999492  )
         3           Sr  tau(   3) = (  0.7482398  0.7454518  0.6972903  )
         4           Sr  tau(   4) = (  0.7441748  0.2558252  0.6980478  )
         5           Sr  tau(   5) = (  0.2508693  0.7491307  0.5016443  )
         6           Sr  tau(   6) = (  0.2508693  0.7491307  0.3015492  )
         7           Co  tau(   7) = (  0.4998914  0.5001086  0.4015968  )
         8           Co  tau(   8) = (  0.4936915  0.5063085  0.5980003  )
         9           O   tau(   9) = (  0.4988895  0.7610401  0.4015968  )
        10           O   tau(  10) = (  0.2389599  0.5011105  0.4015968  )
        11           O   tau(  11) = (  0.0070918  0.7374880  0.4015968  )
        12           O   tau(  12) = (  0.0088340  0.7405089  0.5980003  )
        13           O   tau(  13) = (  0.5066944  0.7415376  0.5980003  )
        14           O   tau(  14) = (  0.2584624  0.4933056  0.5980003  )
        15           O   tau(  15) = (  0.4985141  0.5014859  0.3071422  )
        16           O   tau(  16) = (  0.4985141  0.5014859  0.4960513  )
        17           Sr  tau(  17) = (  0.7482398  0.7454518  0.3044833  )
        18           Sr  tau(  18) = (  0.7482398  0.7454518  0.4987103  )
        19           Sr  tau(  19) = (  0.7441748  0.2558252  0.3052408  )
        20           Sr  tau(  20) = (  0.7441748  0.2558252  0.4979527  )
        21           O   tau(  21) = (  0.7322655  0.0078049  0.5980003  )
        22           O   tau(  22) = (  0.7558175  0.4996027  0.5980003  )
        23           O   tau(  23) = (  0.5003973  0.2441825  0.5980003  )
        24           O   tau(  24) = (  0.7527966  0.4978604  0.4015968  )
        25           O   tau(  25) = (  0.5021396  0.2472034  0.4015968  )
        26           O   tau(  26) = (  0.7517679  0.0000000  0.4015968  )
        27           O   tau(  27) = (  0.0114961  0.4948124  0.6896512  )
        28           O   tau(  28) = (  0.0048226  0.0077944  0.6999492  )
        29           Sr  tau(  29) = (  0.2545482  0.2517602  0.6972903  )
        30           O   tau(  30) = (  0.5048017  0.0015068  0.7027529  )
        31           Co  tau(  31) = (  0.0056869  0.5006215  0.4015968  )
        32           Co  tau(  32) = (  0.0065315  0.4997770  0.5980003  )
        33           Co  tau(  33) = (  0.0061999  0.0064171  0.4015968  )
        34           Co  tau(  34) = (  0.0000000  0.0126169  0.5980003  )
        35           O   tau(  35) = (  0.0114961  0.4948124  0.5063494  )
        36           O   tau(  36) = (  0.0114961  0.4948124  0.2968442  )
        37           O   tau(  37) = (  0.0051979  0.2673486  0.4015968  )
        38           O   tau(  38) = (  0.0130029  0.2478461  0.5980003  )
        39           O   tau(  39) = (  0.0048226  0.0077944  0.3071422  )
        40           O   tau(  40) = (  0.0048226  0.0077944  0.4960513  )
        41           Sr  tau(  41) = (  0.2545482  0.2517602  0.3044833  )
        42           Sr  tau(  42) = (  0.2545482  0.2517602  0.4987103  )
        43           Co  tau(  43) = (  0.4989925  0.0073160  0.5980003  )
        44           Co  tau(  44) = (  0.4998370  0.0064714  0.4015968  )
        45           O   tau(  45) = (  0.5048017  0.0015068  0.3099459  )
        46           O   tau(  46) = (  0.5048017  0.0015068  0.4932477  )
        47           O   tau(  47) = (  0.2621260  0.0059111  0.5980003  )
        48           O   tau(  48) = (  0.2591051  0.0041689  0.4015968  )
        49           H   tau(  49) = (  0.9951520  0.2843291  0.8534850  )

     number of k points=    10  Gaussian smearing, width (Ry)=  0.0700
                       cart. coord. in units 2pi/alat
        k(    1) = (   0.0000000   0.0000000   0.0000000), wk =   0.1250000
        k(    2) = (   0.0000000   0.2500000   0.0000000), wk =   0.2500000
        k(    3) = (   0.0000000  -0.5000000   0.0000000), wk =   0.1250000
        k(    4) = (   0.2500000   0.2500000   0.0000000), wk =   0.2500000
        k(    5) = (   0.2500000  -0.5000000   0.0000000), wk =   0.2500000
        k(    6) = (  -0.5000000  -0.5000000   0.0000000), wk =   0.1250000
        k(    7) = (   0.2500000   0.0000000   0.0000000), wk =   0.2500000
        k(    8) = (  -0.5000000   0.0000000   0.0000000), wk =   0.1250000
        k(    9) = (  -0.2500000   0.2500000   0.0000000), wk =   0.2500000
        k(   10) = (  -0.5000000   0.2500000   0.0000000), wk =   0.2500000

                       cryst. coord.
        k(    1) = (   0.0000000   0.0000000   0.0000000), wk =   0.1250000
        k(    2) = (   0.0000000   0.2500000   0.0000000), wk =   0.2500000
        k(    3) = (   0.0000000  -0.5000000   0.0000000), wk =   0.1250000
        k(    4) = (   0.2500000   0.2500000   0.0000000), wk =   0.2500000
        k(    5) = (   0.2500000  -0.5000000   0.0000000), wk =   0.2500000
        k(    6) = (  -0.5000000  -0.5000000   0.0000000), wk =   0.1250000
        k(    7) = (   0.2500000   0.0000000   0.0000000), wk =   0.2500000
        k(    8) = (  -0.5000000   0.0000000   0.0000000), wk =   0.1250000
        k(    9) = (  -0.2500000   0.2500000   0.0000000), wk =   0.2500000
        k(   10) = (  -0.5000000   0.2500000   0.0000000), wk =   0.2500000

     Dense  grid:  1474595 G-vectors     FFT dimensions: ( 108, 108, 270)

     Smooth grid:   521381 G-vectors     FFT dimensions: (  75,  75, 192)

     Dynamical RAM for                 wfc:      10.61 MB

     Dynamical RAM for     wfc (w. buffer):      63.63 MB

     Dynamical RAM for           str. fact:       3.75 MB

     Dynamical RAM for           local pot:       0.00 MB

     Dynamical RAM for          nlocal pot:      24.28 MB

     Dynamical RAM for                qrad:       7.03 MB

     Dynamical RAM for          rho,v,vnew:       6.02 MB

     Dynamical RAM for               rhoin:       2.01 MB

     Dynamical RAM for            rho*nmix:      15.00 MB

     Dynamical RAM for           G-vectors:       3.68 MB

     Dynamical RAM for          h,s,v(r/c):       1.32 MB

     Dynamical RAM for          <psi|beta>:       2.29 MB

     Dynamical RAM for                 psi:      21.21 MB

     Dynamical RAM for                hpsi:      21.21 MB

     Dynamical RAM for                spsi:      21.21 MB

     Dynamical RAM for      wfcinit/wfcrot:      34.09 MB

     Dynamical RAM for           addusdens:     100.79 MB

     Estimated static dynamical RAM per process >     120.42 MB

     Estimated max dynamical RAM per process >     236.21 MB

     Estimated total dynamical RAM >      10.72 GB

     Check: negative core charge=   -0.000004

     Initial potential from superposition of free atoms

     starting charge     416.5961, renormalised to     425.0000

     negative rho (up, down):  7.827E-01 0.000E+00
     Starting wfcs are  373 randomized atomic wfcs
     Checking if some PAW data can be deallocated... 
       PAW data deallocated on   20 nodes for type:  2

     total cpu time spent up to now is        8.8 secs

     Self-consistent Calculation

     iteration #  1     ecut=    60.00 Ry     beta= 0.15
     Davidson diagonalization with overlap

---- Real-time Memory Report at c_bands before calling an iterative solver
             0 MiB given to the printing process from OS
             0 MiB allocation reported by mallinfo(arena+hblkhd)
        170482 MiB available memory on the node where the printing process lives
------------------
     ethr =  1.00E-02,  avg # of iterations =  2.0

     negative rho (up, down):  7.715E-01 0.000E+00

     total cpu time spent up to now is       22.9 secs

     total energy              =   -4404.70778198 Ry
     estimated scf accuracy    <      42.20132308 Ry

     iteration #  2     ecut=    60.00 Ry     beta= 0.15
     Davidson diagonalization with overlap

---- Real-time Memory Report at c_bands before calling an iterative solver
             0 MiB given to the printing process from OS
             0 MiB allocation reported by mallinfo(arena+hblkhd)
        170701 MiB available memory on the node where the printing process lives
------------------
     ethr =  9.93E-03,  avg # of iterations =  1.0

     negative rho (up, down):  7.531E-01 0.000E+00

     total cpu time spent up to now is       35.2 secs

     total energy              =   -4400.04523932 Ry
     estimated scf accuracy    <      26.47784275 Ry

     iteration #  3     ecut=    60.00 Ry     beta= 0.15
     Davidson diagonalization with overlap

---- Real-time Memory Report at c_bands before calling an iterative solver
             0 MiB given to the printing process from OS
             0 MiB allocation reported by mallinfo(arena+hblkhd)
        169961 MiB available memory on the node where the printing process lives
------------------
     ethr =  6.23E-03,  avg # of iterations =  2.0

     negative rho (up, down):  7.544E-01 0.000E+00

     total cpu time spent up to now is       48.5 secs

     total energy              =   -4402.38309636 Ry
     estimated scf accuracy    <      49.01974634 Ry

     iteration #  4     ecut=    60.00 Ry     beta= 0.15
     Davidson diagonalization with overlap

---- Real-time Memory Report at c_bands before calling an iterative solver
             0 MiB given to the printing process from OS
             0 MiB allocation reported by mallinfo(arena+hblkhd)
        169830 MiB available memory on the node where the printing process lives
------------------
     ethr =  6.23E-03,  avg # of iterations =  1.0

     negative rho (up, down):  7.412E-01 0.000E+00

     total cpu time spent up to now is       60.4 secs

     total energy              =   -4401.63621194 Ry
     estimated scf accuracy    <      29.34584465 Ry

     iteration #  5     ecut=    60.00 Ry     beta= 0.15
     Davidson diagonalization with overlap

---- Real-time Memory Report at c_bands before calling an iterative solver
             0 MiB given to the printing process from OS
             0 MiB allocation reported by mallinfo(arena+hblkhd)
        169811 MiB available memory on the node where the printing process lives
------------------
     ethr =  6.23E-03,  avg # of iterations =  1.0

     negative rho (up, down):  7.473E-01 0.000E+00

     total cpu time spent up to now is       73.0 secs

     total energy              =   -4399.82543400 Ry
     estimated scf accuracy    <      43.59015601 Ry

     iteration #  6     ecut=    60.00 Ry     beta= 0.15
     Davidson diagonalization with overlap

---- Real-time Memory Report at c_bands before calling an iterative solver
             0 MiB given to the printing process from OS
             0 MiB allocation reported by mallinfo(arena+hblkhd)
        169795 MiB available memory on the node where the printing process lives
------------------
     ethr =  6.23E-03,  avg # of iterations =  1.0

     negative rho (up, down):  7.424E-01 0.000E+00

     total cpu time spent up to now is       85.3 secs

     total energy              =   -4400.64749979 Ry
     estimated scf accuracy    <      11.91088250 Ry

     iteration #  7     ecut=    60.00 Ry     beta= 0.15
     Davidson diagonalization with overlap

---- Real-time Memory Report at c_bands before calling an iterative solver
             0 MiB given to the printing process from OS
             0 MiB allocation reported by mallinfo(arena+hblkhd)
        169780 MiB available memory on the node where the printing process lives
------------------
     ethr =  2.80E-03,  avg # of iterations =  1.1

     negative rho (up, down):  7.446E-01 0.000E+00

     total cpu time spent up to now is       97.9 secs

     total energy              =   -4400.81920022 Ry
     estimated scf accuracy    <       4.04404436 Ry

     iteration #  8     ecut=    60.00 Ry     beta= 0.15
     Davidson diagonalization with overlap

---- Real-time Memory Report at c_bands before calling an iterative solver
             0 MiB given to the printing process from OS
             0 MiB allocation reported by mallinfo(arena+hblkhd)
        169759 MiB available memory on the node where the printing process lives
------------------
     ethr =  9.52E-04,  avg # of iterations =  1.5

     negative rho (up, down):  7.539E-01 0.000E+00

     total cpu time spent up to now is      110.7 secs

     total energy              =   -4400.31064518 Ry
     estimated scf accuracy    <       3.39219517 Ry

     iteration #  9     ecut=    60.00 Ry     beta= 0.15
     Davidson diagonalization with overlap

---- Real-time Memory Report at c_bands before calling an iterative solver
             0 MiB given to the printing process from OS
             0 MiB allocation reported by mallinfo(arena+hblkhd)
        169730 MiB available memory on the node where the printing process lives
------------------
     ethr =  7.98E-04,  avg # of iterations =  4.2

     negative rho (up, down):  7.756E-01 0.000E+00

     total cpu time spent up to now is      125.5 secs

     total energy              =   -4399.76177316 Ry
     estimated scf accuracy    <      45.91357518 Ry

     iteration # 10     ecut=    60.00 Ry     beta= 0.15
     Davidson diagonalization with overlap

---- Real-time Memory Report at c_bands before calling an iterative solver
             0 MiB given to the printing process from OS
             0 MiB allocation reported by mallinfo(arena+hblkhd)
        169621 MiB available memory on the node where the printing process lives
------------------
     ethr =  7.98E-04,  avg # of iterations =  9.5

     negative rho (up, down):  7.780E-01 0.000E+00

     total cpu time spent up to now is      143.2 secs

     total energy              =   -4399.82835773 Ry
     estimated scf accuracy    <      11.40641724 Ry

     iteration # 11     ecut=    60.00 Ry     beta= 0.15
     Davidson diagonalization with overlap

---- Real-time Memory Report at c_bands before calling an iterative solver
             0 MiB given to the printing process from OS
             0 MiB allocation reported by mallinfo(arena+hblkhd)
        169280 MiB available memory on the node where the printing process lives
------------------
     ethr =  7.98E-04,  avg # of iterations =  1.3

     negative rho (up, down):  7.814E-01 0.000E+00

     total cpu time spent up to now is      155.7 secs

     total energy              =   -4400.12456029 Ry
     estimated scf accuracy    <       1.30677855 Ry

     iteration # 12     ecut=    60.00 Ry     beta= 0.15
     Davidson diagonalization with overlap

---- Real-time Memory Report at c_bands before calling an iterative solver
             0 MiB given to the printing process from OS
             0 MiB allocation reported by mallinfo(arena+hblkhd)
        169314 MiB available memory on the node where the printing process lives
------------------
     ethr =  3.07E-04,  avg # of iterations =  1.9

     negative rho (up, down):  7.892E-01 0.000E+00

     total cpu time spent up to now is      168.5 secs

     total energy              =   -4400.11532476 Ry
     estimated scf accuracy    <       0.89274069 Ry

     iteration # 13     ecut=    60.00 Ry     beta= 0.15
     Davidson diagonalization with overlap

---- Real-time Memory Report at c_bands before calling an iterative solver
             0 MiB given to the printing process from OS
             0 MiB allocation reported by mallinfo(arena+hblkhd)
        169329 MiB available memory on the node where the printing process lives
------------------
     ethr =  2.10E-04,  avg # of iterations =  4.8

     negative rho (up, down):  7.990E-01 0.000E+00

     total cpu time spent up to now is      182.4 secs

     total energy              =   -4400.11130898 Ry
     estimated scf accuracy    <       1.97115468 Ry

     iteration # 14     ecut=    60.00 Ry     beta= 0.15
     Davidson diagonalization with overlap

---- Real-time Memory Report at c_bands before calling an iterative solver
             0 MiB given to the printing process from OS
             0 MiB allocation reported by mallinfo(arena+hblkhd)
        169325 MiB available memory on the node where the printing process lives
------------------
     ethr =  2.10E-04,  avg # of iterations =  4.9

     negative rho (up, down):  8.038E-01 0.000E+00

     total cpu time spent up to now is      196.9 secs

     total energy              =   -4400.01721712 Ry
     estimated scf accuracy    <       1.95574025 Ry

     iteration # 15     ecut=    60.00 Ry     beta= 0.15
     Davidson diagonalization with overlap

---- Real-time Memory Report at c_bands before calling an iterative solver
             0 MiB given to the printing process from OS
             0 MiB allocation reported by mallinfo(arena+hblkhd)
        169300 MiB available memory on the node where the printing process lives
------------------
     ethr =  2.10E-04,  avg # of iterations =  2.6

     negative rho (up, down):  8.084E-01 0.000E+00

     total cpu time spent up to now is      210.4 secs

     total energy              =   -4400.05158488 Ry
     estimated scf accuracy    <       0.37144804 Ry

     iteration # 16     ecut=    60.00 Ry     beta= 0.15
     Davidson diagonalization with overlap

---- Real-time Memory Report at c_bands before calling an iterative solver
             0 MiB given to the printing process from OS
             0 MiB allocation reported by mallinfo(arena+hblkhd)
        169297 MiB available memory on the node where the printing process lives
------------------
     ethr =  8.74E-05,  avg # of iterations =  8.5

     negative rho (up, down):  8.126E-01 0.000E+00

     total cpu time spent up to now is      226.9 secs

     total energy              =   -4400.02856907 Ry
     estimated scf accuracy    <       0.31900804 Ry

     iteration # 17     ecut=    60.00 Ry     beta= 0.15
     Davidson diagonalization with overlap

---- Real-time Memory Report at c_bands before calling an iterative solver
             0 MiB given to the printing process from OS
             0 MiB allocation reported by mallinfo(arena+hblkhd)
        169255 MiB available memory on the node where the printing process lives
------------------
     ethr =  7.51E-05,  avg # of iterations =  4.2

     negative rho (up, down):  8.201E-01 0.000E+00

     total cpu time spent up to now is      241.3 secs

     total energy              =   -4399.95226963 Ry
     estimated scf accuracy    <       0.26817993 Ry

     iteration # 18     ecut=    60.00 Ry     beta= 0.15
     Davidson diagonalization with overlap

---- Real-time Memory Report at c_bands before calling an iterative solver
             0 MiB given to the printing process from OS
             0 MiB allocation reported by mallinfo(arena+hblkhd)
        169259 MiB available memory on the node where the printing process lives
------------------
     ethr =  6.31E-05,  avg # of iterations = 13.6

     negative rho (up, down):  8.224E-01 0.000E+00

     total cpu time spent up to now is      260.3 secs

     total energy              =   -4399.94746164 Ry
     estimated scf accuracy    <       0.19084451 Ry

     iteration # 19     ecut=    60.00 Ry     beta= 0.15
     Davidson diagonalization with overlap

---- Real-time Memory Report at c_bands before calling an iterative solver
             0 MiB given to the printing process from OS
             0 MiB allocation reported by mallinfo(arena+hblkhd)
        169224 MiB available memory on the node where the printing process lives
------------------
     ethr =  4.49E-05,  avg # of iterations =  2.8

     negative rho (up, down):  8.219E-01 0.000E+00

     total cpu time spent up to now is      274.3 secs

     total energy              =   -4399.94522145 Ry
     estimated scf accuracy    <       0.11896019 Ry

     iteration # 20     ecut=    60.00 Ry     beta= 0.15
     Davidson diagonalization with overlap

---- Real-time Memory Report at c_bands before calling an iterative solver
             0 MiB given to the printing process from OS
             0 MiB allocation reported by mallinfo(arena+hblkhd)
        169215 MiB available memory on the node where the printing process lives
------------------
     ethr =  2.80E-05,  avg # of iterations =  4.3

     negative rho (up, down):  8.194E-01 0.000E+00

     total cpu time spent up to now is      289.2 secs

     total energy              =   -4399.93024469 Ry
     estimated scf accuracy    <       0.08367189 Ry

     iteration # 21     ecut=    60.00 Ry     beta= 0.15
     Davidson diagonalization with overlap

---- Real-time Memory Report at c_bands before calling an iterative solver
             0 MiB given to the printing process from OS
             0 MiB allocation reported by mallinfo(arena+hblkhd)
        169207 MiB available memory on the node where the printing process lives
------------------
     ethr =  1.97E-05,  avg # of iterations =  9.0

     negative rho (up, down):  8.138E-01 0.000E+00

     total cpu time spent up to now is      306.4 secs

     total energy              =   -4399.92611928 Ry
     estimated scf accuracy    <       0.04899281 Ry

     iteration # 22     ecut=    60.00 Ry     beta= 0.15
     Davidson diagonalization with overlap

---- Real-time Memory Report at c_bands before calling an iterative solver
             0 MiB given to the printing process from OS
             0 MiB allocation reported by mallinfo(arena+hblkhd)
        169211 MiB available memory on the node where the printing process lives
------------------
     c_bands:  1 eigenvalues not converged
     ethr =  1.15E-05,  avg # of iterations = 12.1

     negative rho (up, down):  8.023E-01 0.000E+00

     total cpu time spent up to now is      324.1 secs

     total energy              =   -4399.92279455 Ry
     estimated scf accuracy    <       0.03141476 Ry

     iteration # 23     ecut=    60.00 Ry     beta= 0.15
     Davidson diagonalization with overlap

---- Real-time Memory Report at c_bands before calling an iterative solver
             0 MiB given to the printing process from OS
             0 MiB allocation reported by mallinfo(arena+hblkhd)
        169111 MiB available memory on the node where the printing process lives
------------------
     ethr =  7.39E-06,  avg # of iterations =  8.2

     negative rho (up, down):  8.000E-01 0.000E+00

     total cpu time spent up to now is      340.2 secs

     total energy              =   -4399.92106497 Ry
     estimated scf accuracy    <       0.01919166 Ry

     iteration # 24     ecut=    60.00 Ry     beta= 0.15
     Davidson diagonalization with overlap

---- Real-time Memory Report at c_bands before calling an iterative solver
             0 MiB given to the printing process from OS
             0 MiB allocation reported by mallinfo(arena+hblkhd)
        169133 MiB available memory on the node where the printing process lives
------------------
     c_bands:  1 eigenvalues not converged
     ethr =  4.52E-06,  avg # of iterations = 12.6

     negative rho (up, down):  7.988E-01 0.000E+00

     total cpu time spent up to now is      359.0 secs

     total energy              =   -4399.92112128 Ry
     estimated scf accuracy    <       0.01109586 Ry

     iteration # 25     ecut=    60.00 Ry     beta= 0.15
     Davidson diagonalization with overlap

---- Real-time Memory Report at c_bands before calling an iterative solver
             0 MiB given to the printing process from OS
             0 MiB allocation reported by mallinfo(arena+hblkhd)
        168949 MiB available memory on the node where the printing process lives
------------------
     c_bands:  1 eigenvalues not converged
     ethr =  2.61E-06,  avg # of iterations =  4.0

     negative rho (up, down):  7.929E-01 0.000E+00

     total cpu time spent up to now is      373.4 secs

     total energy              =   -4399.92039282 Ry
     estimated scf accuracy    <       0.00879826 Ry

     iteration # 26     ecut=    60.00 Ry     beta= 0.15
     Davidson diagonalization with overlap

---- Real-time Memory Report at c_bands before calling an iterative solver
             0 MiB given to the printing process from OS
             0 MiB allocation reported by mallinfo(arena+hblkhd)
        169051 MiB available memory on the node where the printing process lives
------------------
     ethr =  2.07E-06,  avg # of iterations =  5.0

     negative rho (up, down):  7.898E-01 0.000E+00

     total cpu time spent up to now is      388.5 secs

     total energy              =   -4399.91992881 Ry
     estimated scf accuracy    <       0.00568623 Ry

     iteration # 27     ecut=    60.00 Ry     beta= 0.15
     Davidson diagonalization with overlap

---- Real-time Memory Report at c_bands before calling an iterative solver
             0 MiB given to the printing process from OS
             0 MiB allocation reported by mallinfo(arena+hblkhd)
        169015 MiB available memory on the node where the printing process lives
------------------
     ethr =  1.34E-06,  avg # of iterations =  7.9

     negative rho (up, down):  7.949E-01 0.000E+00

     total cpu time spent up to now is      404.6 secs

     total energy              =   -4399.91991444 Ry
     estimated scf accuracy    <       0.00322825 Ry

     iteration # 28     ecut=    60.00 Ry     beta= 0.15
     Davidson diagonalization with overlap

---- Real-time Memory Report at c_bands before calling an iterative solver
             0 MiB given to the printing process from OS
             0 MiB allocation reported by mallinfo(arena+hblkhd)
        169017 MiB available memory on the node where the printing process lives
------------------
     ethr =  7.60E-07,  avg # of iterations = 12.3

     negative rho (up, down):  7.940E-01 0.000E+00

     total cpu time spent up to now is      423.5 secs

     total energy              =   -4399.91983813 Ry
     estimated scf accuracy    <       0.00119932 Ry

     iteration # 29     ecut=    60.00 Ry     beta= 0.15
     Davidson diagonalization with overlap

---- Real-time Memory Report at c_bands before calling an iterative solver
             0 MiB given to the printing process from OS
             0 MiB allocation reported by mallinfo(arena+hblkhd)
        169003 MiB available memory on the node where the printing process lives
------------------
     ethr =  2.82E-07,  avg # of iterations =  8.5

     negative rho (up, down):  7.946E-01 0.000E+00

     total cpu time spent up to now is      439.7 secs

     total energy              =   -4399.91975782 Ry
     estimated scf accuracy    <       0.00070588 Ry

     iteration # 30     ecut=    60.00 Ry     beta= 0.15
     Davidson diagonalization with overlap

---- Real-time Memory Report at c_bands before calling an iterative solver
             0 MiB given to the printing process from OS
             0 MiB allocation reported by mallinfo(arena+hblkhd)
        168928 MiB available memory on the node where the printing process lives
------------------
     ethr =  1.66E-07,  avg # of iterations =  5.2

     negative rho (up, down):  7.947E-01 0.000E+00

     total cpu time spent up to now is      454.5 secs

     total energy              =   -4399.91970922 Ry
     estimated scf accuracy    <       0.00028943 Ry

     iteration # 31     ecut=    60.00 Ry     beta= 0.15
     Davidson diagonalization with overlap

---- Real-time Memory Report at c_bands before calling an iterative solver
             0 MiB given to the printing process from OS
             0 MiB allocation reported by mallinfo(arena+hblkhd)
        169033 MiB available memory on the node where the printing process lives
------------------
     ethr =  6.81E-08,  avg # of iterations =  5.8

     negative rho (up, down):  7.943E-01 0.000E+00

     total cpu time spent up to now is      472.2 secs

     total energy              =   -4399.91973688 Ry
     estimated scf accuracy    <       0.00006934 Ry

     iteration # 32     ecut=    60.00 Ry     beta= 0.15
     Davidson diagonalization with overlap

---- Real-time Memory Report at c_bands before calling an iterative solver
             0 MiB given to the printing process from OS
             0 MiB allocation reported by mallinfo(arena+hblkhd)
        168969 MiB available memory on the node where the printing process lives
------------------
     ethr =  1.63E-08,  avg # of iterations =  2.4

     negative rho (up, down):  7.938E-01 0.000E+00

     total cpu time spent up to now is      486.1 secs

     total energy              =   -4399.91973899 Ry
     estimated scf accuracy    <       0.00004591 Ry

     iteration # 33     ecut=    60.00 Ry     beta= 0.15
     Davidson diagonalization with overlap

---- Real-time Memory Report at c_bands before calling an iterative solver
             0 MiB given to the printing process from OS
             0 MiB allocation reported by mallinfo(arena+hblkhd)
        169000 MiB available memory on the node where the printing process lives
------------------
     ethr =  1.08E-08,  avg # of iterations =  2.2

     negative rho (up, down):  7.931E-01 0.000E+00

     total cpu time spent up to now is      499.5 secs

     total energy              =   -4399.91974263 Ry
     estimated scf accuracy    <       0.00003626 Ry

     iteration # 34     ecut=    60.00 Ry     beta= 0.15
     Davidson diagonalization with overlap

---- Real-time Memory Report at c_bands before calling an iterative solver
             0 MiB given to the printing process from OS
             0 MiB allocation reported by mallinfo(arena+hblkhd)
        169013 MiB available memory on the node where the printing process lives
------------------
     ethr =  8.53E-09,  avg # of iterations =  2.8

     negative rho (up, down):  7.929E-01 0.000E+00

     total cpu time spent up to now is      513.5 secs

     total energy              =   -4399.91974701 Ry
     estimated scf accuracy    <       0.00002448 Ry

     iteration # 35     ecut=    60.00 Ry     beta= 0.15
     Davidson diagonalization with overlap

---- Real-time Memory Report at c_bands before calling an iterative solver
             0 MiB given to the printing process from OS
             0 MiB allocation reported by mallinfo(arena+hblkhd)
        169011 MiB available memory on the node where the printing process lives
------------------
     ethr =  5.76E-09,  avg # of iterations =  2.1

     negative rho (up, down):  7.925E-01 0.000E+00

     total cpu time spent up to now is      526.9 secs

     total energy              =   -4399.91975211 Ry
     estimated scf accuracy    <       0.00001915 Ry

     iteration # 36     ecut=    60.00 Ry     beta= 0.15
     Davidson diagonalization with overlap

---- Real-time Memory Report at c_bands before calling an iterative solver
             0 MiB given to the printing process from OS
             0 MiB allocation reported by mallinfo(arena+hblkhd)
        169034 MiB available memory on the node where the printing process lives
------------------
     ethr =  4.51E-09,  avg # of iterations =  2.5

     negative rho (up, down):  7.923E-01 0.000E+00

     total cpu time spent up to now is      540.5 secs

     total energy              =   -4399.91975460 Ry
     estimated scf accuracy    <       0.00000826 Ry

     iteration # 37     ecut=    60.00 Ry     beta= 0.15
     Davidson diagonalization with overlap

---- Real-time Memory Report at c_bands before calling an iterative solver
             0 MiB given to the printing process from OS
             0 MiB allocation reported by mallinfo(arena+hblkhd)
        169060 MiB available memory on the node where the printing process lives
------------------
     ethr =  1.94E-09,  avg # of iterations =  2.5

     negative rho (up, down):  7.922E-01 0.000E+00

     total cpu time spent up to now is      554.1 secs

     total energy              =   -4399.91975519 Ry
     estimated scf accuracy    <       0.00000519 Ry

     iteration # 38     ecut=    60.00 Ry     beta= 0.15
     Davidson diagonalization with overlap

---- Real-time Memory Report at c_bands before calling an iterative solver
             0 MiB given to the printing process from OS
             0 MiB allocation reported by mallinfo(arena+hblkhd)
        169063 MiB available memory on the node where the printing process lives
------------------
     ethr =  1.22E-09,  avg # of iterations =  2.7

     negative rho (up, down):  7.922E-01 0.000E+00

     total cpu time spent up to now is      567.7 secs

     total energy              =   -4399.91975524 Ry
     estimated scf accuracy    <       0.00000315 Ry

     iteration # 39     ecut=    60.00 Ry     beta= 0.15
     Davidson diagonalization with overlap

---- Real-time Memory Report at c_bands before calling an iterative solver
             0 MiB given to the printing process from OS
             0 MiB allocation reported by mallinfo(arena+hblkhd)
        169091 MiB available memory on the node where the printing process lives
------------------
     ethr =  7.42E-10,  avg # of iterations =  2.1

     negative rho (up, down):  7.923E-01 0.000E+00

     total cpu time spent up to now is      581.6 secs

     total energy              =   -4399.91975511 Ry
     estimated scf accuracy    <       0.00000226 Ry

     iteration # 40     ecut=    60.00 Ry     beta= 0.15
     Davidson diagonalization with overlap

---- Real-time Memory Report at c_bands before calling an iterative solver
             0 MiB given to the printing process from OS
             0 MiB allocation reported by mallinfo(arena+hblkhd)
        169111 MiB available memory on the node where the printing process lives
------------------
     ethr =  5.32E-10,  avg # of iterations =  2.7

     negative rho (up, down):  7.923E-01 0.000E+00

     total cpu time spent up to now is      595.1 secs

     total energy              =   -4399.91975534 Ry
     estimated scf accuracy    <       0.00000108 Ry

     iteration # 41     ecut=    60.00 Ry     beta= 0.15
     Davidson diagonalization with overlap

---- Real-time Memory Report at c_bands before calling an iterative solver
             0 MiB given to the printing process from OS
             0 MiB allocation reported by mallinfo(arena+hblkhd)
        169121 MiB available memory on the node where the printing process lives
------------------
     ethr =  2.53E-10,  avg # of iterations =  2.7

     negative rho (up, down):  7.924E-01 0.000E+00

     total cpu time spent up to now is      608.8 secs

     total energy              =   -4399.91975548 Ry
     estimated scf accuracy    <       0.00000053 Ry

     iteration # 42     ecut=    60.00 Ry     beta= 0.15
     Davidson diagonalization with overlap

---- Real-time Memory Report at c_bands before calling an iterative solver
             0 MiB given to the printing process from OS
             0 MiB allocation reported by mallinfo(arena+hblkhd)
        169121 MiB available memory on the node where the printing process lives
------------------
     ethr =  1.25E-10,  avg # of iterations =  3.1

     negative rho (up, down):  7.924E-01 0.000E+00

     total cpu time spent up to now is      622.8 secs

     total energy              =   -4399.91975554 Ry
     estimated scf accuracy    <       0.00000023 Ry

     iteration # 43     ecut=    60.00 Ry     beta= 0.15
     Davidson diagonalization with overlap

---- Real-time Memory Report at c_bands before calling an iterative solver
             0 MiB given to the printing process from OS
             0 MiB allocation reported by mallinfo(arena+hblkhd)
        169131 MiB available memory on the node where the printing process lives
------------------
     ethr =  5.33E-11,  avg # of iterations =  2.8

     negative rho (up, down):  7.924E-01 0.000E+00

     total cpu time spent up to now is      637.3 secs

     total energy              =   -4399.91975555 Ry
     estimated scf accuracy    <       0.00000010 Ry

     iteration # 44     ecut=    60.00 Ry     beta= 0.15
     Davidson diagonalization with overlap

---- Real-time Memory Report at c_bands before calling an iterative solver
             0 MiB given to the printing process from OS
             0 MiB allocation reported by mallinfo(arena+hblkhd)
        169157 MiB available memory on the node where the printing process lives
------------------
     ethr =  2.42E-11,  avg # of iterations =  2.1

     negative rho (up, down):  7.924E-01 0.000E+00

     total cpu time spent up to now is      651.3 secs

     total energy              =   -4399.91975556 Ry
     estimated scf accuracy    <       0.00000007 Ry

     iteration # 45     ecut=    60.00 Ry     beta= 0.15
     Davidson diagonalization with overlap

---- Real-time Memory Report at c_bands before calling an iterative solver
             0 MiB given to the printing process from OS
             0 MiB allocation reported by mallinfo(arena+hblkhd)
        169159 MiB available memory on the node where the printing process lives
------------------
     ethr =  1.58E-11,  avg # of iterations =  2.2

     negative rho (up, down):  7.924E-01 0.000E+00

     total cpu time spent up to now is      665.3 secs

     total energy              =   -4399.91975556 Ry
     estimated scf accuracy    <       0.00000003 Ry

     iteration # 46     ecut=    60.00 Ry     beta= 0.15
     Davidson diagonalization with overlap

---- Real-time Memory Report at c_bands before calling an iterative solver
             0 MiB given to the printing process from OS
             0 MiB allocation reported by mallinfo(arena+hblkhd)
        169157 MiB available memory on the node where the printing process lives
------------------
     ethr =  7.58E-12,  avg # of iterations =  2.2

     negative rho (up, down):  7.924E-01 0.000E+00

     total cpu time spent up to now is      679.3 secs

     total energy              =   -4399.91975555 Ry
     estimated scf accuracy    <       0.00000003 Ry

     iteration # 47     ecut=    60.00 Ry     beta= 0.15
     Davidson diagonalization with overlap

---- Real-time Memory Report at c_bands before calling an iterative solver
             0 MiB given to the printing process from OS
             0 MiB allocation reported by mallinfo(arena+hblkhd)
        169156 MiB available memory on the node where the printing process lives
------------------
     ethr =  6.45E-12,  avg # of iterations =  2.2

     negative rho (up, down):  7.924E-01 0.000E+00

     total cpu time spent up to now is      693.3 secs

     total energy              =   -4399.91975555 Ry
     estimated scf accuracy    <       0.00000002 Ry

     iteration # 48     ecut=    60.00 Ry     beta= 0.15
     Davidson diagonalization with overlap

---- Real-time Memory Report at c_bands before calling an iterative solver
             0 MiB given to the printing process from OS
             0 MiB allocation reported by mallinfo(arena+hblkhd)
        169157 MiB available memory on the node where the printing process lives
------------------
     ethr =  3.76E-12,  avg # of iterations =  2.1

     negative rho (up, down):  7.924E-01 0.000E+00

     total cpu time spent up to now is      707.0 secs

     End of self-consistent calculation

          k = 0.0000 0.0000 0.0000 ( 65197 PWs)   bands (ev):

   -92.7353 -92.6826 -92.5899 -92.5415 -92.4831 -92.4418 -92.4246 -92.3031
   -56.0887 -56.0685 -55.9470 -55.9360 -55.9295 -55.9228 -55.8869 -55.8589
   -55.8432 -55.8413 -55.8336 -55.7907 -55.7722 -55.7344 -55.7166 -55.6832
   -55.6769 -55.6302 -55.6302 -55.6270 -55.6186 -55.5776 -55.5549 -55.4685
   -31.3113 -31.2918 -31.1727 -31.1494 -31.0626 -30.9767 -30.9165 -30.7125
   -29.8834 -29.8402 -29.8136 -29.7051 -15.1157 -15.0728 -14.9912 -14.8614
   -14.6679 -14.5476 -14.2538 -14.2355 -14.2059 -14.1598 -14.1147 -14.0988
   -14.0925 -14.0750 -14.0608 -14.0167 -13.9662 -13.8142 -13.6319 -13.6028
   -13.5712 -13.5367 -13.5225 -13.4704 -13.4369 -13.3554 -13.2838 -13.1799
   -13.1587 -13.1440 -13.1274 -13.1088 -13.0898 -13.0435 -13.0345 -13.0232
   -12.9879 -12.9597 -12.9576 -12.9460 -12.9219 -12.8826 -12.8411 -12.8150
   -12.7980 -12.6638 -12.6596 -12.6342 -12.3757 -12.2297 -12.0628 -11.9896
   -11.8966 -11.8228 -11.8113 -11.7887 -11.7709 -11.7072 -11.6897 -11.6556
   -11.6263 -11.5139 -11.4345 -11.4310  -2.9763  -2.7440  -2.5146  -2.3670
    -2.3046  -2.1622  -1.8547  -1.8401  -1.8209  -1.7348  -1.7174  -1.6489
    -1.6331  -1.5922  -1.5471  -1.3665  -1.1408  -1.1114  -0.9654  -0.9510
    -0.9057  -0.8855  -0.8410  -0.8254  -0.7689  -0.7417  -0.6701  -0.6585
    -0.5816  -0.4503  -0.4374  -0.4082  -0.3274  -0.3071  -0.2809  -0.2335
    -0.1635  -0.1269  -0.0669  -0.0443   0.0166   0.0966   0.1450   0.1691
     0.1774   0.4349   0.4509   0.6226   0.6882   0.7510   0.8013   0.8888
     0.9008   0.9187   0.9864   1.0142   1.0482   1.1060   1.2387   1.2940
     1.3165   1.3414   1.3506   1.4131   1.4867   1.5913   1.6078   1.6620
     1.6774   1.7203   1.7419   1.7499   1.8039   1.8595   1.8682   1.9024
     1.9328   1.9897   2.1217   2.2041   2.2491   2.2648   2.4115   2.4274
     2.4733   2.4782   2.5890   2.6213   2.6464   2.6682   2.6825   2.7622
     2.7804   2.8719   2.9073   2.9166   2.9236   2.9910   2.9965   3.0187
     3.0268   3.0349   3.0471   3.0546   3.0677   3.0740   3.0878   3.0946
     3.1014   3.1220   3.1431   3.1487   3.1602   3.1823   3.3009   3.4070
     4.0748   4.3896   4.7354   4.8544   5.0021   5.8607   5.9404   5.9559
     5.9779   6.2804   6.3269   6.4656   6.4748   6.7448   6.9883   7.0794
     7.1489   7.2834   7.4102   7.5747   7.6355   7.6524   7.6822   7.8580
     7.9450   8.0919   8.1169   8.2197   8.5538   8.6456   8.7877   8.8599

     occupation numbers 
     1.0000   1.0000   1.0000   1.0000   1.0000   1.0000   1.0000   1.0000
     1.0000   1.0000   1.0000   1.0000   1.0000   1.0000   1.0000   1.0000
     1.0000   1.0000   1.0000   1.0000   1.0000   1.0000   1.0000   1.0000
     1.0000   1.0000   1.0000   1.0000   1.0000   1.0000   1.0000   1.0000
     1.0000   1.0000   1.0000   1.0000   1.0000   1.0000   1.0000   1.0000
     1.0000   1.0000   1.0000   1.0000   1.0000   1.0000   1.0000   1.0000
     1.0000   1.0000   1.0000   1.0000   1.0000   1.0000   1.0000   1.0000
     1.0000   1.0000   1.0000   1.0000   1.0000   1.0000   1.0000   1.0000
     1.0000   1.0000   1.0000   1.0000   1.0000   1.0000   1.0000   1.0000
     1.0000   1.0000   1.0000   1.0000   1.0000   1.0000   1.0000   1.0000
     1.0000   1.0000   1.0000   1.0000   1.0000   1.0000   1.0000   1.0000
     1.0000   1.0000   1.0000   1.0000   1.0000   1.0000   1.0000   1.0000
     1.0000   1.0000   1.0000   1.0000   1.0000   1.0000   1.0000   1.0000
     1.0000   1.0000   1.0000   1.0000   1.0000   1.0000   1.0000   1.0000
     1.0000   1.0000   1.0000   1.0000   1.0000   1.0000   1.0000   1.0000
     1.0000   1.0000   1.0000   1.0000   1.0000   1.0000   1.0000   1.0000
     1.0000   1.0000   1.0000   1.0000   1.0000   1.0000   1.0000   1.0000
     1.0000   1.0000   1.0000   1.0000   1.0000   1.0000   1.0000   1.0000
     1.0000   1.0000   1.0000   1.0000   1.0000   1.0000   1.0000   1.0000
     1.0000   1.0000   1.0000   1.0000   0.9999   0.9999   0.9999   0.9998
     0.9998   0.9998   0.9997   0.9996   0.9996   0.9994   0.9989   0.9985
     0.9983   0.9981   0.9980   0.9974   0.9963   0.9942   0.9938   0.9923
     0.9918   0.9902   0.9893   0.9890   0.9865   0.9833   0.9828   0.9805
     0.9782   0.9735   0.9589   0.9469   0.9393   0.9365   0.9045   0.9005
     0.8880   0.8866   0.8518   0.8405   0.8313   0.8230   0.8174   0.7844
     0.7764   0.7338   0.7162   0.7116   0.7080   0.6727   0.6698   0.6577
     0.6533   0.6488   0.6421   0.6379   0.6306   0.6271   0.6193   0.6154
     0.6116   0.5998   0.5877   0.5844   0.5778   0.5649   0.4949   0.4324
     0.1226   0.0516   0.0161   0.0102   0.0056   0.0001   0.0000   0.0000
     0.0000   0.0000   0.0000   0.0000   0.0000   0.0000   0.0000   0.0000
     0.0000   0.0000   0.0000   0.0000   0.0000   0.0000   0.0000   0.0000
     0.0000   0.0000   0.0000   0.0000   0.0000   0.0000   0.0000   0.0000

          k = 0.0000 0.2500 0.0000 ( 65257 PWs)   bands (ev):

   -92.7353 -92.6826 -92.5899 -92.5415 -92.4831 -92.4418 -92.4246 -92.3031
   -56.0887 -56.0685 -55.9470 -55.9360 -55.9295 -55.9228 -55.8869 -55.8589
   -55.8432 -55.8413 -55.8336 -55.7907 -55.7722 -55.7344 -55.7166 -55.6832
   -55.6769 -55.6302 -55.6302 -55.6270 -55.6186 -55.5776 -55.5549 -55.4685
   -31.3111 -31.2917 -31.1726 -31.1496 -31.0627 -30.9766 -30.9166 -30.7126
   -29.8828 -29.8399 -29.8142 -29.7054 -15.0791 -15.0462 -14.9663 -14.8320
   -14.7101 -14.5368 -14.3991 -14.2197 -14.1863 -14.1657 -14.1352 -14.0793
   -14.0703 -14.0552 -14.0395 -13.9915 -13.8847 -13.8456 -13.6814 -13.6589
   -13.6131 -13.5753 -13.5257 -13.4886 -13.4464 -13.3770 -13.3414 -13.2883
   -13.2214 -13.1812 -13.1496 -13.1399 -13.1146 -13.0205 -12.9946 -12.9682
   -12.9592 -12.9332 -12.9316 -12.9030 -12.8924 -12.8329 -12.8212 -12.7365
   -12.6967 -12.6599 -12.5991 -12.5438 -12.4370 -12.2808 -12.1170 -12.0533
   -11.8621 -11.8196 -11.7914 -11.7629 -11.7464 -11.6992 -11.6877 -11.6651
   -11.6317 -11.5281 -11.4760 -11.4656  -2.8409  -2.6197  -2.4820  -2.2997
    -2.2562  -2.0927  -1.8722  -1.7887  -1.7756  -1.7150  -1.6152  -1.5999
    -1.5653  -1.5389  -1.4949  -1.2976  -1.1685  -1.1572  -1.0794  -1.0706
    -0.9666  -0.9362  -0.8781  -0.8527  -0.8124  -0.7482  -0.7225  -0.6895
    -0.6601  -0.6423  -0.6097  -0.5357  -0.4843  -0.4108  -0.3057  -0.2783
    -0.2408  -0.1291  -0.0942  -0.0296   0.0193   0.0814   0.0965   0.1239
     0.1806   0.4819   0.5701   0.6026   0.6892   0.7355   0.7559   0.8744
     0.8929   0.9874   1.0134   1.0410   1.1561   1.2494   1.2704   1.2958
     1.3163   1.3394   1.3993   1.4266   1.4543   1.5018   1.5361   1.5669
     1.6502   1.6861   1.7153   1.7731   1.8234   1.8587   1.8883   1.9206
     1.9360   2.0288   2.1578   2.2278   2.2481   2.3245   2.3689   2.4083
     2.4147   2.4810   2.5200   2.6051   2.6425   2.6614   2.7644   2.8322
     2.8592   2.8874   2.9086   2.9249   2.9327   2.9394   2.9499   2.9781
     2.9819   3.0001   3.0103   3.0156   3.0315   3.0422   3.0519   3.0734
     3.0836   3.0898   3.1242   3.1406   3.2006   3.5626   3.6169   3.8496
     4.2626   4.3852   4.6783   5.0027   5.0333   5.6135   5.7731   5.9266
     5.9806   6.0602   6.0856   6.1546   6.5816   6.9067   7.0492   7.1042
     7.2540   7.3096   7.4570   7.4748   7.6225   7.7600   7.8142   7.9603
     8.0100   8.1038   8.1833   8.3046   8.3839   8.6732   8.8304   8.8575

     occupation numbers 
     1.0000   1.0000   1.0000   1.0000   1.0000   1.0000   1.0000   1.0000
     1.0000   1.0000   1.0000   1.0000   1.0000   1.0000   1.0000   1.0000
     1.0000   1.0000   1.0000   1.0000   1.0000   1.0000   1.0000   1.0000
     1.0000   1.0000   1.0000   1.0000   1.0000   1.0000   1.0000   1.0000
     1.0000   1.0000   1.0000   1.0000   1.0000   1.0000   1.0000   1.0000
     1.0000   1.0000   1.0000   1.0000   1.0000   1.0000   1.0000   1.0000
     1.0000   1.0000   1.0000   1.0000   1.0000   1.0000   1.0000   1.0000
     1.0000   1.0000   1.0000   1.0000   1.0000   1.0000   1.0000   1.0000
     1.0000   1.0000   1.0000   1.0000   1.0000   1.0000   1.0000   1.0000
     1.0000   1.0000   1.0000   1.0000   1.0000   1.0000   1.0000   1.0000
     1.0000   1.0000   1.0000   1.0000   1.0000   1.0000   1.0000   1.0000
     1.0000   1.0000   1.0000   1.0000   1.0000   1.0000   1.0000   1.0000
     1.0000   1.0000   1.0000   1.0000   1.0000   1.0000   1.0000   1.0000
     1.0000   1.0000   1.0000   1.0000   1.0000   1.0000   1.0000   1.0000
     1.0000   1.0000   1.0000   1.0000   1.0000   1.0000   1.0000   1.0000
     1.0000   1.0000   1.0000   1.0000   1.0000   1.0000   1.0000   1.0000
     1.0000   1.0000   1.0000   1.0000   1.0000   1.0000   1.0000   1.0000
     1.0000   1.0000   1.0000   1.0000   1.0000   1.0000   1.0000   1.0000
     1.0000   1.0000   1.0000   1.0000   1.0000   1.0000   1.0000   1.0000
     1.0000   1.0000   1.0000   1.0000   0.9999   0.9999   0.9999   0.9998
     0.9998   0.9997   0.9996   0.9996   0.9992   0.9988   0.9987   0.9985
     0.9983   0.9981   0.9975   0.9972   0.9968   0.9961   0.9954   0.9948
     0.9926   0.9915   0.9904   0.9880   0.9854   0.9834   0.9815   0.9792
     0.9780   0.9697   0.9540   0.9430   0.9395   0.9247   0.9148   0.9053
     0.9037   0.8858   0.8743   0.8462   0.8327   0.8256   0.7834   0.7528
     0.7399   0.7261   0.7156   0.7073   0.7033   0.6999   0.6944   0.6796
     0.6776   0.6678   0.6623   0.6594   0.6507   0.6448   0.6394   0.6274
     0.6217   0.6182   0.5986   0.5891   0.5542   0.3441   0.3149   0.2040
     0.0748   0.0523   0.0198   0.0055   0.0049   0.0003   0.0001   0.0000
     0.0000   0.0000   0.0000   0.0000   0.0000   0.0000   0.0000   0.0000
     0.0000   0.0000   0.0000   0.0000   0.0000   0.0000   0.0000   0.0000
     0.0000   0.0000   0.0000   0.0000   0.0000   0.0000   0.0000   0.0000

          k = 0.0000-0.5000 0.0000 ( 65180 PWs)   bands (ev):

   -92.7353 -92.6826 -92.5899 -92.5415 -92.4831 -92.4418 -92.4246 -92.3031
   -56.0887 -56.0685 -55.9470 -55.9360 -55.9295 -55.9228 -55.8869 -55.8589
   -55.8432 -55.8413 -55.8336 -55.7907 -55.7722 -55.7344 -55.7166 -55.6832
   -55.6769 -55.6302 -55.6302 -55.6270 -55.6186 -55.5776 -55.5549 -55.4685
   -31.3109 -31.2916 -31.1725 -31.1498 -31.0628 -30.9765 -30.9167 -30.7128
   -29.8822 -29.8396 -29.8148 -29.7057 -15.0438 -14.9961 -14.9407 -14.8173
   -14.7283 -14.5957 -14.4339 -14.3231 -14.1915 -14.1216 -14.0778 -14.0721
   -14.0221 -14.0060 -13.9543 -13.9331 -13.9110 -13.8786 -13.8477 -13.7963
   -13.6175 -13.5585 -13.5295 -13.4904 -13.4448 -13.3923 -13.3555 -13.3166
   -13.3111 -13.2508 -13.1526 -13.1403 -13.1109 -13.0023 -12.9948 -12.9853
   -12.9617 -12.9320 -12.9155 -12.8944 -12.8170 -12.7391 -12.7101 -12.6858
   -12.6803 -12.6584 -12.5478 -12.4816 -12.3590 -12.3556 -12.2098 -12.1627
   -11.8166 -11.8138 -11.7863 -11.7484 -11.7142 -11.7032 -11.6616 -11.6576
   -11.6136 -11.5494 -11.5364 -11.5225  -2.6258  -2.5674  -2.4164  -2.3446
    -2.0614  -1.9794  -1.8510  -1.7151  -1.6727  -1.6578  -1.5790  -1.5492
    -1.4650  -1.4310  -1.3525  -1.3133  -1.2755  -1.2483  -1.1877  -1.1525
    -1.1068  -1.0703  -1.0363  -1.0046  -0.8925  -0.8485  -0.8128  -0.8093
    -0.7249  -0.6932  -0.6725  -0.6237  -0.5344  -0.4670  -0.3774  -0.3416
    -0.2481  -0.2101  -0.0642  -0.0179   0.0008   0.0541   0.1689   0.2262
     0.3573   0.4258   0.4337   0.5606   0.6118   0.7100   0.8395   0.9456
     0.9774   1.0175   1.0262   1.0616   1.0782   1.1128   1.1280   1.1418
     1.2501   1.3117   1.3467   1.3690   1.6366   1.6579   1.6781   1.7717
     1.7982   1.8311   1.8445   1.8748   1.8876   1.8948   1.9250   1.9678
     1.9979   2.0258   2.0340   2.0622   2.1158   2.2034   2.2318   2.4054
     2.5673   2.5731   2.5972   2.6257   2.6387   2.6461   2.6975   2.7107
     2.7569   2.7660   2.7958   2.8618   2.8927   2.9473   2.9570   2.9770
     2.9804   2.9962   2.9995   3.0084   3.0104   3.0198   3.0234   3.0432
     3.0466   3.1097   3.1141   3.1301   3.1850   4.0903   4.1123   4.1423
     4.2285   4.7058   4.8691   4.9981   5.1414   5.3904   5.4408   5.5581
     5.7086   5.9928   6.0121   6.0462   6.8327   6.8635   6.9382   7.1996
     7.2988   7.3894   7.4329   7.4704   7.6605   7.7247   7.7931   7.8813
     8.0978   8.2132   8.4516   8.5375   8.6389   8.7457   8.7900   8.8303

     occupation numbers 
     1.0000   1.0000   1.0000   1.0000   1.0000   1.0000   1.0000   1.0000
     1.0000   1.0000   1.0000   1.0000   1.0000   1.0000   1.0000   1.0000
     1.0000   1.0000   1.0000   1.0000   1.0000   1.0000   1.0000   1.0000
     1.0000   1.0000   1.0000   1.0000   1.0000   1.0000   1.0000   1.0000
     1.0000   1.0000   1.0000   1.0000   1.0000   1.0000   1.0000   1.0000
     1.0000   1.0000   1.0000   1.0000   1.0000   1.0000   1.0000   1.0000
     1.0000   1.0000   1.0000   1.0000   1.0000   1.0000   1.0000   1.0000
     1.0000   1.0000   1.0000   1.0000   1.0000   1.0000   1.0000   1.0000
     1.0000   1.0000   1.0000   1.0000   1.0000   1.0000   1.0000   1.0000
     1.0000   1.0000   1.0000   1.0000   1.0000   1.0000   1.0000   1.0000
     1.0000   1.0000   1.0000   1.0000   1.0000   1.0000   1.0000   1.0000
     1.0000   1.0000   1.0000   1.0000   1.0000   1.0000   1.0000   1.0000
     1.0000   1.0000   1.0000   1.0000   1.0000   1.0000   1.0000   1.0000
     1.0000   1.0000   1.0000   1.0000   1.0000   1.0000   1.0000   1.0000
     1.0000   1.0000   1.0000   1.0000   1.0000   1.0000   1.0000   1.0000
     1.0000   1.0000   1.0000   1.0000   1.0000   1.0000   1.0000   1.0000
     1.0000   1.0000   1.0000   1.0000   1.0000   1.0000   1.0000   1.0000
     1.0000   1.0000   1.0000   1.0000   1.0000   1.0000   1.0000   1.0000
     1.0000   1.0000   1.0000   1.0000   1.0000   1.0000   1.0000   1.0000
     1.0000   1.0000   1.0000   1.0000   1.0000   0.9999   0.9999   0.9998
     0.9997   0.9996   0.9996   0.9995   0.9995   0.9994   0.9993   0.9993
     0.9988   0.9984   0.9981   0.9979   0.9930   0.9924   0.9917   0.9880
     0.9867   0.9850   0.9842   0.9823   0.9815   0.9810   0.9788   0.9754
     0.9727   0.9700   0.9692   0.9661   0.9597   0.9470   0.9423   0.9061
     0.8592   0.8572   0.8490   0.8389   0.8341   0.8314   0.8114   0.8061
     0.7867   0.7828   0.7695   0.7387   0.7235   0.6958   0.6907   0.6802
     0.6784   0.6699   0.6681   0.6633   0.6622   0.6572   0.6552   0.6443
     0.6424   0.6069   0.6043   0.5952   0.5633   0.1180   0.1117   0.1035
     0.0822   0.0179   0.0096   0.0057   0.0030   0.0009   0.0007   0.0004
     0.0002   0.0000   0.0000   0.0000   0.0000   0.0000   0.0000   0.0000
     0.0000   0.0000   0.0000   0.0000   0.0000   0.0000   0.0000   0.0000
     0.0000   0.0000   0.0000   0.0000   0.0000   0.0000   0.0000   0.0000

          k = 0.2500 0.2500 0.0000 ( 65198 PWs)   bands (ev):

   -92.7353 -92.6826 -92.5899 -92.5415 -92.4831 -92.4418 -92.4246 -92.3031
   -56.0887 -56.0685 -55.9470 -55.9360 -55.9295 -55.9228 -55.8869 -55.8589
   -55.8432 -55.8413 -55.8336 -55.7907 -55.7722 -55.7344 -55.7166 -55.6832
   -55.6769 -55.6302 -55.6302 -55.6270 -55.6186 -55.5776 -55.5549 -55.4685
   -31.3094 -31.2934 -31.1724 -31.1493 -31.0631 -30.9768 -30.9164 -30.7128
   -29.8818 -29.8409 -29.8138 -29.7058 -15.0504 -15.0112 -14.9382 -14.8220
   -14.7018 -14.5778 -14.5050 -14.2999 -14.1428 -14.1309 -14.0946 -14.0665
   -14.0422 -14.0125 -13.9858 -13.9527 -13.8755 -13.8592 -13.6972 -13.6840
   -13.6528 -13.6348 -13.5759 -13.5444 -13.4840 -13.4598 -13.3478 -13.3087
   -13.2626 -13.1773 -13.1377 -13.1105 -13.0768 -13.0524 -13.0077 -12.9801
   -12.9632 -12.9439 -12.9040 -12.8525 -12.8379 -12.7867 -12.7762 -12.7471
   -12.7120 -12.6573 -12.5419 -12.4855 -12.4187 -12.3099 -12.1475 -12.1023
   -11.8344 -11.8030 -11.7918 -11.7846 -11.7225 -11.6870 -11.6808 -11.6455
   -11.6374 -11.5448 -11.5043 -11.4869  -2.7026  -2.4939  -2.3762  -2.2811
    -2.1608  -2.0960  -1.8969  -1.7535  -1.7342  -1.7024  -1.6099  -1.5757
    -1.4823  -1.4544  -1.4044  -1.2736  -1.2252  -1.1513  -1.1078  -1.0622
    -1.0393  -1.0152  -0.9724  -0.9575  -0.8669  -0.8172  -0.7494  -0.7023
    -0.6735  -0.6225  -0.6102  -0.5462  -0.4956  -0.4336  -0.4037  -0.3148
    -0.2671  -0.2360  -0.1986  -0.1432  -0.0743  -0.0329  -0.0059   0.0644
     0.1060   0.3738   0.5230   0.5568   0.6130   0.6541   0.7161   0.7629
     0.8286   0.8661   1.1392   1.2053   1.2790   1.3036   1.3545   1.3832
     1.4196   1.4566   1.4737   1.5016   1.5452   1.5555   1.5702   1.6166
     1.6536   1.6931   1.7443   1.7826   1.7967   1.8249   1.8629   1.9171
     1.9438   2.0688   2.1376   2.1747   2.2004   2.2624   2.3300   2.3597
     2.3968   2.4204   2.4319   2.5468   2.5850   2.6735   2.7739   2.8425
     2.8598   2.8650   2.8837   2.8981   2.9110   2.9221   2.9282   2.9397
     2.9544   2.9656   2.9848   2.9937   3.0014   3.0241   3.0360   3.0446
     3.0762   3.3767   3.4691   3.5181   3.5779   3.6015   3.8340   3.9197
     4.2665   4.4753   4.6877   4.9413   5.1561   5.6145   5.6729   5.7395
     5.8043   5.8637   6.0619   6.1364   6.2046   6.7381   6.8818   7.0786
     7.2621   7.5289   7.5784   7.6851   7.7645   7.8452   7.9386   8.0917
     8.1329   8.1902   8.3018   8.3198   8.4179   8.4738   8.7592   8.8828

     occupation numbers 
     1.0000   1.0000   1.0000   1.0000   1.0000   1.0000   1.0000   1.0000
     1.0000   1.0000   1.0000   1.0000   1.0000   1.0000   1.0000   1.0000
     1.0000   1.0000   1.0000   1.0000   1.0000   1.0000   1.0000   1.0000
     1.0000   1.0000   1.0000   1.0000   1.0000   1.0000   1.0000   1.0000
     1.0000   1.0000   1.0000   1.0000   1.0000   1.0000   1.0000   1.0000
     1.0000   1.0000   1.0000   1.0000   1.0000   1.0000   1.0000   1.0000
     1.0000   1.0000   1.0000   1.0000   1.0000   1.0000   1.0000   1.0000
     1.0000   1.0000   1.0000   1.0000   1.0000   1.0000   1.0000   1.0000
     1.0000   1.0000   1.0000   1.0000   1.0000   1.0000   1.0000   1.0000
     1.0000   1.0000   1.0000   1.0000   1.0000   1.0000   1.0000   1.0000
     1.0000   1.0000   1.0000   1.0000   1.0000   1.0000   1.0000   1.0000
     1.0000   1.0000   1.0000   1.0000   1.0000   1.0000   1.0000   1.0000
     1.0000   1.0000   1.0000   1.0000   1.0000   1.0000   1.0000   1.0000
     1.0000   1.0000   1.0000   1.0000   1.0000   1.0000   1.0000   1.0000
     1.0000   1.0000   1.0000   1.0000   1.0000   1.0000   1.0000   1.0000
     1.0000   1.0000   1.0000   1.0000   1.0000   1.0000   1.0000   1.0000
     1.0000   1.0000   1.0000   1.0000   1.0000   1.0000   1.0000   1.0000
     1.0000   1.0000   1.0000   1.0000   1.0000   1.0000   1.0000   1.0000
     1.0000   1.0000   1.0000   1.0000   1.0000   1.0000   1.0000   1.0000
     1.0000   1.0000   1.0000   1.0000   1.0000   1.0000   0.9999   0.9999
     0.9999   0.9998   0.9993   0.9990   0.9986   0.9984   0.9980   0.9977
     0.9973   0.9968   0.9965   0.9961   0.9953   0.9950   0.9947   0.9936
     0.9925   0.9912   0.9892   0.9875   0.9868   0.9853   0.9831   0.9794
     0.9774   0.9654   0.9568   0.9515   0.9475   0.9369   0.9235   0.9169
     0.9082   0.9023   0.8993   0.8659   0.8532   0.8209   0.7793   0.7479
     0.7396   0.7371   0.7280   0.7208   0.7144   0.7088   0.7056   0.6997
     0.6921   0.6862   0.6760   0.6712   0.6671   0.6548   0.6482   0.6435
     0.6258   0.4501   0.3965   0.3687   0.3358   0.3231   0.2106   0.1758
     0.0740   0.0395   0.0191   0.0072   0.0028   0.0003   0.0002   0.0001
     0.0001   0.0001   0.0000   0.0000   0.0000   0.0000   0.0000   0.0000
     0.0000   0.0000   0.0000   0.0000   0.0000   0.0000   0.0000   0.0000
     0.0000   0.0000   0.0000   0.0000   0.0000   0.0000   0.0000   0.0000

          k = 0.2500-0.5000 0.0000 ( 65138 PWs)   bands (ev):

   -92.7353 -92.6826 -92.5899 -92.5415 -92.4831 -92.4418 -92.4246 -92.3031
   -56.0887 -56.0685 -55.9470 -55.9360 -55.9295 -55.9228 -55.8869 -55.8589
   -55.8432 -55.8413 -55.8336 -55.7907 -55.7722 -55.7344 -55.7166 -55.6832
   -55.6769 -55.6302 -55.6302 -55.6270 -55.6186 -55.5776 -55.5549 -55.4685
   -31.3092 -31.2933 -31.1723 -31.1495 -31.0632 -30.9767 -30.9166 -30.7129
   -29.8812 -29.8406 -29.8144 -29.7061 -15.0131 -14.9692 -14.8977 -14.7880
   -14.7511 -14.6354 -14.5394 -14.4180 -14.1074 -14.0554 -14.0296 -14.0056
   -13.9918 -13.9771 -13.9383 -13.9204 -13.8939 -13.8541 -13.8349 -13.7872
   -13.6997 -13.6518 -13.5917 -13.5717 -13.5056 -13.4943 -13.4020 -13.3630
   -13.2405 -13.1754 -13.1594 -13.0954 -13.0635 -13.0228 -13.0073 -12.9767
   -12.9453 -12.9417 -12.9274 -12.8760 -12.8273 -12.7506 -12.7314 -12.6900
   -12.6660 -12.6526 -12.5545 -12.4390 -12.3533 -12.3122 -12.2041 -12.1737
   -11.8102 -11.7981 -11.7870 -11.7596 -11.7287 -11.6994 -11.6593 -11.6311
   -11.6095 -11.5627 -11.5375 -11.5267  -2.4838  -2.4193  -2.2902  -2.2133
    -2.0820  -1.9992  -1.8755  -1.7259  -1.6693  -1.6493  -1.5877  -1.5743
    -1.4757  -1.4106  -1.3255  -1.2746  -1.2660  -1.2027  -1.1589  -1.1260
    -1.0780  -1.0412  -1.0065  -0.9667  -0.9532  -0.9101  -0.8812  -0.8380
    -0.8080  -0.7403  -0.6365  -0.6003  -0.5203  -0.4554  -0.4026  -0.3626
    -0.3450  -0.2875  -0.1303  -0.1234  -0.0067   0.0190   0.0283   0.0742
     0.1049   0.1403   0.1706   0.2407   0.5156   0.6070   0.6754   0.7305
     1.0020   1.0197   1.1104   1.1378   1.3031   1.3390   1.3779   1.4009
     1.4157   1.4370   1.5007   1.5502   1.5828   1.6595   1.7497   1.7870
     1.8079   1.8179   1.8524   1.8701   1.8719   1.9170   1.9300   1.9479
     1.9873   1.9991   2.0253   2.0573   2.1151   2.1575   2.2353   2.3719
     2.5202   2.5370   2.5547   2.5828   2.6045   2.6319   2.6565   2.6675
     2.6932   2.7633   2.8027   2.8406   2.8614   2.8757   2.8882   2.8990
     2.9132   2.9333   2.9386   2.9749   2.9883   2.9981   3.0060   3.0184
     3.0255   3.5441   3.5670   3.7081   3.7588   4.0926   4.1493   4.1567
     4.2846   4.7253   4.8905   5.0319   5.1081   5.2715   5.4085   5.5784
     5.6352   5.7365   5.7598   6.1519   6.3763   6.4775   6.7071   7.0328
     7.4820   7.5158   7.6775   7.7253   7.7903   7.8519   8.0144   8.1736
     8.2598   8.3705   8.4682   8.5001   8.5284   8.6819   8.7200   8.7460

     occupation numbers 
     1.0000   1.0000   1.0000   1.0000   1.0000   1.0000   1.0000   1.0000
     1.0000   1.0000   1.0000   1.0000   1.0000   1.0000   1.0000   1.0000
     1.0000   1.0000   1.0000   1.0000   1.0000   1.0000   1.0000   1.0000
     1.0000   1.0000   1.0000   1.0000   1.0000   1.0000   1.0000   1.0000
     1.0000   1.0000   1.0000   1.0000   1.0000   1.0000   1.0000   1.0000
     1.0000   1.0000   1.0000   1.0000   1.0000   1.0000   1.0000   1.0000
     1.0000   1.0000   1.0000   1.0000   1.0000   1.0000   1.0000   1.0000
     1.0000   1.0000   1.0000   1.0000   1.0000   1.0000   1.0000   1.0000
     1.0000   1.0000   1.0000   1.0000   1.0000   1.0000   1.0000   1.0000
     1.0000   1.0000   1.0000   1.0000   1.0000   1.0000   1.0000   1.0000
     1.0000   1.0000   1.0000   1.0000   1.0000   1.0000   1.0000   1.0000
     1.0000   1.0000   1.0000   1.0000   1.0000   1.0000   1.0000   1.0000
     1.0000   1.0000   1.0000   1.0000   1.0000   1.0000   1.0000   1.0000
     1.0000   1.0000   1.0000   1.0000   1.0000   1.0000   1.0000   1.0000
     1.0000   1.0000   1.0000   1.0000   1.0000   1.0000   1.0000   1.0000
     1.0000   1.0000   1.0000   1.0000   1.0000   1.0000   1.0000   1.0000
     1.0000   1.0000   1.0000   1.0000   1.0000   1.0000   1.0000   1.0000
     1.0000   1.0000   1.0000   1.0000   1.0000   1.0000   1.0000   1.0000
     1.0000   1.0000   1.0000   1.0000   1.0000   1.0000   1.0000   1.0000
     1.0000   1.0000   1.0000   1.0000   1.0000   1.0000   0.9999   0.9999
     0.9997   0.9996   0.9994   0.9993   0.9984   0.9981   0.9978   0.9975
     0.9973   0.9971   0.9961   0.9952   0.9944   0.9923   0.9890   0.9873
     0.9862   0.9857   0.9837   0.9827   0.9825   0.9794   0.9785   0.9770
     0.9737   0.9726   0.9700   0.9667   0.9598   0.9540   0.9417   0.9141
     0.8742   0.8690   0.8633   0.8540   0.8465   0.8366   0.8274   0.8232
     0.8132   0.7839   0.7664   0.7488   0.7389   0.7319   0.7258   0.7204
     0.7133   0.7030   0.7003   0.6813   0.6742   0.6689   0.6646   0.6579
     0.6540   0.3542   0.3417   0.2685   0.2442   0.1174   0.1016   0.0996
     0.0703   0.0167   0.0088   0.0049   0.0035   0.0016   0.0008   0.0003
     0.0003   0.0001   0.0001   0.0000   0.0000   0.0000   0.0000   0.0000
     0.0000   0.0000   0.0000   0.0000   0.0000   0.0000   0.0000   0.0000
     0.0000   0.0000   0.0000   0.0000   0.0000   0.0000   0.0000   0.0000

          k =-0.5000-0.5000 0.0000 ( 65132 PWs)   bands (ev):

   -92.7353 -92.6826 -92.5899 -92.5415 -92.4831 -92.4418 -92.4246 -92.3031
   -56.0887 -56.0685 -55.9470 -55.9360 -55.9295 -55.9228 -55.8869 -55.8589
   -55.8432 -55.8413 -55.8336 -55.7907 -55.7722 -55.7344 -55.7166 -55.6832
   -55.6769 -55.6302 -55.6302 -55.6270 -55.6186 -55.5776 -55.5549 -55.4685
   -31.3071 -31.2955 -31.1722 -31.1491 -31.0636 -30.9768 -30.9164 -30.7131
   -29.8802 -29.8416 -29.8140 -29.7066 -14.9661 -14.9418 -14.8256 -14.8105
   -14.7146 -14.6817 -14.6474 -14.5161 -14.0188 -14.0088 -13.9736 -13.9548
   -13.9357 -13.9153 -13.8954 -13.8840 -13.8641 -13.8634 -13.8474 -13.7674
   -13.7610 -13.7288 -13.6973 -13.6803 -13.5919 -13.5691 -13.4434 -13.4065
   -13.1920 -13.1565 -13.0825 -13.0641 -13.0575 -13.0223 -13.0173 -13.0079
   -12.9892 -12.9159 -12.8795 -12.8574 -12.8467 -12.8016 -12.7711 -12.6737
   -12.6373 -12.6295 -12.5709 -12.4037 -12.3497 -12.2635 -12.1973 -12.1939
   -11.8064 -11.7943 -11.7765 -11.7595 -11.7250 -11.7076 -11.6715 -11.6110
   -11.5915 -11.5854 -11.5355 -11.5325  -2.2587  -2.1845  -2.1761  -2.1018
    -2.0638  -1.9856  -1.9177  -1.7913  -1.6759  -1.6467  -1.6042  -1.5497
    -1.4781  -1.4625  -1.3931  -1.3499  -1.2328  -1.2030  -1.1552  -1.1267
    -1.0624  -1.0160  -0.9983  -0.9861  -0.9304  -0.8872  -0.8709  -0.7591
    -0.7022  -0.6545  -0.6063  -0.5776  -0.5621  -0.5302  -0.4903  -0.4506
    -0.4436  -0.3569  -0.2921  -0.2448  -0.2200  -0.1460  -0.0887  -0.0807
    -0.0202   0.0136   0.0205   0.0343   0.4880   0.5252   0.6198   0.6438
     1.0289   1.0432   1.0787   1.1164   1.3892   1.4076   1.4140   1.4560
     1.5831   1.6763   1.7039   1.7397   1.7610   1.7820   1.7921   1.8233
     1.8333   1.8460   1.8574   1.9128   1.9147   1.9433   1.9530   1.9764
     1.9894   2.0278   2.0567   2.0688   2.1002   2.1319   2.1972   2.2652
     2.5321   2.5637   2.5785   2.6028   2.6126   2.6342   2.6477   2.6667
     2.6745   2.6932   2.7102   2.7260   2.7741   2.7955   2.7998   2.8208
     2.8327   2.8437   2.8658   2.8718   2.8989   2.9848   2.9892   3.0116
     3.0235   3.9838   4.0050   4.0112   4.0389   4.2856   4.3586   4.3842
     4.6244   4.7467   4.8296   4.9590   5.0472   5.0588   5.1741   5.2680
     5.4063   5.8356   5.8696   5.9355   6.0318   6.4351   6.5273   6.6279
     7.7512   7.8669   7.8947   7.9251   7.9374   7.9513   7.9900   8.0618
     8.2401   8.3499   8.4851   8.5566   8.5800   8.5910   8.6351   8.7148

     occupation numbers 
     1.0000   1.0000   1.0000   1.0000   1.0000   1.0000   1.0000   1.0000
     1.0000   1.0000   1.0000   1.0000   1.0000   1.0000   1.0000   1.0000
     1.0000   1.0000   1.0000   1.0000   1.0000   1.0000   1.0000   1.0000
     1.0000   1.0000   1.0000   1.0000   1.0000   1.0000   1.0000   1.0000
     1.0000   1.0000   1.0000   1.0000   1.0000   1.0000   1.0000   1.0000
     1.0000   1.0000   1.0000   1.0000   1.0000   1.0000   1.0000   1.0000
     1.0000   1.0000   1.0000   1.0000   1.0000   1.0000   1.0000   1.0000
     1.0000   1.0000   1.0000   1.0000   1.0000   1.0000   1.0000   1.0000
     1.0000   1.0000   1.0000   1.0000   1.0000   1.0000   1.0000   1.0000
     1.0000   1.0000   1.0000   1.0000   1.0000   1.0000   1.0000   1.0000
     1.0000   1.0000   1.0000   1.0000   1.0000   1.0000   1.0000   1.0000
     1.0000   1.0000   1.0000   1.0000   1.0000   1.0000   1.0000   1.0000
     1.0000   1.0000   1.0000   1.0000   1.0000   1.0000   1.0000   1.0000
     1.0000   1.0000   1.0000   1.0000   1.0000   1.0000   1.0000   1.0000
     1.0000   1.0000   1.0000   1.0000   1.0000   1.0000   1.0000   1.0000
     1.0000   1.0000   1.0000   1.0000   1.0000   1.0000   1.0000   1.0000
     1.0000   1.0000   1.0000   1.0000   1.0000   1.0000   1.0000   1.0000
     1.0000   1.0000   1.0000   1.0000   1.0000   1.0000   1.0000   1.0000
     1.0000   1.0000   1.0000   1.0000   1.0000   1.0000   1.0000   1.0000
     1.0000   1.0000   1.0000   1.0000   1.0000   1.0000   1.0000   1.0000
     0.9996   0.9996   0.9995   0.9994   0.9976   0.9974   0.9974   0.9968
     0.9944   0.9918   0.9908   0.9894   0.9885   0.9875   0.9870   0.9854
     0.9849   0.9841   0.9834   0.9797   0.9796   0.9774   0.9766   0.9747
     0.9735   0.9698   0.9667   0.9654   0.9616   0.9576   0.9480   0.9364
     0.8705   0.8603   0.8554   0.8471   0.8436   0.8358   0.8308   0.8236
     0.8205   0.8132   0.8063   0.7998   0.7792   0.7697   0.7677   0.7581
     0.7525   0.7474   0.7367   0.7338   0.7205   0.6760   0.6737   0.6616
     0.6551   0.1523   0.1450   0.1429   0.1338   0.0701   0.0567   0.0525
     0.0240   0.0154   0.0112   0.0067   0.0046   0.0044   0.0026   0.0017
     0.0008   0.0001   0.0001   0.0000   0.0000   0.0000   0.0000   0.0000
     0.0000   0.0000   0.0000   0.0000   0.0000   0.0000   0.0000   0.0000
     0.0000   0.0000   0.0000   0.0000   0.0000   0.0000   0.0000   0.0000

          k = 0.2500 0.0000 0.0000 ( 65257 PWs)   bands (ev):

   -92.7353 -92.6826 -92.5899 -92.5415 -92.4831 -92.4418 -92.4246 -92.3031
   -56.0887 -56.0685 -55.9470 -55.9360 -55.9295 -55.9228 -55.8869 -55.8589
   -55.8432 -55.8413 -55.8336 -55.7907 -55.7722 -55.7344 -55.7166 -55.6832
   -55.6769 -55.6302 -55.6302 -55.6270 -55.6186 -55.5776 -55.5549 -55.4685
   -31.3096 -31.2935 -31.1726 -31.1491 -31.0629 -30.9769 -30.9163 -30.7127
   -29.8824 -29.8412 -29.8132 -29.7055 -15.0828 -15.0418 -14.9718 -14.8249
   -14.7181 -14.5255 -14.3902 -14.2123 -14.1940 -14.1638 -14.1316 -14.1087
   -14.0749 -14.0588 -14.0399 -13.9962 -13.8754 -13.8440 -13.6934 -13.6274
   -13.6131 -13.5483 -13.5265 -13.5152 -13.4614 -13.3799 -13.3459 -13.2768
   -13.2092 -13.1926 -13.1408 -13.0938 -13.0769 -13.0592 -13.0406 -13.0057
   -12.9773 -12.9568 -12.9045 -12.8863 -12.8530 -12.8303 -12.8036 -12.7536
   -12.7277 -12.6589 -12.5932 -12.5257 -12.4392 -12.2818 -12.1174 -12.0547
[...]
     0.7447   0.7306   0.7160   0.7152   0.7037   0.6987   0.6911   0.6803
     0.6772   0.6627   0.6570   0.6537   0.6464   0.6354   0.6211   0.6195
     0.6152   0.6107   0.6054   0.5990   0.5282   0.3545   0.3194   0.2042
     0.0793   0.0466   0.0218   0.0055   0.0048   0.0003   0.0001   0.0000
     0.0000   0.0000   0.0000   0.0000   0.0000   0.0000   0.0000   0.0000
     0.0000   0.0000   0.0000   0.0000   0.0000   0.0000   0.0000   0.0000
     0.0000   0.0000   0.0000   0.0000   0.0000   0.0000   0.0000   0.0000

          k =-0.5000 0.0000 0.0000 ( 65180 PWs)   bands (ev):

   -92.7353 -92.6826 -92.5899 -92.5415 -92.4831 -92.4418 -92.4246 -92.3031
   -56.0887 -56.0685 -55.9470 -55.9360 -55.9295 -55.9228 -55.8869 -55.8589
   -55.8432 -55.8413 -55.8336 -55.7907 -55.7722 -55.7344 -55.7166 -55.6832
   -55.6769 -55.6302 -55.6302 -55.6270 -55.6186 -55.5776 -55.5549 -55.4685
   -31.3074 -31.2957 -31.1724 -31.1487 -31.0633 -30.9771 -30.9162 -30.7128
   -29.8814 -29.8423 -29.8128 -29.7059 -15.0494 -14.9971 -14.9362 -14.8262
   -14.7236 -14.5789 -14.4357 -14.2895 -14.1669 -14.1565 -14.1424 -14.0880
   -14.0267 -13.9944 -13.9447 -13.9359 -13.9196 -13.8715 -13.8533 -13.7545
   -13.5892 -13.5549 -13.5285 -13.5212 -13.4669 -13.3981 -13.3575 -13.3010
   -13.2775 -13.2713 -13.1290 -13.0875 -13.0735 -13.0485 -13.0367 -13.0171
   -12.9762 -12.9565 -12.9004 -12.8797 -12.8262 -12.7306 -12.7107 -12.6737
   -12.6662 -12.6582 -12.5741 -12.4671 -12.3598 -12.3411 -12.2123 -12.1710
   -11.8135 -11.7919 -11.7853 -11.7707 -11.7527 -11.7117 -11.6480 -11.6303
   -11.5977 -11.5526 -11.5436 -11.5279  -2.6162  -2.5777  -2.4140  -2.3750
    -2.0610  -1.9846  -1.8384  -1.7206  -1.6807  -1.6339  -1.5875  -1.5629
    -1.4397  -1.3956  -1.3795  -1.2972  -1.2625  -1.2463  -1.2152  -1.1571
    -1.0890  -1.0601  -1.0292  -0.9369  -0.8891  -0.8399  -0.8075  -0.7865
    -0.7543  -0.7075  -0.6833  -0.6453  -0.5417  -0.4760  -0.4026  -0.3432
    -0.1901  -0.1432  -0.0914  -0.0494  -0.0012   0.0211   0.1559   0.1897
     0.2363   0.4053   0.5045   0.5514   0.6408   0.6952   0.8246   0.8373
     0.9674   0.9958   1.0506   1.0837   1.1150   1.1266   1.1732   1.1969
     1.2631   1.3128   1.3604   1.3693   1.6635   1.6711   1.6876   1.7131
     1.8194   1.8344   1.8435   1.8529   1.8877   1.8987   1.9337   1.9613
     1.9802   2.0429   2.0538   2.1093   2.1273   2.1864   2.2913   2.3891
     2.4663   2.4811   2.5645   2.5919   2.6146   2.6867   2.6956   2.7055
     2.7299   2.7746   2.8158   2.8563   2.8979   2.9192   2.9669   2.9701
     2.9766   2.9829   2.9980   3.0105   3.0230   3.0307   3.0485   3.0581
     3.0744   3.0948   3.0994   3.2268   3.2375   4.0420   4.0957   4.1557
     4.2758   4.7576   4.8285   5.0155   5.0322   5.4686   5.4837   5.5807
     5.6173   5.9990   6.0108   6.1046   6.5801   6.7778   6.9897   7.2588
     7.2959   7.3563   7.4120   7.5824   7.7472   7.8054   7.8599   7.9792
     8.1133   8.1862   8.4668   8.4895   8.6025   8.7354   8.7366   8.8469

     occupation numbers 
     1.0000   1.0000   1.0000   1.0000   1.0000   1.0000   1.0000   1.0000
     1.0000   1.0000   1.0000   1.0000   1.0000   1.0000   1.0000   1.0000
     1.0000   1.0000   1.0000   1.0000   1.0000   1.0000   1.0000   1.0000
     1.0000   1.0000   1.0000   1.0000   1.0000   1.0000   1.0000   1.0000
     1.0000   1.0000   1.0000   1.0000   1.0000   1.0000   1.0000   1.0000
     1.0000   1.0000   1.0000   1.0000   1.0000   1.0000   1.0000   1.0000
     1.0000   1.0000   1.0000   1.0000   1.0000   1.0000   1.0000   1.0000
     1.0000   1.0000   1.0000   1.0000   1.0000   1.0000   1.0000   1.0000
     1.0000   1.0000   1.0000   1.0000   1.0000   1.0000   1.0000   1.0000
     1.0000   1.0000   1.0000   1.0000   1.0000   1.0000   1.0000   1.0000
     1.0000   1.0000   1.0000   1.0000   1.0000   1.0000   1.0000   1.0000
     1.0000   1.0000   1.0000   1.0000   1.0000   1.0000   1.0000   1.0000
     1.0000   1.0000   1.0000   1.0000   1.0000   1.0000   1.0000   1.0000
     1.0000   1.0000   1.0000   1.0000   1.0000   1.0000   1.0000   1.0000
     1.0000   1.0000   1.0000   1.0000   1.0000   1.0000   1.0000   1.0000
     1.0000   1.0000   1.0000   1.0000   1.0000   1.0000   1.0000   1.0000
     1.0000   1.0000   1.0000   1.0000   1.0000   1.0000   1.0000   1.0000
     1.0000   1.0000   1.0000   1.0000   1.0000   1.0000   1.0000   1.0000
     1.0000   1.0000   1.0000   1.0000   1.0000   1.0000   1.0000   1.0000
     1.0000   1.0000   1.0000   1.0000   1.0000   0.9999   0.9999   0.9999
     0.9997   0.9997   0.9996   0.9995   0.9994   0.9993   0.9992   0.9991
     0.9987   0.9984   0.9979   0.9979   0.9922   0.9920   0.9914   0.9905
     0.9856   0.9848   0.9843   0.9837   0.9815   0.9807   0.9782   0.9759
     0.9743   0.9682   0.9670   0.9605   0.9582   0.9497   0.9314   0.9101
     0.8900   0.8858   0.8601   0.8508   0.8429   0.8158   0.8122   0.8082
     0.7982   0.7790   0.7604   0.7413   0.7209   0.7102   0.6855   0.6839
     0.6804   0.6770   0.6689   0.6622   0.6554   0.6511   0.6413   0.6360
     0.6269   0.6154   0.6127   0.5387   0.5324   0.1328   0.1164   0.0999
     0.0721   0.0148   0.0113   0.0053   0.0049   0.0006   0.0006   0.0003
     0.0003   0.0000   0.0000   0.0000   0.0000   0.0000   0.0000   0.0000
     0.0000   0.0000   0.0000   0.0000   0.0000   0.0000   0.0000   0.0000
     0.0000   0.0000   0.0000   0.0000   0.0000   0.0000   0.0000   0.0000

          k =-0.2500 0.2500 0.0000 ( 65198 PWs)   bands (ev):

   -92.7353 -92.6826 -92.5899 -92.5415 -92.4831 -92.4418 -92.4246 -92.3031
   -56.0887 -56.0685 -55.9470 -55.9360 -55.9295 -55.9228 -55.8869 -55.8589
   -55.8432 -55.8413 -55.8336 -55.7907 -55.7722 -55.7344 -55.7166 -55.6832
   -55.6769 -55.6302 -55.6302 -55.6270 -55.6186 -55.5776 -55.5549 -55.4685
   -31.3094 -31.2934 -31.1724 -31.1493 -31.0631 -30.9768 -30.9164 -30.7128
   -29.8818 -29.8409 -29.8138 -29.7058 -15.0518 -15.0099 -14.9371 -14.8199
   -14.7078 -14.5833 -14.4965 -14.2906 -14.1500 -14.1212 -14.1075 -14.0609
   -14.0367 -14.0139 -13.9981 -13.9587 -13.8709 -13.8599 -13.7064 -13.6802
   -13.6508 -13.6299 -13.5769 -13.5315 -13.4782 -13.4685 -13.3568 -13.3054
   -13.2566 -13.1809 -13.1399 -13.0978 -13.0728 -13.0386 -13.0177 -12.9805
   -12.9613 -12.9517 -12.9137 -12.8783 -12.8254 -12.8040 -12.7988 -12.7257
   -12.6884 -12.6599 -12.5099 -12.4752 -12.4489 -12.3156 -12.1524 -12.0963
   -11.8336 -11.8122 -11.7849 -11.7726 -11.7320 -11.6968 -11.6743 -11.6522
   -11.6300 -11.5446 -11.4997 -11.4902  -2.7010  -2.4928  -2.3720  -2.2828
    -2.1652  -2.0987  -1.8944  -1.7504  -1.7317  -1.7005  -1.6105  -1.5745
    -1.4821  -1.4478  -1.4217  -1.2792  -1.2237  -1.1543  -1.1265  -1.0656
    -1.0455  -1.0049  -0.9763  -0.9362  -0.8735  -0.8256  -0.7609  -0.6937
    -0.6698  -0.6177  -0.5897  -0.5435  -0.4850  -0.4363  -0.3991  -0.2961
    -0.2671  -0.2546  -0.2096  -0.1460  -0.0772  -0.0324   0.0024   0.0680
     0.1039   0.3550   0.5254   0.5647   0.6031   0.6609   0.7142   0.7677
     0.8337   0.8647   1.1471   1.2556   1.2953   1.3300   1.3358   1.3773
     1.3933   1.4383   1.4697   1.4838   1.5096   1.5545   1.5695   1.6121
     1.6332   1.6768   1.7561   1.7745   1.7964   1.8291   1.8606   1.8995
     1.9488   2.0590   2.1666   2.1978   2.2441   2.2633   2.3279   2.3715
     2.3983   2.4206   2.4437   2.5478   2.5837   2.6728   2.7743   2.8494
     2.8569   2.8745   2.8803   2.8926   2.9091   2.9122   2.9301   2.9386
     2.9531   2.9633   2.9752   2.9846   2.9971   3.0262   3.0353   3.0444
     3.0779   3.3700   3.4516   3.5177   3.5933   3.6018   3.8186   3.9282
     4.2656   4.4723   4.6889   4.9522   5.1561   5.6161   5.6694   5.7425
     5.7993   5.8643   6.0561   6.1575   6.1843   6.7743   6.8810   7.0772
     7.2189   7.5424   7.5862   7.6464   7.7637   7.8599   7.9281   8.1138
     8.1537   8.2213   8.2774   8.3180   8.4176   8.4626   8.7605   8.8781

     occupation numbers 
     1.0000   1.0000   1.0000   1.0000   1.0000   1.0000   1.0000   1.0000
     1.0000   1.0000   1.0000   1.0000   1.0000   1.0000   1.0000   1.0000
     1.0000   1.0000   1.0000   1.0000   1.0000   1.0000   1.0000   1.0000
     1.0000   1.0000   1.0000   1.0000   1.0000   1.0000   1.0000   1.0000
     1.0000   1.0000   1.0000   1.0000   1.0000   1.0000   1.0000   1.0000
     1.0000   1.0000   1.0000   1.0000   1.0000   1.0000   1.0000   1.0000
     1.0000   1.0000   1.0000   1.0000   1.0000   1.0000   1.0000   1.0000
     1.0000   1.0000   1.0000   1.0000   1.0000   1.0000   1.0000   1.0000
     1.0000   1.0000   1.0000   1.0000   1.0000   1.0000   1.0000   1.0000
     1.0000   1.0000   1.0000   1.0000   1.0000   1.0000   1.0000   1.0000
     1.0000   1.0000   1.0000   1.0000   1.0000   1.0000   1.0000   1.0000
     1.0000   1.0000   1.0000   1.0000   1.0000   1.0000   1.0000   1.0000
     1.0000   1.0000   1.0000   1.0000   1.0000   1.0000   1.0000   1.0000
     1.0000   1.0000   1.0000   1.0000   1.0000   1.0000   1.0000   1.0000
     1.0000   1.0000   1.0000   1.0000   1.0000   1.0000   1.0000   1.0000
     1.0000   1.0000   1.0000   1.0000   1.0000   1.0000   1.0000   1.0000
     1.0000   1.0000   1.0000   1.0000   1.0000   1.0000   1.0000   1.0000
     1.0000   1.0000   1.0000   1.0000   1.0000   1.0000   1.0000   1.0000
     1.0000   1.0000   1.0000   1.0000   1.0000   1.0000   1.0000   1.0000
     1.0000   1.0000   1.0000   1.0000   1.0000   1.0000   0.9999   0.9999
     0.9999   0.9998   0.9993   0.9988   0.9985   0.9982   0.9982   0.9978
     0.9976   0.9970   0.9966   0.9964   0.9959   0.9951   0.9947   0.9937
     0.9931   0.9918   0.9887   0.9879   0.9868   0.9851   0.9832   0.9807
     0.9770   0.9665   0.9527   0.9479   0.9402   0.9367   0.9239   0.9142
     0.9078   0.9022   0.8962   0.8655   0.8536   0.8212   0.7791   0.7446
     0.7410   0.7325   0.7297   0.7236   0.7153   0.7138   0.7046   0.7003
     0.6927   0.6874   0.6811   0.6761   0.6694   0.6536   0.6486   0.6436
     0.6249   0.4541   0.4065   0.3689   0.3275   0.3229   0.2173   0.1725
     0.0742   0.0399   0.0190   0.0069   0.0028   0.0003   0.0002   0.0001
     0.0001   0.0001   0.0000   0.0000   0.0000   0.0000   0.0000   0.0000
     0.0000   0.0000   0.0000   0.0000   0.0000   0.0000   0.0000   0.0000
     0.0000   0.0000   0.0000   0.0000   0.0000   0.0000   0.0000   0.0000

          k =-0.5000 0.2500 0.0000 ( 65138 PWs)   bands (ev):

   -92.7353 -92.6826 -92.5899 -92.5415 -92.4831 -92.4418 -92.4246 -92.3031
   -56.0887 -56.0685 -55.9470 -55.9360 -55.9295 -55.9228 -55.8869 -55.8589
   -55.8432 -55.8413 -55.8336 -55.7907 -55.7722 -55.7344 -55.7166 -55.6832
   -55.6769 -55.6302 -55.6302 -55.6270 -55.6186 -55.5776 -55.5549 -55.4685
   -31.3073 -31.2956 -31.1723 -31.1489 -31.0635 -30.9769 -30.9163 -30.7130
   -29.8808 -29.8419 -29.8134 -29.7062 -15.0165 -14.9707 -14.8931 -14.7934
   -14.7511 -14.6262 -14.5396 -14.4085 -14.1003 -14.0709 -14.0591 -14.0141
   -13.9929 -13.9663 -13.9307 -13.9216 -13.8986 -13.8590 -13.8504 -13.7457
   -13.6715 -13.6222 -13.6165 -13.6019 -13.5193 -13.5020 -13.3978 -13.3440
   -13.2339 -13.1986 -13.1092 -13.0849 -13.0584 -13.0487 -13.0154 -12.9826
   -12.9723 -12.9641 -12.8988 -12.8694 -12.8289 -12.7669 -12.7414 -12.6671
   -12.6540 -12.6457 -12.5723 -12.4333 -12.3550 -12.3038 -12.2056 -12.1790
   -11.8062 -11.7935 -11.7796 -11.7675 -11.7464 -11.7164 -11.6350 -11.6264
   -11.6034 -11.5669 -11.5394 -11.5302  -2.4738  -2.4319  -2.2836  -2.2416
    -2.0806  -2.0032  -1.8625  -1.7264  -1.6687  -1.6418  -1.6036  -1.5655
    -1.4847  -1.3694  -1.3122  -1.2892  -1.2632  -1.1862  -1.1583  -1.1203
    -1.1026  -1.0420  -1.0115  -0.9741  -0.9390  -0.9102  -0.8517  -0.8249
    -0.7836  -0.7479  -0.6433  -0.6186  -0.5239  -0.4684  -0.4343  -0.3745
    -0.2951  -0.2630  -0.1601  -0.1269  -0.0623  -0.0194   0.0175   0.0839
     0.1134   0.1463   0.1974   0.2350   0.5520   0.6028   0.6687   0.6917
     0.9777   1.0415   1.1127   1.1409   1.3167   1.3517   1.3891   1.4009
     1.4187   1.4366   1.5059   1.5517   1.5902   1.6233   1.7323   1.7759
     1.8096   1.8198   1.8511   1.8814   1.8968   1.9093   1.9282   1.9526
     1.9947   2.0165   2.0501   2.0752   2.1036   2.1643   2.2817   2.3828
     2.4121   2.4793   2.5186   2.5813   2.6121   2.6233   2.6634   2.6940
     2.7181   2.7651   2.8124   2.8542   2.8588   2.8650   2.8856   2.9102
     2.9201   2.9362   2.9481   2.9688   2.9842   2.9914   2.9999   3.0094
     3.0242   3.5578   3.5838   3.7424   3.7600   4.0450   4.1083   4.1689
     4.3644   4.7520   4.8461   5.0160   5.0497   5.3769   5.3998   5.5608
     5.6246   5.7150   5.7628   6.2124   6.3732   6.4729   6.5387   7.0956
     7.4694   7.5417   7.6916   7.7707   7.8290   7.8631   7.9986   8.1702
     8.3186   8.3921   8.4603   8.4985   8.5473   8.6350   8.6841   8.7259

     occupation numbers 
     1.0000   1.0000   1.0000   1.0000   1.0000   1.0000   1.0000   1.0000
     1.0000   1.0000   1.0000   1.0000   1.0000   1.0000   1.0000   1.0000
     1.0000   1.0000   1.0000   1.0000   1.0000   1.0000   1.0000   1.0000
     1.0000   1.0000   1.0000   1.0000   1.0000   1.0000   1.0000   1.0000
     1.0000   1.0000   1.0000   1.0000   1.0000   1.0000   1.0000   1.0000
     1.0000   1.0000   1.0000   1.0000   1.0000   1.0000   1.0000   1.0000
     1.0000   1.0000   1.0000   1.0000   1.0000   1.0000   1.0000   1.0000
     1.0000   1.0000   1.0000   1.0000   1.0000   1.0000   1.0000   1.0000
     1.0000   1.0000   1.0000   1.0000   1.0000   1.0000   1.0000   1.0000
     1.0000   1.0000   1.0000   1.0000   1.0000   1.0000   1.0000   1.0000
     1.0000   1.0000   1.0000   1.0000   1.0000   1.0000   1.0000   1.0000
     1.0000   1.0000   1.0000   1.0000   1.0000   1.0000   1.0000   1.0000
     1.0000   1.0000   1.0000   1.0000   1.0000   1.0000   1.0000   1.0000
     1.0000   1.0000   1.0000   1.0000   1.0000   1.0000   1.0000   1.0000
     1.0000   1.0000   1.0000   1.0000   1.0000   1.0000   1.0000   1.0000
     1.0000   1.0000   1.0000   1.0000   1.0000   1.0000   1.0000   1.0000
     1.0000   1.0000   1.0000   1.0000   1.0000   1.0000   1.0000   1.0000
     1.0000   1.0000   1.0000   1.0000   1.0000   1.0000   1.0000   1.0000
     1.0000   1.0000   1.0000   1.0000   1.0000   1.0000   1.0000   1.0000
     1.0000   1.0000   1.0000   1.0000   1.0000   1.0000   1.0000   0.9999
     0.9997   0.9996   0.9994   0.9993   0.9983   0.9980   0.9976   0.9975
     0.9973   0.9971   0.9960   0.9951   0.9943   0.9934   0.9897   0.9878
     0.9862   0.9856   0.9838   0.9819   0.9809   0.9800   0.9786   0.9767
     0.9730   0.9709   0.9674   0.9646   0.9612   0.9530   0.9333   0.9116
     0.9044   0.8863   0.8747   0.8544   0.8438   0.8398   0.8248   0.8128
     0.8031   0.7831   0.7620   0.7423   0.7401   0.7371   0.7270   0.7148
     0.7098   0.7015   0.6954   0.6845   0.6763   0.6725   0.6679   0.6628
     0.6547   0.3467   0.3326   0.2519   0.2437   0.1319   0.1128   0.0965
     0.0557   0.0151   0.0105   0.0052   0.0045   0.0010   0.0009   0.0004
     0.0003   0.0002   0.0001   0.0000   0.0000   0.0000   0.0000   0.0000
     0.0000   0.0000   0.0000   0.0000   0.0000   0.0000   0.0000   0.0000
     0.0000   0.0000   0.0000   0.0000   0.0000   0.0000   0.0000   0.0000

     the Fermi energy is     3.2923 ev

!    total energy              =   -4399.91975554 Ry
     estimated scf accuracy    <          9.9E-09 Ry
     smearing contrib. (-TS)   =      -1.14686966 Ry
     internal energy E=F+TS    =   -4398.77288588 Ry

     The total energy is F=E-TS. E is the sum of the following terms:
     one-electron contribution =  -21252.29608904 Ry
     hartree contribution      =   10753.75567604 Ry
     xc contribution           =    -686.72686001 Ry
     ewald contribution        =    7053.13959180 Ry
     one-center paw contrib.   =    -266.64520467 Ry
      -> PAW hartree energy AE =      25.17349061 Ry
      -> PAW hartree energy PS =     -25.05728115 Ry
      -> PAW xc energy AE      =     -16.51899172 Ry
      -> PAW xc energy PS      =       6.87852950 Ry
      -> total E_H with PAW    =   10753.87188550 Ry
      -> total E_XC with PAW   =    -696.36732223 Ry

     convergence has been achieved in  48 iterations

     Writing all to output data dir /bsuhome/zayahcortright/scratch/pwscf.save/
 
     init_run     :      7.74s CPU      8.05s WALL (       1 calls)
     electrons    :    686.50s CPU    698.48s WALL (       1 calls)

     Called by init_run:
     wfcinit      :      5.97s CPU      6.08s WALL (       1 calls)
     wfcinit:atom :      0.06s CPU      0.07s WALL (       5 calls)
     wfcinit:wfcr :      5.63s CPU      5.70s WALL (       5 calls)
     potinit      :      0.15s CPU      0.18s WALL (       1 calls)
     hinit0       :      0.68s CPU      0.79s WALL (       1 calls)

     Called by electrons:
     c_bands      :    543.23s CPU    547.97s WALL (      48 calls)
     sum_band     :    107.57s CPU    111.79s WALL (      48 calls)
     v_of_rho     :      5.30s CPU      5.56s WALL (      49 calls)
     v_h          :      0.46s CPU      0.46s WALL (      49 calls)
     v_xc         :      4.85s CPU      5.10s WALL (      49 calls)
     newd         :     16.50s CPU     18.88s WALL (      49 calls)
     PAW_pot      :      1.57s CPU      1.59s WALL (      49 calls)
     mix_rho      :     12.00s CPU     12.24s WALL (      48 calls)

     Called by c_bands:
     init_us_2    :      6.83s CPU      6.89s WALL (     485 calls)
     init_us_2:cp :      6.82s CPU      6.88s WALL (     485 calls)
     cegterg      :    510.06s CPU    514.58s WALL (     240 calls)

     Called by sum_band:
     sum_band:wei :      0.33s CPU      0.34s WALL (      48 calls)
     sum_band:loo :     88.35s CPU     88.98s WALL (      48 calls)
     sum_band:buf :      1.46s CPU      1.48s WALL (     240 calls)
     sum_band:ini :      3.27s CPU      3.28s WALL (     240 calls)
     sum_band:cal :     18.17s CPU     18.21s WALL (     240 calls)
     sum_band:bec :      0.55s CPU      0.55s WALL (     240 calls)
     addusdens    :     17.91s CPU     21.47s WALL (      48 calls)
                                        0.00s GPU  (      48 calls)
     addusd:skk   :      0.35s CPU      0.66s WALL (     192 calls)
                                        0.00s GPU  (     192 calls)

     Called by *egterg:
     cdiaghg      :     53.93s CPU     54.14s WALL (    1294 calls)
     cegterg:over :     36.85s CPU     36.96s WALL (    1054 calls)
     cegterg:upda :     27.23s CPU     27.57s WALL (    1054 calls)
     cegterg:last :     57.08s CPU     57.31s WALL (     440 calls)
     cdiaghg:chol :      3.09s CPU      3.11s WALL (    1294 calls)
     cdiaghg:inve :      3.24s CPU      3.25s WALL (    1294 calls)
     cdiaghg:para :      6.99s CPU      7.03s WALL (    2588 calls)
     h_psi        :    282.05s CPU    284.68s WALL (    1299 calls)
     s_psi        :     37.44s CPU     37.54s WALL (    1299 calls)
     g_psi        :      1.11s CPU      1.12s WALL (    1054 calls)

     Called by h_psi:
     h_psi:calbec :     41.62s CPU     41.74s WALL (    1299 calls)
     vloc_psi     :    199.90s CPU    201.87s WALL (    1299 calls)
     add_vuspsi   :     37.38s CPU     37.49s WALL (    1299 calls)

     General routines
     calbec       :     59.78s CPU     59.95s WALL (    1539 calls)
     fft          :      3.52s CPU      3.55s WALL (     635 calls)
     ffts         :      4.47s CPU      4.50s WALL (    5032 calls)
     fftw         :    171.95s CPU    173.39s WALL (  321570 calls)
     interpolate  :      0.40s CPU      0.40s WALL (      49 calls)
 
     Parallel routines

     PAW routines
     PAW_pot      :      1.57s CPU      1.59s WALL (      49 calls)
 
     PWSCF        :  11m36.05s CPU  11m51.86s WALL

 
   This run was terminated on:  23:53:25  21Jun2024            

=------------------------------------------------------------------------------=
   JOB DONE.
=------------------------------------------------------------------------------=
