
     Program PWSCF v.7.2 starts on 21Jun2024 at 18:51:20 

     This program is part of the open-source Quantum ESPRESSO suite
     for quantum simulation of materials; please cite
         "P. Giannozzi et al., J. Phys.:Condens. Matter 21 395502 (2009);
         "P. Giannozzi et al., J. Phys.:Condens. Matter 29 465901 (2017);
         "P. Giannozzi et al., J. Chem. Phys. 152 154105 (2020);
          URL http://www.quantum-espresso.org", 
     in publications or presentations arising from this work. More details at
     http://www.quantum-espresso.org/quote

     Parallel version (MPI & OpenMP), running on      48 processor cores
     Number of MPI processes:                48
     Threads/MPI process:                     1

     MPI processes distributed on     1 nodes
     33244 MiB available memory on the printing compute node when the environment starts
 
     Reading input from espresso.pwi
Warning: card &CELL ignored
Warning: card / ignored
Warning: card &FCP ignored
Warning: card / ignored
Warning: card &RISM ignored
Warning: card / ignored

     Current dimensions of program PWSCF are:
     Max number of different atomic species (ntypx) = 10
     Max number of k-points (npk) =  40000
     Max angular momentum in pseudopotentials (lmaxx) =  4
     file O.pbe-n-kjpaw_psl.0.1.UPF: wavefunction(s)  2P renormalized
     signal trapping enabled: kill the code with -SIGUSR1 to stop cleanly the simulation 
 
     K-points division:     npool     =       2
     R & G space division:  proc/nbgrp/npool/nimage =      24
     Subspace diagonalization in iterative solution of the eigenvalue problem:
     one sub-group per band group will be used
     scalapack distributed-memory algorithm (size of sub-group:  3*  3 procs)

 
     Parallelization info
     --------------------
     sticks:   dense  smooth     PW     G-vecs:    dense   smooth      PW
     Min         350     175     47                61430    21716    3036
     Max         351     177     48                61449    21727    3041
     Sum        8421    4205   1137              1474595   521381   72913
 
     Using Slab Decomposition
 


     bravais-lattice index     =            0
     lattice parameter (alat)  =      14.8599  a.u.
     unit-cell volume          =    8305.1283 (a.u.)^3
     number of atoms/cell      =           50
     number of atomic types    =            4
     number of electrons       =       431.00
     number of Kohn-Sham states=          259
     kinetic-energy cutoff     =      60.0000  Ry
     charge density cutoff     =     480.0000  Ry
     scf convergence threshold =      1.0E-08
     mixing beta               =       0.1500
     number of iterations used =            8  local-TF  mixing
     Exchange-correlation= PBE
                           (   1   4   3   4   0   0   0)

     celldm(1)=  14.859904  celldm(2)=   0.000000  celldm(3)=   0.000000
     celldm(4)=   0.000000  celldm(5)=   0.000000  celldm(6)=   0.000000

     crystal axes: (cart. coord. in units of alat)
               a(1) = (   1.000000   0.000000   0.000000 )  
               a(2) = (   0.000000   1.000000   0.000000 )  
               a(3) = (   0.000000   0.000000   2.531036 )  

     reciprocal axes: (cart. coord. in units 2 pi/alat)
               b(1) = (  1.000000  0.000000  0.000000 )  
               b(2) = (  0.000000  1.000000  0.000000 )  
               b(3) = (  0.000000  0.000000  0.395095 )  


     PseudoPot. # 1 for Sr read from file:
     /bsuhome/zayahcortright/q-e/pseudo/Sr_pbe_v1.uspp.F.UPF
     MD5 check sum: 6b418c05fbe9db5448babca5e47b7a5b
     Pseudo is Ultrasoft + core correction, Zval = 10.0
     Generated by new atomic code, or converted to UPF format
     Using radial grid of  883 points,  6 beta functions with: 
                l(1) =   0
                l(2) =   0
                l(3) =   1
                l(4) =   1
                l(5) =   2
                l(6) =   2
     Q(r) pseudized with  6 coefficients,  rinner =    1.400   1.400   1.400
                                                       1.400   1.400

     PseudoPot. # 2 for O  read from file:
     /bsuhome/zayahcortright/q-e/pseudo/O.pbe-n-kjpaw_psl.0.1.UPF
     MD5 check sum: 0234752ac141de4415c5fc33072bef88
     Pseudo is Projector augmented-wave + core cor, Zval =  6.0
     Generated using "atomic" code by A. Dal Corso  v.5.0.99 svn rev. 10869
     Shape of augmentation charge: BESSEL
     Using radial grid of 1095 points,  4 beta functions with: 
                l(1) =   0
                l(2) =   0
                l(3) =   1
                l(4) =   1
     Q(r) pseudized with 0 coefficients 


     PseudoPot. # 3 for Co read from file:
     /bsuhome/zayahcortright/q-e/pseudo/Co_pbe_v1.2.uspp.F.UPF
     MD5 check sum: 5f91765df6ddd3222702df6e7b74a16d
     Pseudo is Ultrasoft + core correction, Zval = 17.0
     Generated by new atomic code, or converted to UPF format
     Using radial grid of  863 points,  6 beta functions with: 
                l(1) =   0
                l(2) =   0
                l(3) =   1
                l(4) =   1
                l(5) =   2
                l(6) =   2
     Q(r) pseudized with  8 coefficients,  rinner =    1.200   1.200   1.200
                                                       1.200   1.200

     PseudoPot. # 4 for H  read from file:
     /bsuhome/zayahcortright/q-e/pseudo/H.pbe-rrkjus_psl.1.0.0.UPF
     MD5 check sum: f52b6d4d1c606e5624b1dc7b2218f220
     Pseudo is Ultrasoft, Zval =  1.0
     Generated using "atomic" code by A. Dal Corso  v.5.1
     Using radial grid of  929 points,  2 beta functions with: 
                l(1) =   0
                l(2) =   0
     Q(r) pseudized with 0 coefficients 


     atomic species   valence    mass     pseudopotential
        Sr            10.00    87.62000     Sr( 1.00)
        O              6.00    15.99900     O ( 1.00)
        Co            17.00    58.93319     Co( 1.00)
        H              1.00     1.00800     H ( 1.00)

     No symmetry found


                                    s                        frac. trans.

      isym =  1     identity                                     

 cryst.   s( 1) = (     1          0          0      )
                  (     0          1          0      )
                  (     0          0          1      )

 cart.    s( 1) = (  1.0000000  0.0000000  0.0000000 )
                  (  0.0000000  1.0000000  0.0000000 )
                  (  0.0000000  0.0000000  1.0000000 )


   Cartesian axes

     site n.     atom                  positions (alat units)
         1           Sr  tau(   1) = (   0.2508693   0.7491307   1.7574407  )
         2           O   tau(   2) = (   0.4985141   0.5014859   1.7715967  )
         3           Sr  tau(   3) = (   0.7482398   0.7454518   1.7648669  )
         4           Sr  tau(   4) = (   0.7441748   0.2558252   1.7667843  )
         5           Sr  tau(   5) = (   0.2508693   0.7491307   1.2696799  )
         6           Sr  tau(   6) = (   0.2508693   0.7491307   0.7632319  )
         7           Co  tau(   7) = (   0.4998914   0.5001086   1.0164559  )
         8           Co  tau(   8) = (   0.4936915   0.5063085   1.5135603  )
         9           O   tau(   9) = (   0.4988895   0.7610401   1.0164559  )
        10           O   tau(  10) = (   0.2389599   0.5011105   1.0164559  )
        11           O   tau(  11) = (   0.0070918   0.7374880   1.0164559  )
        12           O   tau(  12) = (   0.0088340   0.7405089   1.5135603  )
        13           O   tau(  13) = (   0.5066944   0.7415376   1.5135603  )
        14           O   tau(  14) = (   0.2584624   0.4933056   1.5135603  )
        15           O   tau(  15) = (   0.4985141   0.5014859   0.7773880  )
        16           O   tau(  16) = (   0.4985141   0.5014859   1.2555238  )
        17           Sr  tau(  17) = (   0.7482398   0.7454518   0.7706582  )
        18           Sr  tau(  18) = (   0.7482398   0.7454518   1.2622536  )
        19           Sr  tau(  19) = (   0.7441748   0.2558252   0.7725755  )
        20           Sr  tau(  20) = (   0.7441748   0.2558252   1.2603363  )
        21           O   tau(  21) = (   0.7322655   0.0078049   1.5135603  )
        22           O   tau(  22) = (   0.7558175   0.4996027   1.5135603  )
        23           O   tau(  23) = (   0.5003973   0.2441825   1.5135603  )
        24           O   tau(  24) = (   0.7527966   0.4978604   1.0164559  )
        25           O   tau(  25) = (   0.5021396   0.2472034   1.0164559  )
        26           O   tau(  26) = (   0.7517679   0.0000000   1.0164559  )
        27           O   tau(  27) = (   0.0114961   0.4948124   1.7455321  )
        28           O   tau(  28) = (   0.0048226   0.0077944   1.7715967  )
        29           Sr  tau(  29) = (   0.2545482   0.2517602   1.7648669  )
        30           O   tau(  30) = (   0.5048017   0.0015068   1.7786929  )
        31           Co  tau(  31) = (   0.0056869   0.5006215   1.0164559  )
        32           Co  tau(  32) = (   0.0065315   0.4997770   1.5135603  )
        33           Co  tau(  33) = (   0.0061999   0.0064171   1.0164559  )
        34           Co  tau(  34) = (   0.0000000   0.0126169   1.5135603  )
        35           O   tau(  35) = (   0.0114961   0.4948124   1.2815885  )
        36           O   tau(  36) = (   0.0114961   0.4948124   0.7513233  )
        37           O   tau(  37) = (   0.0051979   0.2673486   1.0164559  )
        38           O   tau(  38) = (   0.0130029   0.2478461   1.5135603  )
        39           O   tau(  39) = (   0.0048226   0.0077944   0.7773880  )
        40           O   tau(  40) = (   0.0048226   0.0077944   1.2555238  )
        41           Sr  tau(  41) = (   0.2545482   0.2517602   0.7706582  )
        42           Sr  tau(  42) = (   0.2545482   0.2517602   1.2622536  )
        43           Co  tau(  43) = (   0.4989925   0.0073160   1.5135603  )
        44           Co  tau(  44) = (   0.4998370   0.0064714   1.0164559  )
        45           O   tau(  45) = (   0.5048017   0.0015068   0.7844841  )
        46           O   tau(  46) = (   0.5048017   0.0015068   1.2484277  )
        47           O   tau(  47) = (   0.2621260   0.0059111   1.5135603  )
        48           O   tau(  48) = (   0.2591051   0.0041689   1.0164559  )
        49           O   tau(  49) = (   0.2843291   0.4264937   2.1602013  )
        50           H   tau(  50) = (   0.2843291   0.4264937   2.2847091  )

   Crystallographic axes

     site n.     atom                  positions (cryst. coord.)
         1           Sr  tau(   1) = (  0.2508693  0.7491307  0.6943562  )
         2           O   tau(   2) = (  0.4985141  0.5014859  0.6999492  )
         3           Sr  tau(   3) = (  0.7482398  0.7454518  0.6972903  )
         4           Sr  tau(   4) = (  0.7441748  0.2558252  0.6980478  )
         5           Sr  tau(   5) = (  0.2508693  0.7491307  0.5016443  )
         6           Sr  tau(   6) = (  0.2508693  0.7491307  0.3015492  )
         7           Co  tau(   7) = (  0.4998914  0.5001086  0.4015968  )
         8           Co  tau(   8) = (  0.4936915  0.5063085  0.5980003  )
         9           O   tau(   9) = (  0.4988895  0.7610401  0.4015968  )
        10           O   tau(  10) = (  0.2389599  0.5011105  0.4015968  )
        11           O   tau(  11) = (  0.0070918  0.7374880  0.4015968  )
        12           O   tau(  12) = (  0.0088340  0.7405089  0.5980003  )
        13           O   tau(  13) = (  0.5066944  0.7415376  0.5980003  )
        14           O   tau(  14) = (  0.2584624  0.4933056  0.5980003  )
        15           O   tau(  15) = (  0.4985141  0.5014859  0.3071422  )
        16           O   tau(  16) = (  0.4985141  0.5014859  0.4960513  )
        17           Sr  tau(  17) = (  0.7482398  0.7454518  0.3044833  )
        18           Sr  tau(  18) = (  0.7482398  0.7454518  0.4987103  )
        19           Sr  tau(  19) = (  0.7441748  0.2558252  0.3052408  )
        20           Sr  tau(  20) = (  0.7441748  0.2558252  0.4979527  )
        21           O   tau(  21) = (  0.7322655  0.0078049  0.5980003  )
        22           O   tau(  22) = (  0.7558175  0.4996027  0.5980003  )
        23           O   tau(  23) = (  0.5003973  0.2441825  0.5980003  )
        24           O   tau(  24) = (  0.7527966  0.4978604  0.4015968  )
        25           O   tau(  25) = (  0.5021396  0.2472034  0.4015968  )
        26           O   tau(  26) = (  0.7517679  0.0000000  0.4015968  )
        27           O   tau(  27) = (  0.0114961  0.4948124  0.6896512  )
        28           O   tau(  28) = (  0.0048226  0.0077944  0.6999492  )
        29           Sr  tau(  29) = (  0.2545482  0.2517602  0.6972903  )
        30           O   tau(  30) = (  0.5048017  0.0015068  0.7027529  )
        31           Co  tau(  31) = (  0.0056869  0.5006215  0.4015968  )
        32           Co  tau(  32) = (  0.0065315  0.4997770  0.5980003  )
        33           Co  tau(  33) = (  0.0061999  0.0064171  0.4015968  )
        34           Co  tau(  34) = (  0.0000000  0.0126169  0.5980003  )
        35           O   tau(  35) = (  0.0114961  0.4948124  0.5063494  )
        36           O   tau(  36) = (  0.0114961  0.4948124  0.2968442  )
        37           O   tau(  37) = (  0.0051979  0.2673486  0.4015968  )
        38           O   tau(  38) = (  0.0130029  0.2478461  0.5980003  )
        39           O   tau(  39) = (  0.0048226  0.0077944  0.3071422  )
        40           O   tau(  40) = (  0.0048226  0.0077944  0.4960513  )
        41           Sr  tau(  41) = (  0.2545482  0.2517602  0.3044833  )
        42           Sr  tau(  42) = (  0.2545482  0.2517602  0.4987103  )
        43           Co  tau(  43) = (  0.4989925  0.0073160  0.5980003  )
        44           Co  tau(  44) = (  0.4998370  0.0064714  0.4015968  )
        45           O   tau(  45) = (  0.5048017  0.0015068  0.3099459  )
        46           O   tau(  46) = (  0.5048017  0.0015068  0.4932477  )
        47           O   tau(  47) = (  0.2621260  0.0059111  0.5980003  )
        48           O   tau(  48) = (  0.2591051  0.0041689  0.4015968  )
        49           O   tau(  49) = (  0.2843291  0.4264937  0.8534850  )
        50           H   tau(  50) = (  0.2843291  0.4264937  0.9026774  )

     number of k points=    10  Gaussian smearing, width (Ry)=  0.0700
                       cart. coord. in units 2pi/alat
        k(    1) = (   0.0000000   0.0000000   0.0000000), wk =   0.1250000
        k(    2) = (   0.0000000   0.2500000   0.0000000), wk =   0.2500000
        k(    3) = (   0.0000000  -0.5000000   0.0000000), wk =   0.1250000
        k(    4) = (   0.2500000   0.2500000   0.0000000), wk =   0.2500000
        k(    5) = (   0.2500000  -0.5000000   0.0000000), wk =   0.2500000
        k(    6) = (  -0.5000000  -0.5000000   0.0000000), wk =   0.1250000
        k(    7) = (   0.2500000   0.0000000   0.0000000), wk =   0.2500000
        k(    8) = (  -0.5000000   0.0000000   0.0000000), wk =   0.1250000
        k(    9) = (  -0.2500000   0.2500000   0.0000000), wk =   0.2500000
        k(   10) = (  -0.5000000   0.2500000   0.0000000), wk =   0.2500000

                       cryst. coord.
        k(    1) = (   0.0000000   0.0000000   0.0000000), wk =   0.1250000
        k(    2) = (   0.0000000   0.2500000   0.0000000), wk =   0.2500000
        k(    3) = (   0.0000000  -0.5000000   0.0000000), wk =   0.1250000
        k(    4) = (   0.2500000   0.2500000   0.0000000), wk =   0.2500000
        k(    5) = (   0.2500000  -0.5000000   0.0000000), wk =   0.2500000
        k(    6) = (  -0.5000000  -0.5000000   0.0000000), wk =   0.1250000
        k(    7) = (   0.2500000   0.0000000   0.0000000), wk =   0.2500000
        k(    8) = (  -0.5000000   0.0000000   0.0000000), wk =   0.1250000
        k(    9) = (  -0.2500000   0.2500000   0.0000000), wk =   0.2500000
        k(   10) = (  -0.5000000   0.2500000   0.0000000), wk =   0.2500000

     Dense  grid:  1474595 G-vectors     FFT dimensions: ( 108, 108, 270)

     Smooth grid:   521381 G-vectors     FFT dimensions: (  75,  75, 192)

     Dynamical RAM for                 wfc:      10.73 MB

     Dynamical RAM for     wfc (w. buffer):      64.38 MB

     Dynamical RAM for           str. fact:       3.75 MB

     Dynamical RAM for           local pot:       0.00 MB

     Dynamical RAM for          nlocal pot:      24.61 MB

     Dynamical RAM for                qrad:       7.03 MB

     Dynamical RAM for          rho,v,vnew:       6.02 MB

     Dynamical RAM for               rhoin:       2.01 MB

     Dynamical RAM for            rho*nmix:      15.00 MB

     Dynamical RAM for           G-vectors:       3.68 MB

     Dynamical RAM for          h,s,v(r/c):       1.35 MB

     Dynamical RAM for          <psi|beta>:       2.35 MB

     Dynamical RAM for                 psi:      21.46 MB

     Dynamical RAM for                hpsi:      21.46 MB

     Dynamical RAM for                spsi:      21.46 MB

     Dynamical RAM for      wfcinit/wfcrot:      34.49 MB

     Dynamical RAM for           addusdens:     101.26 MB

     Estimated static dynamical RAM per process >     121.50 MB

     Estimated max dynamical RAM per process >     237.76 MB

     Estimated total dynamical RAM >      10.79 GB

     Check: negative core charge=   -0.000004

     Initial potential from superposition of free atoms

     starting charge     422.5961, renormalised to     431.0000

     negative rho (up, down):  7.820E-01 0.000E+00
     Starting wfcs are  377 randomized atomic wfcs
     Checking if some PAW data can be deallocated... 
       PAW data deallocated on   19 nodes for type:  2

     total cpu time spent up to now is        9.4 secs

     Self-consistent Calculation

     iteration #  1     ecut=    60.00 Ry     beta= 0.15
     Davidson diagonalization with overlap

---- Real-time Memory Report at c_bands before calling an iterative solver
             0 MiB given to the printing process from OS
             0 MiB allocation reported by mallinfo(arena+hblkhd)
         23987 MiB available memory on the node where the printing process lives
------------------
     ethr =  1.00E-02,  avg # of iterations =  2.0

     negative rho (up, down):  7.719E-01 0.000E+00

     total cpu time spent up to now is       26.5 secs

     total energy              =   -4446.69833096 Ry
     estimated scf accuracy    <      44.68435907 Ry

     iteration #  2     ecut=    60.00 Ry     beta= 0.15
     Davidson diagonalization with overlap

---- Real-time Memory Report at c_bands before calling an iterative solver
             0 MiB given to the printing process from OS
             0 MiB allocation reported by mallinfo(arena+hblkhd)
         24256 MiB available memory on the node where the printing process lives
------------------
     ethr =  1.00E-02,  avg # of iterations =  1.0

     negative rho (up, down):  7.587E-01 0.000E+00

     total cpu time spent up to now is       41.8 secs

     total energy              =   -4443.36336433 Ry
     estimated scf accuracy    <      30.03240236 Ry

     iteration #  3     ecut=    60.00 Ry     beta= 0.15
     Davidson diagonalization with overlap

---- Real-time Memory Report at c_bands before calling an iterative solver
             0 MiB given to the printing process from OS
             0 MiB allocation reported by mallinfo(arena+hblkhd)
         23418 MiB available memory on the node where the printing process lives
------------------
     ethr =  6.97E-03,  avg # of iterations =  1.0

     negative rho (up, down):  7.556E-01 0.000E+00

     total cpu time spent up to now is       57.1 secs

     total energy              =   -4444.26728129 Ry
     estimated scf accuracy    <      27.61193219 Ry

     iteration #  4     ecut=    60.00 Ry     beta= 0.15
     Davidson diagonalization with overlap

---- Real-time Memory Report at c_bands before calling an iterative solver
             0 MiB given to the printing process from OS
             0 MiB allocation reported by mallinfo(arena+hblkhd)
         23397 MiB available memory on the node where the printing process lives
------------------
     ethr =  6.41E-03,  avg # of iterations =  1.0

     negative rho (up, down):  7.507E-01 0.000E+00

     total cpu time spent up to now is       72.2 secs

     total energy              =   -4443.10265214 Ry
     estimated scf accuracy    <      20.45424492 Ry

     iteration #  5     ecut=    60.00 Ry     beta= 0.15
     Davidson diagonalization with overlap

---- Real-time Memory Report at c_bands before calling an iterative solver
             0 MiB given to the printing process from OS
             0 MiB allocation reported by mallinfo(arena+hblkhd)
         23379 MiB available memory on the node where the printing process lives
------------------
     ethr =  4.75E-03,  avg # of iterations =  1.0

     negative rho (up, down):  7.393E-01 0.000E+00

     total cpu time spent up to now is       87.4 secs

     total energy              =   -4442.43106479 Ry
     estimated scf accuracy    <      12.61525713 Ry

     iteration #  6     ecut=    60.00 Ry     beta= 0.15
     Davidson diagonalization with overlap

---- Real-time Memory Report at c_bands before calling an iterative solver
             0 MiB given to the printing process from OS
             0 MiB allocation reported by mallinfo(arena+hblkhd)
         23363 MiB available memory on the node where the printing process lives
------------------
     ethr =  2.93E-03,  avg # of iterations =  1.1

     negative rho (up, down):  7.424E-01 0.000E+00

     total cpu time spent up to now is      102.6 secs

     total energy              =   -4442.82837000 Ry
     estimated scf accuracy    <       5.13867713 Ry

     iteration #  7     ecut=    60.00 Ry     beta= 0.15
     Davidson diagonalization with overlap

---- Real-time Memory Report at c_bands before calling an iterative solver
             0 MiB given to the printing process from OS
             0 MiB allocation reported by mallinfo(arena+hblkhd)
         23342 MiB available memory on the node where the printing process lives
------------------
     ethr =  1.19E-03,  avg # of iterations =  1.7

     negative rho (up, down):  7.637E-01 0.000E+00

     total cpu time spent up to now is      118.2 secs

     total energy              =   -4441.66768079 Ry
     estimated scf accuracy    <       4.00342548 Ry

     iteration #  8     ecut=    60.00 Ry     beta= 0.15
     Davidson diagonalization with overlap

---- Real-time Memory Report at c_bands before calling an iterative solver
             0 MiB given to the printing process from OS
             0 MiB allocation reported by mallinfo(arena+hblkhd)
         23319 MiB available memory on the node where the printing process lives
------------------
     ethr =  9.29E-04,  avg # of iterations =  4.0

     negative rho (up, down):  7.733E-01 0.000E+00

     total cpu time spent up to now is      137.9 secs

     total energy              =   -4441.22585091 Ry
     estimated scf accuracy    <      23.03998262 Ry

     iteration #  9     ecut=    60.00 Ry     beta= 0.15
     Davidson diagonalization with overlap

---- Real-time Memory Report at c_bands before calling an iterative solver
             0 MiB given to the printing process from OS
             0 MiB allocation reported by mallinfo(arena+hblkhd)
         23193 MiB available memory on the node where the printing process lives
------------------
     ethr =  9.29E-04,  avg # of iterations = 10.1

     negative rho (up, down):  7.703E-01 0.000E+00

     total cpu time spent up to now is      160.9 secs

     total energy              =   -4441.71167235 Ry
     estimated scf accuracy    <       4.11196175 Ry

     iteration # 10     ecut=    60.00 Ry     beta= 0.15
     Davidson diagonalization with overlap

---- Real-time Memory Report at c_bands before calling an iterative solver
             0 MiB given to the printing process from OS
             0 MiB allocation reported by mallinfo(arena+hblkhd)
         22825 MiB available memory on the node where the printing process lives
------------------
     ethr =  9.29E-04,  avg # of iterations =  1.0

     negative rho (up, down):  7.743E-01 0.000E+00

     total cpu time spent up to now is      175.8 secs

     total energy              =   -4441.87848712 Ry
     estimated scf accuracy    <       1.69531436 Ry

     iteration # 11     ecut=    60.00 Ry     beta= 0.15
     Davidson diagonalization with overlap

---- Real-time Memory Report at c_bands before calling an iterative solver
             0 MiB given to the printing process from OS
             0 MiB allocation reported by mallinfo(arena+hblkhd)
         22834 MiB available memory on the node where the printing process lives
------------------
     ethr =  3.93E-04,  avg # of iterations =  1.6

     negative rho (up, down):  8.009E-01 0.000E+00

     total cpu time spent up to now is      192.1 secs

     total energy              =   -4441.76620037 Ry
     estimated scf accuracy    <       1.05956443 Ry

     iteration # 12     ecut=    60.00 Ry     beta= 0.15
     Davidson diagonalization with overlap

---- Real-time Memory Report at c_bands before calling an iterative solver
             0 MiB given to the printing process from OS
             0 MiB allocation reported by mallinfo(arena+hblkhd)
         22834 MiB available memory on the node where the printing process lives
------------------
     ethr =  2.46E-04,  avg # of iterations =  2.7

     negative rho (up, down):  8.147E-01 0.000E+00

     total cpu time spent up to now is      209.5 secs

     total energy              =   -4441.88689251 Ry
     estimated scf accuracy    <       1.57260648 Ry

     iteration # 13     ecut=    60.00 Ry     beta= 0.15
     Davidson diagonalization with overlap

---- Real-time Memory Report at c_bands before calling an iterative solver
             0 MiB given to the printing process from OS
             0 MiB allocation reported by mallinfo(arena+hblkhd)
         22828 MiB available memory on the node where the printing process lives
------------------
     c_bands:  1 eigenvalues not converged
     ethr =  2.46E-04,  avg # of iterations = 10.8

     negative rho (up, down):  8.193E-01 0.000E+00

     total cpu time spent up to now is      231.7 secs

     total energy              =   -4441.81254973 Ry
     estimated scf accuracy    <       1.15013178 Ry

     iteration # 14     ecut=    60.00 Ry     beta= 0.15
     Davidson diagonalization with overlap

---- Real-time Memory Report at c_bands before calling an iterative solver
             0 MiB given to the printing process from OS
             0 MiB allocation reported by mallinfo(arena+hblkhd)
         22771 MiB available memory on the node where the printing process lives
------------------
     ethr =  2.46E-04,  avg # of iterations =  2.1

     negative rho (up, down):  8.159E-01 0.000E+00

     total cpu time spent up to now is      248.4 secs

     total energy              =   -4441.75778809 Ry
     estimated scf accuracy    <       0.47929021 Ry

     iteration # 15     ecut=    60.00 Ry     beta= 0.15
     Davidson diagonalization with overlap

---- Real-time Memory Report at c_bands before calling an iterative solver
             0 MiB given to the printing process from OS
             0 MiB allocation reported by mallinfo(arena+hblkhd)
         22779 MiB available memory on the node where the printing process lives
------------------
     ethr =  1.11E-04,  avg # of iterations =  4.5

     negative rho (up, down):  8.260E-01 0.000E+00

     total cpu time spent up to now is      267.5 secs

     total energy              =   -4441.73635490 Ry
     estimated scf accuracy    <       0.31472070 Ry

     iteration # 16     ecut=    60.00 Ry     beta= 0.15
     Davidson diagonalization with overlap

---- Real-time Memory Report at c_bands before calling an iterative solver
             0 MiB given to the printing process from OS
             0 MiB allocation reported by mallinfo(arena+hblkhd)
         22765 MiB available memory on the node where the printing process lives
------------------
     ethr =  7.30E-05,  avg # of iterations = 10.8

     negative rho (up, down):  8.295E-01 0.000E+00

     total cpu time spent up to now is      289.9 secs

     total energy              =   -4441.73170326 Ry
     estimated scf accuracy    <       0.32884577 Ry

     iteration # 17     ecut=    60.00 Ry     beta= 0.15
     Davidson diagonalization with overlap

---- Real-time Memory Report at c_bands before calling an iterative solver
             0 MiB given to the printing process from OS
             0 MiB allocation reported by mallinfo(arena+hblkhd)
         22762 MiB available memory on the node where the printing process lives
------------------
     ethr =  7.30E-05,  avg # of iterations =  2.4

     negative rho (up, down):  8.269E-01 0.000E+00

     total cpu time spent up to now is      306.6 secs

     total energy              =   -4441.71399844 Ry
     estimated scf accuracy    <       0.25112697 Ry

     iteration # 18     ecut=    60.00 Ry     beta= 0.15
     Davidson diagonalization with overlap

---- Real-time Memory Report at c_bands before calling an iterative solver
             0 MiB given to the printing process from OS
             0 MiB allocation reported by mallinfo(arena+hblkhd)
         22687 MiB available memory on the node where the printing process lives
------------------
     ethr =  5.83E-05,  avg # of iterations =  5.7

     negative rho (up, down):  8.136E-01 0.000E+00

     total cpu time spent up to now is      326.5 secs

     total energy              =   -4441.68468130 Ry
     estimated scf accuracy    <       0.15983029 Ry

     iteration # 19     ecut=    60.00 Ry     beta= 0.15
     Davidson diagonalization with overlap

---- Real-time Memory Report at c_bands before calling an iterative solver
             0 MiB given to the printing process from OS
             0 MiB allocation reported by mallinfo(arena+hblkhd)
         22674 MiB available memory on the node where the printing process lives
------------------
     ethr =  3.71E-05,  avg # of iterations =  9.1

     negative rho (up, down):  8.318E-01 0.000E+00

     total cpu time spent up to now is      348.3 secs

     total energy              =   -4441.67173385 Ry
     estimated scf accuracy    <       0.11355121 Ry

     iteration # 20     ecut=    60.00 Ry     beta= 0.15
     Davidson diagonalization with overlap

---- Real-time Memory Report at c_bands before calling an iterative solver
             0 MiB given to the printing process from OS
             0 MiB allocation reported by mallinfo(arena+hblkhd)
         22599 MiB available memory on the node where the printing process lives
------------------
     ethr =  2.63E-05,  avg # of iterations =  7.5

     negative rho (up, down):  8.210E-01 0.000E+00

     total cpu time spent up to now is      369.3 secs

     total energy              =   -4441.67257130 Ry
     estimated scf accuracy    <       0.04789932 Ry

     iteration # 21     ecut=    60.00 Ry     beta= 0.15
     Davidson diagonalization with overlap

---- Real-time Memory Report at c_bands before calling an iterative solver
             0 MiB given to the printing process from OS
             0 MiB allocation reported by mallinfo(arena+hblkhd)
         22611 MiB available memory on the node where the printing process lives
------------------
     ethr =  1.11E-05,  avg # of iterations =  9.7

     negative rho (up, down):  8.153E-01 0.000E+00

     total cpu time spent up to now is      390.8 secs

     total energy              =   -4441.67114500 Ry
     estimated scf accuracy    <       0.03258418 Ry

     iteration # 22     ecut=    60.00 Ry     beta= 0.15
     Davidson diagonalization with overlap

---- Real-time Memory Report at c_bands before calling an iterative solver
             0 MiB given to the printing process from OS
             0 MiB allocation reported by mallinfo(arena+hblkhd)
         22627 MiB available memory on the node where the printing process lives
------------------
     ethr =  7.56E-06,  avg # of iterations =  9.6

     negative rho (up, down):  8.124E-01 0.000E+00

     total cpu time spent up to now is      412.4 secs

     total energy              =   -4441.67003866 Ry
     estimated scf accuracy    <       0.02396543 Ry

     iteration # 23     ecut=    60.00 Ry     beta= 0.15
     Davidson diagonalization with overlap

---- Real-time Memory Report at c_bands before calling an iterative solver
             0 MiB given to the printing process from OS
             0 MiB allocation reported by mallinfo(arena+hblkhd)
         22595 MiB available memory on the node where the printing process lives
------------------
     ethr =  5.56E-06,  avg # of iterations =  7.3

     negative rho (up, down):  7.932E-01 0.000E+00

     total cpu time spent up to now is      432.0 secs

     total energy              =   -4441.66579205 Ry
     estimated scf accuracy    <       0.01830458 Ry

     iteration # 24     ecut=    60.00 Ry     beta= 0.15
     Davidson diagonalization with overlap

---- Real-time Memory Report at c_bands before calling an iterative solver
             0 MiB given to the printing process from OS
             0 MiB allocation reported by mallinfo(arena+hblkhd)
         22640 MiB available memory on the node where the printing process lives
------------------
     ethr =  4.25E-06,  avg # of iterations =  8.9

     negative rho (up, down):  7.977E-01 0.000E+00

     total cpu time spent up to now is      453.3 secs

     total energy              =   -4441.66532176 Ry
     estimated scf accuracy    <       0.01118722 Ry

     iteration # 25     ecut=    60.00 Ry     beta= 0.15
     Davidson diagonalization with overlap

---- Real-time Memory Report at c_bands before calling an iterative solver
             0 MiB given to the printing process from OS
             0 MiB allocation reported by mallinfo(arena+hblkhd)
         22676 MiB available memory on the node where the printing process lives
------------------
     c_bands:  1 eigenvalues not converged
     ethr =  2.60E-06,  avg # of iterations =  9.7

     negative rho (up, down):  7.987E-01 0.000E+00

     total cpu time spent up to now is      476.1 secs

     total energy              =   -4441.66479326 Ry
     estimated scf accuracy    <       0.00453315 Ry

     iteration # 26     ecut=    60.00 Ry     beta= 0.15
     Davidson diagonalization with overlap

---- Real-time Memory Report at c_bands before calling an iterative solver
             0 MiB given to the printing process from OS
             0 MiB allocation reported by mallinfo(arena+hblkhd)
         22642 MiB available memory on the node where the printing process lives
------------------
     ethr =  1.05E-06,  avg # of iterations =  8.1

     negative rho (up, down):  7.979E-01 0.000E+00

     total cpu time spent up to now is      497.0 secs

     total energy              =   -4441.66490078 Ry
     estimated scf accuracy    <       0.00153187 Ry

     iteration # 27     ecut=    60.00 Ry     beta= 0.15
     Davidson diagonalization with overlap

---- Real-time Memory Report at c_bands before calling an iterative solver
             0 MiB given to the printing process from OS
             0 MiB allocation reported by mallinfo(arena+hblkhd)
         22590 MiB available memory on the node where the printing process lives
------------------
     ethr =  3.55E-07,  avg # of iterations =  8.2

     negative rho (up, down):  7.970E-01 0.000E+00

     total cpu time spent up to now is      518.0 secs

     total energy              =   -4441.66492619 Ry
     estimated scf accuracy    <       0.00077326 Ry

     iteration # 28     ecut=    60.00 Ry     beta= 0.15
     Davidson diagonalization with overlap

---- Real-time Memory Report at c_bands before calling an iterative solver
             0 MiB given to the printing process from OS
             0 MiB allocation reported by mallinfo(arena+hblkhd)
         22578 MiB available memory on the node where the printing process lives
------------------
     ethr =  1.79E-07,  avg # of iterations =  2.1

     negative rho (up, down):  7.941E-01 0.000E+00

     total cpu time spent up to now is      535.2 secs

     total energy              =   -4441.66484300 Ry
     estimated scf accuracy    <       0.00051087 Ry

     iteration # 29     ecut=    60.00 Ry     beta= 0.15
     Davidson diagonalization with overlap

---- Real-time Memory Report at c_bands before calling an iterative solver
             0 MiB given to the printing process from OS
             0 MiB allocation reported by mallinfo(arena+hblkhd)
         22589 MiB available memory on the node where the printing process lives
------------------
     ethr =  1.19E-07,  avg # of iterations =  9.9

     negative rho (up, down):  7.932E-01 0.000E+00

     total cpu time spent up to now is      557.2 secs

     total energy              =   -4441.66485375 Ry
     estimated scf accuracy    <       0.00017299 Ry

     iteration # 30     ecut=    60.00 Ry     beta= 0.15
     Davidson diagonalization with overlap

---- Real-time Memory Report at c_bands before calling an iterative solver
             0 MiB given to the printing process from OS
             0 MiB allocation reported by mallinfo(arena+hblkhd)
         22572 MiB available memory on the node where the printing process lives
------------------
     ethr =  4.01E-08,  avg # of iterations =  3.6

     negative rho (up, down):  7.928E-01 0.000E+00

     total cpu time spent up to now is      576.1 secs

     total energy              =   -4441.66485593 Ry
     estimated scf accuracy    <       0.00008923 Ry

     iteration # 31     ecut=    60.00 Ry     beta= 0.15
     Davidson diagonalization with overlap

---- Real-time Memory Report at c_bands before calling an iterative solver
             0 MiB given to the printing process from OS
             0 MiB allocation reported by mallinfo(arena+hblkhd)
         22574 MiB available memory on the node where the printing process lives
------------------
     ethr =  2.07E-08,  avg # of iterations =  2.2

     negative rho (up, down):  7.928E-01 0.000E+00

     total cpu time spent up to now is      593.4 secs

     total energy              =   -4441.66485303 Ry
     estimated scf accuracy    <       0.00003921 Ry

     iteration # 32     ecut=    60.00 Ry     beta= 0.15
     Davidson diagonalization with overlap

---- Real-time Memory Report at c_bands before calling an iterative solver
             0 MiB given to the printing process from OS
             0 MiB allocation reported by mallinfo(arena+hblkhd)
         22581 MiB available memory on the node where the printing process lives
------------------
     ethr =  9.10E-09,  avg # of iterations =  3.0

     negative rho (up, down):  7.926E-01 0.000E+00

     total cpu time spent up to now is      612.3 secs

     total energy              =   -4441.66485549 Ry
     estimated scf accuracy    <       0.00001356 Ry

     iteration # 33     ecut=    60.00 Ry     beta= 0.15
     Davidson diagonalization with overlap

---- Real-time Memory Report at c_bands before calling an iterative solver
             0 MiB given to the printing process from OS
             0 MiB allocation reported by mallinfo(arena+hblkhd)
         22582 MiB available memory on the node where the printing process lives
------------------
     ethr =  3.15E-09,  avg # of iterations =  2.0

     negative rho (up, down):  7.926E-01 0.000E+00

     total cpu time spent up to now is      629.2 secs

     total energy              =   -4441.66485631 Ry
     estimated scf accuracy    <       0.00000771 Ry

     iteration # 34     ecut=    60.00 Ry     beta= 0.15
     Davidson diagonalization with overlap

---- Real-time Memory Report at c_bands before calling an iterative solver
             0 MiB given to the printing process from OS
             0 MiB allocation reported by mallinfo(arena+hblkhd)
         22603 MiB available memory on the node where the printing process lives
------------------
     ethr =  1.79E-09,  avg # of iterations =  1.3

     negative rho (up, down):  7.925E-01 0.000E+00

     total cpu time spent up to now is      645.2 secs

     total energy              =   -4441.66485751 Ry
     estimated scf accuracy    <       0.00000469 Ry

     iteration # 35     ecut=    60.00 Ry     beta= 0.15
     Davidson diagonalization with overlap

---- Real-time Memory Report at c_bands before calling an iterative solver
             0 MiB given to the printing process from OS
             0 MiB allocation reported by mallinfo(arena+hblkhd)
         22610 MiB available memory on the node where the printing process lives
------------------
     ethr =  1.09E-09,  avg # of iterations =  2.2

     negative rho (up, down):  7.923E-01 0.000E+00

     total cpu time spent up to now is      662.2 secs

     total energy              =   -4441.66485917 Ry
     estimated scf accuracy    <       0.00000361 Ry

     iteration # 36     ecut=    60.00 Ry     beta= 0.15
     Davidson diagonalization with overlap

---- Real-time Memory Report at c_bands before calling an iterative solver
             0 MiB given to the printing process from OS
             0 MiB allocation reported by mallinfo(arena+hblkhd)
         22618 MiB available memory on the node where the printing process lives
------------------
     ethr =  8.38E-10,  avg # of iterations =  3.0

     negative rho (up, down):  7.923E-01 0.000E+00

     total cpu time spent up to now is      679.7 secs

     total energy              =   -4441.66485982 Ry
     estimated scf accuracy    <       0.00000109 Ry

     iteration # 37     ecut=    60.00 Ry     beta= 0.15
     Davidson diagonalization with overlap

---- Real-time Memory Report at c_bands before calling an iterative solver
             0 MiB given to the printing process from OS
             0 MiB allocation reported by mallinfo(arena+hblkhd)
         22623 MiB available memory on the node where the printing process lives
------------------
     ethr =  2.54E-10,  avg # of iterations =  3.6

     negative rho (up, down):  7.924E-01 0.000E+00

     total cpu time spent up to now is      697.7 secs

     total energy              =   -4441.66486000 Ry
     estimated scf accuracy    <       0.00000073 Ry

     iteration # 38     ecut=    60.00 Ry     beta= 0.15
     Davidson diagonalization with overlap

---- Real-time Memory Report at c_bands before calling an iterative solver
             0 MiB given to the printing process from OS
             0 MiB allocation reported by mallinfo(arena+hblkhd)
         22635 MiB available memory on the node where the printing process lives
------------------
     ethr =  1.69E-10,  avg # of iterations =  2.2

     negative rho (up, down):  7.924E-01 0.000E+00

     total cpu time spent up to now is      714.7 secs

     total energy              =   -4441.66486007 Ry
     estimated scf accuracy    <       0.00000054 Ry

     iteration # 39     ecut=    60.00 Ry     beta= 0.15
     Davidson diagonalization with overlap

---- Real-time Memory Report at c_bands before calling an iterative solver
             0 MiB given to the printing process from OS
             0 MiB allocation reported by mallinfo(arena+hblkhd)
         22633 MiB available memory on the node where the printing process lives
------------------
     ethr =  1.25E-10,  avg # of iterations =  2.0

     negative rho (up, down):  7.924E-01 0.000E+00

     total cpu time spent up to now is      731.6 secs

     total energy              =   -4441.66486012 Ry
     estimated scf accuracy    <       0.00000042 Ry

     iteration # 40     ecut=    60.00 Ry     beta= 0.15
     Davidson diagonalization with overlap

---- Real-time Memory Report at c_bands before calling an iterative solver
             0 MiB given to the printing process from OS
             0 MiB allocation reported by mallinfo(arena+hblkhd)
         22634 MiB available memory on the node where the printing process lives
------------------
     ethr =  9.71E-11,  avg # of iterations =  2.4

     negative rho (up, down):  7.925E-01 0.000E+00

     total cpu time spent up to now is      748.8 secs

     total energy              =   -4441.66486016 Ry
     estimated scf accuracy    <       0.00000032 Ry

     iteration # 41     ecut=    60.00 Ry     beta= 0.15
     Davidson diagonalization with overlap

---- Real-time Memory Report at c_bands before calling an iterative solver
             0 MiB given to the printing process from OS
             0 MiB allocation reported by mallinfo(arena+hblkhd)
         22632 MiB available memory on the node where the printing process lives
------------------
     ethr =  7.34E-11,  avg # of iterations =  2.1

     negative rho (up, down):  7.925E-01 0.000E+00

     total cpu time spent up to now is      765.9 secs

     total energy              =   -4441.66486017 Ry
     estimated scf accuracy    <       0.00000024 Ry

     iteration # 42     ecut=    60.00 Ry     beta= 0.15
     Davidson diagonalization with overlap

---- Real-time Memory Report at c_bands before calling an iterative solver
             0 MiB given to the printing process from OS
             0 MiB allocation reported by mallinfo(arena+hblkhd)
         22635 MiB available memory on the node where the printing process lives
------------------
     ethr =  5.63E-11,  avg # of iterations =  2.7

     negative rho (up, down):  7.925E-01 0.000E+00

     total cpu time spent up to now is      783.2 secs

     total energy              =   -4441.66486017 Ry
     estimated scf accuracy    <       0.00000014 Ry

     iteration # 43     ecut=    60.00 Ry     beta= 0.15
     Davidson diagonalization with overlap

---- Real-time Memory Report at c_bands before calling an iterative solver
             0 MiB given to the printing process from OS
             0 MiB allocation reported by mallinfo(arena+hblkhd)
         22635 MiB available memory on the node where the printing process lives
------------------
     ethr =  3.19E-11,  avg # of iterations =  2.7

     negative rho (up, down):  7.925E-01 0.000E+00

     total cpu time spent up to now is      800.6 secs

     total energy              =   -4441.66486018 Ry
     estimated scf accuracy    <       0.00000008 Ry

     iteration # 44     ecut=    60.00 Ry     beta= 0.15
     Davidson diagonalization with overlap

---- Real-time Memory Report at c_bands before calling an iterative solver
             0 MiB given to the printing process from OS
             0 MiB allocation reported by mallinfo(arena+hblkhd)
         22642 MiB available memory on the node where the printing process lives
------------------
     ethr =  1.87E-11,  avg # of iterations =  2.6

     negative rho (up, down):  7.925E-01 0.000E+00

     total cpu time spent up to now is      818.0 secs

     total energy              =   -4441.66486018 Ry
     estimated scf accuracy    <       0.00000005 Ry

     iteration # 45     ecut=    60.00 Ry     beta= 0.15
     Davidson diagonalization with overlap

---- Real-time Memory Report at c_bands before calling an iterative solver
             0 MiB given to the printing process from OS
             0 MiB allocation reported by mallinfo(arena+hblkhd)
         22644 MiB available memory on the node where the printing process lives
------------------
     ethr =  1.15E-11,  avg # of iterations =  2.6

     negative rho (up, down):  7.925E-01 0.000E+00

     total cpu time spent up to now is      835.2 secs

     total energy              =   -4441.66486019 Ry
     estimated scf accuracy    <       0.00000002 Ry

     iteration # 46     ecut=    60.00 Ry     beta= 0.15
     Davidson diagonalization with overlap

---- Real-time Memory Report at c_bands before calling an iterative solver
             0 MiB given to the printing process from OS
             0 MiB allocation reported by mallinfo(arena+hblkhd)
         22640 MiB available memory on the node where the printing process lives
------------------
     ethr =  5.70E-12,  avg # of iterations =  2.7

     negative rho (up, down):  7.925E-01 0.000E+00

     total cpu time spent up to now is      852.7 secs

     total energy              =   -4441.66486019 Ry
     estimated scf accuracy    <       0.00000002 Ry

     iteration # 47     ecut=    60.00 Ry     beta= 0.15
     Davidson diagonalization with overlap

---- Real-time Memory Report at c_bands before calling an iterative solver
             0 MiB given to the printing process from OS
             0 MiB allocation reported by mallinfo(arena+hblkhd)
         22647 MiB available memory on the node where the printing process lives
------------------
     ethr =  3.92E-12,  avg # of iterations =  2.0

     negative rho (up, down):  7.925E-01 0.000E+00

     total cpu time spent up to now is      869.4 secs

     total energy              =   -4441.66486019 Ry
     estimated scf accuracy    <       0.00000001 Ry

     iteration # 48     ecut=    60.00 Ry     beta= 0.15
     Davidson diagonalization with overlap

---- Real-time Memory Report at c_bands before calling an iterative solver
             0 MiB given to the printing process from OS
             0 MiB allocation reported by mallinfo(arena+hblkhd)
         22644 MiB available memory on the node where the printing process lives
------------------
     ethr =  2.89E-12,  avg # of iterations =  2.5

     negative rho (up, down):  7.925E-01 0.000E+00

     total cpu time spent up to now is      886.5 secs

     total energy              =   -4441.66486019 Ry
     estimated scf accuracy    <       0.00000001 Ry

     iteration # 49     ecut=    60.00 Ry     beta= 0.15
     Davidson diagonalization with overlap

---- Real-time Memory Report at c_bands before calling an iterative solver
             0 MiB given to the printing process from OS
             0 MiB allocation reported by mallinfo(arena+hblkhd)
         22654 MiB available memory on the node where the printing process lives
------------------
     ethr =  2.41E-12,  avg # of iterations =  3.1

     negative rho (up, down):  7.925E-01 0.000E+00

     total cpu time spent up to now is      903.8 secs

     End of self-consistent calculation

          k = 0.0000 0.0000 0.0000 ( 65197 PWs)   bands (ev):

   -92.7000 -92.6502 -92.5545 -92.5079 -92.4517 -92.4070 -92.3890 -92.2679
   -56.0534 -56.0369 -55.9116 -55.9007 -55.8947 -55.8876 -55.8529 -55.8235
   -55.8075 -55.8067 -55.8010 -55.7582 -55.7390 -55.7024 -55.6812 -55.6514
   -55.6434 -55.5948 -55.5947 -55.5921 -55.5836 -55.5425 -55.5194 -55.4336
   -31.2773 -31.2578 -31.1255 -31.1162 -31.0291 -31.0100 -30.8166 -30.5162
   -29.8479 -29.8031 -29.7781 -29.6690 -15.0801 -15.0296 -14.9544 -14.8242
   -14.6272 -14.5037 -14.2178 -14.1963 -14.1681 -14.1235 -14.0730 -14.0610
   -14.0549 -14.0330 -14.0137 -13.9850 -13.9707 -13.9293 -13.7769 -13.5930
   -13.5639 -13.5347 -13.4979 -13.4831 -13.4286 -13.3933 -13.3218 -13.2496
   -13.1353 -13.1182 -13.1094 -13.0898 -13.0741 -13.0561 -13.0096 -13.0029
   -12.9809 -12.9572 -12.9282 -12.9220 -12.9086 -12.8971 -12.8712 -12.7801
   -12.7563 -12.7333 -12.5296 -12.5155 -12.4466 -12.3417 -12.1959 -11.9756
   -11.8974 -11.8598 -11.7866 -11.7755 -11.7513 -11.7339 -11.6707 -11.6535
   -11.6188 -11.5907 -11.4769 -11.3983 -11.3946  -2.9394  -2.7077  -2.4781
    -2.3301  -2.2680  -2.1265  -1.8183  -1.8040  -1.7855  -1.6988  -1.6803
    -1.6124  -1.5959  -1.5547  -1.5123  -1.3299  -1.1781  -1.1041  -1.0722
    -0.9299  -0.9150  -0.8666  -0.8482  -0.8027  -0.7864  -0.7326  -0.7057
    -0.6290  -0.6183  -0.5457  -0.4133  -0.4015  -0.3709  -0.2908  -0.2637
    -0.2319  -0.1973  -0.1251  -0.0704  -0.0278  -0.0014   0.0792   0.1295
     0.1833   0.2032   0.2224   0.4772   0.4914   0.6636   0.7298   0.7959
     0.8480   0.9276   0.9400   0.9553   1.0252   1.0534   1.0862   1.1446
     1.2751   1.3342   1.3556   1.3789   1.3929   1.4519   1.5224   1.6355
     1.6476   1.7096   1.7199   1.7637   1.7798   1.7924   1.8489   1.9112
     1.9166   1.9576   1.9837   2.0310   2.1621   2.2563   2.2918   2.3034
     2.4326   2.4558   2.4694   2.4837   2.5135   2.5233   2.6247   2.6596
     2.6858   2.7054   2.7219   2.8038   2.9092   2.9432   2.9533   2.9588
     3.0265   3.0312   3.0540   3.0622   3.0711   3.0816   3.0909   3.1048
     3.1112   3.1218   3.1306   3.1396   3.1583   3.1792   3.1841   3.1968
     3.2231   3.3373   3.4149   4.1080   4.4335   4.7692   4.8662   5.0510
     5.7833   5.9496   5.9868   6.0060   6.3149   6.3619   6.4812   6.4881
     6.7338   7.0053   7.1006   7.3166   7.4550   7.6314   7.6652   7.6671
     7.7166   7.8466   7.9695   8.0233   8.1124   8.1699   8.4039   8.4873
     8.7278   8.8597   8.8831

     occupation numbers 
     1.0000   1.0000   1.0000   1.0000   1.0000   1.0000   1.0000   1.0000
     1.0000   1.0000   1.0000   1.0000   1.0000   1.0000   1.0000   1.0000
     1.0000   1.0000   1.0000   1.0000   1.0000   1.0000   1.0000   1.0000
     1.0000   1.0000   1.0000   1.0000   1.0000   1.0000   1.0000   1.0000
     1.0000   1.0000   1.0000   1.0000   1.0000   1.0000   1.0000   1.0000
     1.0000   1.0000   1.0000   1.0000   1.0000   1.0000   1.0000   1.0000
     1.0000   1.0000   1.0000   1.0000   1.0000   1.0000   1.0000   1.0000
     1.0000   1.0000   1.0000   1.0000   1.0000   1.0000   1.0000   1.0000
     1.0000   1.0000   1.0000   1.0000   1.0000   1.0000   1.0000   1.0000
     1.0000   1.0000   1.0000   1.0000   1.0000   1.0000   1.0000   1.0000
     1.0000   1.0000   1.0000   1.0000   1.0000   1.0000   1.0000   1.0000
     1.0000   1.0000   1.0000   1.0000   1.0000   1.0000   1.0000   1.0000
     1.0000   1.0000   1.0000   1.0000   1.0000   1.0000   1.0000   1.0000
     1.0000   1.0000   1.0000   1.0000   1.0000   1.0000   1.0000   1.0000
     1.0000   1.0000   1.0000   1.0000   1.0000   1.0000   1.0000   1.0000
     1.0000   1.0000   1.0000   1.0000   1.0000   1.0000   1.0000   1.0000
     1.0000   1.0000   1.0000   1.0000   1.0000   1.0000   1.0000   1.0000
     1.0000   1.0000   1.0000   1.0000   1.0000   1.0000   1.0000   1.0000
     1.0000   1.0000   1.0000   1.0000   1.0000   1.0000   1.0000   1.0000
     1.0000   1.0000   1.0000   1.0000   1.0000   1.0000   0.9999   0.9999
     0.9999   0.9998   0.9998   0.9998   0.9997   0.9996   0.9996   0.9994
     0.9988   0.9985   0.9983   0.9981   0.9980   0.9973   0.9963   0.9940
     0.9937   0.9919   0.9915   0.9899   0.9892   0.9887   0.9859   0.9823
     0.9819   0.9790   0.9770   0.9729   0.9582   0.9442   0.9380   0.9358
     0.9081   0.9023   0.8987   0.8949   0.8866   0.8838   0.8517   0.8394
     0.8297   0.8222   0.8158   0.7816   0.7328   0.7159   0.7108   0.7080
     0.6726   0.6701   0.6577   0.6532   0.6483   0.6425   0.6373   0.6296
     0.6260   0.6200   0.6150   0.6099   0.5992   0.5871   0.5844   0.5770
     0.5616   0.4942   0.4484   0.1233   0.0503   0.0161   0.0112   0.0052
     0.0001   0.0000   0.0000   0.0000   0.0000   0.0000   0.0000   0.0000
     0.0000   0.0000   0.0000   0.0000   0.0000   0.0000   0.0000   0.0000
     0.0000   0.0000   0.0000   0.0000   0.0000   0.0000   0.0000   0.0000
     0.0000   0.0000   0.0000

          k = 0.0000 0.2500 0.0000 ( 65257 PWs)   bands (ev):

   -92.7000 -92.6502 -92.5545 -92.5079 -92.4517 -92.4070 -92.3890 -92.2679
   -56.0534 -56.0369 -55.9116 -55.9007 -55.8947 -55.8876 -55.8529 -55.8235
   -55.8075 -55.8067 -55.8010 -55.7582 -55.7390 -55.7024 -55.6812 -55.6514
   -55.6434 -55.5948 -55.5948 -55.5921 -55.5836 -55.5425 -55.5194 -55.4336
   -31.2772 -31.2576 -31.1253 -31.1164 -31.0292 -31.0103 -30.8165 -30.5164
   -29.8473 -29.8028 -29.7788 -29.6693 -15.0438 -15.0030 -14.9291 -14.7947
   -14.6689 -14.4946 -14.3624 -14.1838 -14.1458 -14.1278 -14.0996 -14.0384
   -14.0329 -14.0155 -13.9976 -13.9735 -13.9474 -13.8476 -13.8075 -13.6466
   -13.6173 -13.5765 -13.5389 -13.4850 -13.4496 -13.3958 -13.3421 -13.3074
   -13.2467 -13.1806 -13.1472 -13.1111 -13.1030 -13.0714 -12.9925 -12.9696
   -12.9389 -12.9265 -12.9017 -12.8667 -12.8541 -12.8358 -12.7983 -12.7609
   -12.7167 -12.6850 -12.4712 -12.4517 -12.4116 -12.4026 -12.2471 -12.0282
   -11.9578 -11.8251 -11.7834 -11.7550 -11.7265 -11.7098 -11.6625 -11.6515
   -11.6290 -11.5951 -11.4913 -11.4398 -11.4293  -2.8039  -2.5834  -2.4452
    -2.2631  -2.2197  -2.0566  -1.8358  -1.7529  -1.7397  -1.6792  -1.5780
    -1.5630  -1.5302  -1.5020  -1.4584  -1.2619  -1.1798  -1.1308  -1.1162
    -1.0430  -1.0328  -0.9294  -0.9005  -0.8407  -0.8153  -0.7764  -0.7116
    -0.6847  -0.6524  -0.6200  -0.6027  -0.5703  -0.4978  -0.4468  -0.3728
    -0.2625  -0.2390  -0.1985  -0.0851  -0.0338   0.0110   0.0619   0.1167
     0.1361   0.1620   0.2278   0.5266   0.6112   0.6474   0.7311   0.7769
     0.8059   0.9112   0.9308   1.0270   1.0532   1.0791   1.1923   1.2908
     1.3095   1.3367   1.3532   1.3762   1.4379   1.4640   1.4933   1.5389
     1.5760   1.6072   1.6982   1.7353   1.7615   1.8135   1.8713   1.9138
     1.9386   1.9612   1.9766   2.0808   2.2057   2.2764   2.2902   2.3619
     2.4063   2.4278   2.4515   2.4644   2.4857   2.5192   2.5558   2.6394
     2.6837   2.7004   2.8666   2.8878   2.9227   2.9450   2.9598   2.9684
     2.9759   2.9844   3.0144   3.0165   3.0342   3.0404   3.0484   3.0672
     3.0798   3.0870   3.1087   3.1202   3.1251   3.1609   3.1770   3.2362
     3.6132   3.6369   3.8801   4.2997   4.4268   4.7174   5.0202   5.0691
     5.6475   5.8189   5.9426   5.9835   6.0857   6.1056   6.1847   6.5956
     6.8667   7.0291   7.1101   7.3307   7.4852   7.5007   7.6451   7.6850
     7.8753   7.9556   8.0204   8.1885   8.2495   8.3768   8.3918   8.4119
     8.6240   8.8384   8.9447

     occupation numbers 
     1.0000   1.0000   1.0000   1.0000   1.0000   1.0000   1.0000   1.0000
     1.0000   1.0000   1.0000   1.0000   1.0000   1.0000   1.0000   1.0000
     1.0000   1.0000   1.0000   1.0000   1.0000   1.0000   1.0000   1.0000
     1.0000   1.0000   1.0000   1.0000   1.0000   1.0000   1.0000   1.0000
     1.0000   1.0000   1.0000   1.0000   1.0000   1.0000   1.0000   1.0000
     1.0000   1.0000   1.0000   1.0000   1.0000   1.0000   1.0000   1.0000
     1.0000   1.0000   1.0000   1.0000   1.0000   1.0000   1.0000   1.0000
     1.0000   1.0000   1.0000   1.0000   1.0000   1.0000   1.0000   1.0000
     1.0000   1.0000   1.0000   1.0000   1.0000   1.0000   1.0000   1.0000
     1.0000   1.0000   1.0000   1.0000   1.0000   1.0000   1.0000   1.0000
     1.0000   1.0000   1.0000   1.0000   1.0000   1.0000   1.0000   1.0000
     1.0000   1.0000   1.0000   1.0000   1.0000   1.0000   1.0000   1.0000
     1.0000   1.0000   1.0000   1.0000   1.0000   1.0000   1.0000   1.0000
     1.0000   1.0000   1.0000   1.0000   1.0000   1.0000   1.0000   1.0000
     1.0000   1.0000   1.0000   1.0000   1.0000   1.0000   1.0000   1.0000
     1.0000   1.0000   1.0000   1.0000   1.0000   1.0000   1.0000   1.0000
     1.0000   1.0000   1.0000   1.0000   1.0000   1.0000   1.0000   1.0000
     1.0000   1.0000   1.0000   1.0000   1.0000   1.0000   1.0000   1.0000
     1.0000   1.0000   1.0000   1.0000   1.0000   1.0000   1.0000   1.0000
     1.0000   1.0000   1.0000   1.0000   1.0000   1.0000   0.9999   0.9999
     0.9999   0.9998   0.9998   0.9997   0.9996   0.9996   0.9992   0.9988
     0.9986   0.9984   0.9983   0.9981   0.9975   0.9972   0.9968   0.9960
     0.9954   0.9947   0.9922   0.9910   0.9900   0.9877   0.9847   0.9821
     0.9804   0.9788   0.9776   0.9679   0.9521   0.9407   0.9383   0.9242
     0.9143   0.9092   0.9034   0.9000   0.8944   0.8850   0.8741   0.8466
     0.8305   0.8241   0.7532   0.7431   0.7261   0.7150   0.7075   0.7031
     0.6992   0.6948   0.6790   0.6779   0.6684   0.6651   0.6607   0.6505
     0.6435   0.6395   0.6274   0.6209   0.6182   0.5977   0.5884   0.5540
     0.3357   0.3230   0.2060   0.0744   0.0513   0.0195   0.0060   0.0049
     0.0003   0.0001   0.0001   0.0000   0.0000   0.0000   0.0000   0.0000
     0.0000   0.0000   0.0000   0.0000   0.0000   0.0000   0.0000   0.0000
     0.0000   0.0000   0.0000   0.0000   0.0000   0.0000   0.0000   0.0000
     0.0000   0.0000   0.0000

          k = 0.0000-0.5000 0.0000 ( 65180 PWs)   bands (ev):

   -92.7000 -92.6502 -92.5545 -92.5079 -92.4517 -92.4070 -92.3890 -92.2679
   -56.0534 -56.0369 -55.9116 -55.9007 -55.8947 -55.8876 -55.8529 -55.8235
   -55.8075 -55.8067 -55.8010 -55.7582 -55.7390 -55.7024 -55.6812 -55.6514
   -55.6434 -55.5948 -55.5947 -55.5921 -55.5836 -55.5425 -55.5194 -55.4336
   -31.2770 -31.2575 -31.1250 -31.1166 -31.0294 -31.0106 -30.8164 -30.5165
   -29.8467 -29.8025 -29.7794 -29.6697 -15.0057 -14.9581 -14.9014 -14.7753
   -14.6918 -14.5574 -14.3955 -14.2804 -14.1564 -14.0843 -14.0395 -14.0342
   -13.9834 -13.9732 -13.9684 -13.9195 -13.8926 -13.8731 -13.8413 -13.7943
   -13.7555 -13.5822 -13.5231 -13.4871 -13.4558 -13.3868 -13.3577 -13.3172
   -13.2826 -13.2726 -13.2173 -13.1128 -13.1034 -13.0531 -13.0023 -12.9643
   -12.9472 -12.9278 -12.8814 -12.8445 -12.8255 -12.7652 -12.7048 -12.6852
   -12.6581 -12.6513 -12.5140 -12.4505 -12.3656 -12.3221 -12.2627 -12.1145
   -12.0586 -11.7803 -11.7768 -11.7498 -11.7126 -11.6783 -11.6672 -11.6248
   -11.6209 -11.5763 -11.5133 -11.4999 -11.4862  -2.5883  -2.5310  -2.3796
    -2.3087  -2.0246  -1.9434  -1.8144  -1.6792  -1.6367  -1.6208  -1.5439
    -1.5124  -1.4287  -1.3947  -1.3145  -1.2784  -1.2394  -1.2122  -1.1899
    -1.1387  -1.1145  -1.0664  -1.0335  -0.9992  -0.9671  -0.8565  -0.8129
    -0.7758  -0.7722  -0.6868  -0.6575  -0.6341  -0.5863  -0.4978  -0.4251
    -0.3316  -0.2991  -0.1907  -0.1708  -0.0288   0.0233   0.0445   0.0852
     0.2111   0.2949   0.3931   0.4633   0.4738   0.5999   0.6657   0.7440
     0.8868   0.9818   1.0159   1.0565   1.0727   1.0996   1.1169   1.1515
     1.1678   1.1831   1.2922   1.3507   1.3818   1.4060   1.6800   1.7081
     1.7278   1.8142   1.8356   1.8753   1.8987   1.9159   1.9384   1.9509
     1.9686   2.0066   2.0325   2.0644   2.0698   2.0999   2.1531   2.2458
     2.2937   2.4275   2.4434   2.4799   2.6045   2.6186   2.6303   2.6729
     2.6803   2.6849   2.7354   2.7472   2.8006   2.8220   2.8992   2.9148
     2.9851   2.9871   3.0119   3.0156   3.0311   3.0344   3.0386   3.0453
     3.0487   3.0610   3.0789   3.0805   3.1461   3.1496   3.1665   3.2219
     4.1255   4.1435   4.2074   4.2624   4.7345   4.9141   5.0253   5.1756
     5.4142   5.4644   5.5859   5.7360   6.0350   6.0482   6.3149   6.4609
     6.8520   6.9503   7.2177   7.2553   7.4006   7.4470   7.7500   7.8750
     7.9094   8.0342   8.1372   8.3295   8.3589   8.4496   8.4910   8.6725
     8.8141   8.8377   8.8793

     occupation numbers 
     1.0000   1.0000   1.0000   1.0000   1.0000   1.0000   1.0000   1.0000
     1.0000   1.0000   1.0000   1.0000   1.0000   1.0000   1.0000   1.0000
     1.0000   1.0000   1.0000   1.0000   1.0000   1.0000   1.0000   1.0000
     1.0000   1.0000   1.0000   1.0000   1.0000   1.0000   1.0000   1.0000
     1.0000   1.0000   1.0000   1.0000   1.0000   1.0000   1.0000   1.0000
     1.0000   1.0000   1.0000   1.0000   1.0000   1.0000   1.0000   1.0000
     1.0000   1.0000   1.0000   1.0000   1.0000   1.0000   1.0000   1.0000
     1.0000   1.0000   1.0000   1.0000   1.0000   1.0000   1.0000   1.0000
     1.0000   1.0000   1.0000   1.0000   1.0000   1.0000   1.0000   1.0000
     1.0000   1.0000   1.0000   1.0000   1.0000   1.0000   1.0000   1.0000
     1.0000   1.0000   1.0000   1.0000   1.0000   1.0000   1.0000   1.0000
     1.0000   1.0000   1.0000   1.0000   1.0000   1.0000   1.0000   1.0000
     1.0000   1.0000   1.0000   1.0000   1.0000   1.0000   1.0000   1.0000
     1.0000   1.0000   1.0000   1.0000   1.0000   1.0000   1.0000   1.0000
     1.0000   1.0000   1.0000   1.0000   1.0000   1.0000   1.0000   1.0000
     1.0000   1.0000   1.0000   1.0000   1.0000   1.0000   1.0000   1.0000
     1.0000   1.0000   1.0000   1.0000   1.0000   1.0000   1.0000   1.0000
     1.0000   1.0000   1.0000   1.0000   1.0000   1.0000   1.0000   1.0000
     1.0000   1.0000   1.0000   1.0000   1.0000   1.0000   1.0000   1.0000
     1.0000   1.0000   1.0000   1.0000   1.0000   1.0000   1.0000   0.9999
     0.9999   0.9998   0.9997   0.9996   0.9996   0.9995   0.9995   0.9994
     0.9993   0.9993   0.9987   0.9983   0.9981   0.9978   0.9928   0.9919
     0.9912   0.9877   0.9866   0.9845   0.9831   0.9820   0.9804   0.9795
     0.9782   0.9751   0.9728   0.9696   0.9691   0.9658   0.9594   0.9459
     0.9376   0.9093   0.9054   0.8959   0.8585   0.8537   0.8497   0.8345
     0.8317   0.8300   0.8104   0.8056   0.7830   0.7736   0.7376   0.7300
     0.6945   0.6934   0.6804   0.6784   0.6701   0.6683   0.6661   0.6624
     0.6606   0.6539   0.6440   0.6431   0.6062   0.6042   0.5945   0.5623
     0.1180   0.1128   0.0957   0.0826   0.0183   0.0092   0.0059   0.0030
     0.0010   0.0008   0.0004   0.0002   0.0000   0.0000   0.0000   0.0000
     0.0000   0.0000   0.0000   0.0000   0.0000   0.0000   0.0000   0.0000
     0.0000   0.0000   0.0000   0.0000   0.0000   0.0000   0.0000   0.0000
     0.0000   0.0000   0.0000

          k = 0.2500 0.2500 0.0000 ( 65198 PWs)   bands (ev):

   -92.7000 -92.6502 -92.5545 -92.5079 -92.4517 -92.4070 -92.3890 -92.2679
   -56.0534 -56.0369 -55.9116 -55.9007 -55.8947 -55.8876 -55.8529 -55.8235
   -55.8075 -55.8067 -55.8010 -55.7582 -55.7390 -55.7024 -55.6812 -55.6514
   -55.6434 -55.5948 -55.5947 -55.5921 -55.5836 -55.5425 -55.5194 -55.4336
   -31.2755 -31.2593 -31.1252 -31.1160 -31.0296 -31.0103 -30.8166 -30.5164
   -29.8463 -29.8038 -29.7784 -29.6697 -15.0146 -14.9680 -14.9010 -14.7845
   -14.6622 -14.5350 -14.4689 -14.2607 -14.1071 -14.0938 -14.0577 -14.0275
   -14.0037 -13.9742 -13.9683 -13.9429 -13.9122 -13.8386 -13.8216 -13.6623
   -13.6476 -13.6162 -13.5993 -13.5297 -13.5081 -13.4265 -13.4222 -13.3001
   -13.2604 -13.2284 -13.1425 -13.1029 -13.0695 -13.0430 -13.0173 -12.9849
   -12.9477 -12.9407 -12.9179 -12.8681 -12.8168 -12.7608 -12.7428 -12.7158
   -12.7112 -12.6376 -12.4684 -12.4526 -12.4431 -12.3151 -12.2762 -12.0484
   -12.0070 -11.7978 -11.7663 -11.7553 -11.7488 -11.6855 -11.6507 -11.6442
   -11.6089 -11.6018 -11.5080 -11.4679 -11.4507  -2.6655  -2.4576  -2.3392
    -2.2443  -2.1242  -2.0599  -1.8605  -1.7171  -1.6988  -1.6665  -1.5726
    -1.5407  -1.4459  -1.4172  -1.3676  -1.2379  -1.1997  -1.1646  -1.1145
    -1.0699  -1.0247  -1.0027  -0.9790  -0.9358  -0.9209  -0.8305  -0.7799
    -0.7116  -0.6635  -0.6335  -0.5865  -0.5714  -0.5071  -0.4577  -0.3941
    -0.3655  -0.2749  -0.2248  -0.1963  -0.1600  -0.1058  -0.0147   0.0074
     0.0359   0.1151   0.1444   0.4128   0.5667   0.5959   0.6594   0.7025
     0.7594   0.8033   0.8733   0.9090   1.1797   1.2438   1.3181   1.3412
     1.3937   1.4207   1.4585   1.4961   1.5122   1.5399   1.5885   1.5932
     1.6091   1.6536   1.6896   1.7312   1.8027   1.8298   1.8445   1.8748
     1.9125   1.9629   1.9881   2.1176   2.1845   2.2207   2.2363   2.3057
     2.3680   2.3960   2.4274   2.4335   2.4649   2.4718   2.4885   2.5823
     2.6241   2.7134   2.8780   2.8950   2.9003   2.9179   2.9330   2.9457
     2.9580   2.9644   2.9754   2.9892   3.0019   3.0190   3.0253   3.0373
     3.0600   3.0709   3.0806   3.1115   3.4119   3.5047   3.5503   3.6210
     3.6430   3.8604   3.9549   4.3126   4.5107   4.7203   4.9883   5.1672
     5.6509   5.7066   5.7818   5.8389   5.8976   6.0845   6.1601   6.2113
     6.8931   6.9557   7.0714   7.3321   7.5522   7.6061   7.7141   7.8587
     7.8910   8.0185   8.1886   8.2302   8.2807   8.3493   8.4428   8.4831
     8.5672   8.7943   8.9125

     occupation numbers 
     1.0000   1.0000   1.0000   1.0000   1.0000   1.0000   1.0000   1.0000
     1.0000   1.0000   1.0000   1.0000   1.0000   1.0000   1.0000   1.0000
     1.0000   1.0000   1.0000   1.0000   1.0000   1.0000   1.0000   1.0000
     1.0000   1.0000   1.0000   1.0000   1.0000   1.0000   1.0000   1.0000
     1.0000   1.0000   1.0000   1.0000   1.0000   1.0000   1.0000   1.0000
     1.0000   1.0000   1.0000   1.0000   1.0000   1.0000   1.0000   1.0000
     1.0000   1.0000   1.0000   1.0000   1.0000   1.0000   1.0000   1.0000
     1.0000   1.0000   1.0000   1.0000   1.0000   1.0000   1.0000   1.0000
     1.0000   1.0000   1.0000   1.0000   1.0000   1.0000   1.0000   1.0000
     1.0000   1.0000   1.0000   1.0000   1.0000   1.0000   1.0000   1.0000
     1.0000   1.0000   1.0000   1.0000   1.0000   1.0000   1.0000   1.0000
     1.0000   1.0000   1.0000   1.0000   1.0000   1.0000   1.0000   1.0000
     1.0000   1.0000   1.0000   1.0000   1.0000   1.0000   1.0000   1.0000
     1.0000   1.0000   1.0000   1.0000   1.0000   1.0000   1.0000   1.0000
     1.0000   1.0000   1.0000   1.0000   1.0000   1.0000   1.0000   1.0000
     1.0000   1.0000   1.0000   1.0000   1.0000   1.0000   1.0000   1.0000
     1.0000   1.0000   1.0000   1.0000   1.0000   1.0000   1.0000   1.0000
     1.0000   1.0000   1.0000   1.0000   1.0000   1.0000   1.0000   1.0000
     1.0000   1.0000   1.0000   1.0000   1.0000   1.0000   1.0000   1.0000
     1.0000   1.0000   1.0000   1.0000   1.0000   1.0000   1.0000   1.0000
     0.9999   0.9999   0.9999   0.9998   0.9993   0.9990   0.9986   0.9984
     0.9980   0.9977   0.9972   0.9967   0.9965   0.9960   0.9951   0.9950
     0.9946   0.9935   0.9925   0.9911   0.9882   0.9869   0.9862   0.9845
     0.9822   0.9786   0.9766   0.9638   0.9552   0.9499   0.9474   0.9354
     0.9229   0.9167   0.9093   0.9078   0.8999   0.8981   0.8936   0.8658
     0.8519   0.8191   0.7478   0.7397   0.7371   0.7285   0.7210   0.7147
     0.7084   0.7051   0.6995   0.6923   0.6856   0.6766   0.6732   0.6667
     0.6544   0.6484   0.6431   0.6258   0.4501   0.3962   0.3704   0.3315
     0.3198   0.2144   0.1758   0.0718   0.0395   0.0193   0.0068   0.0032
     0.0003   0.0002   0.0001   0.0001   0.0001   0.0000   0.0000   0.0000
     0.0000   0.0000   0.0000   0.0000   0.0000   0.0000   0.0000   0.0000
     0.0000   0.0000   0.0000   0.0000   0.0000   0.0000   0.0000   0.0000
     0.0000   0.0000   0.0000

          k = 0.2500-0.5000 0.0000 ( 65138 PWs)   bands (ev):

   -92.7000 -92.6502 -92.5545 -92.5079 -92.4517 -92.4070 -92.3890 -92.2679
   -56.0534 -56.0369 -55.9116 -55.9007 -55.8947 -55.8876 -55.8529 -55.8235
   -55.8075 -55.8067 -55.8010 -55.7582 -55.7390 -55.7024 -55.6812 -55.6514
   -55.6434 -55.5948 -55.5947 -55.5921 -55.5836 -55.5425 -55.5194 -55.4336
   -31.2753 -31.2592 -31.1249 -31.1162 -31.0298 -31.0105 -30.8165 -30.5165
   -29.8457 -29.8034 -29.7790 -29.6701 -14.9746 -14.9311 -14.8580 -14.7465
   -14.7145 -14.5979 -14.5013 -14.3762 -14.0722 -14.0173 -13.9916 -13.9731
   -13.9668 -13.9534 -13.9406 -13.9032 -13.8805 -13.8544 -13.8187 -13.7897
   -13.7433 -13.6643 -13.6167 -13.5463 -13.5370 -13.4677 -13.4304 -13.3587
   -13.3253 -13.2062 -13.1416 -13.1236 -13.0484 -13.0222 -12.9945 -12.9807
   -12.9536 -12.9390 -12.9102 -12.8383 -12.8157 -12.7558 -12.7126 -12.6891
   -12.6552 -12.6240 -12.5207 -12.4538 -12.3389 -12.3195 -12.2343 -12.1057
   -12.0626 -11.7738 -11.7614 -11.7506 -11.7236 -11.6922 -11.6635 -11.6226
   -11.5941 -11.5728 -11.5263 -11.5014 -11.4903  -2.4460  -2.3828  -2.2533
    -2.1773  -2.0450  -1.9632  -1.8387  -1.6901  -1.6334  -1.6122  -1.5514
    -1.5385  -1.4395  -1.3742  -1.2894  -1.2378  -1.2302  -1.1832  -1.1622
    -1.1190  -1.0898  -1.0415  -1.0040  -0.9685  -0.9300  -0.9157  -0.8734
    -0.8438  -0.8007  -0.7698  -0.7034  -0.5993  -0.5629  -0.4819  -0.4147
    -0.3600  -0.3232  -0.3060  -0.2383  -0.0903  -0.0761   0.0338   0.0553
     0.0634   0.1082   0.1523   0.1807   0.2198   0.2800   0.5659   0.6764
     0.7130   0.7674   1.0521   1.0611   1.1510   1.1790   1.3408   1.3778
     1.4159   1.4400   1.4528   1.4746   1.5384   1.5887   1.6216   1.6932
     1.8074   1.8324   1.8521   1.8589   1.8988   1.9096   1.9270   1.9674
     1.9731   1.9961   2.0225   2.0389   2.0623   2.0967   2.1538   2.2007
     2.2860   2.4054   2.4318   2.4774   2.5568   2.5731   2.5912   2.6240
     2.6484   2.6742   2.6942   2.7082   2.7328   2.8274   2.8785   2.8968
     2.9026   2.9142   2.9344   2.9479   2.9677   2.9754   3.0123   3.0206
     3.0348   3.0417   3.0507   3.0611   3.5769   3.6039   3.7436   3.8001
     4.1305   4.1872   4.2088   4.3211   4.7548   4.9348   5.0617   5.1448
     5.3059   5.4342   5.6078   5.6502   5.7703   5.7932   6.3918   6.4180
     6.4886   6.5742   7.2598   7.4058   7.5770   7.7049   7.8000   7.8692
     7.9328   8.0444   8.2650   8.4015   8.4868   8.5369   8.5486   8.5619
     8.7095   8.7678   8.7935

     occupation numbers 
     1.0000   1.0000   1.0000   1.0000   1.0000   1.0000   1.0000   1.0000
     1.0000   1.0000   1.0000   1.0000   1.0000   1.0000   1.0000   1.0000
     1.0000   1.0000   1.0000   1.0000   1.0000   1.0000   1.0000   1.0000
     1.0000   1.0000   1.0000   1.0000   1.0000   1.0000   1.0000   1.0000
     1.0000   1.0000   1.0000   1.0000   1.0000   1.0000   1.0000   1.0000
     1.0000   1.0000   1.0000   1.0000   1.0000   1.0000   1.0000   1.0000
     1.0000   1.0000   1.0000   1.0000   1.0000   1.0000   1.0000   1.0000
     1.0000   1.0000   1.0000   1.0000   1.0000   1.0000   1.0000   1.0000
     1.0000   1.0000   1.0000   1.0000   1.0000   1.0000   1.0000   1.0000
     1.0000   1.0000   1.0000   1.0000   1.0000   1.0000   1.0000   1.0000
     1.0000   1.0000   1.0000   1.0000   1.0000   1.0000   1.0000   1.0000
     1.0000   1.0000   1.0000   1.0000   1.0000   1.0000   1.0000   1.0000
     1.0000   1.0000   1.0000   1.0000   1.0000   1.0000   1.0000   1.0000
     1.0000   1.0000   1.0000   1.0000   1.0000   1.0000   1.0000   1.0000
     1.0000   1.0000   1.0000   1.0000   1.0000   1.0000   1.0000   1.0000
     1.0000   1.0000   1.0000   1.0000   1.0000   1.0000   1.0000   1.0000
     1.0000   1.0000   1.0000   1.0000   1.0000   1.0000   1.0000   1.0000
     1.0000   1.0000   1.0000   1.0000   1.0000   1.0000   1.0000   1.0000
     1.0000   1.0000   1.0000   1.0000   1.0000   1.0000   1.0000   1.0000
     1.0000   1.0000   1.0000   1.0000   1.0000   1.0000   1.0000   1.0000
     0.9999   0.9999   0.9996   0.9996   0.9994   0.9993   0.9984   0.9981
     0.9977   0.9975   0.9973   0.9970   0.9961   0.9951   0.9943   0.9924
     0.9880   0.9868   0.9858   0.9854   0.9831   0.9824   0.9812   0.9783
     0.9779   0.9760   0.9737   0.9722   0.9699   0.9662   0.9593   0.9529
     0.9390   0.9145   0.9083   0.8966   0.8738   0.8687   0.8629   0.8519
     0.8434   0.8340   0.8265   0.8211   0.8114   0.7712   0.7475   0.7388
     0.7360   0.7303   0.7203   0.7135   0.7034   0.6995   0.6801   0.6757
     0.6681   0.6644   0.6595   0.6538   0.3556   0.3408   0.2683   0.2414
     0.1166   0.1009   0.0953   0.0701   0.0170   0.0085   0.0050   0.0035
     0.0017   0.0009   0.0004   0.0003   0.0001   0.0001   0.0000   0.0000
     0.0000   0.0000   0.0000   0.0000   0.0000   0.0000   0.0000   0.0000
     0.0000   0.0000   0.0000   0.0000   0.0000   0.0000   0.0000   0.0000
     0.0000   0.0000   0.0000

          k =-0.5000-0.5000 0.0000 ( 65132 PWs)   bands (ev):

   -92.7000 -92.6502 -92.5545 -92.5079 -92.4517 -92.4070 -92.3890 -92.2679
   -56.0534 -56.0369 -55.9116 -55.9007 -55.8947 -55.8876 -55.8529 -55.8235
   -55.8075 -55.8067 -55.8010 -55.7582 -55.7390 -55.7024 -55.6812 -55.6514
   -55.6434 -55.5948 -55.5947 -55.5921 -55.5836 -55.5425 -55.5194 -55.4336
   -31.2732 -31.2613 -31.1248 -31.1159 -31.0301 -31.0105 -30.8166 -30.5166
   -29.8447 -29.8044 -29.7786 -29.6705 -14.9265 -14.9038 -14.7868 -14.7706
   -14.6780 -14.6433 -14.6090 -14.4749 -13.9815 -13.9727 -13.9696 -13.9346
   -13.9195 -13.8988 -13.8769 -13.8583 -13.8460 -13.8309 -13.8242 -13.8095
   -13.7320 -13.7248 -13.6960 -13.6620 -13.6256 -13.5561 -13.4895 -13.3960
   -13.3708 -13.1565 -13.1212 -13.0498 -13.0254 -13.0192 -12.9923 -12.9830
   -12.9736 -12.9555 -12.9339 -12.8246 -12.7888 -12.7584 -12.7495 -12.7163
   -12.6054 -12.5975 -12.5369 -12.4581 -12.3183 -12.3120 -12.2066 -12.0974
   -12.0669 -11.7698 -11.7583 -11.7405 -11.7231 -11.6887 -11.6699 -11.6359
   -11.5736 -11.5553 -11.5490 -11.4994 -11.4962  -2.2204  -2.1464  -2.1390
    -2.0665  -2.0272  -1.9489  -1.8807  -1.7555  -1.6403  -1.6104  -1.5676
    -1.5132  -1.4421  -1.4262  -1.3566  -1.3149  -1.1999  -1.1796  -1.1591
    -1.1191  -1.0914  -1.0267  -0.9784  -0.9608  -0.9476  -0.8932  -0.8517
    -0.8332  -0.7214  -0.6635  -0.6152  -0.5684  -0.5413  -0.5255  -0.4929
    -0.4509  -0.4109  -0.4050  -0.3192  -0.2473  -0.2088  -0.1771  -0.1087
    -0.0416  -0.0397   0.0278   0.0538   0.0580   0.0724   0.5347   0.6177
     0.6571   0.6796   1.0742   1.0907   1.1205   1.1567   1.4272   1.4445
     1.4530   1.4935   1.6203   1.7145   1.7419   1.7792   1.8129   1.8217
     1.8334   1.8634   1.8770   1.8986   1.9119   1.9478   1.9544   1.9793
     2.0052   2.0181   2.0294   2.0729   2.0943   2.1099   2.1421   2.1740
     2.2339   2.3012   2.4252   2.4757   2.5704   2.6013   2.6221   2.6391
     2.6532   2.6816   2.6847   2.7041   2.7155   2.7321   2.7536   2.7656
     2.8290   2.8318   2.8528   2.8676   2.8798   2.9003   2.9064   2.9144
     3.0176   3.0247   3.0464   3.0580   4.0007   4.0465   4.0604   4.1088
     4.3196   4.3926   4.4194   4.6596   4.7822   4.8648   4.9942   5.0847
     5.1003   5.2087   5.2999   5.4372   5.8551   5.8883   5.9573   6.0300
     6.5845   6.7597   7.0343   7.1821   7.9107   7.9225   7.9576   7.9772
     8.0017   8.0528   8.1010   8.2734   8.4092   8.5880   8.6222   8.6317
     8.6654   8.7193   8.7468

     occupation numbers 
     1.0000   1.0000   1.0000   1.0000   1.0000   1.0000   1.0000   1.0000
     1.0000   1.0000   1.0000   1.0000   1.0000   1.0000   1.0000   1.0000
     1.0000   1.0000   1.0000   1.0000   1.0000   1.0000   1.0000   1.0000
     1.0000   1.0000   1.0000   1.0000   1.0000   1.0000   1.0000   1.0000
     1.0000   1.0000   1.0000   1.0000   1.0000   1.0000   1.0000   1.0000
     1.0000   1.0000   1.0000   1.0000   1.0000   1.0000   1.0000   1.0000
     1.0000   1.0000   1.0000   1.0000   1.0000   1.0000   1.0000   1.0000
     1.0000   1.0000   1.0000   1.0000   1.0000   1.0000   1.0000   1.0000
     1.0000   1.0000   1.0000   1.0000   1.0000   1.0000   1.0000   1.0000
     1.0000   1.0000   1.0000   1.0000   1.0000   1.0000   1.0000   1.0000
     1.0000   1.0000   1.0000   1.0000   1.0000   1.0000   1.0000   1.0000
     1.0000   1.0000   1.0000   1.0000   1.0000   1.0000   1.0000   1.0000
     1.0000   1.0000   1.0000   1.0000   1.0000   1.0000   1.0000   1.0000
     1.0000   1.0000   1.0000   1.0000   1.0000   1.0000   1.0000   1.0000
     1.0000   1.0000   1.0000   1.0000   1.0000   1.0000   1.0000   1.0000
     1.0000   1.0000   1.0000   1.0000   1.0000   1.0000   1.0000   1.0000
     1.0000   1.0000   1.0000   1.0000   1.0000   1.0000   1.0000   1.0000
     1.0000   1.0000   1.0000   1.0000   1.0000   1.0000   1.0000   1.0000
     1.0000   1.0000   1.0000   1.0000   1.0000   1.0000   1.0000   1.0000
     1.0000   1.0000   1.0000   1.0000   1.0000   1.0000   1.0000   1.0000
     1.0000   1.0000   0.9996   0.9996   0.9995   0.9994   0.9976   0.9974
     0.9973   0.9968   0.9944   0.9917   0.9907   0.9893   0.9877   0.9873
     0.9867   0.9852   0.9844   0.9831   0.9822   0.9798   0.9793   0.9774
     0.9752   0.9741   0.9731   0.9688   0.9665   0.9647   0.9608   0.9566
     0.9478   0.9362   0.9099   0.8971   0.8696   0.8596   0.8526   0.8467
     0.8417   0.8312   0.8301   0.8227   0.8183   0.8117   0.8030   0.7980
     0.7704   0.7692   0.7596   0.7527   0.7469   0.7371   0.7341   0.7302
     0.6773   0.6735   0.6618   0.6555   0.1588   0.1429   0.1383   0.1230
     0.0704   0.0569   0.0525   0.0240   0.0154   0.0112   0.0067   0.0045
     0.0042   0.0026   0.0017   0.0009   0.0001   0.0001   0.0000   0.0000
     0.0000   0.0000   0.0000   0.0000   0.0000   0.0000   0.0000   0.0000
[...]
     0.3552   0.3259   0.2035   0.0777   0.0462   0.0219   0.0060   0.0047
     0.0003   0.0001   0.0001   0.0000   0.0000   0.0000   0.0000   0.0000
     0.0000   0.0000   0.0000   0.0000   0.0000   0.0000   0.0000   0.0000
     0.0000   0.0000   0.0000   0.0000   0.0000   0.0000   0.0000   0.0000
     0.0000   0.0000   0.0000

          k =-0.5000 0.0000 0.0000 ( 65180 PWs)   bands (ev):

   -92.7000 -92.6502 -92.5545 -92.5079 -92.4517 -92.4070 -92.3890 -92.2679
   -56.0534 -56.0369 -55.9116 -55.9007 -55.8947 -55.8876 -55.8529 -55.8235
   -55.8075 -55.8067 -55.8010 -55.7582 -55.7390 -55.7024 -55.6812 -55.6514
   -55.6434 -55.5948 -55.5947 -55.5921 -55.5836 -55.5425 -55.5194 -55.4336
   -31.2735 -31.2616 -31.1254 -31.1155 -31.0299 -31.0099 -30.8168 -30.5164
   -29.8459 -29.8051 -29.7774 -29.6698 -15.0128 -14.9563 -14.8956 -14.7896
   -14.6849 -14.5429 -14.3885 -14.2566 -14.1311 -14.1171 -14.1074 -14.0403
   -13.9895 -13.9729 -13.9541 -13.9058 -13.8982 -13.8795 -13.8365 -13.8198
   -13.7073 -13.5540 -13.5113 -13.4921 -13.4853 -13.4013 -13.3630 -13.2956
   -13.2673 -13.2436 -13.2296 -13.0968 -13.0537 -13.0411 -13.0185 -13.0090
   -12.9729 -12.9451 -12.9263 -12.9098 -12.8925 -12.7415 -12.6398 -12.6307
   -12.5933 -12.5601 -12.5400 -12.4502 -12.4323 -12.3283 -12.3253 -12.0962
   -12.0437 -11.7778 -11.7555 -11.7493 -11.7334 -11.7154 -11.6744 -11.6120
   -11.5950 -11.5628 -11.5152 -11.5065 -11.4914  -2.5789  -2.5412  -2.3776
    -2.3388  -2.0235  -1.9482  -1.8010  -1.6844  -1.6446  -1.5987  -1.5505
    -1.5274  -1.4036  -1.3596  -1.3428  -1.2622  -1.2272  -1.2108  -1.1872
    -1.1689  -1.1158  -1.0514  -1.0244  -0.9919  -0.8980  -0.8520  -0.8016
    -0.7701  -0.7491  -0.7178  -0.6709  -0.6463  -0.6035  -0.5034  -0.4378
    -0.3617  -0.3045  -0.1343  -0.1104  -0.0547  -0.0077   0.0547   0.0697
     0.2039   0.2339   0.2723   0.4427   0.5416   0.5906   0.6743   0.7563
     0.8628   0.8787   1.0114   1.0356   1.0883   1.1189   1.1524   1.1692
     1.2108   1.2381   1.3090   1.3499   1.3971   1.4079   1.7102   1.7233
     1.7445   1.7635   1.8669   1.8770   1.8908   1.8962   1.9268   1.9420
     1.9796   1.9984   2.0231   2.0789   2.0963   2.1469   2.1675   2.2242
     2.3283   2.4319   2.4388   2.4755   2.5079   2.5253   2.6023   2.6275
     2.6598   2.7265   2.7357   2.7418   2.7719   2.8382   2.8849   2.9344
     2.9591   3.0014   3.0064   3.0068   3.0187   3.0337   3.0451   3.0598
     3.0636   3.0858   3.0888   3.1103   3.1302   3.1358   3.2665   3.2702
     4.0616   4.1404   4.2026   4.3212   4.7950   4.8736   5.0468   5.0536
     5.4852   5.5106   5.6075   5.6581   6.0378   6.0469   6.2307   6.5752
     6.7984   7.0045   7.2762   7.3165   7.4056   7.4457   7.6938   7.7780
     7.8466   7.8904   8.2123   8.2810   8.3873   8.5051   8.5615   8.6619
     8.7620   8.7959   8.9530

     occupation numbers 
     1.0000   1.0000   1.0000   1.0000   1.0000   1.0000   1.0000   1.0000
     1.0000   1.0000   1.0000   1.0000   1.0000   1.0000   1.0000   1.0000
     1.0000   1.0000   1.0000   1.0000   1.0000   1.0000   1.0000   1.0000
     1.0000   1.0000   1.0000   1.0000   1.0000   1.0000   1.0000   1.0000
     1.0000   1.0000   1.0000   1.0000   1.0000   1.0000   1.0000   1.0000
     1.0000   1.0000   1.0000   1.0000   1.0000   1.0000   1.0000   1.0000
     1.0000   1.0000   1.0000   1.0000   1.0000   1.0000   1.0000   1.0000
     1.0000   1.0000   1.0000   1.0000   1.0000   1.0000   1.0000   1.0000
     1.0000   1.0000   1.0000   1.0000   1.0000   1.0000   1.0000   1.0000
     1.0000   1.0000   1.0000   1.0000   1.0000   1.0000   1.0000   1.0000
     1.0000   1.0000   1.0000   1.0000   1.0000   1.0000   1.0000   1.0000
     1.0000   1.0000   1.0000   1.0000   1.0000   1.0000   1.0000   1.0000
     1.0000   1.0000   1.0000   1.0000   1.0000   1.0000   1.0000   1.0000
     1.0000   1.0000   1.0000   1.0000   1.0000   1.0000   1.0000   1.0000
     1.0000   1.0000   1.0000   1.0000   1.0000   1.0000   1.0000   1.0000
     1.0000   1.0000   1.0000   1.0000   1.0000   1.0000   1.0000   1.0000
     1.0000   1.0000   1.0000   1.0000   1.0000   1.0000   1.0000   1.0000
     1.0000   1.0000   1.0000   1.0000   1.0000   1.0000   1.0000   1.0000
     1.0000   1.0000   1.0000   1.0000   1.0000   1.0000   1.0000   1.0000
     1.0000   1.0000   1.0000   1.0000   1.0000   1.0000   1.0000   0.9999
     0.9999   0.9999   0.9997   0.9997   0.9996   0.9995   0.9994   0.9993
     0.9992   0.9990   0.9986   0.9983   0.9979   0.9978   0.9918   0.9914
     0.9906   0.9899   0.9850   0.9844   0.9836   0.9832   0.9812   0.9802
     0.9773   0.9758   0.9736   0.9681   0.9662   0.9602   0.9575   0.9493
     0.9311   0.9082   0.9065   0.8971   0.8882   0.8832   0.8592   0.8507
     0.8393   0.8139   0.8102   0.8078   0.7953   0.7663   0.7445   0.7203
     0.7078   0.6859   0.6833   0.6830   0.6768   0.6687   0.6625   0.6546
     0.6525   0.6402   0.6385   0.6265   0.6152   0.6121   0.5361   0.5339
     0.1379   0.1137   0.0969   0.0701   0.0147   0.0108   0.0053   0.0052
     0.0007   0.0006   0.0004   0.0003   0.0000   0.0000   0.0000   0.0000
     0.0000   0.0000   0.0000   0.0000   0.0000   0.0000   0.0000   0.0000
     0.0000   0.0000   0.0000   0.0000   0.0000   0.0000   0.0000   0.0000
     0.0000   0.0000   0.0000

          k =-0.2500 0.2500 0.0000 ( 65198 PWs)   bands (ev):

   -92.7000 -92.6502 -92.5545 -92.5079 -92.4517 -92.4070 -92.3890 -92.2679
   -56.0534 -56.0369 -55.9116 -55.9007 -55.8947 -55.8876 -55.8529 -55.8235
   -55.8075 -55.8067 -55.8010 -55.7582 -55.7390 -55.7024 -55.6812 -55.6514
   -55.6434 -55.5948 -55.5947 -55.5921 -55.5836 -55.5425 -55.5194 -55.4336
   -31.2755 -31.2593 -31.1252 -31.1160 -31.0296 -31.0103 -30.8166 -30.5164
   -29.8463 -29.8037 -29.7784 -29.6697 -15.0158 -14.9669 -14.8998 -14.7829
   -14.6679 -14.5406 -14.4605 -14.2507 -14.1138 -14.0846 -14.0707 -14.0217
   -13.9981 -13.9767 -13.9729 -13.9508 -13.9174 -13.8344 -13.8224 -13.6711
   -13.6444 -13.6125 -13.5945 -13.5320 -13.4951 -13.4346 -13.4125 -13.3066
   -13.2682 -13.2225 -13.1462 -13.1052 -13.0566 -13.0376 -13.0083 -12.9883
   -12.9552 -12.9267 -12.9217 -12.8901 -12.8378 -12.7708 -12.7589 -12.7228
   -12.6914 -12.6009 -12.4524 -12.4412 -12.4149 -12.3699 -12.2819 -12.0646
   -11.9877 -11.7969 -11.7760 -11.7482 -11.7365 -11.6952 -11.6603 -11.6373
   -11.6165 -11.5938 -11.5077 -11.4634 -11.4539  -2.6638  -2.4565  -2.3352
    -2.2457  -2.1285  -2.0627  -1.8580  -1.7140  -1.6963  -1.6645  -1.5732
    -1.5396  -1.4454  -1.4112  -1.3846  -1.2463  -1.1879  -1.1753  -1.1161
    -1.0861  -1.0280  -1.0090  -0.9688  -0.9403  -0.8996  -0.8367  -0.7885
    -0.7228  -0.6559  -0.6294  -0.5793  -0.5516  -0.5052  -0.4475  -0.3956
    -0.3623  -0.2556  -0.2277  -0.2127  -0.1715  -0.1082  -0.0199   0.0084
     0.0452   0.1233   0.1381   0.3941   0.5677   0.6044   0.6465   0.7129
     0.7584   0.8077   0.8797   0.9064   1.1879   1.2941   1.3345   1.3681
     1.3739   1.4161   1.4308   1.4773   1.5084   1.5213   1.5468   1.5961
     1.6124   1.6480   1.6701   1.7133   1.8161   1.8222   1.8447   1.8766
     1.9073   1.9481   1.9943   2.1051   2.2185   2.2405   2.2843   2.3022
     2.3673   2.4074   2.4291   2.4383   2.4609   2.4804   2.4906   2.5827
     2.6229   2.7128   2.8858   2.8931   2.9066   2.9160   2.9274   2.9420
     2.9490   2.9663   2.9749   2.9892   2.9989   3.0112   3.0204   3.0276
     3.0615   3.0713   3.0797   3.1135   3.4052   3.4865   3.5526   3.6218
     3.6562   3.8442   3.9637   4.3117   4.5085   4.7218   4.9980   5.1671
     5.6533   5.7032   5.7839   5.8352   5.8985   6.0874   6.1721   6.1972
     6.8877   6.9608   7.0807   7.3168   7.5653   7.6152   7.6747   7.8853
     7.8934   7.9918   8.2081   8.2481   8.3119   8.3445   8.4350   8.4534
     8.5605   8.7881   8.9218

     occupation numbers 
     1.0000   1.0000   1.0000   1.0000   1.0000   1.0000   1.0000   1.0000
     1.0000   1.0000   1.0000   1.0000   1.0000   1.0000   1.0000   1.0000
     1.0000   1.0000   1.0000   1.0000   1.0000   1.0000   1.0000   1.0000
     1.0000   1.0000   1.0000   1.0000   1.0000   1.0000   1.0000   1.0000
     1.0000   1.0000   1.0000   1.0000   1.0000   1.0000   1.0000   1.0000
     1.0000   1.0000   1.0000   1.0000   1.0000   1.0000   1.0000   1.0000
     1.0000   1.0000   1.0000   1.0000   1.0000   1.0000   1.0000   1.0000
     1.0000   1.0000   1.0000   1.0000   1.0000   1.0000   1.0000   1.0000
     1.0000   1.0000   1.0000   1.0000   1.0000   1.0000   1.0000   1.0000
     1.0000   1.0000   1.0000   1.0000   1.0000   1.0000   1.0000   1.0000
     1.0000   1.0000   1.0000   1.0000   1.0000   1.0000   1.0000   1.0000
     1.0000   1.0000   1.0000   1.0000   1.0000   1.0000   1.0000   1.0000
     1.0000   1.0000   1.0000   1.0000   1.0000   1.0000   1.0000   1.0000
     1.0000   1.0000   1.0000   1.0000   1.0000   1.0000   1.0000   1.0000
     1.0000   1.0000   1.0000   1.0000   1.0000   1.0000   1.0000   1.0000
     1.0000   1.0000   1.0000   1.0000   1.0000   1.0000   1.0000   1.0000
     1.0000   1.0000   1.0000   1.0000   1.0000   1.0000   1.0000   1.0000
     1.0000   1.0000   1.0000   1.0000   1.0000   1.0000   1.0000   1.0000
     1.0000   1.0000   1.0000   1.0000   1.0000   1.0000   1.0000   1.0000
     1.0000   1.0000   1.0000   1.0000   1.0000   1.0000   1.0000   0.9999
     0.9999   0.9999   0.9999   0.9998   0.9993   0.9987   0.9985   0.9982
     0.9981   0.9977   0.9976   0.9970   0.9965   0.9963   0.9959   0.9949
     0.9946   0.9937   0.9931   0.9917   0.9876   0.9873   0.9862   0.9844
     0.9825   0.9797   0.9761   0.9653   0.9502   0.9467   0.9393   0.9361
     0.9231   0.9141   0.9089   0.9066   0.9009   0.8958   0.8930   0.8656
     0.8523   0.8194   0.7441   0.7406   0.7340   0.7295   0.7238   0.7165
     0.7130   0.7042   0.6997   0.6923   0.6872   0.6807   0.6759   0.6720
     0.6536   0.6482   0.6436   0.6247   0.4541   0.4067   0.3691   0.3311
     0.3128   0.2215   0.1724   0.0719   0.0398   0.0192   0.0066   0.0032
     0.0003   0.0002   0.0001   0.0001   0.0001   0.0000   0.0000   0.0000
     0.0000   0.0000   0.0000   0.0000   0.0000   0.0000   0.0000   0.0000
     0.0000   0.0000   0.0000   0.0000   0.0000   0.0000   0.0000   0.0000
     0.0000   0.0000   0.0000

          k =-0.5000 0.2500 0.0000 ( 65138 PWs)   bands (ev):

   -92.7000 -92.6502 -92.5545 -92.5079 -92.4517 -92.4070 -92.3890 -92.2679
   -56.0534 -56.0369 -55.9116 -55.9007 -55.8947 -55.8876 -55.8529 -55.8235
   -55.8075 -55.8067 -55.8010 -55.7582 -55.7390 -55.7024 -55.6812 -55.6514
   -55.6434 -55.5948 -55.5947 -55.5921 -55.5836 -55.5425 -55.5194 -55.4336
   -31.2734 -31.2615 -31.1251 -31.1157 -31.0300 -31.0102 -30.8167 -30.5165
   -29.8453 -29.8048 -29.7780 -29.6701 -14.9792 -14.9304 -14.8524 -14.7558
   -14.7144 -14.5898 -14.4948 -14.3715 -14.0642 -14.0331 -14.0213 -13.9740
   -13.9726 -13.9519 -13.9281 -13.8925 -13.8836 -13.8594 -13.8243 -13.8151
   -13.7027 -13.6364 -13.5873 -13.5805 -13.5547 -13.4686 -13.4447 -13.3439
   -13.3085 -13.1993 -13.1645 -13.0722 -13.0511 -13.0247 -13.0149 -12.9886
   -12.9577 -12.9401 -12.9266 -12.8971 -12.8453 -12.7487 -12.6659 -12.6410
   -12.6216 -12.6143 -12.5383 -12.4528 -12.3642 -12.3214 -12.2610 -12.0956
   -12.0542 -11.7702 -11.7570 -11.7432 -11.7315 -11.7090 -11.6792 -11.5994
   -11.5898 -11.5679 -11.5299 -11.5025 -11.4941  -2.4362  -2.3952  -2.2471
    -2.2053  -2.0432  -1.9668  -1.8252  -1.6907  -1.6324  -1.6065  -1.5670
    -1.5297  -1.4485  -1.3336  -1.2762  -1.2546  -1.2275  -1.1812  -1.1429
    -1.1220  -1.0808  -1.0662  -1.0048  -0.9738  -0.9373  -0.9022  -0.8732
    -0.8146  -0.7875  -0.7462  -0.7106  -0.6058  -0.5779  -0.4847  -0.4322
    -0.3943  -0.3349  -0.2571  -0.2220  -0.1213  -0.0751  -0.0251   0.0333
     0.0663   0.1287   0.1490   0.1803   0.2333   0.2748   0.5924   0.6808
     0.7096   0.7287   1.0241   1.0821   1.1534   1.1832   1.3546   1.3899
     1.4273   1.4383   1.4564   1.4742   1.5455   1.5890   1.6332   1.6611
     1.7929   1.8289   1.8485   1.8573   1.9018   1.9287   1.9425   1.9521
     1.9723   1.9979   2.0367   2.0534   2.0892   2.1126   2.1472   2.2000
     2.3213   2.4162   2.4294   2.4581   2.4809   2.5231   2.5546   2.6187
     2.6555   2.6604   2.7008   2.7346   2.7563   2.8378   2.8809   2.8955
     2.9004   2.9208   2.9424   2.9548   2.9715   2.9828   3.0057   3.0177
     3.0280   3.0351   3.0448   3.0565   3.5845   3.6355   3.7753   3.7974
     4.0707   4.1617   4.2056   4.4059   4.7892   4.8904   5.0456   5.0775
     5.4124   5.4342   5.5935   5.6323   5.7478   5.8008   6.3356   6.3937
     6.4941   6.7174   7.1852   7.4353   7.5521   7.7170   7.7969   7.8833
     7.9311   8.0289   8.2127   8.4015   8.4503   8.5316   8.5599   8.5857
     8.6673   8.7361   8.8535

     occupation numbers 
     1.0000   1.0000   1.0000   1.0000   1.0000   1.0000   1.0000   1.0000
     1.0000   1.0000   1.0000   1.0000   1.0000   1.0000   1.0000   1.0000
     1.0000   1.0000   1.0000   1.0000   1.0000   1.0000   1.0000   1.0000
     1.0000   1.0000   1.0000   1.0000   1.0000   1.0000   1.0000   1.0000
     1.0000   1.0000   1.0000   1.0000   1.0000   1.0000   1.0000   1.0000
     1.0000   1.0000   1.0000   1.0000   1.0000   1.0000   1.0000   1.0000
     1.0000   1.0000   1.0000   1.0000   1.0000   1.0000   1.0000   1.0000
     1.0000   1.0000   1.0000   1.0000   1.0000   1.0000   1.0000   1.0000
     1.0000   1.0000   1.0000   1.0000   1.0000   1.0000   1.0000   1.0000
     1.0000   1.0000   1.0000   1.0000   1.0000   1.0000   1.0000   1.0000
     1.0000   1.0000   1.0000   1.0000   1.0000   1.0000   1.0000   1.0000
     1.0000   1.0000   1.0000   1.0000   1.0000   1.0000   1.0000   1.0000
     1.0000   1.0000   1.0000   1.0000   1.0000   1.0000   1.0000   1.0000
     1.0000   1.0000   1.0000   1.0000   1.0000   1.0000   1.0000   1.0000
     1.0000   1.0000   1.0000   1.0000   1.0000   1.0000   1.0000   1.0000
     1.0000   1.0000   1.0000   1.0000   1.0000   1.0000   1.0000   1.0000
     1.0000   1.0000   1.0000   1.0000   1.0000   1.0000   1.0000   1.0000
     1.0000   1.0000   1.0000   1.0000   1.0000   1.0000   1.0000   1.0000
     1.0000   1.0000   1.0000   1.0000   1.0000   1.0000   1.0000   1.0000
     1.0000   1.0000   1.0000   1.0000   1.0000   1.0000   1.0000   1.0000
     0.9999   0.9999   0.9997   0.9996   0.9994   0.9993   0.9983   0.9980
     0.9976   0.9975   0.9973   0.9970   0.9959   0.9951   0.9941   0.9933
     0.9887   0.9870   0.9860   0.9855   0.9829   0.9811   0.9801   0.9794
     0.9779   0.9758   0.9724   0.9707   0.9670   0.9644   0.9602   0.9530
     0.9324   0.9120   0.9089   0.9017   0.8957   0.8839   0.8745   0.8537
     0.8408   0.8391   0.8240   0.8107   0.8018   0.7665   0.7464   0.7394
     0.7370   0.7271   0.7163   0.7100   0.7015   0.6956   0.6836   0.6773
     0.6718   0.6679   0.6627   0.6563   0.3514   0.3238   0.2530   0.2427
     0.1349   0.1077   0.0962   0.0547   0.0150   0.0102   0.0054   0.0047
     0.0010   0.0009   0.0004   0.0003   0.0002   0.0001   0.0000   0.0000
     0.0000   0.0000   0.0000   0.0000   0.0000   0.0000   0.0000   0.0000
     0.0000   0.0000   0.0000   0.0000   0.0000   0.0000   0.0000   0.0000
     0.0000   0.0000   0.0000

     the Fermi energy is     3.3276 ev

!    total energy              =   -4441.66486019 Ry
     estimated scf accuracy    <          6.9E-09 Ry
     smearing contrib. (-TS)   =      -1.15486395 Ry
     internal energy E=F+TS    =   -4440.50999623 Ry

     The total energy is F=E-TS. E is the sum of the following terms:
     one-electron contribution =  -20804.67829125 Ry
     hartree contribution      =   10534.35293585 Ry
     xc contribution           =    -694.18468384 Ry
     ewald contribution        =    6800.16914213 Ry
     one-center paw contrib.   =    -276.16909912 Ry
      -> PAW hartree energy AE =      25.10023052 Ry
      -> PAW hartree energy PS =     -24.98481910 Ry
      -> PAW xc energy AE      =     -16.50850716 Ry
      -> PAW xc energy PS      =       6.86756699 Ry
      -> total E_H with PAW    =   10534.46834727 Ry
      -> total E_XC with PAW   =    -703.82562401 Ry

     convergence has been achieved in  49 iterations

     Writing all to output data dir /bsuhome/zayahcortright/scratch/pwscf.save/
 
     init_run     :      7.75s CPU      8.66s WALL (       1 calls)
     electrons    :    806.29s CPU    894.60s WALL (       1 calls)

     Called by init_run:
     wfcinit      :      6.21s CPU      6.41s WALL (       1 calls)
     wfcinit:atom :      0.04s CPU      0.06s WALL (       5 calls)
     wfcinit:wfcr :      5.90s CPU      6.02s WALL (       5 calls)
     potinit      :      0.17s CPU      0.20s WALL (       1 calls)
     hinit0       :      0.32s CPU      0.77s WALL (       1 calls)

     Called by electrons:
     c_bands      :    649.29s CPU    662.58s WALL (      49 calls)
     sum_band     :    116.26s CPU    158.74s WALL (      49 calls)
     v_of_rho     :      5.62s CPU      6.05s WALL (      50 calls)
     v_h          :      0.47s CPU      0.47s WALL (      50 calls)
     v_xc         :      5.15s CPU      5.57s WALL (      50 calls)
     newd         :     19.85s CPU     51.47s WALL (      50 calls)
     PAW_pot      :      1.66s CPU      1.69s WALL (      50 calls)
     mix_rho      :     13.30s CPU     13.80s WALL (      49 calls)

     Called by c_bands:
     init_us_2    :      6.61s CPU      6.69s WALL (     495 calls)
     init_us_2:cp :      6.60s CPU      6.69s WALL (     495 calls)
     cegterg      :    611.63s CPU    624.41s WALL (     245 calls)

     Called by sum_band:
     sum_band:wei :      0.35s CPU      0.36s WALL (      49 calls)
     sum_band:loo :     96.44s CPU     97.28s WALL (      49 calls)
     sum_band:buf :      1.42s CPU      1.51s WALL (     245 calls)
     sum_band:ini :      3.00s CPU      3.01s WALL (     245 calls)
     sum_band:cal :     19.70s CPU     19.79s WALL (     245 calls)
     sum_band:bec :      0.58s CPU      0.62s WALL (     245 calls)
     addusdens    :     17.93s CPU     59.53s WALL (      49 calls)
                                        0.00s GPU  (      49 calls)
     addusd:skk   :      0.34s CPU      2.32s WALL (     196 calls)
                                        0.00s GPU  (     196 calls)

     Called by *egterg:
     cdiaghg      :     59.49s CPU     59.81s WALL (    1293 calls)
     cegterg:over :     49.92s CPU     50.14s WALL (    1048 calls)
     cegterg:upda :     51.26s CPU     52.45s WALL (    1048 calls)
     cegterg:last :     71.95s CPU     72.35s WALL (     442 calls)
     cdiaghg:chol :      3.30s CPU      3.33s WALL (    1293 calls)
     cdiaghg:inve :      3.59s CPU      3.62s WALL (    1293 calls)
     cdiaghg:para :      7.60s CPU      7.64s WALL (    2586 calls)
     h_psi        :    310.82s CPU    315.65s WALL (    1298 calls)
     s_psi        :     39.67s CPU     39.80s WALL (    1298 calls)
     g_psi        :      2.71s CPU      2.73s WALL (    1048 calls)

     Called by h_psi:
     h_psi:calbec :     46.11s CPU     46.29s WALL (    1298 calls)
     vloc_psi     :    219.04s CPU    221.03s WALL (    1298 calls)
     add_vuspsi   :     39.19s CPU     39.40s WALL (    1298 calls)

     General routines
     calbec       :     65.80s CPU     66.08s WALL (    1543 calls)
     fft          :      4.10s CPU      4.16s WALL (     648 calls)
     ffts         :      4.89s CPU      4.93s WALL (    5297 calls)
     fftw         :    192.69s CPU    194.19s WALL (  332521 calls)
     interpolate  :      0.43s CPU      0.44s WALL (      50 calls)
 
     Parallel routines

     PAW routines
     PAW_pot      :      1.66s CPU      1.69s WALL (      50 calls)
 
     PWSCF        :  13m35.98s CPU  15m 8.14s WALL

 
   This run was terminated on:  19: 6:28  21Jun2024            

=------------------------------------------------------------------------------=
   JOB DONE.
=------------------------------------------------------------------------------=
