
     Program PWSCF v.7.2 starts on 21Jun2024 at 23:17:16 

     This program is part of the open-source Quantum ESPRESSO suite
     for quantum simulation of materials; please cite
         "P. Giannozzi et al., J. Phys.:Condens. Matter 21 395502 (2009);
         "P. Giannozzi et al., J. Phys.:Condens. Matter 29 465901 (2017);
         "P. Giannozzi et al., J. Chem. Phys. 152 154105 (2020);
          URL http://www.quantum-espresso.org", 
     in publications or presentations arising from this work. More details at
     http://www.quantum-espresso.org/quote

     Parallel version (MPI & OpenMP), running on      48 processor cores
     Number of MPI processes:                48
     Threads/MPI process:                     1

     MPI processes distributed on     1 nodes
     180141 MiB available memory on the printing compute node when the environment starts
 
     Reading input from espresso.pwi
Warning: card &CELL ignored
Warning: card / ignored
Warning: card &FCP ignored
Warning: card / ignored
Warning: card &RISM ignored
Warning: card / ignored

     Current dimensions of program PWSCF are:
     Max number of different atomic species (ntypx) = 10
     Max number of k-points (npk) =  40000
     Max angular momentum in pseudopotentials (lmaxx) =  4
     file O.pbe-n-kjpaw_psl.0.1.UPF: wavefunction(s)  2P renormalized
     signal trapping enabled: kill the code with -SIGUSR1 to stop cleanly the simulation 
 
     K-points division:     npool     =       2
     R & G space division:  proc/nbgrp/npool/nimage =      24
     Subspace diagonalization in iterative solution of the eigenvalue problem:
     one sub-group per band group will be used
     scalapack distributed-memory algorithm (size of sub-group:  3*  3 procs)

 
     Parallelization info
     --------------------
     sticks:   dense  smooth     PW     G-vecs:    dense   smooth      PW
     Min         350     175     47                61430    21716    3036
     Max         351     177     48                61449    21727    3041
     Sum        8421    4205   1137              1474595   521381   72913
 
     Using Slab Decomposition
 


     bravais-lattice index     =            0
     lattice parameter (alat)  =      14.8599  a.u.
     unit-cell volume          =    8305.1283 (a.u.)^3
     number of atoms/cell      =           49
     number of atomic types    =            4
     number of electrons       =       425.00
     number of Kohn-Sham states=          256
     kinetic-energy cutoff     =      60.0000  Ry
     charge density cutoff     =     480.0000  Ry
     scf convergence threshold =      1.0E-08
     mixing beta               =       0.1500
     number of iterations used =            8  local-TF  mixing
     Exchange-correlation= PBE
                           (   1   4   3   4   0   0   0)

     celldm(1)=  14.859904  celldm(2)=   0.000000  celldm(3)=   0.000000
     celldm(4)=   0.000000  celldm(5)=   0.000000  celldm(6)=   0.000000

     crystal axes: (cart. coord. in units of alat)
               a(1) = (   1.000000   0.000000   0.000000 )  
               a(2) = (   0.000000   1.000000   0.000000 )  
               a(3) = (   0.000000   0.000000   2.531036 )  

     reciprocal axes: (cart. coord. in units 2 pi/alat)
               b(1) = (  1.000000  0.000000  0.000000 )  
               b(2) = (  0.000000  1.000000  0.000000 )  
               b(3) = (  0.000000  0.000000  0.395095 )  


     PseudoPot. # 1 for Sr read from file:
     /bsuhome/zayahcortright/q-e/pseudo/Sr_pbe_v1.uspp.F.UPF
     MD5 check sum: 6b418c05fbe9db5448babca5e47b7a5b
     Pseudo is Ultrasoft + core correction, Zval = 10.0
     Generated by new atomic code, or converted to UPF format
     Using radial grid of  883 points,  6 beta functions with: 
                l(1) =   0
                l(2) =   0
                l(3) =   1
                l(4) =   1
                l(5) =   2
                l(6) =   2
     Q(r) pseudized with  6 coefficients,  rinner =    1.400   1.400   1.400
                                                       1.400   1.400

     PseudoPot. # 2 for O  read from file:
     /bsuhome/zayahcortright/q-e/pseudo/O.pbe-n-kjpaw_psl.0.1.UPF
     MD5 check sum: 0234752ac141de4415c5fc33072bef88
     Pseudo is Projector augmented-wave + core cor, Zval =  6.0
     Generated using "atomic" code by A. Dal Corso  v.5.0.99 svn rev. 10869
     Shape of augmentation charge: BESSEL
     Using radial grid of 1095 points,  4 beta functions with: 
                l(1) =   0
                l(2) =   0
                l(3) =   1
                l(4) =   1
     Q(r) pseudized with 0 coefficients 


     PseudoPot. # 3 for Co read from file:
     /bsuhome/zayahcortright/q-e/pseudo/Co_pbe_v1.2.uspp.F.UPF
     MD5 check sum: 5f91765df6ddd3222702df6e7b74a16d
     Pseudo is Ultrasoft + core correction, Zval = 17.0
     Generated by new atomic code, or converted to UPF format
     Using radial grid of  863 points,  6 beta functions with: 
                l(1) =   0
                l(2) =   0
                l(3) =   1
                l(4) =   1
                l(5) =   2
                l(6) =   2
     Q(r) pseudized with  8 coefficients,  rinner =    1.200   1.200   1.200
                                                       1.200   1.200

     PseudoPot. # 4 for H  read from file:
     /bsuhome/zayahcortright/q-e/pseudo/H.pbe-rrkjus_psl.1.0.0.UPF
     MD5 check sum: f52b6d4d1c606e5624b1dc7b2218f220
     Pseudo is Ultrasoft, Zval =  1.0
     Generated using "atomic" code by A. Dal Corso  v.5.1
     Using radial grid of  929 points,  2 beta functions with: 
                l(1) =   0
                l(2) =   0
     Q(r) pseudized with 0 coefficients 


     atomic species   valence    mass     pseudopotential
        Sr            10.00    87.62000     Sr( 1.00)
        O              6.00    15.99900     O ( 1.00)
        Co            17.00    58.93319     Co( 1.00)
        H              1.00     1.00800     H ( 1.00)

     No symmetry found


                                    s                        frac. trans.

      isym =  1     identity                                     

 cryst.   s( 1) = (     1          0          0      )
                  (     0          1          0      )
                  (     0          0          1      )

 cart.    s( 1) = (  1.0000000  0.0000000  0.0000000 )
                  (  0.0000000  1.0000000  0.0000000 )
                  (  0.0000000  0.0000000  1.0000000 )


   Cartesian axes

     site n.     atom                  positions (alat units)
         1           Sr  tau(   1) = (   0.2508693   0.7491307   1.7574407  )
         2           O   tau(   2) = (   0.4985141   0.5014859   1.7715967  )
         3           Sr  tau(   3) = (   0.7482398   0.7454518   1.7648669  )
         4           Sr  tau(   4) = (   0.7441748   0.2558252   1.7667843  )
         5           Sr  tau(   5) = (   0.2508693   0.7491307   1.2696799  )
         6           Sr  tau(   6) = (   0.2508693   0.7491307   0.7632319  )
         7           Co  tau(   7) = (   0.4998914   0.5001086   1.0164559  )
         8           Co  tau(   8) = (   0.4936915   0.5063085   1.5135603  )
         9           O   tau(   9) = (   0.4988895   0.7610401   1.0164559  )
        10           O   tau(  10) = (   0.2389599   0.5011105   1.0164559  )
        11           O   tau(  11) = (   0.0070918   0.7374880   1.0164559  )
        12           O   tau(  12) = (   0.0088340   0.7405089   1.5135603  )
        13           O   tau(  13) = (   0.5066944   0.7415376   1.5135603  )
        14           O   tau(  14) = (   0.2584624   0.4933056   1.5135603  )
        15           O   tau(  15) = (   0.4985141   0.5014859   0.7773880  )
        16           O   tau(  16) = (   0.4985141   0.5014859   1.2555238  )
        17           Sr  tau(  17) = (   0.7482398   0.7454518   0.7706582  )
        18           Sr  tau(  18) = (   0.7482398   0.7454518   1.2622536  )
        19           Sr  tau(  19) = (   0.7441748   0.2558252   0.7725755  )
        20           Sr  tau(  20) = (   0.7441748   0.2558252   1.2603363  )
        21           O   tau(  21) = (   0.7322655   0.0078049   1.5135603  )
        22           O   tau(  22) = (   0.7558175   0.4996027   1.5135603  )
        23           O   tau(  23) = (   0.5003973   0.2441825   1.5135603  )
        24           O   tau(  24) = (   0.7527966   0.4978604   1.0164559  )
        25           O   tau(  25) = (   0.5021396   0.2472034   1.0164559  )
        26           O   tau(  26) = (   0.7517679   0.0000000   1.0164559  )
        27           O   tau(  27) = (   0.0114961   0.4948124   1.7455321  )
        28           O   tau(  28) = (   0.0048226   0.0077944   1.7715967  )
        29           Sr  tau(  29) = (   0.2545482   0.2517602   1.7648669  )
        30           O   tau(  30) = (   0.5048017   0.0015068   1.7786929  )
        31           Co  tau(  31) = (   0.0056869   0.5006215   1.0164559  )
        32           Co  tau(  32) = (   0.0065315   0.4997770   1.5135603  )
        33           Co  tau(  33) = (   0.0061999   0.0064171   1.0164559  )
        34           Co  tau(  34) = (   0.0000000   0.0126169   1.5135603  )
        35           O   tau(  35) = (   0.0114961   0.4948124   1.2815885  )
        36           O   tau(  36) = (   0.0114961   0.4948124   0.7513233  )
        37           O   tau(  37) = (   0.0051979   0.2673486   1.0164559  )
        38           O   tau(  38) = (   0.0130029   0.2478461   1.5135603  )
        39           O   tau(  39) = (   0.0048226   0.0077944   0.7773880  )
        40           O   tau(  40) = (   0.0048226   0.0077944   1.2555238  )
        41           Sr  tau(  41) = (   0.2545482   0.2517602   0.7706582  )
        42           Sr  tau(  42) = (   0.2545482   0.2517602   1.2622536  )
        43           Co  tau(  43) = (   0.4989925   0.0073160   1.5135603  )
        44           Co  tau(  44) = (   0.4998370   0.0064714   1.0164559  )
        45           O   tau(  45) = (   0.5048017   0.0015068   0.7844841  )
        46           O   tau(  46) = (   0.5048017   0.0015068   1.2484277  )
        47           O   tau(  47) = (   0.2621260   0.0059111   1.5135603  )
        48           O   tau(  48) = (   0.2591051   0.0041689   1.0164559  )
        49           H   tau(  49) = (   0.9951520   0.0000000   2.1602013  )

   Crystallographic axes

     site n.     atom                  positions (cryst. coord.)
         1           Sr  tau(   1) = (  0.2508693  0.7491307  0.6943562  )
         2           O   tau(   2) = (  0.4985141  0.5014859  0.6999492  )
         3           Sr  tau(   3) = (  0.7482398  0.7454518  0.6972903  )
         4           Sr  tau(   4) = (  0.7441748  0.2558252  0.6980478  )
         5           Sr  tau(   5) = (  0.2508693  0.7491307  0.5016443  )
         6           Sr  tau(   6) = (  0.2508693  0.7491307  0.3015492  )
         7           Co  tau(   7) = (  0.4998914  0.5001086  0.4015968  )
         8           Co  tau(   8) = (  0.4936915  0.5063085  0.5980003  )
         9           O   tau(   9) = (  0.4988895  0.7610401  0.4015968  )
        10           O   tau(  10) = (  0.2389599  0.5011105  0.4015968  )
        11           O   tau(  11) = (  0.0070918  0.7374880  0.4015968  )
        12           O   tau(  12) = (  0.0088340  0.7405089  0.5980003  )
        13           O   tau(  13) = (  0.5066944  0.7415376  0.5980003  )
        14           O   tau(  14) = (  0.2584624  0.4933056  0.5980003  )
        15           O   tau(  15) = (  0.4985141  0.5014859  0.3071422  )
        16           O   tau(  16) = (  0.4985141  0.5014859  0.4960513  )
        17           Sr  tau(  17) = (  0.7482398  0.7454518  0.3044833  )
        18           Sr  tau(  18) = (  0.7482398  0.7454518  0.4987103  )
        19           Sr  tau(  19) = (  0.7441748  0.2558252  0.3052408  )
        20           Sr  tau(  20) = (  0.7441748  0.2558252  0.4979527  )
        21           O   tau(  21) = (  0.7322655  0.0078049  0.5980003  )
        22           O   tau(  22) = (  0.7558175  0.4996027  0.5980003  )
        23           O   tau(  23) = (  0.5003973  0.2441825  0.5980003  )
        24           O   tau(  24) = (  0.7527966  0.4978604  0.4015968  )
        25           O   tau(  25) = (  0.5021396  0.2472034  0.4015968  )
        26           O   tau(  26) = (  0.7517679  0.0000000  0.4015968  )
        27           O   tau(  27) = (  0.0114961  0.4948124  0.6896512  )
        28           O   tau(  28) = (  0.0048226  0.0077944  0.6999492  )
        29           Sr  tau(  29) = (  0.2545482  0.2517602  0.6972903  )
        30           O   tau(  30) = (  0.5048017  0.0015068  0.7027529  )
        31           Co  tau(  31) = (  0.0056869  0.5006215  0.4015968  )
        32           Co  tau(  32) = (  0.0065315  0.4997770  0.5980003  )
        33           Co  tau(  33) = (  0.0061999  0.0064171  0.4015968  )
        34           Co  tau(  34) = (  0.0000000  0.0126169  0.5980003  )
        35           O   tau(  35) = (  0.0114961  0.4948124  0.5063494  )
        36           O   tau(  36) = (  0.0114961  0.4948124  0.2968442  )
        37           O   tau(  37) = (  0.0051979  0.2673486  0.4015968  )
        38           O   tau(  38) = (  0.0130029  0.2478461  0.5980003  )
        39           O   tau(  39) = (  0.0048226  0.0077944  0.3071422  )
        40           O   tau(  40) = (  0.0048226  0.0077944  0.4960513  )
        41           Sr  tau(  41) = (  0.2545482  0.2517602  0.3044833  )
        42           Sr  tau(  42) = (  0.2545482  0.2517602  0.4987103  )
        43           Co  tau(  43) = (  0.4989925  0.0073160  0.5980003  )
        44           Co  tau(  44) = (  0.4998370  0.0064714  0.4015968  )
        45           O   tau(  45) = (  0.5048017  0.0015068  0.3099459  )
        46           O   tau(  46) = (  0.5048017  0.0015068  0.4932477  )
        47           O   tau(  47) = (  0.2621260  0.0059111  0.5980003  )
        48           O   tau(  48) = (  0.2591051  0.0041689  0.4015968  )
        49           H   tau(  49) = (  0.9951520  0.0000000  0.8534850  )

     number of k points=    10  Gaussian smearing, width (Ry)=  0.0700
                       cart. coord. in units 2pi/alat
        k(    1) = (   0.0000000   0.0000000   0.0000000), wk =   0.1250000
        k(    2) = (   0.0000000   0.2500000   0.0000000), wk =   0.2500000
        k(    3) = (   0.0000000  -0.5000000   0.0000000), wk =   0.1250000
        k(    4) = (   0.2500000   0.2500000   0.0000000), wk =   0.2500000
        k(    5) = (   0.2500000  -0.5000000   0.0000000), wk =   0.2500000
        k(    6) = (  -0.5000000  -0.5000000   0.0000000), wk =   0.1250000
        k(    7) = (   0.2500000   0.0000000   0.0000000), wk =   0.2500000
        k(    8) = (  -0.5000000   0.0000000   0.0000000), wk =   0.1250000
        k(    9) = (  -0.2500000   0.2500000   0.0000000), wk =   0.2500000
        k(   10) = (  -0.5000000   0.2500000   0.0000000), wk =   0.2500000

                       cryst. coord.
        k(    1) = (   0.0000000   0.0000000   0.0000000), wk =   0.1250000
        k(    2) = (   0.0000000   0.2500000   0.0000000), wk =   0.2500000
        k(    3) = (   0.0000000  -0.5000000   0.0000000), wk =   0.1250000
        k(    4) = (   0.2500000   0.2500000   0.0000000), wk =   0.2500000
        k(    5) = (   0.2500000  -0.5000000   0.0000000), wk =   0.2500000
        k(    6) = (  -0.5000000  -0.5000000   0.0000000), wk =   0.1250000
        k(    7) = (   0.2500000   0.0000000   0.0000000), wk =   0.2500000
        k(    8) = (  -0.5000000   0.0000000   0.0000000), wk =   0.1250000
        k(    9) = (  -0.2500000   0.2500000   0.0000000), wk =   0.2500000
        k(   10) = (  -0.5000000   0.2500000   0.0000000), wk =   0.2500000

     Dense  grid:  1474595 G-vectors     FFT dimensions: ( 108, 108, 270)

     Smooth grid:   521381 G-vectors     FFT dimensions: (  75,  75, 192)

     Dynamical RAM for                 wfc:      10.61 MB

     Dynamical RAM for     wfc (w. buffer):      63.63 MB

     Dynamical RAM for           str. fact:       3.75 MB

     Dynamical RAM for           local pot:       0.00 MB

     Dynamical RAM for          nlocal pot:      24.28 MB

     Dynamical RAM for                qrad:       7.03 MB

     Dynamical RAM for          rho,v,vnew:       6.02 MB

     Dynamical RAM for               rhoin:       2.01 MB

     Dynamical RAM for            rho*nmix:      15.00 MB

     Dynamical RAM for           G-vectors:       3.68 MB

     Dynamical RAM for          h,s,v(r/c):       1.32 MB

     Dynamical RAM for          <psi|beta>:       2.29 MB

     Dynamical RAM for                 psi:      21.21 MB

     Dynamical RAM for                hpsi:      21.21 MB

     Dynamical RAM for                spsi:      21.21 MB

     Dynamical RAM for      wfcinit/wfcrot:      34.09 MB

     Dynamical RAM for           addusdens:     100.79 MB

     Estimated static dynamical RAM per process >     120.42 MB

     Estimated max dynamical RAM per process >     236.21 MB

     Estimated total dynamical RAM >      10.72 GB

     Check: negative core charge=   -0.000004

     Initial potential from superposition of free atoms

     starting charge     416.5961, renormalised to     425.0000

     negative rho (up, down):  7.827E-01 0.000E+00
     Starting wfcs are  373 randomized atomic wfcs
     Checking if some PAW data can be deallocated... 
       PAW data deallocated on   20 nodes for type:  2

     total cpu time spent up to now is        8.6 secs

     Self-consistent Calculation

     iteration #  1     ecut=    60.00 Ry     beta= 0.15
     Davidson diagonalization with overlap

---- Real-time Memory Report at c_bands before calling an iterative solver
             0 MiB given to the printing process from OS
             0 MiB allocation reported by mallinfo(arena+hblkhd)
        170473 MiB available memory on the node where the printing process lives
------------------
     ethr =  1.00E-02,  avg # of iterations =  2.0

     negative rho (up, down):  7.718E-01 0.000E+00

     total cpu time spent up to now is       22.8 secs

     total energy              =   -4404.77747283 Ry
     estimated scf accuracy    <      42.16095758 Ry

     iteration #  2     ecut=    60.00 Ry     beta= 0.15
     Davidson diagonalization with overlap

---- Real-time Memory Report at c_bands before calling an iterative solver
             0 MiB given to the printing process from OS
             0 MiB allocation reported by mallinfo(arena+hblkhd)
        170693 MiB available memory on the node where the printing process lives
------------------
     ethr =  9.92E-03,  avg # of iterations =  1.0

     negative rho (up, down):  7.532E-01 0.000E+00

     total cpu time spent up to now is       34.7 secs

     total energy              =   -4400.01656028 Ry
     estimated scf accuracy    <      26.66702213 Ry

     iteration #  3     ecut=    60.00 Ry     beta= 0.15
     Davidson diagonalization with overlap

---- Real-time Memory Report at c_bands before calling an iterative solver
             0 MiB given to the printing process from OS
             0 MiB allocation reported by mallinfo(arena+hblkhd)
        169891 MiB available memory on the node where the printing process lives
------------------
     ethr =  6.27E-03,  avg # of iterations =  2.0

     negative rho (up, down):  7.544E-01 0.000E+00

     total cpu time spent up to now is       48.4 secs

     total energy              =   -4402.40230394 Ry
     estimated scf accuracy    <      49.63696088 Ry

     iteration #  4     ecut=    60.00 Ry     beta= 0.15
     Davidson diagonalization with overlap

---- Real-time Memory Report at c_bands before calling an iterative solver
             0 MiB given to the printing process from OS
             0 MiB allocation reported by mallinfo(arena+hblkhd)
        169813 MiB available memory on the node where the printing process lives
------------------
     ethr =  6.27E-03,  avg # of iterations =  1.0

     negative rho (up, down):  7.410E-01 0.000E+00

     total cpu time spent up to now is       60.4 secs

     total energy              =   -4401.67724538 Ry
     estimated scf accuracy    <      29.71184944 Ry

     iteration #  5     ecut=    60.00 Ry     beta= 0.15
     Davidson diagonalization with overlap

---- Real-time Memory Report at c_bands before calling an iterative solver
             0 MiB given to the printing process from OS
             0 MiB allocation reported by mallinfo(arena+hblkhd)
        169799 MiB available memory on the node where the printing process lives
------------------
     ethr =  6.27E-03,  avg # of iterations =  1.0

     negative rho (up, down):  7.467E-01 0.000E+00

     total cpu time spent up to now is       72.2 secs

     total energy              =   -4399.97093626 Ry
     estimated scf accuracy    <      44.36753238 Ry

     iteration #  6     ecut=    60.00 Ry     beta= 0.15
     Davidson diagonalization with overlap

---- Real-time Memory Report at c_bands before calling an iterative solver
             0 MiB given to the printing process from OS
             0 MiB allocation reported by mallinfo(arena+hblkhd)
        169781 MiB available memory on the node where the printing process lives
------------------
     ethr =  6.27E-03,  avg # of iterations =  1.0

     negative rho (up, down):  7.422E-01 0.000E+00

     total cpu time spent up to now is       84.1 secs

     total energy              =   -4400.69821626 Ry
     estimated scf accuracy    <      11.67896350 Ry

     iteration #  7     ecut=    60.00 Ry     beta= 0.15
     Davidson diagonalization with overlap

---- Real-time Memory Report at c_bands before calling an iterative solver
             0 MiB given to the printing process from OS
             0 MiB allocation reported by mallinfo(arena+hblkhd)
        169763 MiB available memory on the node where the printing process lives
------------------
     ethr =  2.75E-03,  avg # of iterations =  1.1

     negative rho (up, down):  7.442E-01 0.000E+00

     total cpu time spent up to now is       96.2 secs

     total energy              =   -4400.77950088 Ry
     estimated scf accuracy    <       4.15167613 Ry

     iteration #  8     ecut=    60.00 Ry     beta= 0.15
     Davidson diagonalization with overlap

---- Real-time Memory Report at c_bands before calling an iterative solver
             0 MiB given to the printing process from OS
             0 MiB allocation reported by mallinfo(arena+hblkhd)
        169741 MiB available memory on the node where the printing process lives
------------------
     ethr =  9.77E-04,  avg # of iterations =  1.8

     negative rho (up, down):  7.524E-01 0.000E+00

     total cpu time spent up to now is      108.7 secs

     total energy              =   -4400.37495746 Ry
     estimated scf accuracy    <       3.91377550 Ry

     iteration #  9     ecut=    60.00 Ry     beta= 0.15
     Davidson diagonalization with overlap

---- Real-time Memory Report at c_bands before calling an iterative solver
             0 MiB given to the printing process from OS
             0 MiB allocation reported by mallinfo(arena+hblkhd)
        169711 MiB available memory on the node where the printing process lives
------------------
     ethr =  9.21E-04,  avg # of iterations =  2.5

     negative rho (up, down):  7.768E-01 0.000E+00

     total cpu time spent up to now is      122.6 secs

     total energy              =   -4399.86561856 Ry
     estimated scf accuracy    <      37.40135452 Ry

     iteration # 10     ecut=    60.00 Ry     beta= 0.15
     Davidson diagonalization with overlap

---- Real-time Memory Report at c_bands before calling an iterative solver
             0 MiB given to the printing process from OS
             0 MiB allocation reported by mallinfo(arena+hblkhd)
        169656 MiB available memory on the node where the printing process lives
------------------
     ethr =  9.21E-04,  avg # of iterations =  9.5

     negative rho (up, down):  7.789E-01 0.000E+00

     total cpu time spent up to now is      140.6 secs

     total energy              =   -4399.78368707 Ry
     estimated scf accuracy    <      11.46765320 Ry

     iteration # 11     ecut=    60.00 Ry     beta= 0.15
     Davidson diagonalization with overlap

---- Real-time Memory Report at c_bands before calling an iterative solver
             0 MiB given to the printing process from OS
             0 MiB allocation reported by mallinfo(arena+hblkhd)
        169231 MiB available memory on the node where the printing process lives
------------------
     ethr =  9.21E-04,  avg # of iterations =  1.1

     negative rho (up, down):  7.814E-01 0.000E+00

     total cpu time spent up to now is      152.7 secs

     total energy              =   -4400.12634041 Ry
     estimated scf accuracy    <       1.03939115 Ry

     iteration # 12     ecut=    60.00 Ry     beta= 0.15
     Davidson diagonalization with overlap

---- Real-time Memory Report at c_bands before calling an iterative solver
             0 MiB given to the printing process from OS
             0 MiB allocation reported by mallinfo(arena+hblkhd)
        169244 MiB available memory on the node where the printing process lives
------------------
     ethr =  2.45E-04,  avg # of iterations =  1.7

     negative rho (up, down):  7.894E-01 0.000E+00

     total cpu time spent up to now is      165.7 secs

     total energy              =   -4400.07331798 Ry
     estimated scf accuracy    <       0.90113760 Ry

     iteration # 13     ecut=    60.00 Ry     beta= 0.15
     Davidson diagonalization with overlap

---- Real-time Memory Report at c_bands before calling an iterative solver
             0 MiB given to the printing process from OS
             0 MiB allocation reported by mallinfo(arena+hblkhd)
        169263 MiB available memory on the node where the printing process lives
------------------
     ethr =  2.12E-04,  avg # of iterations =  2.8

     negative rho (up, down):  8.029E-01 0.000E+00

     total cpu time spent up to now is      178.8 secs

     total energy              =   -4400.07364808 Ry
     estimated scf accuracy    <       0.87681053 Ry

     iteration # 14     ecut=    60.00 Ry     beta= 0.15
     Davidson diagonalization with overlap

---- Real-time Memory Report at c_bands before calling an iterative solver
             0 MiB given to the printing process from OS
             0 MiB allocation reported by mallinfo(arena+hblkhd)
        169287 MiB available memory on the node where the printing process lives
------------------
     ethr =  2.06E-04,  avg # of iterations =  7.9

     negative rho (up, down):  8.008E-01 0.000E+00

     total cpu time spent up to now is      194.4 secs

     total energy              =   -4399.98131042 Ry
     estimated scf accuracy    <       2.46827068 Ry

     iteration # 15     ecut=    60.00 Ry     beta= 0.15
     Davidson diagonalization with overlap

---- Real-time Memory Report at c_bands before calling an iterative solver
             0 MiB given to the printing process from OS
             0 MiB allocation reported by mallinfo(arena+hblkhd)
        169235 MiB available memory on the node where the printing process lives
------------------
     ethr =  2.06E-04,  avg # of iterations =  3.5

     negative rho (up, down):  8.054E-01 0.000E+00

     total cpu time spent up to now is      208.1 secs

     total energy              =   -4400.03790501 Ry
     estimated scf accuracy    <       0.60117374 Ry

     iteration # 16     ecut=    60.00 Ry     beta= 0.15
     Davidson diagonalization with overlap

---- Real-time Memory Report at c_bands before calling an iterative solver
             0 MiB given to the printing process from OS
             0 MiB allocation reported by mallinfo(arena+hblkhd)
        169232 MiB available memory on the node where the printing process lives
------------------
     ethr =  1.41E-04,  avg # of iterations =  2.2

     negative rho (up, down):  8.075E-01 0.000E+00

     total cpu time spent up to now is      221.2 secs

     total energy              =   -4400.01192955 Ry
     estimated scf accuracy    <       0.33142774 Ry

     iteration # 17     ecut=    60.00 Ry     beta= 0.15
     Davidson diagonalization with overlap

---- Real-time Memory Report at c_bands before calling an iterative solver
             0 MiB given to the printing process from OS
             0 MiB allocation reported by mallinfo(arena+hblkhd)
        169238 MiB available memory on the node where the printing process lives
------------------
     ethr =  7.80E-05,  avg # of iterations =  9.9

     negative rho (up, down):  8.120E-01 0.000E+00

     total cpu time spent up to now is      237.9 secs

     total energy              =   -4399.97749859 Ry
     estimated scf accuracy    <       0.81057534 Ry

     iteration # 18     ecut=    60.00 Ry     beta= 0.15
     Davidson diagonalization with overlap

---- Real-time Memory Report at c_bands before calling an iterative solver
             0 MiB given to the printing process from OS
             0 MiB allocation reported by mallinfo(arena+hblkhd)
        169187 MiB available memory on the node where the printing process lives
------------------
     ethr =  7.80E-05,  avg # of iterations =  6.8

     negative rho (up, down):  8.168E-01 0.000E+00

     total cpu time spent up to now is      253.4 secs

     total energy              =   -4399.93773030 Ry
     estimated scf accuracy    <       0.30493743 Ry

     iteration # 19     ecut=    60.00 Ry     beta= 0.15
     Davidson diagonalization with overlap

---- Real-time Memory Report at c_bands before calling an iterative solver
             0 MiB given to the printing process from OS
             0 MiB allocation reported by mallinfo(arena+hblkhd)
        169179 MiB available memory on the node where the printing process lives
------------------
     ethr =  7.17E-05,  avg # of iterations =  9.8

     negative rho (up, down):  8.148E-01 0.000E+00

     total cpu time spent up to now is      270.7 secs

     total energy              =   -4399.93898250 Ry
     estimated scf accuracy    <       0.15969886 Ry

     iteration # 20     ecut=    60.00 Ry     beta= 0.15
     Davidson diagonalization with overlap

---- Real-time Memory Report at c_bands before calling an iterative solver
             0 MiB given to the printing process from OS
             0 MiB allocation reported by mallinfo(arena+hblkhd)
        169193 MiB available memory on the node where the printing process lives
------------------
     c_bands:  2 eigenvalues not converged
     ethr =  3.76E-05,  avg # of iterations =  4.9

     negative rho (up, down):  8.244E-01 0.000E+00

     total cpu time spent up to now is      286.5 secs

     total energy              =   -4399.92215778 Ry
     estimated scf accuracy    <       0.09223816 Ry

     iteration # 21     ecut=    60.00 Ry     beta= 0.15
     Davidson diagonalization with overlap

---- Real-time Memory Report at c_bands before calling an iterative solver
             0 MiB given to the printing process from OS
             0 MiB allocation reported by mallinfo(arena+hblkhd)
        169208 MiB available memory on the node where the printing process lives
------------------
     ethr =  2.17E-05,  avg # of iterations = 10.6

     negative rho (up, down):  8.258E-01 0.000E+00

     total cpu time spent up to now is      304.5 secs

     total energy              =   -4399.92305096 Ry
     estimated scf accuracy    <       0.06042009 Ry

     iteration # 22     ecut=    60.00 Ry     beta= 0.15
     Davidson diagonalization with overlap

---- Real-time Memory Report at c_bands before calling an iterative solver
             0 MiB given to the printing process from OS
             0 MiB allocation reported by mallinfo(arena+hblkhd)
        169137 MiB available memory on the node where the printing process lives
------------------
     ethr =  1.42E-05,  avg # of iterations =  3.4

     negative rho (up, down):  8.232E-01 0.000E+00

     total cpu time spent up to now is      318.8 secs

     total energy              =   -4399.92080600 Ry
     estimated scf accuracy    <       0.05237910 Ry

     iteration # 23     ecut=    60.00 Ry     beta= 0.15
     Davidson diagonalization with overlap

---- Real-time Memory Report at c_bands before calling an iterative solver
             0 MiB given to the printing process from OS
             0 MiB allocation reported by mallinfo(arena+hblkhd)
        169145 MiB available memory on the node where the printing process lives
------------------
     c_bands:  1 eigenvalues not converged
     ethr =  1.23E-05,  avg # of iterations =  5.4

     negative rho (up, down):  7.949E-01 0.000E+00

     total cpu time spent up to now is      333.7 secs

     total energy              =   -4399.91009340 Ry
     estimated scf accuracy    <       0.04474460 Ry

     iteration # 24     ecut=    60.00 Ry     beta= 0.15
     Davidson diagonalization with overlap

---- Real-time Memory Report at c_bands before calling an iterative solver
             0 MiB given to the printing process from OS
             0 MiB allocation reported by mallinfo(arena+hblkhd)
        169208 MiB available memory on the node where the printing process lives
------------------
     ethr =  1.05E-05,  avg # of iterations =  9.6

     negative rho (up, down):  7.994E-01 0.000E+00

     total cpu time spent up to now is      351.1 secs

     total energy              =   -4399.91045198 Ry
     estimated scf accuracy    <       0.02055888 Ry

     iteration # 25     ecut=    60.00 Ry     beta= 0.15
     Davidson diagonalization with overlap

---- Real-time Memory Report at c_bands before calling an iterative solver
             0 MiB given to the printing process from OS
             0 MiB allocation reported by mallinfo(arena+hblkhd)
        169136 MiB available memory on the node where the printing process lives
------------------
     c_bands:  1 eigenvalues not converged
     c_bands:  1 eigenvalues not converged
     ethr =  4.84E-06,  avg # of iterations = 11.6

     negative rho (up, down):  7.941E-01 0.000E+00

     total cpu time spent up to now is      369.2 secs

     total energy              =   -4399.91071982 Ry
     estimated scf accuracy    <       0.01010911 Ry

     iteration # 26     ecut=    60.00 Ry     beta= 0.15
     Davidson diagonalization with overlap

---- Real-time Memory Report at c_bands before calling an iterative solver
             0 MiB given to the printing process from OS
             0 MiB allocation reported by mallinfo(arena+hblkhd)
        169111 MiB available memory on the node where the printing process lives
------------------
     ethr =  2.38E-06,  avg # of iterations =  4.2

     negative rho (up, down):  7.895E-01 0.000E+00

     total cpu time spent up to now is      383.6 secs

     total energy              =   -4399.91008945 Ry
     estimated scf accuracy    <       0.00866136 Ry

     iteration # 27     ecut=    60.00 Ry     beta= 0.15
     Davidson diagonalization with overlap

---- Real-time Memory Report at c_bands before calling an iterative solver
             0 MiB given to the printing process from OS
             0 MiB allocation reported by mallinfo(arena+hblkhd)
        169163 MiB available memory on the node where the printing process lives
------------------
     ethr =  2.04E-06,  avg # of iterations =  9.0

     negative rho (up, down):  7.899E-01 0.000E+00

     total cpu time spent up to now is      400.4 secs

     total energy              =   -4399.90925820 Ry
     estimated scf accuracy    <       0.00599123 Ry

     iteration # 28     ecut=    60.00 Ry     beta= 0.15
     Davidson diagonalization with overlap

---- Real-time Memory Report at c_bands before calling an iterative solver
             0 MiB given to the printing process from OS
             0 MiB allocation reported by mallinfo(arena+hblkhd)
        169185 MiB available memory on the node where the printing process lives
------------------
     c_bands:  1 eigenvalues not converged
     ethr =  1.41E-06,  avg # of iterations = 12.5

     negative rho (up, down):  7.930E-01 0.000E+00

     total cpu time spent up to now is      419.2 secs

     total energy              =   -4399.90929852 Ry
     estimated scf accuracy    <       0.00240899 Ry

     iteration # 29     ecut=    60.00 Ry     beta= 0.15
     Davidson diagonalization with overlap

---- Real-time Memory Report at c_bands before calling an iterative solver
             0 MiB given to the printing process from OS
             0 MiB allocation reported by mallinfo(arena+hblkhd)
        169134 MiB available memory on the node where the printing process lives
------------------
     c_bands:  1 eigenvalues not converged
     c_bands:  1 eigenvalues not converged
     ethr =  5.67E-07,  avg # of iterations =  9.5

     negative rho (up, down):  7.939E-01 0.000E+00

     total cpu time spent up to now is      436.5 secs

     total energy              =   -4399.90932257 Ry
     estimated scf accuracy    <       0.00103109 Ry

     iteration # 30     ecut=    60.00 Ry     beta= 0.15
     Davidson diagonalization with overlap

---- Real-time Memory Report at c_bands before calling an iterative solver
             0 MiB given to the printing process from OS
             0 MiB allocation reported by mallinfo(arena+hblkhd)
        169073 MiB available memory on the node where the printing process lives
------------------
     c_bands:  1 eigenvalues not converged
     ethr =  2.43E-07,  avg # of iterations = 10.4

     negative rho (up, down):  7.942E-01 0.000E+00

     total cpu time spent up to now is      453.5 secs

     total energy              =   -4399.90928733 Ry
     estimated scf accuracy    <       0.00051093 Ry

     iteration # 31     ecut=    60.00 Ry     beta= 0.15
     Davidson diagonalization with overlap

---- Real-time Memory Report at c_bands before calling an iterative solver
             0 MiB given to the printing process from OS
             0 MiB allocation reported by mallinfo(arena+hblkhd)
        169045 MiB available memory on the node where the printing process lives
------------------
     ethr =  1.20E-07,  avg # of iterations =  8.3

     negative rho (up, down):  7.944E-01 0.000E+00

     total cpu time spent up to now is      469.1 secs

     total energy              =   -4399.90925855 Ry
     estimated scf accuracy    <       0.00026080 Ry

     iteration # 32     ecut=    60.00 Ry     beta= 0.15
     Davidson diagonalization with overlap

---- Real-time Memory Report at c_bands before calling an iterative solver
             0 MiB given to the printing process from OS
             0 MiB allocation reported by mallinfo(arena+hblkhd)
        169071 MiB available memory on the node where the printing process lives
------------------
     ethr =  6.14E-08,  avg # of iterations =  3.9

     negative rho (up, down):  7.938E-01 0.000E+00

     total cpu time spent up to now is      483.6 secs

     total energy              =   -4399.90924381 Ry
     estimated scf accuracy    <       0.00011065 Ry

     iteration # 33     ecut=    60.00 Ry     beta= 0.15
     Davidson diagonalization with overlap

---- Real-time Memory Report at c_bands before calling an iterative solver
             0 MiB given to the printing process from OS
             0 MiB allocation reported by mallinfo(arena+hblkhd)
        169102 MiB available memory on the node where the printing process lives
------------------
     ethr =  2.60E-08,  avg # of iterations =  2.6

     negative rho (up, down):  7.931E-01 0.000E+00

     total cpu time spent up to now is      498.5 secs

     total energy              =   -4399.90925181 Ry
     estimated scf accuracy    <       0.00003709 Ry

     iteration # 34     ecut=    60.00 Ry     beta= 0.15
     Davidson diagonalization with overlap

---- Real-time Memory Report at c_bands before calling an iterative solver
             0 MiB given to the printing process from OS
             0 MiB allocation reported by mallinfo(arena+hblkhd)
        169129 MiB available memory on the node where the printing process lives
------------------
     ethr =  8.73E-09,  avg # of iterations =  2.5

     negative rho (up, down):  7.927E-01 0.000E+00

     total cpu time spent up to now is      512.1 secs

     total energy              =   -4399.90925569 Ry
     estimated scf accuracy    <       0.00002180 Ry

     iteration # 35     ecut=    60.00 Ry     beta= 0.15
     Davidson diagonalization with overlap

---- Real-time Memory Report at c_bands before calling an iterative solver
             0 MiB given to the printing process from OS
             0 MiB allocation reported by mallinfo(arena+hblkhd)
        169127 MiB available memory on the node where the printing process lives
------------------
     ethr =  5.13E-09,  avg # of iterations =  2.9

     negative rho (up, down):  7.925E-01 0.000E+00

     total cpu time spent up to now is      526.3 secs

     total energy              =   -4399.90926040 Ry
     estimated scf accuracy    <       0.00001310 Ry

     iteration # 36     ecut=    60.00 Ry     beta= 0.15
     Davidson diagonalization with overlap

---- Real-time Memory Report at c_bands before calling an iterative solver
             0 MiB given to the printing process from OS
             0 MiB allocation reported by mallinfo(arena+hblkhd)
        169117 MiB available memory on the node where the printing process lives
------------------
     ethr =  3.08E-09,  avg # of iterations =  2.2

     negative rho (up, down):  7.924E-01 0.000E+00

     total cpu time spent up to now is      540.3 secs

     total energy              =   -4399.90926405 Ry
     estimated scf accuracy    <       0.00000956 Ry

     iteration # 37     ecut=    60.00 Ry     beta= 0.15
     Davidson diagonalization with overlap

---- Real-time Memory Report at c_bands before calling an iterative solver
             0 MiB given to the printing process from OS
             0 MiB allocation reported by mallinfo(arena+hblkhd)
        169119 MiB available memory on the node where the printing process lives
------------------
     ethr =  2.25E-09,  avg # of iterations =  3.4

     negative rho (up, down):  7.923E-01 0.000E+00

     total cpu time spent up to now is      555.3 secs

     total energy              =   -4399.90926470 Ry
     estimated scf accuracy    <       0.00000707 Ry

     iteration # 38     ecut=    60.00 Ry     beta= 0.15
     Davidson diagonalization with overlap

---- Real-time Memory Report at c_bands before calling an iterative solver
             0 MiB given to the printing process from OS
             0 MiB allocation reported by mallinfo(arena+hblkhd)
        169115 MiB available memory on the node where the printing process lives
------------------
     ethr =  1.66E-09,  avg # of iterations =  3.0

     negative rho (up, down):  7.923E-01 0.000E+00

     total cpu time spent up to now is      569.2 secs

     total energy              =   -4399.90926526 Ry
     estimated scf accuracy    <       0.00000468 Ry

     iteration # 39     ecut=    60.00 Ry     beta= 0.15
     Davidson diagonalization with overlap

---- Real-time Memory Report at c_bands before calling an iterative solver
             0 MiB given to the printing process from OS
             0 MiB allocation reported by mallinfo(arena+hblkhd)
        169152 MiB available memory on the node where the printing process lives
------------------
     ethr =  1.10E-09,  avg # of iterations =  2.2

     negative rho (up, down):  7.923E-01 0.000E+00

     total cpu time spent up to now is      582.8 secs

     total energy              =   -4399.90926625 Ry
     estimated scf accuracy    <       0.00000339 Ry

     iteration # 40     ecut=    60.00 Ry     beta= 0.15
     Davidson diagonalization with overlap

---- Real-time Memory Report at c_bands before calling an iterative solver
             0 MiB given to the printing process from OS
             0 MiB allocation reported by mallinfo(arena+hblkhd)
        169156 MiB available memory on the node where the printing process lives
------------------
     ethr =  7.97E-10,  avg # of iterations =  2.4

     negative rho (up, down):  7.924E-01 0.000E+00

     total cpu time spent up to now is      596.5 secs

     total energy              =   -4399.90926754 Ry
     estimated scf accuracy    <       0.00000247 Ry

     iteration # 41     ecut=    60.00 Ry     beta= 0.15
     Davidson diagonalization with overlap

---- Real-time Memory Report at c_bands before calling an iterative solver
             0 MiB given to the printing process from OS
             0 MiB allocation reported by mallinfo(arena+hblkhd)
        169158 MiB available memory on the node where the printing process lives
------------------
     ethr =  5.80E-10,  avg # of iterations =  2.2

     negative rho (up, down):  7.923E-01 0.000E+00

     total cpu time spent up to now is      610.0 secs

     total energy              =   -4399.90926985 Ry
     estimated scf accuracy    <       0.00000180 Ry

     iteration # 42     ecut=    60.00 Ry     beta= 0.15
     Davidson diagonalization with overlap

---- Real-time Memory Report at c_bands before calling an iterative solver
             0 MiB given to the printing process from OS
             0 MiB allocation reported by mallinfo(arena+hblkhd)
        169165 MiB available memory on the node where the printing process lives
------------------
     ethr =  4.23E-10,  avg # of iterations =  3.6

     negative rho (up, down):  7.924E-01 0.000E+00

     total cpu time spent up to now is      624.0 secs

     total energy              =   -4399.90927052 Ry
     estimated scf accuracy    <       0.00000085 Ry

     iteration # 43     ecut=    60.00 Ry     beta= 0.15
     Davidson diagonalization with overlap

---- Real-time Memory Report at c_bands before calling an iterative solver
             0 MiB given to the printing process from OS
             0 MiB allocation reported by mallinfo(arena+hblkhd)
        169164 MiB available memory on the node where the printing process lives
------------------
     ethr =  2.00E-10,  avg # of iterations =  3.9

     negative rho (up, down):  7.924E-01 0.000E+00

     total cpu time spent up to now is      638.3 secs

     total energy              =   -4399.90927055 Ry
     estimated scf accuracy    <       0.00000043 Ry

     iteration # 44     ecut=    60.00 Ry     beta= 0.15
     Davidson diagonalization with overlap

---- Real-time Memory Report at c_bands before calling an iterative solver
             0 MiB given to the printing process from OS
             0 MiB allocation reported by mallinfo(arena+hblkhd)
        169161 MiB available memory on the node where the printing process lives
------------------
     ethr =  1.02E-10,  avg # of iterations =  2.9

     negative rho (up, down):  7.924E-01 0.000E+00

     total cpu time spent up to now is      652.1 secs

     total energy              =   -4399.90927047 Ry
     estimated scf accuracy    <       0.00000027 Ry

     iteration # 45     ecut=    60.00 Ry     beta= 0.15
     Davidson diagonalization with overlap

---- Real-time Memory Report at c_bands before calling an iterative solver
             0 MiB given to the printing process from OS
             0 MiB allocation reported by mallinfo(arena+hblkhd)
        169160 MiB available memory on the node where the printing process lives
------------------
     ethr =  6.40E-11,  avg # of iterations =  2.8

     negative rho (up, down):  7.924E-01 0.000E+00

     total cpu time spent up to now is      665.9 secs

     total energy              =   -4399.90927044 Ry
     estimated scf accuracy    <       0.00000012 Ry

     iteration # 46     ecut=    60.00 Ry     beta= 0.15
     Davidson diagonalization with overlap

---- Real-time Memory Report at c_bands before calling an iterative solver
             0 MiB given to the printing process from OS
             0 MiB allocation reported by mallinfo(arena+hblkhd)
        169160 MiB available memory on the node where the printing process lives
------------------
     ethr =  2.81E-11,  avg # of iterations =  2.1

     negative rho (up, down):  7.924E-01 0.000E+00

     total cpu time spent up to now is      679.8 secs

     total energy              =   -4399.90927046 Ry
     estimated scf accuracy    <       0.00000005 Ry

     iteration # 47     ecut=    60.00 Ry     beta= 0.15
     Davidson diagonalization with overlap

---- Real-time Memory Report at c_bands before calling an iterative solver
             0 MiB given to the printing process from OS
             0 MiB allocation reported by mallinfo(arena+hblkhd)
        169158 MiB available memory on the node where the printing process lives
------------------
     ethr =  1.11E-11,  avg # of iterations =  2.2

     negative rho (up, down):  7.924E-01 0.000E+00

     total cpu time spent up to now is      693.6 secs

     total energy              =   -4399.90927048 Ry
     estimated scf accuracy    <       0.00000002 Ry

     iteration # 48     ecut=    60.00 Ry     beta= 0.15
     Davidson diagonalization with overlap

---- Real-time Memory Report at c_bands before calling an iterative solver
             0 MiB given to the printing process from OS
             0 MiB allocation reported by mallinfo(arena+hblkhd)
        169151 MiB available memory on the node where the printing process lives
------------------
     ethr =  4.15E-12,  avg # of iterations =  2.9

     negative rho (up, down):  7.924E-01 0.000E+00

     total cpu time spent up to now is      708.5 secs

     End of self-consistent calculation

          k = 0.0000 0.0000 0.0000 ( 65197 PWs)   bands (ev):

   -92.7002 -92.6462 -92.5541 -92.5057 -92.4462 -92.4064 -92.3897 -92.2612
   -56.0536 -56.0329 -55.9115 -55.9009 -55.8942 -55.8877 -55.8517 -55.8233
   -55.8084 -55.8058 -55.7961 -55.7545 -55.7358 -55.6979 -55.6804 -55.6459
   -55.6415 -55.5952 -55.5918 -55.5889 -55.5834 -55.5318 -55.5200 -55.4311
   -31.2770 -31.2576 -31.1159 -31.0969 -31.0291 -31.0134 -30.9070 -30.7936
   -29.8491 -29.8058 -29.7799 -29.6716 -15.0815 -15.0437 -14.9591 -14.8282
   -14.6417 -14.5182 -14.2207 -14.2026 -14.1719 -14.1275 -14.0849 -14.0760
   -14.0622 -14.0467 -14.0267 -13.9887 -13.9310 -13.7820 -13.6085 -13.5706
   -13.5389 -13.5109 -13.4924 -13.4423 -13.4054 -13.3215 -13.2503 -13.1521
   -13.1141 -13.1098 -13.0947 -13.0748 -13.0568 -13.0223 -13.0044 -12.9913
   -12.9594 -12.9268 -12.9234 -12.9034 -12.8940 -12.8842 -12.8322 -12.8156
   -12.7939 -12.7333 -12.6965 -12.6839 -12.3416 -12.1961 -12.0649 -11.9919
   -11.8629 -11.7884 -11.7772 -11.7549 -11.7372 -11.6734 -11.6561 -11.6215
   -11.5924 -11.4811 -11.4007 -11.3971  -2.9430  -2.7100  -2.4801  -2.3345
    -2.2705  -2.1277  -1.8213  -1.8073  -1.7863  -1.7038  -1.6848  -1.6161
    -1.6003  -1.5586  -1.5114  -1.3334  -1.1095  -1.0806  -0.9308  -0.9170
    -0.8732  -0.8548  -0.8094  -0.7935  -0.7345  -0.7081  -0.6393  -0.6261
    -0.5474  -0.4171  -0.4033  -0.3757  -0.2945  -0.2857  -0.2726  -0.2013
    -0.1302  -0.1002  -0.0348  -0.0123   0.0438   0.1314   0.1785   0.2018
     0.2098   0.4660   0.4811   0.6520   0.7200   0.7828   0.8265   0.9189
     0.9336   0.9523   1.0188   1.0463   1.0807   1.1390   1.2728   1.3271
     1.3495   1.3702   1.3792   1.4461   1.5216   1.6198   1.6335   1.6918
     1.7104   1.7519   1.7733   1.7787   1.8307   1.8847   1.8961   1.9292
     1.9669   2.0227   2.1539   2.2334   2.2813   2.3037   2.4470   2.4626
     2.5066   2.5132   2.6222   2.6554   2.6826   2.7005   2.7156   2.7711
     2.8260   2.9049   2.9384   2.9511   2.9584   3.0248   3.0285   3.0537
     3.0618   3.0706   3.0875   3.0898   3.1037   3.1083   3.1249   3.1323
     3.1406   3.1569   3.1777   3.1838   3.1950   3.2212   3.3359   3.4585
     4.1171   4.4220   4.7653   4.8729   5.0374   5.8329   5.9266   5.9849
     6.0481   6.3152   6.3619   6.4862   6.4964   6.7296   7.0137   7.0973
     7.1016   7.1108   7.3146   7.5592   7.6556   7.6650   7.6972   7.9391
     8.0641   8.1178   8.1270   8.1415   8.3729   8.6301   8.7161   8.8267

     occupation numbers 
     1.0000   1.0000   1.0000   1.0000   1.0000   1.0000   1.0000   1.0000
     1.0000   1.0000   1.0000   1.0000   1.0000   1.0000   1.0000   1.0000
     1.0000   1.0000   1.0000   1.0000   1.0000   1.0000   1.0000   1.0000
     1.0000   1.0000   1.0000   1.0000   1.0000   1.0000   1.0000   1.0000
     1.0000   1.0000   1.0000   1.0000   1.0000   1.0000   1.0000   1.0000
     1.0000   1.0000   1.0000   1.0000   1.0000   1.0000   1.0000   1.0000
     1.0000   1.0000   1.0000   1.0000   1.0000   1.0000   1.0000   1.0000
     1.0000   1.0000   1.0000   1.0000   1.0000   1.0000   1.0000   1.0000
     1.0000   1.0000   1.0000   1.0000   1.0000   1.0000   1.0000   1.0000
     1.0000   1.0000   1.0000   1.0000   1.0000   1.0000   1.0000   1.0000
     1.0000   1.0000   1.0000   1.0000   1.0000   1.0000   1.0000   1.0000
     1.0000   1.0000   1.0000   1.0000   1.0000   1.0000   1.0000   1.0000
     1.0000   1.0000   1.0000   1.0000   1.0000   1.0000   1.0000   1.0000
     1.0000   1.0000   1.0000   1.0000   1.0000   1.0000   1.0000   1.0000
     1.0000   1.0000   1.0000   1.0000   1.0000   1.0000   1.0000   1.0000
     1.0000   1.0000   1.0000   1.0000   1.0000   1.0000   1.0000   1.0000
     1.0000   1.0000   1.0000   1.0000   1.0000   1.0000   1.0000   1.0000
     1.0000   1.0000   1.0000   1.0000   1.0000   1.0000   1.0000   1.0000
     1.0000   1.0000   1.0000   1.0000   1.0000   1.0000   1.0000   1.0000
     1.0000   1.0000   1.0000   1.0000   0.9999   0.9999   0.9999   0.9998
     0.9998   0.9998   0.9997   0.9996   0.9996   0.9994   0.9989   0.9985
     0.9983   0.9982   0.9981   0.9974   0.9963   0.9944   0.9941   0.9924
     0.9918   0.9903   0.9895   0.9893   0.9869   0.9839   0.9832   0.9811
     0.9783   0.9736   0.9593   0.9479   0.9398   0.9358   0.9044   0.9004
     0.8885   0.8867   0.8525   0.8408   0.8308   0.8240   0.8182   0.7956
     0.7717   0.7348   0.7182   0.7118   0.7081   0.6734   0.6714   0.6577
     0.6533   0.6485   0.6391   0.6379   0.6301   0.6275   0.6182   0.6140
     0.6092   0.5999   0.5879   0.5844   0.5779   0.5626   0.4949   0.4228
     0.1205   0.0520   0.0164   0.0109   0.0056   0.0001   0.0001   0.0000
     0.0000   0.0000   0.0000   0.0000   0.0000   0.0000   0.0000   0.0000
     0.0000   0.0000   0.0000   0.0000   0.0000   0.0000   0.0000   0.0000
     0.0000   0.0000   0.0000   0.0000   0.0000   0.0000   0.0000   0.0000

          k = 0.0000 0.2500 0.0000 ( 65257 PWs)   bands (ev):

   -92.7002 -92.6462 -92.5541 -92.5057 -92.4462 -92.4064 -92.3897 -92.2612
   -56.0536 -56.0329 -55.9115 -55.9009 -55.8942 -55.8877 -55.8517 -55.8233
   -55.8084 -55.8058 -55.7961 -55.7545 -55.7358 -55.6979 -55.6804 -55.6459
   -55.6415 -55.5952 -55.5918 -55.5889 -55.5834 -55.5318 -55.5200 -55.4311
   -31.2768 -31.2574 -31.1161 -31.0965 -31.0292 -31.0138 -30.9067 -30.7939
   -29.8485 -29.8055 -29.7805 -29.6719 -15.0445 -15.0176 -14.9341 -14.7990
   -14.6816 -14.5085 -14.3665 -14.1863 -14.1551 -14.1322 -14.1036 -14.0475
   -14.0412 -14.0266 -14.0101 -13.9680 -13.8506 -13.8129 -13.6482 -13.6343
   -13.5800 -13.5449 -13.5027 -13.4590 -13.4223 -13.3434 -13.3077 -13.2641
   -13.1983 -13.1471 -13.1090 -13.0997 -13.0796 -12.9950 -12.9722 -12.9474
   -12.9322 -12.9024 -12.8720 -12.8667 -12.8476 -12.8275 -12.7962 -12.7823
   -12.7612 -12.7262 -12.6070 -12.5320 -12.4030 -12.2473 -12.1215 -12.0589
   -11.8283 -11.7852 -11.7575 -11.7291 -11.7125 -11.6653 -11.6539 -11.6314
   -11.5974 -11.4953 -11.4424 -11.4318  -2.8077  -2.5856  -2.4481  -2.2663
    -2.2227  -2.0585  -1.8401  -1.7544  -1.7414  -1.6848  -1.5817  -1.5665
    -1.5302  -1.5058  -1.4620  -1.2645  -1.1362  -1.1243  -1.0476  -1.0373
    -0.9329  -0.9019  -0.8463  -0.8214  -0.7787  -0.7156  -0.6899  -0.6573
    -0.6273  -0.6101  -0.5769  -0.5026  -0.4510  -0.3878  -0.2767  -0.2568
    -0.2147  -0.0986  -0.0651   0.0013   0.0484   0.1130   0.1293   0.1574
     0.2132   0.5120   0.6011   0.6301   0.7200   0.7645   0.7821   0.9089
     0.9264   1.0189   1.0455   1.0737   1.1897   1.2788   1.3031   1.3264
     1.3459   1.3732   1.4325   1.4597   1.4861   1.5353   1.5681   1.5966
     1.6752   1.7090   1.7453   1.8024   1.8512   1.8888   1.9196   1.9522
     1.9700   2.0532   2.1873   2.2611   2.2856   2.3581   2.4031   2.4404
     2.4496   2.5138   2.5543   2.6397   2.6719   2.6907   2.7973   2.8662
     2.8964   2.9194   2.9419   2.9611   2.9688   2.9740   2.9875   3.0139
     3.0163   3.0351   3.0418   3.0518   3.0686   3.0838   3.0893   3.1085
     3.1187   3.1238   3.1583   3.1754   3.2409   3.5948   3.6624   3.8882
     4.3086   4.4185   4.7028   5.0198   5.0724   5.6338   5.7745   5.9243
     5.9762   6.0893   6.1294   6.1866   6.6039   6.8862   6.9075   7.1194
     7.2030   7.3346   7.4852   7.5003   7.6471   7.7405   7.8326   7.9177
     8.0374   8.0745   8.1732   8.2968   8.4113   8.4629   8.7507   8.8836

     occupation numbers 
     1.0000   1.0000   1.0000   1.0000   1.0000   1.0000   1.0000   1.0000
     1.0000   1.0000   1.0000   1.0000   1.0000   1.0000   1.0000   1.0000
     1.0000   1.0000   1.0000   1.0000   1.0000   1.0000   1.0000   1.0000
     1.0000   1.0000   1.0000   1.0000   1.0000   1.0000   1.0000   1.0000
     1.0000   1.0000   1.0000   1.0000   1.0000   1.0000   1.0000   1.0000
     1.0000   1.0000   1.0000   1.0000   1.0000   1.0000   1.0000   1.0000
     1.0000   1.0000   1.0000   1.0000   1.0000   1.0000   1.0000   1.0000
     1.0000   1.0000   1.0000   1.0000   1.0000   1.0000   1.0000   1.0000
     1.0000   1.0000   1.0000   1.0000   1.0000   1.0000   1.0000   1.0000
     1.0000   1.0000   1.0000   1.0000   1.0000   1.0000   1.0000   1.0000
     1.0000   1.0000   1.0000   1.0000   1.0000   1.0000   1.0000   1.0000
     1.0000   1.0000   1.0000   1.0000   1.0000   1.0000   1.0000   1.0000
     1.0000   1.0000   1.0000   1.0000   1.0000   1.0000   1.0000   1.0000
     1.0000   1.0000   1.0000   1.0000   1.0000   1.0000   1.0000   1.0000
     1.0000   1.0000   1.0000   1.0000   1.0000   1.0000   1.0000   1.0000
     1.0000   1.0000   1.0000   1.0000   1.0000   1.0000   1.0000   1.0000
     1.0000   1.0000   1.0000   1.0000   1.0000   1.0000   1.0000   1.0000
     1.0000   1.0000   1.0000   1.0000   1.0000   1.0000   1.0000   1.0000
     1.0000   1.0000   1.0000   1.0000   1.0000   1.0000   1.0000   1.0000
     1.0000   1.0000   1.0000   1.0000   0.9999   0.9999   0.9999   0.9998
     0.9998   0.9997   0.9996   0.9996   0.9992   0.9988   0.9987   0.9985
     0.9984   0.9981   0.9976   0.9972   0.9969   0.9961   0.9955   0.9949
     0.9929   0.9919   0.9906   0.9882   0.9858   0.9837   0.9817   0.9794
     0.9781   0.9708   0.9548   0.9433   0.9391   0.9250   0.9150   0.9061
     0.9038   0.8865   0.8745   0.8464   0.8348   0.8278   0.7844   0.7533
     0.7389   0.7277   0.7164   0.7067   0.7028   0.7001   0.6931   0.6792
     0.6779   0.6678   0.6642   0.6588   0.6496   0.6412   0.6381   0.6274
     0.6217   0.6187   0.5991   0.5893   0.5511   0.3457   0.3094   0.2025
     0.0726   0.0526   0.0206   0.0060   0.0048   0.0003   0.0001   0.0001
     0.0000   0.0000   0.0000   0.0000   0.0000   0.0000   0.0000   0.0000
     0.0000   0.0000   0.0000   0.0000   0.0000   0.0000   0.0000   0.0000
     0.0000   0.0000   0.0000   0.0000   0.0000   0.0000   0.0000   0.0000

          k = 0.0000-0.5000 0.0000 ( 65180 PWs)   bands (ev):

   -92.7002 -92.6462 -92.5541 -92.5057 -92.4462 -92.4064 -92.3897 -92.2612
   -56.0536 -56.0329 -55.9115 -55.9009 -55.8942 -55.8877 -55.8517 -55.8233
   -55.8084 -55.8058 -55.7961 -55.7545 -55.7358 -55.6979 -55.6804 -55.6459
   -55.6415 -55.5952 -55.5918 -55.5889 -55.5834 -55.5318 -55.5200 -55.4311
   -31.2766 -31.2573 -31.1163 -31.0961 -31.0293 -31.0142 -30.9064 -30.7942
   -29.8478 -29.8051 -29.7812 -29.6722 -15.0119 -14.9631 -14.9110 -14.7856
   -14.6976 -14.5603 -14.4115 -14.2882 -14.1570 -14.0922 -14.0494 -14.0381
   -13.9903 -13.9718 -13.9251 -13.9065 -13.8804 -13.8439 -13.8190 -13.7763
   -13.5834 -13.5264 -13.5110 -13.4558 -13.4302 -13.3582 -13.3323 -13.2824
   -13.2815 -13.2171 -13.1101 -13.0994 -13.0639 -13.0176 -12.9683 -12.9542
   -12.9281 -12.8819 -12.8689 -12.8451 -12.8238 -12.7693 -12.7420 -12.7338
   -12.7045 -12.6512 -12.5140 -12.4663 -12.3224 -12.3160 -12.2293 -12.1862
   -11.7821 -11.7800 -11.7526 -11.7148 -11.6806 -11.6696 -11.6271 -11.6231
   -11.5791 -11.5169 -11.5031 -11.4889  -2.5932  -2.5334  -2.3825  -2.3101
    -2.0296  -1.9454  -1.8185  -1.6802  -1.6443  -1.6241  -1.5435  -1.5141
    -1.4325  -1.3971  -1.3208  -1.2795  -1.2405  -1.2136  -1.1571  -1.1193
    -1.0737  -1.0371  -1.0033  -0.9697  -0.8592  -0.8141  -0.7807  -0.7796
    -0.6939  -0.6595  -0.6390  -0.5900  -0.5041  -0.4350  -0.3527  -0.3266
    -0.2201  -0.1752  -0.0294   0.0043   0.0300   0.0895   0.2008   0.2524
     0.3920   0.4577   0.4648   0.5937   0.6357   0.7391   0.8712   0.9803
     1.0108   1.0478   1.0519   1.0959   1.1097   1.1459   1.1613   1.1726
     1.2822   1.3430   1.3733   1.3987   1.6569   1.6884   1.7033   1.8060
     1.8318   1.8596   1.8744   1.9073   1.9155   1.9295   1.9606   1.9998
     2.0291   2.0553   2.0665   2.0952   2.1499   2.2289   2.2567   2.4427
     2.6028   2.6126   2.6329   2.6631   2.6684   2.6803   2.7312   2.7442
     2.7727   2.8017   2.8391   2.9041   2.9156   2.9771   2.9984   3.0092
     3.0124   3.0312   3.0391   3.0421   3.0450   3.0516   3.0736   3.0788
     3.0941   3.1434   3.1533   3.1650   3.2187   4.1277   4.1663   4.1732
     4.2555   4.7603   4.8950   5.0294   5.1495   5.4166   5.4665   5.5925
     5.6976   5.9838   6.0353   6.0475   6.7721   6.8602   6.9564   7.2251
     7.3146   7.3358   7.4120   7.4769   7.5993   7.7547   7.8070   7.9105
     8.0825   8.1845   8.3449   8.4934   8.6674   8.7010   8.8111   8.8325

     occupation numbers 
     1.0000   1.0000   1.0000   1.0000   1.0000   1.0000   1.0000   1.0000
     1.0000   1.0000   1.0000   1.0000   1.0000   1.0000   1.0000   1.0000
     1.0000   1.0000   1.0000   1.0000   1.0000   1.0000   1.0000   1.0000
     1.0000   1.0000   1.0000   1.0000   1.0000   1.0000   1.0000   1.0000
     1.0000   1.0000   1.0000   1.0000   1.0000   1.0000   1.0000   1.0000
     1.0000   1.0000   1.0000   1.0000   1.0000   1.0000   1.0000   1.0000
     1.0000   1.0000   1.0000   1.0000   1.0000   1.0000   1.0000   1.0000
     1.0000   1.0000   1.0000   1.0000   1.0000   1.0000   1.0000   1.0000
     1.0000   1.0000   1.0000   1.0000   1.0000   1.0000   1.0000   1.0000
     1.0000   1.0000   1.0000   1.0000   1.0000   1.0000   1.0000   1.0000
     1.0000   1.0000   1.0000   1.0000   1.0000   1.0000   1.0000   1.0000
     1.0000   1.0000   1.0000   1.0000   1.0000   1.0000   1.0000   1.0000
     1.0000   1.0000   1.0000   1.0000   1.0000   1.0000   1.0000   1.0000
     1.0000   1.0000   1.0000   1.0000   1.0000   1.0000   1.0000   1.0000
     1.0000   1.0000   1.0000   1.0000   1.0000   1.0000   1.0000   1.0000
     1.0000   1.0000   1.0000   1.0000   1.0000   1.0000   1.0000   1.0000
     1.0000   1.0000   1.0000   1.0000   1.0000   1.0000   1.0000   1.0000
     1.0000   1.0000   1.0000   1.0000   1.0000   1.0000   1.0000   1.0000
     1.0000   1.0000   1.0000   1.0000   1.0000   1.0000   1.0000   1.0000
     1.0000   1.0000   1.0000   1.0000   1.0000   0.9999   0.9999   0.9998
     0.9997   0.9996   0.9996   0.9995   0.9995   0.9994   0.9994   0.9993
     0.9988   0.9984   0.9981   0.9979   0.9934   0.9925   0.9921   0.9881
     0.9868   0.9854   0.9845   0.9825   0.9820   0.9810   0.9788   0.9757
     0.9731   0.9705   0.9694   0.9663   0.9598   0.9486   0.9441   0.9055
     0.8590   0.8557   0.8488   0.8380   0.8361   0.8317   0.8120   0.8067
     0.7949   0.7825   0.7658   0.7351   0.7296   0.6985   0.6874   0.6817
     0.6800   0.6700   0.6657   0.6641   0.6625   0.6589   0.6468   0.6440
     0.6355   0.6076   0.6020   0.5953   0.5641   0.1173   0.1064   0.1046
     0.0841   0.0167   0.0100   0.0057   0.0034   0.0010   0.0007   0.0004
     0.0002   0.0000   0.0000   0.0000   0.0000   0.0000   0.0000   0.0000
     0.0000   0.0000   0.0000   0.0000   0.0000   0.0000   0.0000   0.0000
     0.0000   0.0000   0.0000   0.0000   0.0000   0.0000   0.0000   0.0000

          k = 0.2500 0.2500 0.0000 ( 65198 PWs)   bands (ev):

   -92.7002 -92.6462 -92.5541 -92.5057 -92.4462 -92.4064 -92.3897 -92.2612
   -56.0536 -56.0329 -55.9115 -55.9009 -55.8942 -55.8877 -55.8517 -55.8233
   -55.8084 -55.8058 -55.7961 -55.7545 -55.7358 -55.6979 -55.6804 -55.6459
   -55.6415 -55.5952 -55.5918 -55.5889 -55.5834 -55.5318 -55.5200 -55.4311
   -31.2751 -31.2591 -31.1157 -31.0963 -31.0296 -31.0137 -30.9069 -30.7941
   -29.8475 -29.8064 -29.7801 -29.6723 -15.0164 -14.9821 -14.9062 -14.7888
   -14.6733 -14.5487 -14.4718 -14.2694 -14.1095 -14.0973 -14.0627 -14.0330
   -14.0119 -13.9869 -13.9561 -13.9297 -13.8424 -13.8267 -13.6643 -13.6517
   -13.6223 -13.6010 -13.5589 -13.5119 -13.4667 -13.4261 -13.3228 -13.2828
   -13.2293 -13.1421 -13.1018 -13.0586 -13.0415 -13.0186 -12.9880 -12.9521
   -12.9460 -12.9208 -12.8879 -12.8449 -12.8230 -12.7897 -12.7451 -12.7347
   -12.7255 -12.7124 -12.5494 -12.4515 -12.4286 -12.2764 -12.1521 -12.1078
   -11.8005 -11.7687 -11.7580 -11.7507 -11.6884 -11.6533 -11.6469 -11.6115
   -11.6036 -11.5119 -11.4706 -11.4532  -2.6695  -2.4599  -2.3420  -2.2488
    -2.1271  -2.0617  -1.8650  -1.7198  -1.6994  -1.6714  -1.5766  -1.5402
    -1.4488  -1.4217  -1.3714  -1.2397  -1.1923  -1.1195  -1.0745  -1.0303
    -1.0062  -0.9812  -0.9394  -0.9238  -0.8334  -0.7839  -0.7199  -0.6703
    -0.6412  -0.5890  -0.5774  -0.5140  -0.4638  -0.4089  -0.3721  -0.2883
    -0.2363  -0.2070  -0.1666  -0.1115  -0.0475  -0.0028   0.0245   0.0934
     0.1379   0.4053   0.5511   0.5892   0.6417   0.6854   0.7417   0.7966
     0.8581   0.8953   1.1690   1.2373   1.3111   1.3367   1.3838   1.4167
     1.4515   1.4880   1.5063   1.5341   1.5742   1.5853   1.6012   1.6451
     1.6872   1.7243   1.7713   1.8133   1.8233   1.8566   1.8912   1.9479
     1.9754   2.0966   2.1691   2.2065   2.2350   2.2993   2.3643   2.3931
     2.4305   2.4526   2.4661   2.5820   2.6157   2.7018   2.8297   2.8774
     2.8947   2.8993   2.9151   2.9302   2.9436   2.9553   2.9626   2.9740
     2.9873   2.9993   3.0206   3.0266   3.0380   3.0565   3.0701   3.0787
     3.1112   3.4121   3.5063   3.5464   3.6112   3.6631   3.8709   3.9557
     4.3061   4.5111   4.7147   4.9794   5.1752   5.6429   5.6943   5.7438
     5.8339   5.8942   6.0219   6.1725   6.2210   6.7113   6.9038   7.0554
     7.1331   7.5556   7.6035   7.6405   7.7156   7.8717   7.9101   8.1169
     8.1356   8.1785   8.3162   8.3462   8.4054   8.4509   8.5237   8.8442

     occupation numbers 
     1.0000   1.0000   1.0000   1.0000   1.0000   1.0000   1.0000   1.0000
     1.0000   1.0000   1.0000   1.0000   1.0000   1.0000   1.0000   1.0000
     1.0000   1.0000   1.0000   1.0000   1.0000   1.0000   1.0000   1.0000
     1.0000   1.0000   1.0000   1.0000   1.0000   1.0000   1.0000   1.0000
     1.0000   1.0000   1.0000   1.0000   1.0000   1.0000   1.0000   1.0000
     1.0000   1.0000   1.0000   1.0000   1.0000   1.0000   1.0000   1.0000
     1.0000   1.0000   1.0000   1.0000   1.0000   1.0000   1.0000   1.0000
     1.0000   1.0000   1.0000   1.0000   1.0000   1.0000   1.0000   1.0000
     1.0000   1.0000   1.0000   1.0000   1.0000   1.0000   1.0000   1.0000
     1.0000   1.0000   1.0000   1.0000   1.0000   1.0000   1.0000   1.0000
     1.0000   1.0000   1.0000   1.0000   1.0000   1.0000   1.0000   1.0000
     1.0000   1.0000   1.0000   1.0000   1.0000   1.0000   1.0000   1.0000
     1.0000   1.0000   1.0000   1.0000   1.0000   1.0000   1.0000   1.0000
     1.0000   1.0000   1.0000   1.0000   1.0000   1.0000   1.0000   1.0000
     1.0000   1.0000   1.0000   1.0000   1.0000   1.0000   1.0000   1.0000
     1.0000   1.0000   1.0000   1.0000   1.0000   1.0000   1.0000   1.0000
     1.0000   1.0000   1.0000   1.0000   1.0000   1.0000   1.0000   1.0000
     1.0000   1.0000   1.0000   1.0000   1.0000   1.0000   1.0000   1.0000
     1.0000   1.0000   1.0000   1.0000   1.0000   1.0000   1.0000   1.0000
     1.0000   1.0000   1.0000   1.0000   1.0000   1.0000   0.9999   0.9999
     0.9999   0.9998   0.9993   0.9990   0.9986   0.9984   0.9980   0.9977
     0.9973   0.9968   0.9966   0.9961   0.9954   0.9952   0.9948   0.9938
     0.9926   0.9914   0.9896   0.9877   0.9872   0.9855   0.9835   0.9797
     0.9776   0.9662   0.9573   0.9520   0.9476   0.9366   0.9236   0.9173
     0.9085   0.9030   0.8995   0.8658   0.8547   0.8235   0.7700   0.7480
     0.7397   0.7375   0.7298   0.7223   0.7156   0.7097   0.7060   0.7001
     0.6932   0.6869   0.6756   0.6724   0.6663   0.6562   0.6488   0.6440
     0.6259   0.4499   0.3952   0.3725   0.3367   0.3091   0.2098   0.1754
     0.0731   0.0394   0.0197   0.0071   0.0030   0.0003   0.0002   0.0002
     0.0001   0.0001   0.0000   0.0000   0.0000   0.0000   0.0000   0.0000
     0.0000   0.0000   0.0000   0.0000   0.0000   0.0000   0.0000   0.0000
     0.0000   0.0000   0.0000   0.0000   0.0000   0.0000   0.0000   0.0000

          k = 0.2500-0.5000 0.0000 ( 65138 PWs)   bands (ev):

   -92.7002 -92.6462 -92.5541 -92.5057 -92.4462 -92.4064 -92.3897 -92.2612
   -56.0536 -56.0329 -55.9115 -55.9009 -55.8942 -55.8877 -55.8517 -55.8233
   -55.8084 -55.8058 -55.7961 -55.7545 -55.7358 -55.6979 -55.6804 -55.6459
   -55.6415 -55.5952 -55.5918 -55.5889 -55.5834 -55.5318 -55.5200 -55.4311
   -31.2749 -31.2590 -31.1160 -31.0960 -31.0297 -31.0140 -30.9066 -30.7943
   -29.8469 -29.8061 -29.7808 -29.6726 -14.9815 -14.9362 -14.8680 -14.7546
   -14.7213 -14.6005 -14.5138 -14.3854 -14.0736 -14.0246 -13.9964 -13.9754
   -13.9591 -13.9438 -13.9102 -13.8946 -13.8611 -13.8195 -13.8021 -13.7693
   -13.6663 -13.6174 -13.5762 -13.5376 -13.4871 -13.4657 -13.3762 -13.3379
   -13.2061 -13.1415 -13.1217 -13.0408 -13.0212 -12.9990 -12.9840 -12.9635
   -12.9425 -12.9117 -12.8744 -12.8395 -12.8254 -12.7884 -12.7570 -12.7392
   -12.6547 -12.6233 -12.5207 -12.4436 -12.3199 -12.2888 -12.2203 -12.1900
   -11.7760 -11.7641 -11.7531 -11.7259 -11.6945 -11.6660 -11.6249 -11.5973
   -11.5752 -11.5300 -11.5042 -11.4930  -2.4517  -2.3853  -2.2564  -2.1790
    -2.0502  -1.9653  -1.8429  -1.6917  -1.6389  -1.6164  -1.5528  -1.5393
    -1.4432  -1.3764  -1.2908  -1.2423  -1.2328  -1.1684  -1.1271  -1.0918
    -1.0448  -1.0079  -0.9732  -0.9327  -0.9220  -0.8763  -0.8476  -0.8062
    -0.7756  -0.7074  -0.6066  -0.5669  -0.4892  -0.4252  -0.3780  -0.3335
    -0.3115  -0.2635  -0.0999  -0.0901   0.0164   0.0535   0.0622   0.1080
     0.1335   0.1731   0.2001   0.2741   0.5388   0.6303   0.7051   0.7635
     1.0260   1.0533   1.1411   1.1669   1.3344   1.3677   1.4105   1.4324
     1.4493   1.4697   1.5307   1.5768   1.6129   1.6943   1.7745   1.8157
     1.8407   1.8496   1.8844   1.8997   1.9055   1.9480   1.9624   1.9785
     2.0203   2.0312   2.0576   2.0896   2.1485   2.1834   2.2635   2.4044
     2.5558   2.5732   2.5914   2.6164   2.6416   2.6672   2.6913   2.7021
     2.7277   2.7907   2.8521   2.8791   2.8949   2.9106   2.9255   2.9331
     2.9481   2.9659   2.9732   3.0039   3.0172   3.0318   3.0414   3.0515
     3.0621   3.5882   3.6099   3.7433   3.7918   4.1347   4.1770   4.2073
     4.3133   4.7773   4.9184   5.0659   5.1251   5.3050   5.4332   5.6056
     5.6248   5.7657   5.7865   6.0942   6.4010   6.4925   6.6742   6.9554
     7.4397   7.5182   7.6264   7.7081   7.8151   7.8808   8.0436   8.1143
     8.2807   8.3721   8.4197   8.5245   8.5452   8.5510   8.7148   8.7739

     occupation numbers 
     1.0000   1.0000   1.0000   1.0000   1.0000   1.0000   1.0000   1.0000
     1.0000   1.0000   1.0000   1.0000   1.0000   1.0000   1.0000   1.0000
     1.0000   1.0000   1.0000   1.0000   1.0000   1.0000   1.0000   1.0000
     1.0000   1.0000   1.0000   1.0000   1.0000   1.0000   1.0000   1.0000
     1.0000   1.0000   1.0000   1.0000   1.0000   1.0000   1.0000   1.0000
     1.0000   1.0000   1.0000   1.0000   1.0000   1.0000   1.0000   1.0000
     1.0000   1.0000   1.0000   1.0000   1.0000   1.0000   1.0000   1.0000
     1.0000   1.0000   1.0000   1.0000   1.0000   1.0000   1.0000   1.0000
     1.0000   1.0000   1.0000   1.0000   1.0000   1.0000   1.0000   1.0000
     1.0000   1.0000   1.0000   1.0000   1.0000   1.0000   1.0000   1.0000
     1.0000   1.0000   1.0000   1.0000   1.0000   1.0000   1.0000   1.0000
     1.0000   1.0000   1.0000   1.0000   1.0000   1.0000   1.0000   1.0000
     1.0000   1.0000   1.0000   1.0000   1.0000   1.0000   1.0000   1.0000
     1.0000   1.0000   1.0000   1.0000   1.0000   1.0000   1.0000   1.0000
     1.0000   1.0000   1.0000   1.0000   1.0000   1.0000   1.0000   1.0000
     1.0000   1.0000   1.0000   1.0000   1.0000   1.0000   1.0000   1.0000
     1.0000   1.0000   1.0000   1.0000   1.0000   1.0000   1.0000   1.0000
     1.0000   1.0000   1.0000   1.0000   1.0000   1.0000   1.0000   1.0000
     1.0000   1.0000   1.0000   1.0000   1.0000   1.0000   1.0000   1.0000
     1.0000   1.0000   1.0000   1.0000   1.0000   1.0000   1.0000   0.9999
     0.9997   0.9996   0.9994   0.9993   0.9985   0.9982   0.9978   0.9976
     0.9974   0.9971   0.9962   0.9953   0.9945   0.9923   0.9894   0.9876
     0.9864   0.9859   0.9839   0.9830   0.9826   0.9797   0.9787   0.9774
     0.9739   0.9729   0.9703   0.9670   0.9600   0.9553   0.9429   0.9147
     0.8740   0.8686   0.8627   0.8544   0.8457   0.8365   0.8275   0.8234
     0.8134   0.7872   0.7598   0.7472   0.7396   0.7320   0.7247   0.7208
     0.7133   0.7043   0.7005   0.6845   0.6774   0.6696   0.6644   0.6590
     0.6532   0.3493   0.3374   0.2684   0.2452   0.1153   0.1036   0.0957
     0.0716   0.0157   0.0091   0.0049   0.0038   0.0017   0.0009   0.0004
     0.0003   0.0001   0.0001   0.0000   0.0000   0.0000   0.0000   0.0000
     0.0000   0.0000   0.0000   0.0000   0.0000   0.0000   0.0000   0.0000
     0.0000   0.0000   0.0000   0.0000   0.0000   0.0000   0.0000   0.0000

          k =-0.5000-0.5000 0.0000 ( 65132 PWs)   bands (ev):

   -92.7002 -92.6462 -92.5541 -92.5057 -92.4462 -92.4064 -92.3897 -92.2612
   -56.0536 -56.0329 -55.9115 -55.9009 -55.8942 -55.8877 -55.8517 -55.8233
   -55.8084 -55.8058 -55.7961 -55.7545 -55.7358 -55.6979 -55.6804 -55.6459
   -55.6415 -55.5952 -55.5918 -55.5889 -55.5834 -55.5318 -55.5200 -55.4311
   -31.2727 -31.2612 -31.1156 -31.0958 -31.0301 -31.0139 -30.9068 -30.7945
   -29.8458 -29.8072 -29.7804 -29.6731 -14.9357 -14.9087 -14.7915 -14.7800
   -14.6866 -14.6478 -14.6174 -14.4851 -13.9864 -13.9749 -13.9398 -13.9214
   -13.9036 -13.8929 -13.8609 -13.8504 -13.8369 -13.8292 -13.8134 -13.7346
   -13.7271 -13.7016 -13.6714 -13.6628 -13.5617 -13.5532 -13.4215 -13.3834
   -13.1572 -13.1190 -13.0497 -13.0250 -13.0019 -12.9939 -12.9836 -12.9750
   -12.9575 -12.9432 -12.8585 -12.8406 -12.8292 -12.8076 -12.7693 -12.7552
   -12.6046 -12.5964 -12.5371 -12.4228 -12.3163 -12.2578 -12.2143 -12.1951
   -11.7725 -11.7602 -11.7424 -11.7257 -11.6908 -11.6732 -11.6383 -11.5776
   -11.5574 -11.5522 -11.5019 -11.4989  -2.2281  -2.1520  -2.1422  -2.0676
    -2.0303  -1.9523  -1.8845  -1.7587  -1.6421  -1.6126  -1.5732  -1.5154
    -1.4436  -1.4297  -1.3583  -1.3148  -1.1992  -1.1713  -1.1227  -1.0920
    -1.0281  -0.9833  -0.9644  -0.9526  -0.8998  -0.8527  -0.8394  -0.7261
    -0.6687  -0.6223  -0.5721  -0.5460  -0.5347  -0.4989  -0.4577  -0.4238
    -0.4115  -0.3252  -0.2605  -0.2104  -0.1894  -0.1126  -0.0616  -0.0459
     0.0105   0.0369   0.0484   0.0668   0.5090   0.5454   0.6543   0.6716
     1.0596   1.0727   1.1041   1.1439   1.4190   1.4390   1.4457   1.4835
     1.6146   1.7105   1.7369   1.7720   1.7859   1.8144   1.8235   1.8556
     1.8628   1.8735   1.8881   1.9468   1.9478   1.9772   1.9851   2.0088
     2.0209   2.0586   2.0887   2.1005   2.1328   2.1623   2.2301   2.2939
     2.5687   2.5997   2.6185   2.6377   2.6493   2.6763   2.6808   2.7000
     2.7121   2.7273   2.7396   2.7600   2.7930   2.8297   2.8362   2.8571
     2.8697   2.8866   2.9007   2.9076   2.9442   3.0125   3.0166   3.0471
     3.0571   4.0238   4.0488   4.0570   4.0700   4.3231   4.4021   4.4190
     4.6593   4.7814   4.8647   4.9930   5.0754   5.1055   5.2054   5.2995
     5.3833   5.8536   5.8985   5.9587   6.0340   6.3649   6.4981   6.5842
     7.5970   7.8414   7.8754   7.8974   7.9163   7.9796   8.0161   8.0887
     8.2645   8.2874   8.5153   8.5771   8.5977   8.6228   8.6406   8.6626

     occupation numbers 
     1.0000   1.0000   1.0000   1.0000   1.0000   1.0000   1.0000   1.0000
     1.0000   1.0000   1.0000   1.0000   1.0000   1.0000   1.0000   1.0000
     1.0000   1.0000   1.0000   1.0000   1.0000   1.0000   1.0000   1.0000
     1.0000   1.0000   1.0000   1.0000   1.0000   1.0000   1.0000   1.0000
     1.0000   1.0000   1.0000   1.0000   1.0000   1.0000   1.0000   1.0000
     1.0000   1.0000   1.0000   1.0000   1.0000   1.0000   1.0000   1.0000
     1.0000   1.0000   1.0000   1.0000   1.0000   1.0000   1.0000   1.0000
     1.0000   1.0000   1.0000   1.0000   1.0000   1.0000   1.0000   1.0000
     1.0000   1.0000   1.0000   1.0000   1.0000   1.0000   1.0000   1.0000
     1.0000   1.0000   1.0000   1.0000   1.0000   1.0000   1.0000   1.0000
     1.0000   1.0000   1.0000   1.0000   1.0000   1.0000   1.0000   1.0000
     1.0000   1.0000   1.0000   1.0000   1.0000   1.0000   1.0000   1.0000
     1.0000   1.0000   1.0000   1.0000   1.0000   1.0000   1.0000   1.0000
     1.0000   1.0000   1.0000   1.0000   1.0000   1.0000   1.0000   1.0000
     1.0000   1.0000   1.0000   1.0000   1.0000   1.0000   1.0000   1.0000
     1.0000   1.0000   1.0000   1.0000   1.0000   1.0000   1.0000   1.0000
     1.0000   1.0000   1.0000   1.0000   1.0000   1.0000   1.0000   1.0000
     1.0000   1.0000   1.0000   1.0000   1.0000   1.0000   1.0000   1.0000
     1.0000   1.0000   1.0000   1.0000   1.0000   1.0000   1.0000   1.0000
     1.0000   1.0000   1.0000   1.0000   1.0000   1.0000   1.0000   1.0000
     0.9996   0.9996   0.9995   0.9994   0.9977   0.9975   0.9974   0.9969
     0.9945   0.9918   0.9909   0.9895   0.9890   0.9877   0.9872   0.9856
     0.9852   0.9846   0.9837   0.9798   0.9797   0.9775   0.9769   0.9749
     0.9738   0.9702   0.9671   0.9658   0.9620   0.9582   0.9484   0.9376
     0.8700   0.8601   0.8537   0.8471   0.8430   0.8332   0.8315   0.8242
     0.8195   0.8135   0.8086   0.8002   0.7862   0.7700   0.7671   0.7575
     0.7516   0.7436   0.7368   0.7335   0.7153   0.6800   0.6777   0.6613
     0.6559   0.1505   0.1420   0.1393   0.1351   0.0696   0.0553   0.0525
     0.0240   0.0154   0.0112   0.0067   0.0047   0.0041   0.0026   0.0017
     0.0011   0.0001   0.0001   0.0000   0.0000   0.0000   0.0000   0.0000
     0.0000   0.0000   0.0000   0.0000   0.0000   0.0000   0.0000   0.0000
     0.0000   0.0000   0.0000   0.0000   0.0000   0.0000   0.0000   0.0000

          k = 0.2500 0.0000 0.0000 ( 65257 PWs)   bands (ev):

   -92.7002 -92.6462 -92.5541 -92.5057 -92.4462 -92.4064 -92.3897 -92.2612
   -56.0536 -56.0329 -55.9115 -55.9009 -55.8942 -55.8877 -55.8517 -55.8233
   -55.8084 -55.8058 -55.7961 -55.7545 -55.7358 -55.6979 -55.6804 -55.6459
   -55.6415 -55.5952 -55.5918 -55.5889 -55.5834 -55.5318 -55.5200 -55.4311
   -31.2753 -31.2593 -31.1155 -31.0967 -31.0294 -31.0133 -30.9071 -30.7938
   -29.8481 -29.8068 -29.7795 -29.6720 -15.0482 -15.0134 -14.9394 -14.7918
   -14.6903 -14.4965 -14.3572 -14.1800 -14.1613 -14.1314 -14.1015 -14.0762
   -14.0462 -14.0294 -14.0097 -13.9724 -13.8418 -13.8123 -13.6594 -13.5975
   -13.5867 -13.5253 -13.4931 -13.4846 -13.4368 -13.3466 -13.3121 -13.2480
   -13.1808 -13.1578 -13.1042 -13.0597 -13.0441 -13.0273 -13.0112 -12.9773
[...]
     0.7425   0.7308   0.7181   0.7152   0.7044   0.6988   0.6912   0.6805
     0.6778   0.6624   0.6587   0.6538   0.6472   0.6354   0.6210   0.6197
     0.6154   0.6099   0.6056   0.5992   0.5282   0.3499   0.3100   0.2052
     0.0780   0.0472   0.0221   0.0056   0.0050   0.0003   0.0001   0.0001
     0.0000   0.0000   0.0000   0.0000   0.0000   0.0000   0.0000   0.0000
     0.0000   0.0000   0.0000   0.0000   0.0000   0.0000   0.0000   0.0000
     0.0000   0.0000   0.0000   0.0000   0.0000   0.0000   0.0000   0.0000

          k =-0.5000 0.0000 0.0000 ( 65180 PWs)   bands (ev):

   -92.7002 -92.6462 -92.5541 -92.5057 -92.4462 -92.4064 -92.3897 -92.2612
   -56.0536 -56.0329 -55.9115 -55.9009 -55.8942 -55.8877 -55.8517 -55.8233
   -55.8084 -55.8058 -55.7961 -55.7545 -55.7358 -55.6979 -55.6804 -55.6459
   -55.6415 -55.5952 -55.5918 -55.5889 -55.5834 -55.5318 -55.5200 -55.4311
   -31.2731 -31.2614 -31.1152 -31.0965 -31.0298 -31.0132 -30.9073 -30.7939
   -29.8471 -29.8078 -29.7791 -29.6724 -15.0159 -14.9668 -14.9042 -14.7974
   -14.6906 -14.5460 -14.4056 -14.2632 -14.1332 -14.1265 -14.1078 -14.0556
   -13.9932 -13.9615 -13.9144 -13.9101 -13.8920 -13.8385 -13.8271 -13.7290
   -13.5546 -13.5362 -13.4948 -13.4871 -13.4461 -13.3641 -13.3291 -13.2673
   -13.2440 -13.2425 -13.0891 -13.0536 -13.0421 -13.0192 -13.0094 -13.0023
   -12.9459 -12.9269 -12.8997 -12.8854 -12.8103 -12.7417 -12.7116 -12.6984
   -12.6395 -12.6302 -12.5402 -12.4940 -12.3494 -12.3262 -12.2147 -12.1778
   -11.7794 -11.7581 -11.7513 -11.7366 -11.7187 -11.6775 -11.6142 -11.5967
   -11.5640 -11.5194 -11.5100 -11.4943  -2.5830  -2.5440  -2.3800  -2.3409
    -2.0286  -1.9531  -1.8045  -1.6870  -1.6480  -1.6007  -1.5536  -1.5282
    -1.4061  -1.3611  -1.3467  -1.2636  -1.2281  -1.2146  -1.1811  -1.1250
    -1.0559  -1.0255  -0.9988  -0.9048  -0.8554  -0.8072  -0.7740  -0.7527
    -0.7231  -0.6744  -0.6501  -0.6133  -0.5160  -0.4428  -0.3787  -0.3156
    -0.1614  -0.1123  -0.0572  -0.0293   0.0262   0.0538   0.1856   0.2214
     0.2665   0.4396   0.5384   0.5839   0.6651   0.7262   0.8558   0.8668
     0.9992   1.0283   1.0825   1.1098   1.1488   1.1588   1.2043   1.2297
     1.2935   1.3438   1.3909   1.3993   1.6923   1.6991   1.7139   1.7360
     1.8502   1.8637   1.8717   1.8855   1.9182   1.9312   1.9664   1.9958
     2.0128   2.0774   2.0860   2.1406   2.1593   2.2177   2.3331   2.4210
     2.5002   2.5144   2.6001   2.6269   2.6528   2.7103   2.7296   2.7384
     2.7669   2.7976   2.8608   2.8984   2.9254   2.9535   3.0024   3.0039
     3.0112   3.0205   3.0326   3.0438   3.0576   3.0657   3.0840   3.0927
     3.1095   3.1298   3.1341   3.2615   3.2785   4.1094   4.1307   4.1811
     4.3108   4.7910   4.8591   5.0456   5.0552   5.4968   5.5099   5.5973
     5.6436   6.0219   6.0297   6.0712   6.5915   6.8007   7.0115   7.2810
     7.3076   7.3536   7.4030   7.4565   7.5713   7.7766   7.8542   7.8894
     8.1180   8.2886   8.3099   8.5157   8.6315   8.7110   8.7631   8.8179

     occupation numbers 
     1.0000   1.0000   1.0000   1.0000   1.0000   1.0000   1.0000   1.0000
     1.0000   1.0000   1.0000   1.0000   1.0000   1.0000   1.0000   1.0000
     1.0000   1.0000   1.0000   1.0000   1.0000   1.0000   1.0000   1.0000
     1.0000   1.0000   1.0000   1.0000   1.0000   1.0000   1.0000   1.0000
     1.0000   1.0000   1.0000   1.0000   1.0000   1.0000   1.0000   1.0000
     1.0000   1.0000   1.0000   1.0000   1.0000   1.0000   1.0000   1.0000
     1.0000   1.0000   1.0000   1.0000   1.0000   1.0000   1.0000   1.0000
     1.0000   1.0000   1.0000   1.0000   1.0000   1.0000   1.0000   1.0000
     1.0000   1.0000   1.0000   1.0000   1.0000   1.0000   1.0000   1.0000
     1.0000   1.0000   1.0000   1.0000   1.0000   1.0000   1.0000   1.0000
     1.0000   1.0000   1.0000   1.0000   1.0000   1.0000   1.0000   1.0000
     1.0000   1.0000   1.0000   1.0000   1.0000   1.0000   1.0000   1.0000
     1.0000   1.0000   1.0000   1.0000   1.0000   1.0000   1.0000   1.0000
     1.0000   1.0000   1.0000   1.0000   1.0000   1.0000   1.0000   1.0000
     1.0000   1.0000   1.0000   1.0000   1.0000   1.0000   1.0000   1.0000
     1.0000   1.0000   1.0000   1.0000   1.0000   1.0000   1.0000   1.0000
     1.0000   1.0000   1.0000   1.0000   1.0000   1.0000   1.0000   1.0000
     1.0000   1.0000   1.0000   1.0000   1.0000   1.0000   1.0000   1.0000
     1.0000   1.0000   1.0000   1.0000   1.0000   1.0000   1.0000   1.0000
     1.0000   1.0000   1.0000   1.0000   1.0000   0.9999   0.9999   0.9999
     0.9997   0.9997   0.9996   0.9995   0.9994   0.9994   0.9992   0.9991
     0.9987   0.9984   0.9980   0.9979   0.9924   0.9922   0.9917   0.9909
     0.9859   0.9851   0.9847   0.9839   0.9818   0.9809   0.9784   0.9760
     0.9745   0.9683   0.9674   0.9610   0.9586   0.9503   0.9301   0.9108
     0.8903   0.8863   0.8599   0.8508   0.8417   0.8202   0.8126   0.8091
     0.7973   0.7843   0.7558   0.7379   0.7247   0.7106   0.6853   0.6845
     0.6806   0.6757   0.6692   0.6631   0.6556   0.6512   0.6411   0.6363
     0.6269   0.6154   0.6129   0.5390   0.5289   0.1228   0.1164   0.1025
     0.0721   0.0149   0.0115   0.0054   0.0051   0.0006   0.0006   0.0004
     0.0003   0.0000   0.0000   0.0000   0.0000   0.0000   0.0000   0.0000
     0.0000   0.0000   0.0000   0.0000   0.0000   0.0000   0.0000   0.0000
     0.0000   0.0000   0.0000   0.0000   0.0000   0.0000   0.0000   0.0000

          k =-0.2500 0.2500 0.0000 ( 65198 PWs)   bands (ev):

   -92.7002 -92.6462 -92.5541 -92.5057 -92.4462 -92.4064 -92.3897 -92.2612
   -56.0536 -56.0329 -55.9115 -55.9009 -55.8942 -55.8877 -55.8517 -55.8233
   -55.8084 -55.8058 -55.7961 -55.7545 -55.7358 -55.6979 -55.6804 -55.6459
   -55.6415 -55.5952 -55.5918 -55.5889 -55.5834 -55.5318 -55.5200 -55.4311
   -31.2751 -31.2591 -31.1157 -31.0963 -31.0296 -31.0137 -30.9069 -30.7941
   -29.8475 -29.8064 -29.7801 -29.6723 -15.0178 -14.9809 -14.9048 -14.7867
   -14.6797 -14.5533 -14.4636 -14.2607 -14.1169 -14.0869 -14.0753 -14.0287
   -14.0044 -13.9865 -13.9749 -13.9307 -13.8383 -13.8273 -13.6726 -13.6479
   -13.6206 -13.5981 -13.5616 -13.4983 -13.4584 -13.4350 -13.3301 -13.2830
   -13.2230 -13.1460 -13.1038 -13.0476 -13.0390 -13.0100 -12.9885 -12.9573
   -12.9331 -12.9274 -12.9104 -12.8509 -12.8325 -12.7842 -12.7694 -12.7370
   -12.7144 -12.6908 -12.5301 -12.4476 -12.4412 -12.2821 -12.1550 -12.1036
   -11.7998 -11.7780 -11.7510 -11.7387 -11.6980 -11.6630 -11.6402 -11.6185
   -11.5961 -11.5117 -11.4661 -11.4564  -2.6679  -2.4589  -2.3377  -2.2507
    -2.1313  -2.0644  -1.8626  -1.7166  -1.6972  -1.6694  -1.5773  -1.5390
    -1.4488  -1.4149  -1.3890  -1.2455  -1.1903  -1.1224  -1.0941  -1.0341
    -1.0116  -0.9713  -0.9424  -0.9027  -0.8399  -0.7929  -0.7310  -0.6618
    -0.6373  -0.5847  -0.5561  -0.5111  -0.4539  -0.4120  -0.3666  -0.2698
    -0.2352  -0.2270  -0.1795  -0.1140  -0.0488  -0.0006   0.0309   0.0961
     0.1362   0.3867   0.5537   0.5970   0.6334   0.6901   0.7417   0.7992
     0.8647   0.8933   1.1765   1.2879   1.3271   1.3602   1.3672   1.4091
     1.4265   1.4706   1.5012   1.5171   1.5431   1.5842   1.5979   1.6455
     1.6616   1.7073   1.7822   1.8049   1.8231   1.8622   1.8887   1.9282
     1.9828   2.0866   2.1967   2.2318   2.2792   2.2982   2.3620   2.4055
     2.4317   2.4530   2.4775   2.5835   2.6139   2.7020   2.8305   2.8830
     2.8915   2.9062   2.9159   2.9253   2.9389   2.9457   2.9633   2.9735
     2.9872   2.9986   3.0098   3.0205   3.0315   3.0583   3.0696   3.0784
     3.1128   3.4055   3.4883   3.5483   3.6233   3.6616   3.8583   3.9644
     4.3057   4.5084   4.7156   4.9893   5.1754   5.6440   5.6913   5.7459
     5.8313   5.8954   6.0237   6.1894   6.2022   6.7123   6.9027   7.0611
     7.1257   7.5692   7.6115   7.6435   7.6775   7.8778   7.9042   8.1358
     8.1420   8.1857   8.3005   8.3450   8.4173   8.4533   8.5205   8.8385

     occupation numbers 
     1.0000   1.0000   1.0000   1.0000   1.0000   1.0000   1.0000   1.0000
     1.0000   1.0000   1.0000   1.0000   1.0000   1.0000   1.0000   1.0000
     1.0000   1.0000   1.0000   1.0000   1.0000   1.0000   1.0000   1.0000
     1.0000   1.0000   1.0000   1.0000   1.0000   1.0000   1.0000   1.0000
     1.0000   1.0000   1.0000   1.0000   1.0000   1.0000   1.0000   1.0000
     1.0000   1.0000   1.0000   1.0000   1.0000   1.0000   1.0000   1.0000
     1.0000   1.0000   1.0000   1.0000   1.0000   1.0000   1.0000   1.0000
     1.0000   1.0000   1.0000   1.0000   1.0000   1.0000   1.0000   1.0000
     1.0000   1.0000   1.0000   1.0000   1.0000   1.0000   1.0000   1.0000
     1.0000   1.0000   1.0000   1.0000   1.0000   1.0000   1.0000   1.0000
     1.0000   1.0000   1.0000   1.0000   1.0000   1.0000   1.0000   1.0000
     1.0000   1.0000   1.0000   1.0000   1.0000   1.0000   1.0000   1.0000
     1.0000   1.0000   1.0000   1.0000   1.0000   1.0000   1.0000   1.0000
     1.0000   1.0000   1.0000   1.0000   1.0000   1.0000   1.0000   1.0000
     1.0000   1.0000   1.0000   1.0000   1.0000   1.0000   1.0000   1.0000
     1.0000   1.0000   1.0000   1.0000   1.0000   1.0000   1.0000   1.0000
     1.0000   1.0000   1.0000   1.0000   1.0000   1.0000   1.0000   1.0000
     1.0000   1.0000   1.0000   1.0000   1.0000   1.0000   1.0000   1.0000
     1.0000   1.0000   1.0000   1.0000   1.0000   1.0000   1.0000   1.0000
     1.0000   1.0000   1.0000   1.0000   1.0000   1.0000   0.9999   0.9999
     0.9999   0.9998   0.9993   0.9988   0.9985   0.9983   0.9982   0.9978
     0.9976   0.9971   0.9967   0.9964   0.9960   0.9952   0.9949   0.9937
     0.9933   0.9919   0.9891   0.9881   0.9872   0.9852   0.9837   0.9811
     0.9771   0.9673   0.9534   0.9481   0.9402   0.9368   0.9241   0.9145
     0.9082   0.9029   0.8965   0.8653   0.8553   0.8234   0.7697   0.7453
     0.7413   0.7341   0.7294   0.7248   0.7180   0.7146   0.7056   0.7004
     0.6932   0.6873   0.6814   0.6757   0.6698   0.6552   0.6490   0.6442
     0.6250   0.4538   0.4055   0.3714   0.3302   0.3099   0.2152   0.1721
     0.0732   0.0397   0.0196   0.0068   0.0030   0.0003   0.0002   0.0002
     0.0001   0.0001   0.0000   0.0000   0.0000   0.0000   0.0000   0.0000
     0.0000   0.0000   0.0000   0.0000   0.0000   0.0000   0.0000   0.0000
     0.0000   0.0000   0.0000   0.0000   0.0000   0.0000   0.0000   0.0000

          k =-0.5000 0.2500 0.0000 ( 65138 PWs)   bands (ev):

   -92.7002 -92.6462 -92.5541 -92.5057 -92.4462 -92.4064 -92.3897 -92.2612
   -56.0536 -56.0329 -55.9115 -55.9009 -55.8942 -55.8877 -55.8517 -55.8233
   -55.8084 -55.8058 -55.7961 -55.7545 -55.7358 -55.6979 -55.6804 -55.6459
   -55.6415 -55.5952 -55.5918 -55.5889 -55.5834 -55.5318 -55.5200 -55.4311
   -31.2729 -31.2613 -31.1154 -31.0962 -31.0300 -31.0135 -30.9070 -30.7942
   -29.8465 -29.8075 -29.7797 -29.6727 -14.9835 -14.9401 -14.8612 -14.7631
   -14.7199 -14.5927 -14.5090 -14.3796 -14.0675 -14.0375 -14.0256 -13.9813
   -13.9624 -13.9340 -13.9002 -13.8955 -13.8697 -13.8303 -13.8185 -13.7179
   -13.6377 -13.5947 -13.5875 -13.5755 -13.5025 -13.4683 -13.3722 -13.3191
   -13.1996 -13.1638 -13.0687 -13.0413 -13.0250 -13.0151 -12.9899 -12.9608
   -12.9469 -12.9382 -12.9181 -12.8440 -12.8232 -12.7717 -12.7384 -12.7264
   -12.6216 -12.6137 -12.5384 -12.4552 -12.3216 -12.3069 -12.2096 -12.1862
   -11.7722 -11.7596 -11.7454 -11.7336 -11.7124 -11.6822 -11.6014 -11.5928
   -11.5695 -11.5338 -11.5057 -11.4967  -2.4409  -2.3984  -2.2497  -2.2078
    -2.0478  -1.9716  -1.8287  -1.6931  -1.6365  -1.6083  -1.5701  -1.5306
    -1.4508  -1.3357  -1.2786  -1.2552  -1.2301  -1.1546  -1.1246  -1.0876
    -1.0687  -1.0083  -0.9805  -0.9403  -0.9049  -0.8764  -0.8187  -0.7924
    -0.7508  -0.7160  -0.6119  -0.5862  -0.4991  -0.4358  -0.4045  -0.3485
    -0.2617  -0.2311  -0.1289  -0.0969  -0.0328   0.0112   0.0374   0.1155
     0.1466   0.1789   0.2313   0.2679   0.5777   0.6259   0.7029   0.7181
     1.0082   1.0694   1.1422   1.1677   1.3476   1.3839   1.4210   1.4345
     1.4520   1.4701   1.5388   1.5818   1.6204   1.6493   1.7604   1.7994
     1.8404   1.8519   1.8830   1.9106   1.9259   1.9409   1.9612   1.9846
     2.0279   2.0504   2.0834   2.1065   2.1338   2.1982   2.3195   2.4167
     2.4449   2.5132   2.5533   2.6173   2.6499   2.6588   2.6928   2.7282
     2.7507   2.7908   2.8608   2.8903   2.8951   2.9082   2.9182   2.9430
     2.9537   2.9689   2.9814   3.0016   3.0149   3.0254   3.0342   3.0446
     3.0583   3.5968   3.6166   3.7790   3.7952   4.1086   4.1473   4.1971
     4.3989   4.7858   4.8774   5.0471   5.0789   5.4027   5.4319   5.5845
     5.6322   5.7447   5.7802   6.1711   6.3948   6.4471   6.5468   7.0635
     7.4393   7.5211   7.5809   7.7190   7.8003   7.8922   8.0271   8.1139
     8.3403   8.3844   8.4285   8.5031   8.5462   8.5803   8.6706   8.7488

     occupation numbers 
     1.0000   1.0000   1.0000   1.0000   1.0000   1.0000   1.0000   1.0000
     1.0000   1.0000   1.0000   1.0000   1.0000   1.0000   1.0000   1.0000
     1.0000   1.0000   1.0000   1.0000   1.0000   1.0000   1.0000   1.0000
     1.0000   1.0000   1.0000   1.0000   1.0000   1.0000   1.0000   1.0000
     1.0000   1.0000   1.0000   1.0000   1.0000   1.0000   1.0000   1.0000
     1.0000   1.0000   1.0000   1.0000   1.0000   1.0000   1.0000   1.0000
     1.0000   1.0000   1.0000   1.0000   1.0000   1.0000   1.0000   1.0000
     1.0000   1.0000   1.0000   1.0000   1.0000   1.0000   1.0000   1.0000
     1.0000   1.0000   1.0000   1.0000   1.0000   1.0000   1.0000   1.0000
     1.0000   1.0000   1.0000   1.0000   1.0000   1.0000   1.0000   1.0000
     1.0000   1.0000   1.0000   1.0000   1.0000   1.0000   1.0000   1.0000
     1.0000   1.0000   1.0000   1.0000   1.0000   1.0000   1.0000   1.0000
     1.0000   1.0000   1.0000   1.0000   1.0000   1.0000   1.0000   1.0000
     1.0000   1.0000   1.0000   1.0000   1.0000   1.0000   1.0000   1.0000
     1.0000   1.0000   1.0000   1.0000   1.0000   1.0000   1.0000   1.0000
     1.0000   1.0000   1.0000   1.0000   1.0000   1.0000   1.0000   1.0000
     1.0000   1.0000   1.0000   1.0000   1.0000   1.0000   1.0000   1.0000
     1.0000   1.0000   1.0000   1.0000   1.0000   1.0000   1.0000   1.0000
     1.0000   1.0000   1.0000   1.0000   1.0000   1.0000   1.0000   1.0000
     1.0000   1.0000   1.0000   1.0000   1.0000   1.0000   1.0000   0.9999
     0.9997   0.9996   0.9994   0.9993   0.9984   0.9980   0.9977   0.9975
     0.9973   0.9971   0.9960   0.9952   0.9944   0.9936   0.9900   0.9884
     0.9864   0.9858   0.9840   0.9823   0.9813   0.9802   0.9787   0.9769
     0.9732   0.9710   0.9676   0.9651   0.9618   0.9532   0.9327   0.9118
     0.9050   0.8866   0.8748   0.8541   0.8428   0.8396   0.8269   0.8132
     0.8041   0.7872   0.7558   0.7418   0.7395   0.7331   0.7282   0.7159
     0.7105   0.7027   0.6963   0.6857   0.6787   0.6730   0.6683   0.6627
     0.6552   0.3446   0.3338   0.2512   0.2436   0.1230   0.1117   0.0983
     0.0558   0.0152   0.0107   0.0053   0.0046   0.0010   0.0009   0.0004
     0.0003   0.0002   0.0001   0.0000   0.0000   0.0000   0.0000   0.0000
     0.0000   0.0000   0.0000   0.0000   0.0000   0.0000   0.0000   0.0000
     0.0000   0.0000   0.0000   0.0000   0.0000   0.0000   0.0000   0.0000

     the Fermi energy is     3.3274 ev

!    total energy              =   -4399.90927054 Ry
     estimated scf accuracy    <          6.4E-09 Ry
     smearing contrib. (-TS)   =      -1.14479906 Ry
     internal energy E=F+TS    =   -4398.76447148 Ry

     The total energy is F=E-TS. E is the sum of the following terms:
     one-electron contribution =  -21253.19025066 Ry
     hartree contribution      =   10754.67561383 Ry
     xc contribution           =    -686.72723642 Ry
     ewald contribution        =    7053.12273304 Ry
     one-center paw contrib.   =    -266.64533126 Ry
      -> PAW hartree energy AE =      25.18364379 Ry
      -> PAW hartree energy PS =     -25.06734494 Ry
      -> PAW xc energy AE      =     -16.52039702 Ry
      -> PAW xc energy PS      =       6.88001584 Ry
      -> total E_H with PAW    =   10754.79191268 Ry
      -> total E_XC with PAW   =    -696.36761760 Ry

     convergence has been achieved in  48 iterations

     Writing all to output data dir /bsuhome/zayahcortright/scratch/pwscf.save/
 
     init_run     :      7.32s CPU      7.93s WALL (       1 calls)
     electrons    :    688.26s CPU    700.05s WALL (       1 calls)

     Called by init_run:
     wfcinit      :      5.91s CPU      6.04s WALL (       1 calls)
     wfcinit:atom :      0.06s CPU      0.07s WALL (       5 calls)
     wfcinit:wfcr :      5.55s CPU      5.63s WALL (       5 calls)
     potinit      :      0.16s CPU      0.18s WALL (       1 calls)
     hinit0       :      0.38s CPU      0.73s WALL (       1 calls)

     Called by electrons:
     c_bands      :    545.04s CPU    549.62s WALL (      48 calls)
     sum_band     :    107.73s CPU    111.91s WALL (      48 calls)
     v_of_rho     :      5.21s CPU      5.51s WALL (      49 calls)
     v_h          :      0.46s CPU      0.46s WALL (      49 calls)
     v_xc         :      4.75s CPU      5.05s WALL (      49 calls)
     newd         :     16.50s CPU     18.88s WALL (      49 calls)
     PAW_pot      :      1.55s CPU      1.58s WALL (      49 calls)
     mix_rho      :     11.93s CPU     12.17s WALL (      48 calls)

     Called by c_bands:
     init_us_2    :      6.83s CPU      6.87s WALL (     485 calls)
     init_us_2:cp :      6.82s CPU      6.86s WALL (     485 calls)
     cegterg      :    511.12s CPU    515.50s WALL (     240 calls)

     Called by sum_band:
     sum_band:wei :      0.33s CPU      0.33s WALL (      48 calls)
     sum_band:loo :     87.90s CPU     88.49s WALL (      48 calls)
     sum_band:buf :      1.51s CPU      1.52s WALL (     240 calls)
     sum_band:ini :      3.22s CPU      3.23s WALL (     240 calls)
     sum_band:cal :     18.33s CPU     18.39s WALL (     240 calls)
     sum_band:bec :      0.57s CPU      0.57s WALL (     240 calls)
     addusdens    :     17.97s CPU     21.53s WALL (      48 calls)
                                        0.00s GPU  (      48 calls)
     addusd:skk   :      0.32s CPU      0.65s WALL (     192 calls)
                                        0.00s GPU  (     192 calls)

     Called by *egterg:
     cdiaghg      :     55.00s CPU     55.22s WALL (    1360 calls)
     cegterg:over :     36.66s CPU     36.79s WALL (    1120 calls)
     cegterg:upda :     27.60s CPU     27.94s WALL (    1120 calls)
     cegterg:last :     56.63s CPU     56.79s WALL (     440 calls)
     cdiaghg:chol :      3.13s CPU      3.15s WALL (    1360 calls)
     cdiaghg:inve :      3.23s CPU      3.25s WALL (    1360 calls)
     cdiaghg:para :      7.02s CPU      7.06s WALL (    2720 calls)
     h_psi        :    282.17s CPU    284.68s WALL (    1365 calls)
     s_psi        :     38.35s CPU     38.46s WALL (    1365 calls)
     g_psi        :      1.13s CPU      1.13s WALL (    1120 calls)

     Called by h_psi:
     h_psi:calbec :     42.13s CPU     42.25s WALL (    1365 calls)
     vloc_psi     :    198.61s CPU    200.47s WALL (    1365 calls)
     add_vuspsi   :     38.22s CPU     38.35s WALL (    1365 calls)

     General routines
     calbec       :     60.45s CPU     60.63s WALL (    1605 calls)
     fft          :      3.40s CPU      3.44s WALL (     635 calls)
     ffts         :      4.46s CPU      4.49s WALL (    5036 calls)
     fftw         :    169.27s CPU    170.60s WALL (  323104 calls)
     interpolate  :      0.39s CPU      0.40s WALL (      49 calls)
 
     Parallel routines

     PAW routines
     PAW_pot      :      1.55s CPU      1.58s WALL (      49 calls)
 
     PWSCF        :  11m37.38s CPU  11m52.70s WALL

 
   This run was terminated on:  23:29: 9  21Jun2024            

=------------------------------------------------------------------------------=
   JOB DONE.
=------------------------------------------------------------------------------=
