
     Program PWSCF v.7.2 starts on 22Jun2024 at  1:35:49 

     This program is part of the open-source Quantum ESPRESSO suite
     for quantum simulation of materials; please cite
         "P. Giannozzi et al., J. Phys.:Condens. Matter 21 395502 (2009);
         "P. Giannozzi et al., J. Phys.:Condens. Matter 29 465901 (2017);
         "P. Giannozzi et al., J. Chem. Phys. 152 154105 (2020);
          URL http://www.quantum-espresso.org", 
     in publications or presentations arising from this work. More details at
     http://www.quantum-espresso.org/quote

     Parallel version (MPI & OpenMP), running on      48 processor cores
     Number of MPI processes:                48
     Threads/MPI process:                     1

     MPI processes distributed on     1 nodes
     33225 MiB available memory on the printing compute node when the environment starts
 
     Reading input from espresso.pwi
Warning: card &CELL ignored
Warning: card / ignored
Warning: card &FCP ignored
Warning: card / ignored
Warning: card &RISM ignored
Warning: card / ignored

     Current dimensions of program PWSCF are:
     Max number of different atomic species (ntypx) = 10
     Max number of k-points (npk) =  40000
     Max angular momentum in pseudopotentials (lmaxx) =  4
     file O.pbe-n-kjpaw_psl.0.1.UPF: wavefunction(s)  2P renormalized
     signal trapping enabled: kill the code with -SIGUSR1 to stop cleanly the simulation 
 
     K-points division:     npool     =       2
     R & G space division:  proc/nbgrp/npool/nimage =      24
     Subspace diagonalization in iterative solution of the eigenvalue problem:
     one sub-group per band group will be used
     scalapack distributed-memory algorithm (size of sub-group:  3*  3 procs)

 
     Parallelization info
     --------------------
     sticks:   dense  smooth     PW     G-vecs:    dense   smooth      PW
     Min         350     175     47                61430    21716    3036
     Max         351     177     48                61449    21727    3041
     Sum        8421    4205   1137              1474595   521381   72913
 
     Using Slab Decomposition
 


     bravais-lattice index     =            0
     lattice parameter (alat)  =      14.8599  a.u.
     unit-cell volume          =    8305.1283 (a.u.)^3
     number of atoms/cell      =           50
     number of atomic types    =            4
     number of electrons       =       431.00
     number of Kohn-Sham states=          259
     kinetic-energy cutoff     =      60.0000  Ry
     charge density cutoff     =     480.0000  Ry
     scf convergence threshold =      1.0E-08
     mixing beta               =       0.1500
     number of iterations used =            8  local-TF  mixing
     Exchange-correlation= PBE
                           (   1   4   3   4   0   0   0)

     celldm(1)=  14.859904  celldm(2)=   0.000000  celldm(3)=   0.000000
     celldm(4)=   0.000000  celldm(5)=   0.000000  celldm(6)=   0.000000

     crystal axes: (cart. coord. in units of alat)
               a(1) = (   1.000000   0.000000   0.000000 )  
               a(2) = (   0.000000   1.000000   0.000000 )  
               a(3) = (   0.000000   0.000000   2.531036 )  

     reciprocal axes: (cart. coord. in units 2 pi/alat)
               b(1) = (  1.000000  0.000000  0.000000 )  
               b(2) = (  0.000000  1.000000  0.000000 )  
               b(3) = (  0.000000  0.000000  0.395095 )  


     PseudoPot. # 1 for Sr read from file:
     /bsuhome/zayahcortright/q-e/pseudo/Sr_pbe_v1.uspp.F.UPF
     MD5 check sum: 6b418c05fbe9db5448babca5e47b7a5b
     Pseudo is Ultrasoft + core correction, Zval = 10.0
     Generated by new atomic code, or converted to UPF format
     Using radial grid of  883 points,  6 beta functions with: 
                l(1) =   0
                l(2) =   0
                l(3) =   1
                l(4) =   1
                l(5) =   2
                l(6) =   2
     Q(r) pseudized with  6 coefficients,  rinner =    1.400   1.400   1.400
                                                       1.400   1.400

     PseudoPot. # 2 for O  read from file:
     /bsuhome/zayahcortright/q-e/pseudo/O.pbe-n-kjpaw_psl.0.1.UPF
     MD5 check sum: 0234752ac141de4415c5fc33072bef88
     Pseudo is Projector augmented-wave + core cor, Zval =  6.0
     Generated using "atomic" code by A. Dal Corso  v.5.0.99 svn rev. 10869
     Shape of augmentation charge: BESSEL
     Using radial grid of 1095 points,  4 beta functions with: 
                l(1) =   0
                l(2) =   0
                l(3) =   1
                l(4) =   1
     Q(r) pseudized with 0 coefficients 


     PseudoPot. # 3 for Co read from file:
     /bsuhome/zayahcortright/q-e/pseudo/Co_pbe_v1.2.uspp.F.UPF
     MD5 check sum: 5f91765df6ddd3222702df6e7b74a16d
     Pseudo is Ultrasoft + core correction, Zval = 17.0
     Generated by new atomic code, or converted to UPF format
     Using radial grid of  863 points,  6 beta functions with: 
                l(1) =   0
                l(2) =   0
                l(3) =   1
                l(4) =   1
                l(5) =   2
                l(6) =   2
     Q(r) pseudized with  8 coefficients,  rinner =    1.200   1.200   1.200
                                                       1.200   1.200

     PseudoPot. # 4 for H  read from file:
     /bsuhome/zayahcortright/q-e/pseudo/H.pbe-rrkjus_psl.1.0.0.UPF
     MD5 check sum: f52b6d4d1c606e5624b1dc7b2218f220
     Pseudo is Ultrasoft, Zval =  1.0
     Generated using "atomic" code by A. Dal Corso  v.5.1
     Using radial grid of  929 points,  2 beta functions with: 
                l(1) =   0
                l(2) =   0
     Q(r) pseudized with 0 coefficients 


     atomic species   valence    mass     pseudopotential
        Sr            10.00    87.62000     Sr( 1.00)
        O              6.00    15.99900     O ( 1.00)
        Co            17.00    58.93319     Co( 1.00)
        H              1.00     1.00800     H ( 1.00)

     No symmetry found


                                    s                        frac. trans.

      isym =  1     identity                                     

 cryst.   s( 1) = (     1          0          0      )
                  (     0          1          0      )
                  (     0          0          1      )

 cart.    s( 1) = (  1.0000000  0.0000000  0.0000000 )
                  (  0.0000000  1.0000000  0.0000000 )
                  (  0.0000000  0.0000000  1.0000000 )


   Cartesian axes

     site n.     atom                  positions (alat units)
         1           Sr  tau(   1) = (   0.2508693   0.7491307   1.7574407  )
         2           O   tau(   2) = (   0.4985141   0.5014859   1.7715967  )
         3           Sr  tau(   3) = (   0.7482398   0.7454518   1.7648669  )
         4           Sr  tau(   4) = (   0.7441748   0.2558252   1.7667843  )
         5           Sr  tau(   5) = (   0.2508693   0.7491307   1.2696799  )
         6           Sr  tau(   6) = (   0.2508693   0.7491307   0.7632319  )
         7           Co  tau(   7) = (   0.4998914   0.5001086   1.0164559  )
         8           Co  tau(   8) = (   0.4936915   0.5063085   1.5135603  )
         9           O   tau(   9) = (   0.4988895   0.7610401   1.0164559  )
        10           O   tau(  10) = (   0.2389599   0.5011105   1.0164559  )
        11           O   tau(  11) = (   0.0070918   0.7374880   1.0164559  )
        12           O   tau(  12) = (   0.0088340   0.7405089   1.5135603  )
        13           O   tau(  13) = (   0.5066944   0.7415376   1.5135603  )
        14           O   tau(  14) = (   0.2584624   0.4933056   1.5135603  )
        15           O   tau(  15) = (   0.4985141   0.5014859   0.7773880  )
        16           O   tau(  16) = (   0.4985141   0.5014859   1.2555238  )
        17           Sr  tau(  17) = (   0.7482398   0.7454518   0.7706582  )
        18           Sr  tau(  18) = (   0.7482398   0.7454518   1.2622536  )
        19           Sr  tau(  19) = (   0.7441748   0.2558252   0.7725755  )
        20           Sr  tau(  20) = (   0.7441748   0.2558252   1.2603363  )
        21           O   tau(  21) = (   0.7322655   0.0078049   1.5135603  )
        22           O   tau(  22) = (   0.7558175   0.4996027   1.5135603  )
        23           O   tau(  23) = (   0.5003973   0.2441825   1.5135603  )
        24           O   tau(  24) = (   0.7527966   0.4978604   1.0164559  )
        25           O   tau(  25) = (   0.5021396   0.2472034   1.0164559  )
        26           O   tau(  26) = (   0.7517679   0.0000000   1.0164559  )
        27           O   tau(  27) = (   0.0114961   0.4948124   1.7455321  )
        28           O   tau(  28) = (   0.0048226   0.0077944   1.7715967  )
        29           Sr  tau(  29) = (   0.2545482   0.2517602   1.7648669  )
        30           O   tau(  30) = (   0.5048017   0.0015068   1.7786929  )
        31           Co  tau(  31) = (   0.0056869   0.5006215   1.0164559  )
        32           Co  tau(  32) = (   0.0065315   0.4997770   1.5135603  )
        33           Co  tau(  33) = (   0.0061999   0.0064171   1.0164559  )
        34           Co  tau(  34) = (   0.0000000   0.0126169   1.5135603  )
        35           O   tau(  35) = (   0.0114961   0.4948124   1.2815885  )
        36           O   tau(  36) = (   0.0114961   0.4948124   0.7513233  )
        37           O   tau(  37) = (   0.0051979   0.2673486   1.0164559  )
        38           O   tau(  38) = (   0.0130029   0.2478461   1.5135603  )
        39           O   tau(  39) = (   0.0048226   0.0077944   0.7773880  )
        40           O   tau(  40) = (   0.0048226   0.0077944   1.2555238  )
        41           Sr  tau(  41) = (   0.2545482   0.2517602   0.7706582  )
        42           Sr  tau(  42) = (   0.2545482   0.2517602   1.2622536  )
        43           Co  tau(  43) = (   0.4989925   0.0073160   1.5135603  )
        44           Co  tau(  44) = (   0.4998370   0.0064714   1.0164559  )
        45           O   tau(  45) = (   0.5048017   0.0015068   0.7844841  )
        46           O   tau(  46) = (   0.5048017   0.0015068   1.2484277  )
        47           O   tau(  47) = (   0.2621260   0.0059111   1.5135603  )
        48           O   tau(  48) = (   0.2591051   0.0041689   1.0164559  )
        49           O   tau(  49) = (   0.7108228   0.9951520   2.1602013  )
        50           H   tau(  50) = (   0.7108228   0.9951520   2.2847091  )

   Crystallographic axes

     site n.     atom                  positions (cryst. coord.)
         1           Sr  tau(   1) = (  0.2508693  0.7491307  0.6943562  )
         2           O   tau(   2) = (  0.4985141  0.5014859  0.6999492  )
         3           Sr  tau(   3) = (  0.7482398  0.7454518  0.6972903  )
         4           Sr  tau(   4) = (  0.7441748  0.2558252  0.6980478  )
         5           Sr  tau(   5) = (  0.2508693  0.7491307  0.5016443  )
         6           Sr  tau(   6) = (  0.2508693  0.7491307  0.3015492  )
         7           Co  tau(   7) = (  0.4998914  0.5001086  0.4015968  )
         8           Co  tau(   8) = (  0.4936915  0.5063085  0.5980003  )
         9           O   tau(   9) = (  0.4988895  0.7610401  0.4015968  )
        10           O   tau(  10) = (  0.2389599  0.5011105  0.4015968  )
        11           O   tau(  11) = (  0.0070918  0.7374880  0.4015968  )
        12           O   tau(  12) = (  0.0088340  0.7405089  0.5980003  )
        13           O   tau(  13) = (  0.5066944  0.7415376  0.5980003  )
        14           O   tau(  14) = (  0.2584624  0.4933056  0.5980003  )
        15           O   tau(  15) = (  0.4985141  0.5014859  0.3071422  )
        16           O   tau(  16) = (  0.4985141  0.5014859  0.4960513  )
        17           Sr  tau(  17) = (  0.7482398  0.7454518  0.3044833  )
        18           Sr  tau(  18) = (  0.7482398  0.7454518  0.4987103  )
        19           Sr  tau(  19) = (  0.7441748  0.2558252  0.3052408  )
        20           Sr  tau(  20) = (  0.7441748  0.2558252  0.4979527  )
        21           O   tau(  21) = (  0.7322655  0.0078049  0.5980003  )
        22           O   tau(  22) = (  0.7558175  0.4996027  0.5980003  )
        23           O   tau(  23) = (  0.5003973  0.2441825  0.5980003  )
        24           O   tau(  24) = (  0.7527966  0.4978604  0.4015968  )
        25           O   tau(  25) = (  0.5021396  0.2472034  0.4015968  )
        26           O   tau(  26) = (  0.7517679  0.0000000  0.4015968  )
        27           O   tau(  27) = (  0.0114961  0.4948124  0.6896512  )
        28           O   tau(  28) = (  0.0048226  0.0077944  0.6999492  )
        29           Sr  tau(  29) = (  0.2545482  0.2517602  0.6972903  )
        30           O   tau(  30) = (  0.5048017  0.0015068  0.7027529  )
        31           Co  tau(  31) = (  0.0056869  0.5006215  0.4015968  )
        32           Co  tau(  32) = (  0.0065315  0.4997770  0.5980003  )
        33           Co  tau(  33) = (  0.0061999  0.0064171  0.4015968  )
        34           Co  tau(  34) = (  0.0000000  0.0126169  0.5980003  )
        35           O   tau(  35) = (  0.0114961  0.4948124  0.5063494  )
        36           O   tau(  36) = (  0.0114961  0.4948124  0.2968442  )
        37           O   tau(  37) = (  0.0051979  0.2673486  0.4015968  )
        38           O   tau(  38) = (  0.0130029  0.2478461  0.5980003  )
        39           O   tau(  39) = (  0.0048226  0.0077944  0.3071422  )
        40           O   tau(  40) = (  0.0048226  0.0077944  0.4960513  )
        41           Sr  tau(  41) = (  0.2545482  0.2517602  0.3044833  )
        42           Sr  tau(  42) = (  0.2545482  0.2517602  0.4987103  )
        43           Co  tau(  43) = (  0.4989925  0.0073160  0.5980003  )
        44           Co  tau(  44) = (  0.4998370  0.0064714  0.4015968  )
        45           O   tau(  45) = (  0.5048017  0.0015068  0.3099459  )
        46           O   tau(  46) = (  0.5048017  0.0015068  0.4932477  )
        47           O   tau(  47) = (  0.2621260  0.0059111  0.5980003  )
        48           O   tau(  48) = (  0.2591051  0.0041689  0.4015968  )
        49           O   tau(  49) = (  0.7108228  0.9951520  0.8534850  )
        50           H   tau(  50) = (  0.7108228  0.9951520  0.9026774  )

     number of k points=    10  Gaussian smearing, width (Ry)=  0.0700
                       cart. coord. in units 2pi/alat
        k(    1) = (   0.0000000   0.0000000   0.0000000), wk =   0.1250000
        k(    2) = (   0.0000000   0.2500000   0.0000000), wk =   0.2500000
        k(    3) = (   0.0000000  -0.5000000   0.0000000), wk =   0.1250000
        k(    4) = (   0.2500000   0.2500000   0.0000000), wk =   0.2500000
        k(    5) = (   0.2500000  -0.5000000   0.0000000), wk =   0.2500000
        k(    6) = (  -0.5000000  -0.5000000   0.0000000), wk =   0.1250000
        k(    7) = (   0.2500000   0.0000000   0.0000000), wk =   0.2500000
        k(    8) = (  -0.5000000   0.0000000   0.0000000), wk =   0.1250000
        k(    9) = (  -0.2500000   0.2500000   0.0000000), wk =   0.2500000
        k(   10) = (  -0.5000000   0.2500000   0.0000000), wk =   0.2500000

                       cryst. coord.
        k(    1) = (   0.0000000   0.0000000   0.0000000), wk =   0.1250000
        k(    2) = (   0.0000000   0.2500000   0.0000000), wk =   0.2500000
        k(    3) = (   0.0000000  -0.5000000   0.0000000), wk =   0.1250000
        k(    4) = (   0.2500000   0.2500000   0.0000000), wk =   0.2500000
        k(    5) = (   0.2500000  -0.5000000   0.0000000), wk =   0.2500000
        k(    6) = (  -0.5000000  -0.5000000   0.0000000), wk =   0.1250000
        k(    7) = (   0.2500000   0.0000000   0.0000000), wk =   0.2500000
        k(    8) = (  -0.5000000   0.0000000   0.0000000), wk =   0.1250000
        k(    9) = (  -0.2500000   0.2500000   0.0000000), wk =   0.2500000
        k(   10) = (  -0.5000000   0.2500000   0.0000000), wk =   0.2500000

     Dense  grid:  1474595 G-vectors     FFT dimensions: ( 108, 108, 270)

     Smooth grid:   521381 G-vectors     FFT dimensions: (  75,  75, 192)

     Dynamical RAM for                 wfc:      10.73 MB

     Dynamical RAM for     wfc (w. buffer):      64.38 MB

     Dynamical RAM for           str. fact:       3.75 MB

     Dynamical RAM for           local pot:       0.00 MB

     Dynamical RAM for          nlocal pot:      24.61 MB

     Dynamical RAM for                qrad:       7.03 MB

     Dynamical RAM for          rho,v,vnew:       6.02 MB

     Dynamical RAM for               rhoin:       2.01 MB

     Dynamical RAM for            rho*nmix:      15.00 MB

     Dynamical RAM for           G-vectors:       3.68 MB

     Dynamical RAM for          h,s,v(r/c):       1.35 MB

     Dynamical RAM for          <psi|beta>:       2.35 MB

     Dynamical RAM for                 psi:      21.46 MB

     Dynamical RAM for                hpsi:      21.46 MB

     Dynamical RAM for                spsi:      21.46 MB

     Dynamical RAM for      wfcinit/wfcrot:      34.49 MB

     Dynamical RAM for           addusdens:     101.26 MB

     Estimated static dynamical RAM per process >     121.50 MB

     Estimated max dynamical RAM per process >     237.76 MB

     Estimated total dynamical RAM >      10.79 GB

     Check: negative core charge=   -0.000004

     Initial potential from superposition of free atoms

     starting charge     422.5961, renormalised to     431.0000

     negative rho (up, down):  7.820E-01 0.000E+00
     Starting wfcs are  377 randomized atomic wfcs
     Checking if some PAW data can be deallocated... 
       PAW data deallocated on   19 nodes for type:  2

     total cpu time spent up to now is        8.6 secs

     Self-consistent Calculation

     iteration #  1     ecut=    60.00 Ry     beta= 0.15
     Davidson diagonalization with overlap

---- Real-time Memory Report at c_bands before calling an iterative solver
             0 MiB given to the printing process from OS
             0 MiB allocation reported by mallinfo(arena+hblkhd)
         23982 MiB available memory on the node where the printing process lives
------------------
     ethr =  1.00E-02,  avg # of iterations =  2.0

     negative rho (up, down):  7.715E-01 0.000E+00

     total cpu time spent up to now is       25.4 secs

     total energy              =   -4446.60349900 Ry
     estimated scf accuracy    <      44.74748587 Ry

     iteration #  2     ecut=    60.00 Ry     beta= 0.15
     Davidson diagonalization with overlap

---- Real-time Memory Report at c_bands before calling an iterative solver
             0 MiB given to the printing process from OS
             0 MiB allocation reported by mallinfo(arena+hblkhd)
         24247 MiB available memory on the node where the printing process lives
------------------
     ethr =  1.00E-02,  avg # of iterations =  1.0

     negative rho (up, down):  7.581E-01 0.000E+00

     total cpu time spent up to now is       39.8 secs

     total energy              =   -4443.26416793 Ry
     estimated scf accuracy    <      29.55940870 Ry

     iteration #  3     ecut=    60.00 Ry     beta= 0.15
     Davidson diagonalization with overlap

---- Real-time Memory Report at c_bands before calling an iterative solver
             0 MiB given to the printing process from OS
             0 MiB allocation reported by mallinfo(arena+hblkhd)
         23415 MiB available memory on the node where the printing process lives
------------------
     ethr =  6.86E-03,  avg # of iterations =  1.0

     negative rho (up, down):  7.554E-01 0.000E+00

     total cpu time spent up to now is       54.5 secs

     total energy              =   -4444.26481218 Ry
     estimated scf accuracy    <      28.95055009 Ry

     iteration #  4     ecut=    60.00 Ry     beta= 0.15
     Davidson diagonalization with overlap

---- Real-time Memory Report at c_bands before calling an iterative solver
             0 MiB given to the printing process from OS
             0 MiB allocation reported by mallinfo(arena+hblkhd)
         23385 MiB available memory on the node where the printing process lives
------------------
     ethr =  6.72E-03,  avg # of iterations =  1.0

     negative rho (up, down):  7.492E-01 0.000E+00

     total cpu time spent up to now is       69.1 secs

     total energy              =   -4443.05488445 Ry
     estimated scf accuracy    <      20.81045000 Ry

     iteration #  5     ecut=    60.00 Ry     beta= 0.15
     Davidson diagonalization with overlap

---- Real-time Memory Report at c_bands before calling an iterative solver
             0 MiB given to the printing process from OS
             0 MiB allocation reported by mallinfo(arena+hblkhd)
         23371 MiB available memory on the node where the printing process lives
------------------
     ethr =  4.83E-03,  avg # of iterations =  1.0

     negative rho (up, down):  7.408E-01 0.000E+00

     total cpu time spent up to now is       83.5 secs

     total energy              =   -4442.60133085 Ry
     estimated scf accuracy    <      10.08918032 Ry

     iteration #  6     ecut=    60.00 Ry     beta= 0.15
     Davidson diagonalization with overlap

---- Real-time Memory Report at c_bands before calling an iterative solver
             0 MiB given to the printing process from OS
             0 MiB allocation reported by mallinfo(arena+hblkhd)
         23352 MiB available memory on the node where the printing process lives
------------------
     ethr =  2.34E-03,  avg # of iterations =  1.1

     negative rho (up, down):  7.431E-01 0.000E+00

     total cpu time spent up to now is       98.2 secs

     total energy              =   -4442.80679128 Ry
     estimated scf accuracy    <       4.84657891 Ry

     iteration #  7     ecut=    60.00 Ry     beta= 0.15
     Davidson diagonalization with overlap

---- Real-time Memory Report at c_bands before calling an iterative solver
             0 MiB given to the printing process from OS
             0 MiB allocation reported by mallinfo(arena+hblkhd)
         23334 MiB available memory on the node where the printing process lives
------------------
     ethr =  1.12E-03,  avg # of iterations =  1.7

     negative rho (up, down):  7.652E-01 0.000E+00

     total cpu time spent up to now is      113.1 secs

     total energy              =   -4441.65152826 Ry
     estimated scf accuracy    <       3.90111242 Ry

     iteration #  8     ecut=    60.00 Ry     beta= 0.15
     Davidson diagonalization with overlap

---- Real-time Memory Report at c_bands before calling an iterative solver
             0 MiB given to the printing process from OS
             0 MiB allocation reported by mallinfo(arena+hblkhd)
         23310 MiB available memory on the node where the printing process lives
------------------
     ethr =  9.05E-04,  avg # of iterations =  5.7

     negative rho (up, down):  7.723E-01 0.000E+00

     total cpu time spent up to now is      132.9 secs

     total energy              =   -4441.56428002 Ry
     estimated scf accuracy    <      14.02000156 Ry

     iteration #  9     ecut=    60.00 Ry     beta= 0.15
     Davidson diagonalization with overlap

---- Real-time Memory Report at c_bands before calling an iterative solver
             0 MiB given to the printing process from OS
             0 MiB allocation reported by mallinfo(arena+hblkhd)
         23130 MiB available memory on the node where the printing process lives
------------------
     ethr =  9.05E-04,  avg # of iterations = 10.1

     negative rho (up, down):  7.705E-01 0.000E+00

     total cpu time spent up to now is      154.4 secs

     total energy              =   -4441.79048173 Ry
     estimated scf accuracy    <       2.26532703 Ry

     iteration # 10     ecut=    60.00 Ry     beta= 0.15
     Davidson diagonalization with overlap

---- Real-time Memory Report at c_bands before calling an iterative solver
             0 MiB given to the printing process from OS
             0 MiB allocation reported by mallinfo(arena+hblkhd)
         22815 MiB available memory on the node where the printing process lives
------------------
     ethr =  5.26E-04,  avg # of iterations =  1.7

     negative rho (up, down):  7.782E-01 0.000E+00

     total cpu time spent up to now is      170.4 secs

     total energy              =   -4441.92886961 Ry
     estimated scf accuracy    <       1.09509965 Ry

     iteration # 11     ecut=    60.00 Ry     beta= 0.15
     Davidson diagonalization with overlap

---- Real-time Memory Report at c_bands before calling an iterative solver
             0 MiB given to the printing process from OS
             0 MiB allocation reported by mallinfo(arena+hblkhd)
         22807 MiB available memory on the node where the printing process lives
------------------
     ethr =  2.54E-04,  avg # of iterations =  4.0

     negative rho (up, down):  8.103E-01 0.000E+00

     total cpu time spent up to now is      188.5 secs

     total energy              =   -4441.71538474 Ry
     estimated scf accuracy    <       1.34144720 Ry

     iteration # 12     ecut=    60.00 Ry     beta= 0.15
     Davidson diagonalization with overlap

---- Real-time Memory Report at c_bands before calling an iterative solver
             0 MiB given to the printing process from OS
             0 MiB allocation reported by mallinfo(arena+hblkhd)
         22784 MiB available memory on the node where the printing process lives
------------------
     ethr =  2.54E-04,  avg # of iterations =  8.5

     negative rho (up, down):  8.145E-01 0.000E+00

     total cpu time spent up to now is      208.6 secs

     total energy              =   -4441.84074525 Ry
     estimated scf accuracy    <       0.97730514 Ry

     iteration # 13     ecut=    60.00 Ry     beta= 0.15
     Davidson diagonalization with overlap

---- Real-time Memory Report at c_bands before calling an iterative solver
             0 MiB given to the printing process from OS
             0 MiB allocation reported by mallinfo(arena+hblkhd)
         22744 MiB available memory on the node where the printing process lives
------------------
     ethr =  2.27E-04,  avg # of iterations =  1.4

     negative rho (up, down):  8.175E-01 0.000E+00

     total cpu time spent up to now is      224.1 secs

     total energy              =   -4441.78969664 Ry
     estimated scf accuracy    <       0.59839007 Ry

     iteration # 14     ecut=    60.00 Ry     beta= 0.15
     Davidson diagonalization with overlap

---- Real-time Memory Report at c_bands before calling an iterative solver
             0 MiB given to the printing process from OS
             0 MiB allocation reported by mallinfo(arena+hblkhd)
         22750 MiB available memory on the node where the printing process lives
------------------
     ethr =  1.39E-04,  avg # of iterations =  7.9

     negative rho (up, down):  8.259E-01 0.000E+00

     total cpu time spent up to now is      244.4 secs

     total energy              =   -4441.72429761 Ry
     estimated scf accuracy    <       0.35542211 Ry

     iteration # 15     ecut=    60.00 Ry     beta= 0.15
     Davidson diagonalization with overlap

---- Real-time Memory Report at c_bands before calling an iterative solver
             0 MiB given to the printing process from OS
             0 MiB allocation reported by mallinfo(arena+hblkhd)
         22747 MiB available memory on the node where the printing process lives
------------------
     ethr =  8.25E-05,  avg # of iterations = 13.6

     negative rho (up, down):  8.343E-01 0.000E+00

     total cpu time spent up to now is      267.3 secs

     total energy              =   -4441.72559019 Ry
     estimated scf accuracy    <       0.33003170 Ry

     iteration # 16     ecut=    60.00 Ry     beta= 0.15
     Davidson diagonalization with overlap

---- Real-time Memory Report at c_bands before calling an iterative solver
             0 MiB given to the printing process from OS
             0 MiB allocation reported by mallinfo(arena+hblkhd)
         22723 MiB available memory on the node where the printing process lives
------------------
     ethr =  7.66E-05,  avg # of iterations =  2.3

     negative rho (up, down):  8.285E-01 0.000E+00

     total cpu time spent up to now is      284.1 secs

     total energy              =   -4441.70962626 Ry
     estimated scf accuracy    <       0.27300013 Ry

     iteration # 17     ecut=    60.00 Ry     beta= 0.15
     Davidson diagonalization with overlap

---- Real-time Memory Report at c_bands before calling an iterative solver
             0 MiB given to the printing process from OS
             0 MiB allocation reported by mallinfo(arena+hblkhd)
         22725 MiB available memory on the node where the printing process lives
------------------
     ethr =  6.33E-05,  avg # of iterations =  1.2

     negative rho (up, down):  8.057E-01 0.000E+00

     total cpu time spent up to now is      299.3 secs

     total energy              =   -4441.67779752 Ry
     estimated scf accuracy    <       0.16309539 Ry

     iteration # 18     ecut=    60.00 Ry     beta= 0.15
     Davidson diagonalization with overlap

---- Real-time Memory Report at c_bands before calling an iterative solver
             0 MiB given to the printing process from OS
             0 MiB allocation reported by mallinfo(arena+hblkhd)
         22750 MiB available memory on the node where the printing process lives
------------------
     ethr =  3.78E-05,  avg # of iterations = 10.2

     negative rho (up, down):  8.368E-01 0.000E+00

     total cpu time spent up to now is      321.4 secs

     total energy              =   -4441.66509544 Ry
     estimated scf accuracy    <       0.11825223 Ry

     iteration # 19     ecut=    60.00 Ry     beta= 0.15
     Davidson diagonalization with overlap

---- Real-time Memory Report at c_bands before calling an iterative solver
             0 MiB given to the printing process from OS
             0 MiB allocation reported by mallinfo(arena+hblkhd)
         22733 MiB available memory on the node where the printing process lives
------------------
     ethr =  2.74E-05,  avg # of iterations =  8.4

     negative rho (up, down):  8.357E-01 0.000E+00

     total cpu time spent up to now is      342.2 secs

     total energy              =   -4441.66714821 Ry
     estimated scf accuracy    <       0.04730527 Ry

     iteration # 20     ecut=    60.00 Ry     beta= 0.15
     Davidson diagonalization with overlap

---- Real-time Memory Report at c_bands before calling an iterative solver
             0 MiB given to the printing process from OS
             0 MiB allocation reported by mallinfo(arena+hblkhd)
         22685 MiB available memory on the node where the printing process lives
------------------
     ethr =  1.10E-05,  avg # of iterations =  8.3

     negative rho (up, down):  8.131E-01 0.000E+00

     total cpu time spent up to now is      362.9 secs

     total energy              =   -4441.66361114 Ry
     estimated scf accuracy    <       0.03240371 Ry

     iteration # 21     ecut=    60.00 Ry     beta= 0.15
     Davidson diagonalization with overlap

---- Real-time Memory Report at c_bands before calling an iterative solver
             0 MiB given to the printing process from OS
             0 MiB allocation reported by mallinfo(arena+hblkhd)
         22659 MiB available memory on the node where the printing process lives
------------------
     c_bands:  1 eigenvalues not converged
     ethr =  7.52E-06,  avg # of iterations =  5.5

     negative rho (up, down):  8.097E-01 0.000E+00

     total cpu time spent up to now is      382.5 secs

     total energy              =   -4441.66261860 Ry
     estimated scf accuracy    <       0.02310890 Ry

     iteration # 22     ecut=    60.00 Ry     beta= 0.15
     Davidson diagonalization with overlap

---- Real-time Memory Report at c_bands before calling an iterative solver
             0 MiB given to the printing process from OS
             0 MiB allocation reported by mallinfo(arena+hblkhd)
         22672 MiB available memory on the node where the printing process lives
------------------
     ethr =  5.36E-06,  avg # of iterations =  6.0

     negative rho (up, down):  7.951E-01 0.000E+00

     total cpu time spent up to now is      401.4 secs

     total energy              =   -4441.65908378 Ry
     estimated scf accuracy    <       0.01793132 Ry

     iteration # 23     ecut=    60.00 Ry     beta= 0.15
     Davidson diagonalization with overlap

---- Real-time Memory Report at c_bands before calling an iterative solver
             0 MiB given to the printing process from OS
             0 MiB allocation reported by mallinfo(arena+hblkhd)
         22733 MiB available memory on the node where the printing process lives
------------------
     ethr =  4.16E-06,  avg # of iterations = 11.2

     negative rho (up, down):  8.010E-01 0.000E+00

     total cpu time spent up to now is      424.2 secs

     total energy              =   -4441.65802862 Ry
     estimated scf accuracy    <       0.00927132 Ry

     iteration # 24     ecut=    60.00 Ry     beta= 0.15
     Davidson diagonalization with overlap

---- Real-time Memory Report at c_bands before calling an iterative solver
             0 MiB given to the printing process from OS
             0 MiB allocation reported by mallinfo(arena+hblkhd)
         22720 MiB available memory on the node where the printing process lives
------------------
     ethr =  2.15E-06,  avg # of iterations =  9.8

     negative rho (up, down):  8.027E-01 0.000E+00

     total cpu time spent up to now is      447.5 secs

     total energy              =   -4441.65799869 Ry
     estimated scf accuracy    <       0.00399154 Ry

     iteration # 25     ecut=    60.00 Ry     beta= 0.15
     Davidson diagonalization with overlap

---- Real-time Memory Report at c_bands before calling an iterative solver
             0 MiB given to the printing process from OS
             0 MiB allocation reported by mallinfo(arena+hblkhd)
         22616 MiB available memory on the node where the printing process lives
------------------
     ethr =  9.26E-07,  avg # of iterations =  7.5

     negative rho (up, down):  8.009E-01 0.000E+00

     total cpu time spent up to now is      467.9 secs

     total energy              =   -4441.65806010 Ry
     estimated scf accuracy    <       0.00143133 Ry

     iteration # 26     ecut=    60.00 Ry     beta= 0.15
     Davidson diagonalization with overlap

---- Real-time Memory Report at c_bands before calling an iterative solver
             0 MiB given to the printing process from OS
             0 MiB allocation reported by mallinfo(arena+hblkhd)
         22569 MiB available memory on the node where the printing process lives
------------------
     ethr =  3.32E-07,  avg # of iterations =  8.8

     negative rho (up, down):  7.989E-01 0.000E+00

     total cpu time spent up to now is      488.6 secs

     total energy              =   -4441.65800863 Ry
     estimated scf accuracy    <       0.00082370 Ry

     iteration # 27     ecut=    60.00 Ry     beta= 0.15
     Davidson diagonalization with overlap

---- Real-time Memory Report at c_bands before calling an iterative solver
             0 MiB given to the printing process from OS
             0 MiB allocation reported by mallinfo(arena+hblkhd)
         22647 MiB available memory on the node where the printing process lives
------------------
     ethr =  1.91E-07,  avg # of iterations = 10.9

     negative rho (up, down):  7.972E-01 0.000E+00

     total cpu time spent up to now is      511.3 secs

     total energy              =   -4441.65796134 Ry
     estimated scf accuracy    <       0.00044577 Ry

     iteration # 28     ecut=    60.00 Ry     beta= 0.15
     Davidson diagonalization with overlap

---- Real-time Memory Report at c_bands before calling an iterative solver
             0 MiB given to the printing process from OS
             0 MiB allocation reported by mallinfo(arena+hblkhd)
         22627 MiB available memory on the node where the printing process lives
------------------
     ethr =  1.03E-07,  avg # of iterations =  5.7

     negative rho (up, down):  7.953E-01 0.000E+00

     total cpu time spent up to now is      531.3 secs

     total energy              =   -4441.65794314 Ry
     estimated scf accuracy    <       0.00020003 Ry

     iteration # 29     ecut=    60.00 Ry     beta= 0.15
     Davidson diagonalization with overlap

---- Real-time Memory Report at c_bands before calling an iterative solver
             0 MiB given to the printing process from OS
             0 MiB allocation reported by mallinfo(arena+hblkhd)
         22629 MiB available memory on the node where the printing process lives
------------------
     ethr =  4.64E-08,  avg # of iterations =  4.1

     negative rho (up, down):  7.954E-01 0.000E+00

     total cpu time spent up to now is      550.6 secs

     total energy              =   -4441.65797017 Ry
     estimated scf accuracy    <       0.00008299 Ry

     iteration # 30     ecut=    60.00 Ry     beta= 0.15
     Davidson diagonalization with overlap

---- Real-time Memory Report at c_bands before calling an iterative solver
             0 MiB given to the printing process from OS
             0 MiB allocation reported by mallinfo(arena+hblkhd)
         22614 MiB available memory on the node where the printing process lives
------------------
     ethr =  1.93E-08,  avg # of iterations =  2.2

     negative rho (up, down):  7.941E-01 0.000E+00

     total cpu time spent up to now is      567.9 secs

     total energy              =   -4441.65795881 Ry
     estimated scf accuracy    <       0.00004700 Ry

     iteration # 31     ecut=    60.00 Ry     beta= 0.15
     Davidson diagonalization with overlap

---- Real-time Memory Report at c_bands before calling an iterative solver
             0 MiB given to the printing process from OS
             0 MiB allocation reported by mallinfo(arena+hblkhd)
         22623 MiB available memory on the node where the printing process lives
------------------
     ethr =  1.09E-08,  avg # of iterations =  2.2

     negative rho (up, down):  7.929E-01 0.000E+00

     total cpu time spent up to now is      585.1 secs

     total energy              =   -4441.65795308 Ry
     estimated scf accuracy    <       0.00002629 Ry

     iteration # 32     ecut=    60.00 Ry     beta= 0.15
     Davidson diagonalization with overlap

---- Real-time Memory Report at c_bands before calling an iterative solver
             0 MiB given to the printing process from OS
             0 MiB allocation reported by mallinfo(arena+hblkhd)
         22633 MiB available memory on the node where the printing process lives
------------------
     ethr =  6.10E-09,  avg # of iterations =  4.9

     negative rho (up, down):  7.922E-01 0.000E+00

     total cpu time spent up to now is      604.0 secs

     total energy              =   -4441.65795628 Ry
     estimated scf accuracy    <       0.00000995 Ry

     iteration # 33     ecut=    60.00 Ry     beta= 0.15
     Davidson diagonalization with overlap

---- Real-time Memory Report at c_bands before calling an iterative solver
             0 MiB given to the printing process from OS
             0 MiB allocation reported by mallinfo(arena+hblkhd)
         22641 MiB available memory on the node where the printing process lives
------------------
     ethr =  2.31E-09,  avg # of iterations =  3.3

     negative rho (up, down):  7.922E-01 0.000E+00

     total cpu time spent up to now is      622.2 secs

     total energy              =   -4441.65795691 Ry
     estimated scf accuracy    <       0.00000593 Ry

     iteration # 34     ecut=    60.00 Ry     beta= 0.15
     Davidson diagonalization with overlap

---- Real-time Memory Report at c_bands before calling an iterative solver
             0 MiB given to the printing process from OS
             0 MiB allocation reported by mallinfo(arena+hblkhd)
         22638 MiB available memory on the node where the printing process lives
------------------
     ethr =  1.38E-09,  avg # of iterations =  2.2

     negative rho (up, down):  7.921E-01 0.000E+00

     total cpu time spent up to now is      639.4 secs

     total energy              =   -4441.65795699 Ry
     estimated scf accuracy    <       0.00000422 Ry

     iteration # 35     ecut=    60.00 Ry     beta= 0.15
     Davidson diagonalization with overlap

---- Real-time Memory Report at c_bands before calling an iterative solver
             0 MiB given to the printing process from OS
             0 MiB allocation reported by mallinfo(arena+hblkhd)
         22651 MiB available memory on the node where the printing process lives
------------------
     ethr =  9.79E-10,  avg # of iterations =  2.9

     negative rho (up, down):  7.922E-01 0.000E+00

     total cpu time spent up to now is      657.0 secs

     total energy              =   -4441.65795680 Ry
     estimated scf accuracy    <       0.00000259 Ry

     iteration # 36     ecut=    60.00 Ry     beta= 0.15
     Davidson diagonalization with overlap

---- Real-time Memory Report at c_bands before calling an iterative solver
             0 MiB given to the printing process from OS
             0 MiB allocation reported by mallinfo(arena+hblkhd)
         22653 MiB available memory on the node where the printing process lives
------------------
     ethr =  6.02E-10,  avg # of iterations =  2.2

     negative rho (up, down):  7.924E-01 0.000E+00

     total cpu time spent up to now is      674.3 secs

     total energy              =   -4441.65795686 Ry
     estimated scf accuracy    <       0.00000133 Ry

     iteration # 37     ecut=    60.00 Ry     beta= 0.15
     Davidson diagonalization with overlap

---- Real-time Memory Report at c_bands before calling an iterative solver
             0 MiB given to the printing process from OS
             0 MiB allocation reported by mallinfo(arena+hblkhd)
         22656 MiB available memory on the node where the printing process lives
------------------
     ethr =  3.08E-10,  avg # of iterations =  2.6

     negative rho (up, down):  7.925E-01 0.000E+00

     total cpu time spent up to now is      691.9 secs

     total energy              =   -4441.65795687 Ry
     estimated scf accuracy    <       0.00000055 Ry

     iteration # 38     ecut=    60.00 Ry     beta= 0.15
     Davidson diagonalization with overlap

---- Real-time Memory Report at c_bands before calling an iterative solver
             0 MiB given to the printing process from OS
             0 MiB allocation reported by mallinfo(arena+hblkhd)
         22661 MiB available memory on the node where the printing process lives
------------------
     ethr =  1.28E-10,  avg # of iterations =  3.7

     negative rho (up, down):  7.925E-01 0.000E+00

     total cpu time spent up to now is      710.4 secs

     total energy              =   -4441.65795691 Ry
     estimated scf accuracy    <       0.00000031 Ry

     iteration # 39     ecut=    60.00 Ry     beta= 0.15
     Davidson diagonalization with overlap

---- Real-time Memory Report at c_bands before calling an iterative solver
             0 MiB given to the printing process from OS
             0 MiB allocation reported by mallinfo(arena+hblkhd)
         22655 MiB available memory on the node where the printing process lives
------------------
     ethr =  7.09E-11,  avg # of iterations =  1.4

     negative rho (up, down):  7.925E-01 0.000E+00

     total cpu time spent up to now is      726.8 secs

     total energy              =   -4441.65795692 Ry
     estimated scf accuracy    <       0.00000029 Ry

     iteration # 40     ecut=    60.00 Ry     beta= 0.15
     Davidson diagonalization with overlap

---- Real-time Memory Report at c_bands before calling an iterative solver
             0 MiB given to the printing process from OS
             0 MiB allocation reported by mallinfo(arena+hblkhd)
         22658 MiB available memory on the node where the printing process lives
------------------
     ethr =  6.66E-11,  avg # of iterations =  1.2

     negative rho (up, down):  7.925E-01 0.000E+00

     total cpu time spent up to now is      742.6 secs

     total energy              =   -4441.65795691 Ry
     estimated scf accuracy    <       0.00000020 Ry

     iteration # 41     ecut=    60.00 Ry     beta= 0.15
     Davidson diagonalization with overlap

---- Real-time Memory Report at c_bands before calling an iterative solver
             0 MiB given to the printing process from OS
             0 MiB allocation reported by mallinfo(arena+hblkhd)
         22665 MiB available memory on the node where the printing process lives
------------------
     ethr =  4.66E-11,  avg # of iterations =  1.2

     negative rho (up, down):  7.925E-01 0.000E+00

     total cpu time spent up to now is      758.5 secs

     total energy              =   -4441.65795690 Ry
     estimated scf accuracy    <       0.00000015 Ry

     iteration # 42     ecut=    60.00 Ry     beta= 0.15
     Davidson diagonalization with overlap

---- Real-time Memory Report at c_bands before calling an iterative solver
             0 MiB given to the printing process from OS
             0 MiB allocation reported by mallinfo(arena+hblkhd)
         22669 MiB available memory on the node where the printing process lives
------------------
     ethr =  3.54E-11,  avg # of iterations =  1.1

     negative rho (up, down):  7.925E-01 0.000E+00

     total cpu time spent up to now is      774.1 secs

     total energy              =   -4441.65795687 Ry
     estimated scf accuracy    <       0.00000012 Ry

     iteration # 43     ecut=    60.00 Ry     beta= 0.15
     Davidson diagonalization with overlap

---- Real-time Memory Report at c_bands before calling an iterative solver
             0 MiB given to the printing process from OS
             0 MiB allocation reported by mallinfo(arena+hblkhd)
         22670 MiB available memory on the node where the printing process lives
------------------
     ethr =  2.81E-11,  avg # of iterations =  2.2

     negative rho (up, down):  7.925E-01 0.000E+00

     total cpu time spent up to now is      791.5 secs

     total energy              =   -4441.65795686 Ry
     estimated scf accuracy    <       0.00000008 Ry

     iteration # 44     ecut=    60.00 Ry     beta= 0.15
     Davidson diagonalization with overlap

---- Real-time Memory Report at c_bands before calling an iterative solver
             0 MiB given to the printing process from OS
             0 MiB allocation reported by mallinfo(arena+hblkhd)
         22676 MiB available memory on the node where the printing process lives
------------------
     ethr =  1.87E-11,  avg # of iterations =  2.2

     negative rho (up, down):  7.925E-01 0.000E+00

     total cpu time spent up to now is      809.0 secs

     total energy              =   -4441.65795683 Ry
     estimated scf accuracy    <       0.00000005 Ry

     iteration # 45     ecut=    60.00 Ry     beta= 0.15
     Davidson diagonalization with overlap

---- Real-time Memory Report at c_bands before calling an iterative solver
             0 MiB given to the printing process from OS
             0 MiB allocation reported by mallinfo(arena+hblkhd)
         22679 MiB available memory on the node where the printing process lives
------------------
     ethr =  1.08E-11,  avg # of iterations =  3.2

     negative rho (up, down):  7.925E-01 0.000E+00

     total cpu time spent up to now is      827.4 secs

     total energy              =   -4441.65795683 Ry
     estimated scf accuracy    <       0.00000001 Ry

     iteration # 46     ecut=    60.00 Ry     beta= 0.15
     Davidson diagonalization with overlap

---- Real-time Memory Report at c_bands before calling an iterative solver
             0 MiB given to the printing process from OS
             0 MiB allocation reported by mallinfo(arena+hblkhd)
         22676 MiB available memory on the node where the printing process lives
------------------
     ethr =  3.26E-12,  avg # of iterations =  2.0

     negative rho (up, down):  7.925E-01 0.000E+00

     total cpu time spent up to now is      844.4 secs

     End of self-consistent calculation

          k = 0.0000 0.0000 0.0000 ( 65197 PWs)   bands (ev):

   -92.6859 -92.6325 -92.5393 -92.4937 -92.4342 -92.3919 -92.3747 -92.2547
   -56.0395 -56.0190 -55.8967 -55.8865 -55.8794 -55.8733 -55.8370 -55.8086
   -55.7933 -55.7914 -55.7831 -55.7417 -55.7250 -55.6852 -55.6656 -55.6344
   -55.6289 -55.5803 -55.5791 -55.5772 -55.5687 -55.5300 -55.5050 -55.4214
   -31.2632 -31.2439 -31.1021 -31.0155 -30.9300 -30.9063 -30.8521 -30.7944
   -29.8325 -29.7898 -29.7633 -29.6560 -15.0661 -15.0236 -14.9408 -14.8116
   -14.6182 -14.4964 -14.2035 -14.1810 -14.1542 -14.1059 -14.0622 -14.0532
   -14.0418 -14.0218 -14.0025 -13.9592 -13.9431 -13.9137 -13.7619 -13.5872
   -13.5505 -13.5209 -13.4895 -13.4736 -13.4168 -13.3836 -13.3079 -13.2355
   -13.0969 -13.0838 -13.0728 -13.0593 -13.0417 -12.9885 -12.9831 -12.9787
   -12.9635 -12.9378 -12.9082 -12.8855 -12.8092 -12.7977 -12.7841 -12.7525
   -12.7356 -12.7269 -12.7086 -12.6609 -12.6570 -12.3278 -12.1822 -12.0002
   -11.9392 -11.8462 -11.7720 -11.7607 -11.7384 -11.7207 -11.6572 -11.6396
   -11.6051 -11.5751 -11.4647 -11.3846 -11.3811  -2.9262  -2.6938  -2.4644
    -2.3174  -2.2544  -2.1124  -1.8053  -1.7913  -1.7714  -1.6879  -1.6675
    -1.5998  -1.5835  -1.5425  -1.4980  -1.3162  -1.1220  -1.0925  -1.0604
    -0.9155  -0.9009  -0.8553  -0.8351  -0.7894  -0.7741  -0.7184  -0.6915
    -0.6182  -0.6036  -0.5313  -0.3994  -0.3865  -0.3578  -0.2765  -0.2652
    -0.2554  -0.1841  -0.1127  -0.0579  -0.0136   0.0194   0.0867   0.1527
     0.1970   0.2251   0.2295   0.4884   0.5034   0.6800   0.7431   0.8127
     0.8554   0.9449   0.9581   0.9749   1.0393   1.0657   1.1001   1.1581
     1.2892   1.3502   1.3687   1.3880   1.4017   1.4682   1.5371   1.6448
     1.6570   1.7225   1.7366   1.7783   1.7943   1.7992   1.8587   1.9127
     1.9523   1.9731   2.0165   2.0444   2.1753   2.2588   2.3002   2.3260
     2.4272   2.4787   2.4939   2.5180   2.5293   2.5358   2.6444   2.6743
     2.7007   2.7193   2.7326   2.8134   2.9232   2.9535   2.9663   2.9731
     3.0411   3.0447   3.0694   3.0765   3.0853   3.0992   3.1051   3.1187
     3.1234   3.1369   3.1446   3.1522   3.1720   3.1933   3.1983   3.2104
     3.2429   3.3515   3.4277   4.1221   4.4546   4.7861   4.8753   5.0586
     5.7560   5.9503   6.0050   6.0252   6.3297   6.3765   6.4904   6.5002
     6.7386   7.0178   7.0975   7.3318   7.4298   7.5760   7.6603   7.6764
     7.7028   7.9065   8.0146   8.0513   8.1234   8.1862   8.3562   8.4473
     8.7343   8.8594   8.9215

     occupation numbers 
     1.0000   1.0000   1.0000   1.0000   1.0000   1.0000   1.0000   1.0000
     1.0000   1.0000   1.0000   1.0000   1.0000   1.0000   1.0000   1.0000
     1.0000   1.0000   1.0000   1.0000   1.0000   1.0000   1.0000   1.0000
     1.0000   1.0000   1.0000   1.0000   1.0000   1.0000   1.0000   1.0000
     1.0000   1.0000   1.0000   1.0000   1.0000   1.0000   1.0000   1.0000
     1.0000   1.0000   1.0000   1.0000   1.0000   1.0000   1.0000   1.0000
     1.0000   1.0000   1.0000   1.0000   1.0000   1.0000   1.0000   1.0000
     1.0000   1.0000   1.0000   1.0000   1.0000   1.0000   1.0000   1.0000
     1.0000   1.0000   1.0000   1.0000   1.0000   1.0000   1.0000   1.0000
     1.0000   1.0000   1.0000   1.0000   1.0000   1.0000   1.0000   1.0000
     1.0000   1.0000   1.0000   1.0000   1.0000   1.0000   1.0000   1.0000
     1.0000   1.0000   1.0000   1.0000   1.0000   1.0000   1.0000   1.0000
     1.0000   1.0000   1.0000   1.0000   1.0000   1.0000   1.0000   1.0000
     1.0000   1.0000   1.0000   1.0000   1.0000   1.0000   1.0000   1.0000
     1.0000   1.0000   1.0000   1.0000   1.0000   1.0000   1.0000   1.0000
     1.0000   1.0000   1.0000   1.0000   1.0000   1.0000   1.0000   1.0000
     1.0000   1.0000   1.0000   1.0000   1.0000   1.0000   1.0000   1.0000
     1.0000   1.0000   1.0000   1.0000   1.0000   1.0000   1.0000   1.0000
     1.0000   1.0000   1.0000   1.0000   1.0000   1.0000   1.0000   1.0000
     1.0000   1.0000   1.0000   1.0000   1.0000   1.0000   0.9999   0.9999
     0.9999   0.9998   0.9998   0.9998   0.9997   0.9996   0.9996   0.9994
     0.9988   0.9985   0.9983   0.9981   0.9980   0.9973   0.9963   0.9941
     0.9938   0.9919   0.9914   0.9899   0.9892   0.9890   0.9862   0.9831
     0.9805   0.9790   0.9755   0.9730   0.9584   0.9461   0.9391   0.9343
     0.9129   0.9001   0.8961   0.8895   0.8863   0.8844   0.8499   0.8393
     0.8296   0.8225   0.8173   0.7838   0.7330   0.7181   0.7116   0.7081
     0.6725   0.6706   0.6573   0.6533   0.6485   0.6408   0.6375   0.6299
     0.6273   0.6197   0.6153   0.6110   0.5997   0.5874   0.5846   0.5775
     0.5585   0.4945   0.4494   0.1234   0.0493   0.0160   0.0114   0.0054
     0.0002   0.0001   0.0000   0.0000   0.0000   0.0000   0.0000   0.0000
     0.0000   0.0000   0.0000   0.0000   0.0000   0.0000   0.0000   0.0000
     0.0000   0.0000   0.0000   0.0000   0.0000   0.0000   0.0000   0.0000
     0.0000   0.0000   0.0000

          k = 0.0000 0.2500 0.0000 ( 65257 PWs)   bands (ev):

   -92.6859 -92.6325 -92.5393 -92.4937 -92.4342 -92.3919 -92.3747 -92.2547
   -56.0395 -56.0190 -55.8967 -55.8865 -55.8794 -55.8733 -55.8370 -55.8086
   -55.7933 -55.7914 -55.7831 -55.7417 -55.7250 -55.6852 -55.6656 -55.6344
   -55.6289 -55.5803 -55.5791 -55.5772 -55.5687 -55.5300 -55.5050 -55.4214
   -31.2630 -31.2438 -31.1023 -31.0156 -30.9296 -30.9060 -30.8525 -30.7947
   -29.8318 -29.7895 -29.7640 -29.6563 -15.0295 -14.9977 -14.9157 -14.7822
   -14.6596 -14.4858 -14.3490 -14.1695 -14.1336 -14.1118 -14.0815 -14.0269
   -14.0184 -14.0067 -13.9846 -13.9542 -13.9223 -13.8334 -13.7932 -13.6326
   -13.6108 -13.5618 -13.5268 -13.4823 -13.4369 -13.3871 -13.3272 -13.2927
   -13.1854 -13.1428 -13.1321 -13.0939 -13.0748 -12.9750 -12.9676 -12.9462
   -12.9194 -12.8868 -12.8536 -12.8423 -12.7990 -12.7837 -12.7632 -12.7469
   -12.7155 -12.6826 -12.6536 -12.5823 -12.4926 -12.3892 -12.2334 -12.0562
   -12.0059 -11.8117 -11.7688 -11.7406 -11.7126 -11.6962 -11.6490 -11.6375
   -11.6146 -11.5805 -11.4790 -11.4263 -11.4157  -2.7909  -2.5695  -2.4320
    -2.2500  -2.2064  -2.0427  -1.8239  -1.7389  -1.7259  -1.6692  -1.5660
    -1.5495  -1.5162  -1.4892  -1.4454  -1.2476  -1.1300  -1.1112  -1.1044
    -1.0312  -1.0207  -0.9155  -0.8861  -0.8270  -0.8020  -0.7624  -0.6992
    -0.6721  -0.6401  -0.6054  -0.5883  -0.5573  -0.4837  -0.4334  -0.3704
    -0.2570  -0.2401  -0.1934  -0.0736  -0.0373   0.0307   0.0762   0.1440
     0.1521   0.1787   0.2427   0.5381   0.6235   0.6538   0.7450   0.7931
     0.8187   0.9279   0.9460   1.0472   1.0677   1.0921   1.2071   1.2991
     1.3256   1.3462   1.3641   1.3922   1.4506   1.4786   1.5063   1.5535
     1.5896   1.6209   1.7056   1.7335   1.7800   1.8265   1.8818   1.9506
     1.9599   1.9778   2.0012   2.0936   2.2088   2.2825   2.3059   2.3755
     2.4128   2.4407   2.4698   2.4778   2.5214   2.5412   2.5701   2.6615
     2.6938   2.7084   2.8803   2.9030   2.9359   2.9568   2.9740   2.9824
     2.9896   2.9989   3.0282   3.0302   3.0494   3.0523   3.0641   3.0824
     3.0932   3.1015   3.1235   3.1339   3.1388   3.1739   3.1909   3.2513
     3.6290   3.6525   3.8960   4.3127   4.4522   4.7240   5.0271   5.0844
     5.6542   5.8030   5.9418   6.0002   6.0979   6.1221   6.1987   6.6065
     6.8485   7.0864   7.1293   7.3415   7.4931   7.5099   7.5430   7.6554
     7.8594   7.9871   8.0289   8.1809   8.2839   8.3607   8.3859   8.4252
     8.6355   8.8507   8.9476

     occupation numbers 
     1.0000   1.0000   1.0000   1.0000   1.0000   1.0000   1.0000   1.0000
     1.0000   1.0000   1.0000   1.0000   1.0000   1.0000   1.0000   1.0000
     1.0000   1.0000   1.0000   1.0000   1.0000   1.0000   1.0000   1.0000
     1.0000   1.0000   1.0000   1.0000   1.0000   1.0000   1.0000   1.0000
     1.0000   1.0000   1.0000   1.0000   1.0000   1.0000   1.0000   1.0000
     1.0000   1.0000   1.0000   1.0000   1.0000   1.0000   1.0000   1.0000
     1.0000   1.0000   1.0000   1.0000   1.0000   1.0000   1.0000   1.0000
     1.0000   1.0000   1.0000   1.0000   1.0000   1.0000   1.0000   1.0000
     1.0000   1.0000   1.0000   1.0000   1.0000   1.0000   1.0000   1.0000
     1.0000   1.0000   1.0000   1.0000   1.0000   1.0000   1.0000   1.0000
     1.0000   1.0000   1.0000   1.0000   1.0000   1.0000   1.0000   1.0000
     1.0000   1.0000   1.0000   1.0000   1.0000   1.0000   1.0000   1.0000
     1.0000   1.0000   1.0000   1.0000   1.0000   1.0000   1.0000   1.0000
     1.0000   1.0000   1.0000   1.0000   1.0000   1.0000   1.0000   1.0000
     1.0000   1.0000   1.0000   1.0000   1.0000   1.0000   1.0000   1.0000
     1.0000   1.0000   1.0000   1.0000   1.0000   1.0000   1.0000   1.0000
     1.0000   1.0000   1.0000   1.0000   1.0000   1.0000   1.0000   1.0000
     1.0000   1.0000   1.0000   1.0000   1.0000   1.0000   1.0000   1.0000
     1.0000   1.0000   1.0000   1.0000   1.0000   1.0000   1.0000   1.0000
     1.0000   1.0000   1.0000   1.0000   1.0000   1.0000   0.9999   0.9999
     0.9999   0.9998   0.9998   0.9997   0.9996   0.9996   0.9992   0.9988
     0.9986   0.9985   0.9983   0.9981   0.9975   0.9972   0.9968   0.9960
     0.9954   0.9947   0.9925   0.9915   0.9898   0.9878   0.9849   0.9806
     0.9799   0.9786   0.9768   0.9681   0.9538   0.9422   0.9381   0.9244
     0.9162   0.9096   0.9024   0.9003   0.8885   0.8828   0.8742   0.8439
     0.8321   0.8266   0.7536   0.7428   0.7268   0.7164   0.7077   0.7034
     0.6996   0.6948   0.6794   0.6784   0.6681   0.6665   0.6601   0.6501
     0.6441   0.6396   0.6272   0.6214   0.6186   0.5986   0.5888   0.5536
     0.3351   0.3225   0.2054   0.0748   0.0496   0.0201   0.0062   0.0048
     0.0003   0.0001   0.0001   0.0000   0.0000   0.0000   0.0000   0.0000
     0.0000   0.0000   0.0000   0.0000   0.0000   0.0000   0.0000   0.0000
     0.0000   0.0000   0.0000   0.0000   0.0000   0.0000   0.0000   0.0000
     0.0000   0.0000   0.0000

          k = 0.0000-0.5000 0.0000 ( 65180 PWs)   bands (ev):

   -92.6859 -92.6325 -92.5393 -92.4937 -92.4342 -92.3919 -92.3747 -92.2547
   -56.0395 -56.0190 -55.8967 -55.8865 -55.8794 -55.8733 -55.8370 -55.8086
   -55.7933 -55.7914 -55.7831 -55.7417 -55.7250 -55.6852 -55.6656 -55.6344
   -55.6289 -55.5803 -55.5791 -55.5772 -55.5687 -55.5300 -55.5050 -55.4214
   -31.2628 -31.2437 -31.1025 -31.0158 -30.9292 -30.9057 -30.8530 -30.7950
   -29.8312 -29.7892 -29.7646 -29.6566 -14.9951 -14.9462 -14.8931 -14.7627
   -14.6803 -14.5432 -14.3894 -14.2648 -14.1423 -14.0607 -14.0255 -14.0193
   -13.9721 -13.9554 -13.9528 -13.9048 -13.8850 -13.8598 -13.8262 -13.7826
   -13.7417 -13.5680 -13.5099 -13.4889 -13.4414 -13.3749 -13.3436 -13.2714
   -13.2685 -13.2236 -13.2033 -13.0947 -13.0755 -12.9614 -12.9547 -12.9418
   -12.9144 -12.8894 -12.8654 -12.7983 -12.7606 -12.7416 -12.7114 -12.6907
   -12.6796 -12.6517 -12.6370 -12.5001 -12.4318 -12.3086 -12.2681 -12.1716
   -12.1214 -11.7658 -11.7633 -11.7355 -11.6985 -11.6640 -11.6525 -11.6105
   -11.6067 -11.5624 -11.5007 -11.4872 -11.4730  -2.5769  -2.5161  -2.3668
    -2.2944  -2.0138  -1.9285  -1.8024  -1.6648  -1.6289  -1.6081  -1.5295
    -1.4973  -1.4163  -1.3804  -1.3037  -1.2636  -1.2252  -1.1979  -1.1426
    -1.1211  -1.1007  -1.0558  -1.0172  -0.9862  -0.9503  -0.8426  -0.7981
    -0.7628  -0.7618  -0.6754  -0.6436  -0.6199  -0.5675  -0.4883  -0.4135
    -0.3314  -0.3042  -0.1971  -0.1434  -0.0138   0.0211   0.0505   0.1147
     0.2571   0.2885   0.4073   0.4775   0.4847   0.6112   0.6594   0.7855
     0.8899   1.0015   1.0315   1.0698   1.0727   1.1182   1.1288   1.1666
     1.1905   1.1950   1.3028   1.3664   1.3910   1.4170   1.6776   1.7144
     1.7436   1.8385   1.8787   1.8845   1.9028   1.9282   1.9474   1.9711
     1.9925   2.0187   2.0522   2.0837   2.0860   2.1182   2.1697   2.2526
     2.2821   2.4292   2.4681   2.5244   2.6192   2.6308   2.6559   2.6834
     2.6907   2.6993   2.7501   2.7602   2.8145   2.8356   2.9140   2.9265
     2.9936   3.0045   3.0253   3.0270   3.0460   3.0514   3.0545   3.0584
     3.0627   3.0757   3.0935   3.0950   3.1592   3.1643   3.1804   3.2343
     4.1532   4.1818   4.2034   4.2692   4.7577   4.9169   5.0397   5.1725
     5.4274   5.4786   5.5963   5.7346   6.0362   6.0672   6.2995   6.4920
     6.8619   6.9626   7.2347   7.3117   7.3619   7.4901   7.6425   7.7677
     7.9214   8.0543   8.1977   8.2457   8.3310   8.4715   8.5343   8.6847
     8.8303   8.8435   8.8897

     occupation numbers 
     1.0000   1.0000   1.0000   1.0000   1.0000   1.0000   1.0000   1.0000
     1.0000   1.0000   1.0000   1.0000   1.0000   1.0000   1.0000   1.0000
     1.0000   1.0000   1.0000   1.0000   1.0000   1.0000   1.0000   1.0000
     1.0000   1.0000   1.0000   1.0000   1.0000   1.0000   1.0000   1.0000
     1.0000   1.0000   1.0000   1.0000   1.0000   1.0000   1.0000   1.0000
     1.0000   1.0000   1.0000   1.0000   1.0000   1.0000   1.0000   1.0000
     1.0000   1.0000   1.0000   1.0000   1.0000   1.0000   1.0000   1.0000
     1.0000   1.0000   1.0000   1.0000   1.0000   1.0000   1.0000   1.0000
     1.0000   1.0000   1.0000   1.0000   1.0000   1.0000   1.0000   1.0000
     1.0000   1.0000   1.0000   1.0000   1.0000   1.0000   1.0000   1.0000
     1.0000   1.0000   1.0000   1.0000   1.0000   1.0000   1.0000   1.0000
     1.0000   1.0000   1.0000   1.0000   1.0000   1.0000   1.0000   1.0000
     1.0000   1.0000   1.0000   1.0000   1.0000   1.0000   1.0000   1.0000
     1.0000   1.0000   1.0000   1.0000   1.0000   1.0000   1.0000   1.0000
     1.0000   1.0000   1.0000   1.0000   1.0000   1.0000   1.0000   1.0000
     1.0000   1.0000   1.0000   1.0000   1.0000   1.0000   1.0000   1.0000
     1.0000   1.0000   1.0000   1.0000   1.0000   1.0000   1.0000   1.0000
     1.0000   1.0000   1.0000   1.0000   1.0000   1.0000   1.0000   1.0000
     1.0000   1.0000   1.0000   1.0000   1.0000   1.0000   1.0000   1.0000
     1.0000   1.0000   1.0000   1.0000   1.0000   1.0000   1.0000   0.9999
     0.9999   0.9997   0.9997   0.9996   0.9996   0.9995   0.9995   0.9994
     0.9993   0.9993   0.9988   0.9983   0.9981   0.9979   0.9933   0.9922
     0.9912   0.9872   0.9851   0.9848   0.9837   0.9821   0.9808   0.9791
     0.9775   0.9753   0.9723   0.9692   0.9689   0.9654   0.9592   0.9471
     0.9423   0.9124   0.9028   0.8877   0.8585   0.8546   0.8459   0.8360
     0.8333   0.8301   0.8103   0.8062   0.7833   0.7740   0.7375   0.7314
     0.6976   0.6919   0.6809   0.6801   0.6699   0.6670   0.6653   0.6632
     0.6609   0.6538   0.6440   0.6431   0.6070   0.6041   0.5949   0.5636
     0.1142   0.1062   0.1004   0.0843   0.0178   0.0097   0.0059   0.0033
     0.0010   0.0008   0.0004   0.0002   0.0000   0.0000   0.0000   0.0000
     0.0000   0.0000   0.0000   0.0000   0.0000   0.0000   0.0000   0.0000
     0.0000   0.0000   0.0000   0.0000   0.0000   0.0000   0.0000   0.0000
     0.0000   0.0000   0.0000

          k = 0.2500 0.2500 0.0000 ( 65198 PWs)   bands (ev):

   -92.6859 -92.6325 -92.5393 -92.4937 -92.4342 -92.3919 -92.3747 -92.2547
   -56.0395 -56.0190 -55.8967 -55.8865 -55.8794 -55.8733 -55.8370 -55.8086
   -55.7933 -55.7914 -55.7831 -55.7417 -55.7250 -55.6852 -55.6656 -55.6344
   -55.6289 -55.5803 -55.5791 -55.5772 -55.5687 -55.5300 -55.5050 -55.4214
   -31.2613 -31.2455 -31.1019 -31.0160 -30.9282 -30.9074 -30.8520 -30.7952
   -29.8309 -29.7905 -29.7636 -29.6567 -15.0009 -14.9634 -14.8876 -14.7715
   -14.6515 -14.5262 -14.4541 -14.2455 -14.0928 -14.0790 -14.0417 -14.0131
   -13.9914 -13.9676 -13.9532 -13.9304 -13.8856 -13.8228 -13.8071 -13.6475
   -13.6324 -13.6037 -13.5842 -13.5333 -13.4952 -13.4178 -13.4102 -13.2536
   -13.2247 -13.2057 -13.1271 -13.0863 -13.0340 -13.0034 -12.9605 -12.9345
   -12.9184 -12.9010 -12.8415 -12.8229 -12.7768 -12.7369 -12.7295 -12.7182
   -12.6993 -12.6845 -12.6754 -12.4952 -12.4376 -12.3784 -12.2625 -12.0870
   -12.0563 -11.7839 -11.7525 -11.7413 -11.7338 -11.6721 -11.6367 -11.6305
   -11.5952 -11.5863 -11.4958 -11.4546 -11.4372  -2.6527  -2.4438  -2.3260
    -2.2318  -2.1109  -2.0460  -1.8488  -1.7037  -1.6845  -1.6558  -1.5611
    -1.5263  -1.4319  -1.4053  -1.3548  -1.2231  -1.1758  -1.1191  -1.1026
    -1.0571  -1.0134  -0.9882  -0.9649  -0.9211  -0.9069  -0.8166  -0.7658
    -0.7024  -0.6520  -0.6207  -0.5718  -0.5558  -0.4937  -0.4464  -0.3900
    -0.3552  -0.2703  -0.2155  -0.1867  -0.1483  -0.0929  -0.0122   0.0218
     0.0472   0.1369   0.1612   0.4253   0.5718   0.6081   0.6670   0.7114
     0.7842   0.8357   0.8912   0.9203   1.1901   1.2564   1.3298   1.3557
     1.4029   1.4364   1.4700   1.5074   1.5245   1.5519   1.5975   1.6055
     1.6200   1.6641   1.7078   1.7450   1.8053   1.8462   1.8538   1.9009
     1.9262   1.9836   2.0232   2.1332   2.1926   2.2268   2.2507   2.3194
     2.3889   2.4153   2.4335   2.4476   2.4722   2.4922   2.5274   2.6049
     2.6330   2.7213   2.8920   2.9085   2.9150   2.9308   2.9458   2.9587
     2.9712   2.9784   2.9892   3.0022   3.0142   3.0333   3.0397   3.0516
     3.0742   3.0852   3.0944   3.1260   3.4266   3.5211   3.5614   3.6345
     3.6682   3.8717   3.9697   4.3228   4.5386   4.7324   4.9975   5.1747
     5.6605   5.7147   5.7703   5.8523   5.9103   6.0896   6.1712   6.2222
     6.9078   6.9436   7.0832   7.2635   7.5634   7.6133   7.7243   7.8457
     7.8991   8.0367   8.1798   8.2320   8.3205   8.3613   8.4437   8.4595
     8.5441   8.8274   8.9540

     occupation numbers 
     1.0000   1.0000   1.0000   1.0000   1.0000   1.0000   1.0000   1.0000
     1.0000   1.0000   1.0000   1.0000   1.0000   1.0000   1.0000   1.0000
     1.0000   1.0000   1.0000   1.0000   1.0000   1.0000   1.0000   1.0000
     1.0000   1.0000   1.0000   1.0000   1.0000   1.0000   1.0000   1.0000
     1.0000   1.0000   1.0000   1.0000   1.0000   1.0000   1.0000   1.0000
     1.0000   1.0000   1.0000   1.0000   1.0000   1.0000   1.0000   1.0000
     1.0000   1.0000   1.0000   1.0000   1.0000   1.0000   1.0000   1.0000
     1.0000   1.0000   1.0000   1.0000   1.0000   1.0000   1.0000   1.0000
     1.0000   1.0000   1.0000   1.0000   1.0000   1.0000   1.0000   1.0000
     1.0000   1.0000   1.0000   1.0000   1.0000   1.0000   1.0000   1.0000
     1.0000   1.0000   1.0000   1.0000   1.0000   1.0000   1.0000   1.0000
     1.0000   1.0000   1.0000   1.0000   1.0000   1.0000   1.0000   1.0000
     1.0000   1.0000   1.0000   1.0000   1.0000   1.0000   1.0000   1.0000
     1.0000   1.0000   1.0000   1.0000   1.0000   1.0000   1.0000   1.0000
     1.0000   1.0000   1.0000   1.0000   1.0000   1.0000   1.0000   1.0000
     1.0000   1.0000   1.0000   1.0000   1.0000   1.0000   1.0000   1.0000
     1.0000   1.0000   1.0000   1.0000   1.0000   1.0000   1.0000   1.0000
     1.0000   1.0000   1.0000   1.0000   1.0000   1.0000   1.0000   1.0000
     1.0000   1.0000   1.0000   1.0000   1.0000   1.0000   1.0000   1.0000
     1.0000   1.0000   1.0000   1.0000   1.0000   1.0000   1.0000   1.0000
     0.9999   0.9999   0.9999   0.9998   0.9993   0.9990   0.9986   0.9984
     0.9980   0.9977   0.9973   0.9968   0.9965   0.9961   0.9952   0.9950
     0.9947   0.9936   0.9924   0.9911   0.9888   0.9868   0.9864   0.9838
     0.9822   0.9782   0.9749   0.9637   0.9561   0.9511   0.9474   0.9356
     0.9215   0.9156   0.9114   0.9080   0.9018   0.8965   0.8868   0.8632
     0.8538   0.8217   0.7480   0.7401   0.7370   0.7293   0.7219   0.7154
     0.7091   0.7054   0.6999   0.6931   0.6868   0.6767   0.6733   0.6669
     0.6546   0.6486   0.6435   0.6258   0.4501   0.3952   0.3723   0.3321
     0.3141   0.2158   0.1757   0.0727   0.0378   0.0195   0.0070   0.0033
     0.0003   0.0002   0.0002   0.0001   0.0001   0.0000   0.0000   0.0000
     0.0000   0.0000   0.0000   0.0000   0.0000   0.0000   0.0000   0.0000
     0.0000   0.0000   0.0000   0.0000   0.0000   0.0000   0.0000   0.0000
     0.0000   0.0000   0.0000

          k = 0.2500-0.5000 0.0000 ( 65138 PWs)   bands (ev):

   -92.6859 -92.6324 -92.5393 -92.4937 -92.4342 -92.3919 -92.3747 -92.2547
   -56.0395 -56.0190 -55.8967 -55.8865 -55.8794 -55.8733 -55.8370 -55.8086
   -55.7933 -55.7914 -55.7831 -55.7417 -55.7250 -55.6852 -55.6656 -55.6344
   -55.6289 -55.5803 -55.5791 -55.5772 -55.5687 -55.5300 -55.5050 -55.4214
   -31.2611 -31.2454 -31.1021 -31.0161 -30.9278 -30.9071 -30.8524 -30.7955
   -29.8302 -29.7902 -29.7642 -29.6571 -14.9649 -14.9195 -14.8505 -14.7333
   -14.7019 -14.5836 -14.4907 -14.3616 -14.0567 -14.0008 -13.9772 -13.9557
   -13.9528 -13.9377 -13.9277 -13.8895 -13.8735 -13.8387 -13.8042 -13.7736
   -13.7316 -13.6507 -13.6019 -13.5489 -13.5232 -13.4544 -13.4248 -13.3065
   -13.2708 -13.1923 -13.1275 -13.1040 -13.0185 -12.9756 -12.9591 -12.9290
   -12.9125 -12.8970 -12.8506 -12.8273 -12.7584 -12.7397 -12.7308 -12.6922
   -12.6713 -12.6407 -12.6090 -12.5067 -12.4042 -12.3061 -12.2383 -12.1652
   -12.1223 -11.7595 -11.7475 -11.7365 -11.7090 -11.6778 -11.6492 -11.6079
   -11.5811 -11.5586 -11.5139 -11.4882 -11.4772  -2.4352  -2.3677  -2.2407
    -2.1631  -2.0341  -1.9486  -1.8267  -1.6763  -1.6232  -1.6007  -1.5371
    -1.5241  -1.4269  -1.3594  -1.2753  -1.2255  -1.2161  -1.1533  -1.1206
    -1.1094  -1.0752  -1.0279  -0.9909  -0.9559  -0.9157  -0.9035  -0.8584
    -0.8292  -0.7885  -0.7569  -0.6908  -0.5900  -0.5455  -0.4711  -0.4056
    -0.3570  -0.3132  -0.2921  -0.2400  -0.0776  -0.0621   0.0333   0.0746
     0.0861   0.1262   0.1576   0.2072   0.2297   0.2905   0.5635   0.6570
     0.7544   0.8160   1.0488   1.0816   1.1631   1.1895   1.3537   1.3862
     1.4296   1.4521   1.4678   1.4872   1.5495   1.5950   1.6316   1.7164
     1.8034   1.8472   1.8643   1.8823   1.9139   1.9283   1.9335   1.9844
     1.9891   2.0184   2.0440   2.0665   2.0774   2.1146   2.1698   2.2067
     2.2863   2.4292   2.4360   2.5150   2.5722   2.5914   2.6110   2.6347
     2.6598   2.6880   2.7073   2.7228   2.7476   2.8417   2.8914   2.9105
     2.9131   2.9283   2.9486   2.9624   2.9816   2.9886   3.0215   3.0332
     3.0474   3.0570   3.0654   3.0771   3.6052   3.6093   3.7583   3.8093
     4.1694   4.2017   4.2180   4.3296   4.7771   4.9390   5.0767   5.1466
     5.3218   5.4448   5.6156   5.6424   5.7835   5.8042   6.3853   6.4133
     6.5021   6.6231   7.2398   7.3401   7.5617   7.7128   7.8186   7.8471
     7.8944   8.0532   8.3119   8.3968   8.4672   8.5403   8.5649   8.5835
     8.7156   8.7722   8.8026

     occupation numbers 
     1.0000   1.0000   1.0000   1.0000   1.0000   1.0000   1.0000   1.0000
     1.0000   1.0000   1.0000   1.0000   1.0000   1.0000   1.0000   1.0000
     1.0000   1.0000   1.0000   1.0000   1.0000   1.0000   1.0000   1.0000
     1.0000   1.0000   1.0000   1.0000   1.0000   1.0000   1.0000   1.0000
     1.0000   1.0000   1.0000   1.0000   1.0000   1.0000   1.0000   1.0000
     1.0000   1.0000   1.0000   1.0000   1.0000   1.0000   1.0000   1.0000
     1.0000   1.0000   1.0000   1.0000   1.0000   1.0000   1.0000   1.0000
     1.0000   1.0000   1.0000   1.0000   1.0000   1.0000   1.0000   1.0000
     1.0000   1.0000   1.0000   1.0000   1.0000   1.0000   1.0000   1.0000
     1.0000   1.0000   1.0000   1.0000   1.0000   1.0000   1.0000   1.0000
     1.0000   1.0000   1.0000   1.0000   1.0000   1.0000   1.0000   1.0000
     1.0000   1.0000   1.0000   1.0000   1.0000   1.0000   1.0000   1.0000
     1.0000   1.0000   1.0000   1.0000   1.0000   1.0000   1.0000   1.0000
     1.0000   1.0000   1.0000   1.0000   1.0000   1.0000   1.0000   1.0000
     1.0000   1.0000   1.0000   1.0000   1.0000   1.0000   1.0000   1.0000
     1.0000   1.0000   1.0000   1.0000   1.0000   1.0000   1.0000   1.0000
     1.0000   1.0000   1.0000   1.0000   1.0000   1.0000   1.0000   1.0000
     1.0000   1.0000   1.0000   1.0000   1.0000   1.0000   1.0000   1.0000
     1.0000   1.0000   1.0000   1.0000   1.0000   1.0000   1.0000   1.0000
     1.0000   1.0000   1.0000   1.0000   1.0000   1.0000   1.0000   1.0000
     0.9999   0.9999   0.9997   0.9996   0.9994   0.9993   0.9984   0.9982
     0.9977   0.9975   0.9973   0.9971   0.9961   0.9953   0.9945   0.9921
     0.9888   0.9868   0.9859   0.9849   0.9830   0.9821   0.9818   0.9781
     0.9777   0.9753   0.9730   0.9709   0.9698   0.9658   0.9591   0.9541
     0.9415   0.9124   0.9107   0.8903   0.8735   0.8675   0.8612   0.8532
     0.8445   0.8343   0.8270   0.8211   0.8113   0.7713   0.7483   0.7392
     0.7380   0.7306   0.7205   0.7136   0.7038   0.7002   0.6830   0.6768
     0.6692   0.6640   0.6594   0.6530   0.3480   0.3458   0.2683   0.2439
     0.1096   0.1009   0.0967   0.0713   0.0166   0.0089   0.0050   0.0037
     0.0016   0.0009   0.0004   0.0003   0.0001   0.0001   0.0000   0.0000
     0.0000   0.0000   0.0000   0.0000   0.0000   0.0000   0.0000   0.0000
     0.0000   0.0000   0.0000   0.0000   0.0000   0.0000   0.0000   0.0000
     0.0000   0.0000   0.0000

          k =-0.5000-0.5000 0.0000 ( 65132 PWs)   bands (ev):

   -92.6859 -92.6324 -92.5393 -92.4937 -92.4342 -92.3919 -92.3747 -92.2547
   -56.0395 -56.0190 -55.8967 -55.8865 -55.8794 -55.8733 -55.8370 -55.8086
   -55.7933 -55.7914 -55.7831 -55.7417 -55.7250 -55.6852 -55.6656 -55.6344
   -55.6289 -55.5803 -55.5791 -55.5772 -55.5687 -55.5300 -55.5050 -55.4214
   -31.2589 -31.2476 -31.1017 -31.0165 -30.9263 -30.9087 -30.8518 -30.7961
   -29.8292 -29.7913 -29.7638 -29.6575 -14.9194 -14.8923 -14.7752 -14.7627
   -14.6628 -14.6323 -14.5916 -14.4607 -13.9683 -13.9564 -13.9527 -13.9219
   -13.9019 -13.8855 -13.8715 -13.8452 -13.8339 -13.8144 -13.8097 -13.7897
   -13.7163 -13.7108 -13.6717 -13.6476 -13.6414 -13.5443 -13.4873 -13.3446
   -13.3089 -13.1436 -13.1002 -13.0345 -13.0105 -12.9749 -12.9697 -12.9599
   -12.9406 -12.8544 -12.8507 -12.8078 -12.7666 -12.7594 -12.7402 -12.7121
   -12.6867 -12.5901 -12.5826 -12.5231 -12.3803 -12.3025 -12.2040 -12.1653
   -12.1220 -11.7563 -11.7436 -11.7256 -11.7089 -11.6738 -11.6568 -11.6209
   -11.5615 -11.5407 -11.5364 -11.4860 -11.4831  -2.2115  -2.1358  -2.1230
    -2.0523  -2.0146  -1.9360  -1.8683  -1.7423  -1.6266  -1.5961  -1.5581
    -1.4999  -1.4276  -1.4130  -1.3429  -1.2994  -1.1819  -1.1544  -1.1200
    -1.1012  -1.0767  -1.0125  -0.9673  -0.9469  -0.9356  -0.8823  -0.8374
    -0.8217  -0.7083  -0.6523  -0.6059  -0.5551  -0.5274  -0.5178  -0.4810
    -0.4357  -0.4037  -0.3886  -0.3057  -0.2393  -0.1948  -0.1672  -0.0952
    -0.0397  -0.0124   0.0348   0.0543   0.0761   0.0876   0.5341   0.5771
     0.7068   0.7437   1.0854   1.0961   1.1301   1.1663   1.4382   1.4586
     1.4652   1.5015   1.6324   1.7272   1.7552   1.7909   1.8131   1.8413
     1.8464   1.8765   1.8873   1.9107   1.9128   1.9653   1.9662   1.9970
     2.0308   2.0401   2.0554   2.0916   2.1125   2.1336   2.1569   2.1859
     2.2478   2.3176   2.4301   2.5138   2.5883   2.6156   2.6370   2.6531
     2.6676   2.6952   2.6989   2.7185   2.7302   2.7448   2.7651   2.7769
     2.8430   2.8463   2.8676   2.8812   2.8943   2.9131   2.9164   2.9268
     3.0307   3.0346   3.0625   3.0718   4.0304   4.0476   4.0906   4.1187
     4.3354   4.4093   4.4338   4.6755   4.7968   4.8793   5.0082   5.0961
     5.1082   5.2213   5.3209   5.4107   5.8672   5.8963   5.9656   6.0393
     6.6003   6.8682   6.9060   7.1040   7.9047   7.9239   7.9523   7.9674
     7.9909   8.0422   8.1058   8.2823   8.4969   8.6001   8.6321   8.6547
     8.6740   8.7286   8.7577

     occupation numbers 
     1.0000   1.0000   1.0000   1.0000   1.0000   1.0000   1.0000   1.0000
     1.0000   1.0000   1.0000   1.0000   1.0000   1.0000   1.0000   1.0000
     1.0000   1.0000   1.0000   1.0000   1.0000   1.0000   1.0000   1.0000
     1.0000   1.0000   1.0000   1.0000   1.0000   1.0000   1.0000   1.0000
     1.0000   1.0000   1.0000   1.0000   1.0000   1.0000   1.0000   1.0000
     1.0000   1.0000   1.0000   1.0000   1.0000   1.0000   1.0000   1.0000
     1.0000   1.0000   1.0000   1.0000   1.0000   1.0000   1.0000   1.0000
     1.0000   1.0000   1.0000   1.0000   1.0000   1.0000   1.0000   1.0000
     1.0000   1.0000   1.0000   1.0000   1.0000   1.0000   1.0000   1.0000
     1.0000   1.0000   1.0000   1.0000   1.0000   1.0000   1.0000   1.0000
     1.0000   1.0000   1.0000   1.0000   1.0000   1.0000   1.0000   1.0000
     1.0000   1.0000   1.0000   1.0000   1.0000   1.0000   1.0000   1.0000
     1.0000   1.0000   1.0000   1.0000   1.0000   1.0000   1.0000   1.0000
     1.0000   1.0000   1.0000   1.0000   1.0000   1.0000   1.0000   1.0000
     1.0000   1.0000   1.0000   1.0000   1.0000   1.0000   1.0000   1.0000
     1.0000   1.0000   1.0000   1.0000   1.0000   1.0000   1.0000   1.0000
     1.0000   1.0000   1.0000   1.0000   1.0000   1.0000   1.0000   1.0000
     1.0000   1.0000   1.0000   1.0000   1.0000   1.0000   1.0000   1.0000
     1.0000   1.0000   1.0000   1.0000   1.0000   1.0000   1.0000   1.0000
     1.0000   1.0000   1.0000   1.0000   1.0000   1.0000   1.0000   1.0000
     1.0000   0.9999   0.9996   0.9996   0.9995   0.9994   0.9977   0.9974
     0.9973   0.9969   0.9944   0.9918   0.9908   0.9894   0.9884   0.9871
     0.9868   0.9852   0.9846   0.9832   0.9831   0.9795   0.9795   0.9771
     0.9742   0.9734   0.9720   0.9683   0.9661   0.9636   0.9608   0.9570
     0.9479   0.9359   0.9122   0.8906   0.8685   0.8597   0.8524   0.8469
     0.8417   0.8316   0.8302   0.8228   0.8182   0.8124   0.8042   0.7993
     0.7707   0.7692   0.7594   0.7531   0.7469   0.7379   0.7364   0.7313
     0.6781   0.6760   0.6610   0.6559   0.1534   0.1474   0.1332   0.1244
     0.0701   0.0565   0.0525   0.0239   0.0154   0.0112   0.0067   0.0046
     0.0044   0.0026   0.0016   0.0011   0.0001   0.0001   0.0000   0.0000
     0.0000   0.0000   0.0000   0.0000   0.0000   0.0000   0.0000   0.0000
     0.0000   0.0000   0.0000   0.0000   0.0000   0.0000   0.0000   0.0000
     0.0000   0.0000   0.0000

          k = 0.2500 0.0000 0.0000 ( 65257 PWs)   bands (ev):

   -92.6859 -92.6325 -92.5393 -92.4937 -92.4342 -92.3919 -92.3747 -92.2547
   -56.0395 -56.0190 -55.8967 -55.8865 -55.8794 -55.8733 -55.8370 -55.8086
   -55.7933 -55.7914 -55.7831 -55.7417 -55.7250 -55.6852 -55.6656 -55.6344
   -55.6289 -55.5803 -55.5791 -55.5772 -55.5687 -55.5300 -55.5050 -55.4214
   -31.2615 -31.2457 -31.1017 -31.0159 -30.9286 -30.9076 -30.8516 -30.7949
   -29.8315 -29.7908 -29.7629 -29.6564 -15.0331 -14.9937 -14.9210 -14.7750
   -14.6670 -14.4762 -14.3379 -14.1585 -14.1428 -14.1113 -14.0821 -14.0561
   -14.0253 -14.0059 -13.9845 -13.9542 -13.9288 -13.8225 -13.7911 -13.6442
   -13.5712 -13.5665 -13.5054 -13.4766 -13.4650 -13.3992 -13.3293 -13.2982
   -13.1817 -13.1440 -13.1274 -13.0459 -13.0290 -13.0110 -12.9923 -12.9775
   -12.9551 -12.9185 -12.8508 -12.8053 -12.7777 -12.7601 -12.7548 -12.7330
   -12.7275 -12.7063 -12.6749 -12.5638 -12.4874 -12.3913 -12.2344 -12.0553
   -12.0085 -11.8110 -11.7586 -11.7418 -11.7289 -11.7019 -11.6513 -11.6280
   -11.6198 -11.5683 -11.4807 -11.4246 -11.4187  -2.7904  -2.5686  -2.4387
    -2.2661  -2.2025  -2.0327  -1.8253  -1.7481  -1.7039  -1.6697  -1.5686
    -1.5541  -1.5191  -1.4999  -1.4313  -1.2505  -1.1426  -1.1196  -1.1003
    -1.0043  -0.9937  -0.9139  -0.8873  -0.8370  -0.7953  -0.7428  -0.7150
    -0.6652  -0.6376  -0.6182  -0.5637  -0.5463  -0.4585  -0.4498  -0.3870
    -0.2909  -0.2399  -0.1141  -0.1008  -0.0417   0.0131   0.0628   0.0902
     0.1265   0.1934   0.2329   0.5100   0.6458   0.6803   0.7652   0.8032
     0.8356   0.8578   0.9239   1.0348   1.0831   1.1073   1.1461   1.2939
     1.3263   1.3605   1.3668   1.4078   1.4543   1.4947   1.5306   1.5821
     1.6338   1.6487   1.7083   1.7490   1.7916   1.8107   1.9000   1.9114
     1.9365   1.9885   2.0045   2.1150   2.1775   2.2405   2.3194   2.3328
     2.4174   2.4291   2.4843   2.4957   2.5226   2.5551   2.5653   2.5859
[...]
     0.3501   0.3283   0.2050   0.0791   0.0443   0.0215   0.0061   0.0049
     0.0003   0.0001   0.0001   0.0000   0.0000   0.0000   0.0000   0.0000
     0.0000   0.0000   0.0000   0.0000   0.0000   0.0000   0.0000   0.0000
     0.0000   0.0000   0.0000   0.0000   0.0000   0.0000   0.0000   0.0000
     0.0000   0.0000   0.0000

          k =-0.5000 0.0000 0.0000 ( 65180 PWs)   bands (ev):

   -92.6859 -92.6325 -92.5393 -92.4937 -92.4342 -92.3919 -92.3747 -92.2547
   -56.0395 -56.0190 -55.8967 -55.8865 -55.8794 -55.8733 -55.8370 -55.8086
   -55.7933 -55.7914 -55.7831 -55.7417 -55.7250 -55.6852 -55.6656 -55.6344
   -55.6289 -55.5803 -55.5791 -55.5772 -55.5687 -55.5300 -55.5050 -55.4214
   -31.2592 -31.2479 -31.1013 -31.0162 -30.9270 -30.9092 -30.8510 -30.7955
   -29.8304 -29.7919 -29.7625 -29.6568 -14.9998 -14.9499 -14.8870 -14.7722
   -14.6739 -14.5288 -14.3876 -14.2317 -14.1170 -14.1011 -14.0930 -14.0306
   -13.9772 -13.9532 -13.9452 -13.8960 -13.8827 -13.8680 -13.8221 -13.7899
   -13.6862 -13.5396 -13.5168 -13.4802 -13.4714 -13.3955 -13.3497 -13.2782
   -13.2531 -13.2298 -13.1868 -13.0397 -13.0269 -13.0008 -12.9910 -12.9487
   -12.9288 -12.9237 -12.9036 -12.7709 -12.7496 -12.7315 -12.7157 -12.7075
   -12.6732 -12.6254 -12.6162 -12.5263 -12.4165 -12.3125 -12.2535 -12.1746
   -12.1335 -11.7627 -11.7415 -11.7344 -11.7207 -11.7024 -11.6610 -11.5978
   -11.5796 -11.5458 -11.5037 -11.4945 -11.4785  -2.5664  -2.5276  -2.3643
    -2.3245  -2.0118  -1.9372  -1.7889  -1.6702  -1.6320  -1.5865  -1.5387
    -1.5131  -1.3896  -1.3452  -1.3303  -1.2482  -1.2115  -1.1976  -1.1654
    -1.1196  -1.1059  -1.0390  -1.0105  -0.9788  -0.8823  -0.8385  -0.7902
    -0.7575  -0.7354  -0.7057  -0.6573  -0.6318  -0.5929  -0.4999  -0.4188
    -0.3609  -0.2968  -0.1201  -0.0913  -0.0397  -0.0106   0.0658   0.0695
     0.2213   0.2430   0.2882   0.4559   0.5549   0.6050   0.6943   0.7795
     0.8808   0.9000   1.0251   1.0476   1.1002   1.1276   1.1686   1.1797
     1.2277   1.2474   1.3141   1.3671   1.4120   1.4200   1.7197   1.7365
     1.7475   1.7710   1.8735   1.8850   1.9083   1.9194   1.9419   1.9505
     1.9943   2.0159   2.0553   2.0929   2.1124   2.1609   2.1903   2.2371
     2.3499   2.4269   2.4651   2.5079   2.5321   2.5363   2.6210   2.6419
     2.6725   2.7402   2.7454   2.7543   2.7832   2.8525   2.8987   2.9421
     2.9734   3.0165   3.0203   3.0207   3.0333   3.0477   3.0593   3.0729
     3.0771   3.0997   3.1023   3.1259   3.1446   3.1496   3.2804   3.2874
     4.0939   4.1365   4.2045   4.3649   4.8060   4.8774   5.0558   5.0693
     5.4978   5.5222   5.6078   5.6671   6.0398   6.0517   6.2981   6.4606
     6.8083   7.0141   7.2730   7.3159   7.3381   7.4600   7.7115   7.7913
     7.8984   8.0853   8.1545   8.1840   8.3733   8.5016   8.5635   8.6426
     8.7741   8.8787   8.9371

     occupation numbers 
     1.0000   1.0000   1.0000   1.0000   1.0000   1.0000   1.0000   1.0000
     1.0000   1.0000   1.0000   1.0000   1.0000   1.0000   1.0000   1.0000
     1.0000   1.0000   1.0000   1.0000   1.0000   1.0000   1.0000   1.0000
     1.0000   1.0000   1.0000   1.0000   1.0000   1.0000   1.0000   1.0000
     1.0000   1.0000   1.0000   1.0000   1.0000   1.0000   1.0000   1.0000
     1.0000   1.0000   1.0000   1.0000   1.0000   1.0000   1.0000   1.0000
     1.0000   1.0000   1.0000   1.0000   1.0000   1.0000   1.0000   1.0000
     1.0000   1.0000   1.0000   1.0000   1.0000   1.0000   1.0000   1.0000
     1.0000   1.0000   1.0000   1.0000   1.0000   1.0000   1.0000   1.0000
     1.0000   1.0000   1.0000   1.0000   1.0000   1.0000   1.0000   1.0000
     1.0000   1.0000   1.0000   1.0000   1.0000   1.0000   1.0000   1.0000
     1.0000   1.0000   1.0000   1.0000   1.0000   1.0000   1.0000   1.0000
     1.0000   1.0000   1.0000   1.0000   1.0000   1.0000   1.0000   1.0000
     1.0000   1.0000   1.0000   1.0000   1.0000   1.0000   1.0000   1.0000
     1.0000   1.0000   1.0000   1.0000   1.0000   1.0000   1.0000   1.0000
     1.0000   1.0000   1.0000   1.0000   1.0000   1.0000   1.0000   1.0000
     1.0000   1.0000   1.0000   1.0000   1.0000   1.0000   1.0000   1.0000
     1.0000   1.0000   1.0000   1.0000   1.0000   1.0000   1.0000   1.0000
     1.0000   1.0000   1.0000   1.0000   1.0000   1.0000   1.0000   1.0000
     1.0000   1.0000   1.0000   1.0000   1.0000   1.0000   1.0000   0.9999
     0.9999   0.9999   0.9997   0.9997   0.9996   0.9995   0.9994   0.9993
     0.9992   0.9991   0.9987   0.9983   0.9979   0.9978   0.9920   0.9914
     0.9911   0.9902   0.9854   0.9848   0.9834   0.9827   0.9812   0.9806
     0.9773   0.9755   0.9720   0.9682   0.9661   0.9603   0.9564   0.9496
     0.9297   0.9129   0.9036   0.8923   0.8855   0.8842   0.8578   0.8508
     0.8400   0.8143   0.8122   0.8086   0.7967   0.7664   0.7449   0.7237
     0.7080   0.6856   0.6836   0.6834   0.6767   0.6690   0.6627   0.6553
     0.6530   0.6405   0.6391   0.6259   0.6153   0.6125   0.5365   0.5324
     0.1321   0.1191   0.1002   0.0644   0.0149   0.0113   0.0055   0.0052
     0.0007   0.0006   0.0004   0.0003   0.0000   0.0000   0.0000   0.0000
     0.0000   0.0000   0.0000   0.0000   0.0000   0.0000   0.0000   0.0000
     0.0000   0.0000   0.0000   0.0000   0.0000   0.0000   0.0000   0.0000
     0.0000   0.0000   0.0000

          k =-0.2500 0.2500 0.0000 ( 65198 PWs)   bands (ev):

   -92.6859 -92.6325 -92.5393 -92.4937 -92.4342 -92.3919 -92.3747 -92.2547
   -56.0395 -56.0190 -55.8967 -55.8865 -55.8794 -55.8733 -55.8370 -55.8086
   -55.7933 -55.7914 -55.7831 -55.7417 -55.7250 -55.6852 -55.6656 -55.6344
   -55.6289 -55.5803 -55.5791 -55.5772 -55.5687 -55.5300 -55.5050 -55.4214
   -31.2613 -31.2455 -31.1019 -31.0160 -30.9282 -30.9074 -30.8520 -30.7952
   -29.8309 -29.7905 -29.7636 -29.6567 -15.0023 -14.9623 -14.8862 -14.7700
   -14.6570 -14.5317 -14.4458 -14.2364 -14.0990 -14.0706 -14.0545 -14.0098
   -13.9834 -13.9648 -13.9565 -13.9436 -13.8914 -13.8183 -13.8068 -13.6571
   -13.6287 -13.6016 -13.5801 -13.5374 -13.4814 -13.4211 -13.4085 -13.2539
   -13.2241 -13.2050 -13.1314 -13.0875 -13.0252 -12.9925 -12.9700 -12.9315
   -12.9224 -12.9103 -12.8464 -12.8193 -12.7651 -12.7576 -12.7421 -12.7241
   -12.6912 -12.6766 -12.6675 -12.4841 -12.4274 -12.3892 -12.2682 -12.0881
   -12.0542 -11.7831 -11.7615 -11.7346 -11.7221 -11.6815 -11.6465 -11.6238
   -11.6016 -11.5792 -11.4955 -11.4500 -11.4405  -2.6510  -2.4427  -2.3219
    -2.2334  -2.1151  -2.0488  -1.8465  -1.7005  -1.6822  -1.6539  -1.5616
    -1.5251  -1.4317  -1.3982  -1.3725  -1.2294  -1.1729  -1.1198  -1.1053
    -1.0766  -1.0170  -0.9935  -0.9546  -0.9259  -0.8860  -0.8222  -0.7741
    -0.7138  -0.6437  -0.6164  -0.5663  -0.5356  -0.4910  -0.4367  -0.3926
    -0.3499  -0.2520  -0.2164  -0.2043  -0.1619  -0.0947  -0.0169   0.0265
     0.0545   0.1376   0.1612   0.4068   0.5740   0.6163   0.6572   0.7168
     0.7804   0.8443   0.8951   0.9197   1.1980   1.3073   1.3470   1.3786
     1.3855   1.4281   1.4454   1.4897   1.5204   1.5349   1.5605   1.6046
     1.6205   1.6655   1.6808   1.7283   1.8163   1.8391   1.8531   1.9052
     1.9220   1.9661   2.0315   2.1228   2.2207   2.2493   2.2983   2.3184
     2.3859   2.4236   2.4355   2.4541   2.4780   2.4945   2.5284   2.6043
     2.6323   2.7213   2.8981   2.9070   2.9204   2.9309   2.9416   2.9551
     2.9613   2.9801   2.9882   3.0030   3.0124   3.0248   3.0342   3.0421
     3.0750   3.0857   3.0935   3.1277   3.4198   3.5022   3.5656   3.6527
     3.6614   3.8569   3.9784   4.3219   4.5376   4.7327   5.0071   5.1748
     5.6614   5.7122   5.7732   5.8493   5.9113   6.0913   6.1815   6.2111
     6.9033   6.9422   7.1052   7.2387   7.5777   7.6205   7.6820   7.8788
     7.9036   8.0191   8.1968   8.2063   8.3285   8.3834   8.4380   8.4629
     8.5565   8.8091   8.9515

     occupation numbers 
     1.0000   1.0000   1.0000   1.0000   1.0000   1.0000   1.0000   1.0000
     1.0000   1.0000   1.0000   1.0000   1.0000   1.0000   1.0000   1.0000
     1.0000   1.0000   1.0000   1.0000   1.0000   1.0000   1.0000   1.0000
     1.0000   1.0000   1.0000   1.0000   1.0000   1.0000   1.0000   1.0000
     1.0000   1.0000   1.0000   1.0000   1.0000   1.0000   1.0000   1.0000
     1.0000   1.0000   1.0000   1.0000   1.0000   1.0000   1.0000   1.0000
     1.0000   1.0000   1.0000   1.0000   1.0000   1.0000   1.0000   1.0000
     1.0000   1.0000   1.0000   1.0000   1.0000   1.0000   1.0000   1.0000
     1.0000   1.0000   1.0000   1.0000   1.0000   1.0000   1.0000   1.0000
     1.0000   1.0000   1.0000   1.0000   1.0000   1.0000   1.0000   1.0000
     1.0000   1.0000   1.0000   1.0000   1.0000   1.0000   1.0000   1.0000
     1.0000   1.0000   1.0000   1.0000   1.0000   1.0000   1.0000   1.0000
     1.0000   1.0000   1.0000   1.0000   1.0000   1.0000   1.0000   1.0000
     1.0000   1.0000   1.0000   1.0000   1.0000   1.0000   1.0000   1.0000
     1.0000   1.0000   1.0000   1.0000   1.0000   1.0000   1.0000   1.0000
     1.0000   1.0000   1.0000   1.0000   1.0000   1.0000   1.0000   1.0000
     1.0000   1.0000   1.0000   1.0000   1.0000   1.0000   1.0000   1.0000
     1.0000   1.0000   1.0000   1.0000   1.0000   1.0000   1.0000   1.0000
     1.0000   1.0000   1.0000   1.0000   1.0000   1.0000   1.0000   1.0000
     1.0000   1.0000   1.0000   1.0000   1.0000   1.0000   1.0000   1.0000
     0.9999   0.9999   0.9999   0.9998   0.9993   0.9987   0.9985   0.9982
     0.9982   0.9978   0.9976   0.9970   0.9966   0.9964   0.9959   0.9951
     0.9947   0.9936   0.9932   0.9917   0.9883   0.9872   0.9865   0.9836
     0.9825   0.9795   0.9742   0.9649   0.9521   0.9477   0.9394   0.9358
     0.9222   0.9137   0.9109   0.9064   0.9003   0.8959   0.8865   0.8634
     0.8541   0.8217   0.7451   0.7409   0.7344   0.7293   0.7240   0.7172
     0.7141   0.7046   0.7004   0.6927   0.6878   0.6813   0.6762   0.6720
     0.6542   0.6483   0.6440   0.6249   0.4541   0.4061   0.3700   0.3223
     0.3177   0.2223   0.1724   0.0728   0.0379   0.0195   0.0067   0.0033
     0.0003   0.0002   0.0002   0.0001   0.0001   0.0000   0.0000   0.0000
     0.0000   0.0000   0.0000   0.0000   0.0000   0.0000   0.0000   0.0000
     0.0000   0.0000   0.0000   0.0000   0.0000   0.0000   0.0000   0.0000
     0.0000   0.0000   0.0000

          k =-0.5000 0.2500 0.0000 ( 65138 PWs)   bands (ev):

   -92.6859 -92.6324 -92.5393 -92.4937 -92.4342 -92.3919 -92.3747 -92.2547
   -56.0395 -56.0190 -55.8967 -55.8865 -55.8794 -55.8733 -55.8370 -55.8086
   -55.7933 -55.7914 -55.7831 -55.7417 -55.7250 -55.6852 -55.6656 -55.6344
   -55.6289 -55.5803 -55.5791 -55.5772 -55.5687 -55.5300 -55.5050 -55.4214
   -31.2591 -31.2478 -31.1015 -31.0164 -30.9266 -30.9090 -30.8514 -30.7958
   -29.8298 -29.7916 -29.7632 -29.6571 -14.9673 -14.9234 -14.8443 -14.7401
   -14.7004 -14.5760 -14.4891 -14.3521 -14.0496 -14.0187 -14.0073 -13.9651
   -13.9534 -13.9393 -13.9170 -13.8813 -13.8670 -13.8485 -13.8083 -13.7899
   -13.6806 -13.6219 -13.5749 -13.5714 -13.5580 -13.4544 -13.4422 -13.3121
   -13.2485 -13.1858 -13.1487 -13.0514 -13.0123 -13.0010 -12.9701 -12.9355
   -12.9242 -12.8975 -12.8804 -12.7989 -12.7730 -12.7398 -12.7125 -12.7017
   -12.6854 -12.6072 -12.5998 -12.5245 -12.3977 -12.3078 -12.2302 -12.1680
   -12.1286 -11.7556 -11.7432 -11.7290 -11.7166 -11.6960 -11.6657 -11.5842
   -11.5764 -11.5521 -11.5181 -11.4901 -11.4808  -2.4240  -2.3820  -2.2340
    -2.1911  -2.0308  -1.9558  -1.8131  -1.6761  -1.6210  -1.5934  -1.5547
    -1.5156  -1.4348  -1.3193  -1.2626  -1.2388  -1.2136  -1.1380  -1.1221
    -1.1046  -1.0695  -1.0518  -0.9919  -0.9619  -0.9234  -0.8880  -0.8594
    -0.8019  -0.7739  -0.7313  -0.6981  -0.5944  -0.5665  -0.4813  -0.4134
    -0.3865  -0.3310  -0.2426  -0.2071  -0.1099  -0.0660  -0.0121   0.0454
     0.0613   0.1382   0.1680   0.1995   0.2472   0.2879   0.5978   0.6595
     0.7484   0.7833   1.0357   1.0891   1.1679   1.1875   1.3674   1.4030
     1.4402   1.4520   1.4712   1.4888   1.5564   1.6020   1.6428   1.6682
     1.8014   1.8297   1.8603   1.8758   1.9254   1.9367   1.9530   1.9719
     1.9879   2.0104   2.0645   2.0729   2.1072   2.1294   2.1666   2.2179
     2.3387   2.4183   2.4540   2.4642   2.5155   2.5435   2.5688   2.6377
     2.6690   2.6746   2.7120   2.7441   2.7679   2.8523   2.8955   2.9068
     2.9126   2.9340   2.9563   2.9691   2.9832   2.9976   3.0185   3.0313
     3.0407   3.0488   3.0598   3.0713   3.5997   3.6517   3.7908   3.8136
     4.0985   4.1638   4.2146   4.4381   4.8006   4.8958   5.0539   5.0977
     5.4186   5.4462   5.6002   5.6343   5.7638   5.7990   6.3893   6.4046
     6.5101   6.5928   7.2699   7.3320   7.5768   7.7288   7.8094   7.8434
     7.9045   8.0390   8.3113   8.4127   8.4580   8.5195   8.5686   8.5879
     8.6790   8.7436   8.7939

     occupation numbers 
     1.0000   1.0000   1.0000   1.0000   1.0000   1.0000   1.0000   1.0000
     1.0000   1.0000   1.0000   1.0000   1.0000   1.0000   1.0000   1.0000
     1.0000   1.0000   1.0000   1.0000   1.0000   1.0000   1.0000   1.0000
     1.0000   1.0000   1.0000   1.0000   1.0000   1.0000   1.0000   1.0000
     1.0000   1.0000   1.0000   1.0000   1.0000   1.0000   1.0000   1.0000
     1.0000   1.0000   1.0000   1.0000   1.0000   1.0000   1.0000   1.0000
     1.0000   1.0000   1.0000   1.0000   1.0000   1.0000   1.0000   1.0000
     1.0000   1.0000   1.0000   1.0000   1.0000   1.0000   1.0000   1.0000
     1.0000   1.0000   1.0000   1.0000   1.0000   1.0000   1.0000   1.0000
     1.0000   1.0000   1.0000   1.0000   1.0000   1.0000   1.0000   1.0000
     1.0000   1.0000   1.0000   1.0000   1.0000   1.0000   1.0000   1.0000
     1.0000   1.0000   1.0000   1.0000   1.0000   1.0000   1.0000   1.0000
     1.0000   1.0000   1.0000   1.0000   1.0000   1.0000   1.0000   1.0000
     1.0000   1.0000   1.0000   1.0000   1.0000   1.0000   1.0000   1.0000
     1.0000   1.0000   1.0000   1.0000   1.0000   1.0000   1.0000   1.0000
     1.0000   1.0000   1.0000   1.0000   1.0000   1.0000   1.0000   1.0000
     1.0000   1.0000   1.0000   1.0000   1.0000   1.0000   1.0000   1.0000
     1.0000   1.0000   1.0000   1.0000   1.0000   1.0000   1.0000   1.0000
     1.0000   1.0000   1.0000   1.0000   1.0000   1.0000   1.0000   1.0000
     1.0000   1.0000   1.0000   1.0000   1.0000   1.0000   1.0000   1.0000
     0.9999   0.9999   0.9997   0.9996   0.9994   0.9993   0.9983   0.9980
     0.9976   0.9975   0.9973   0.9970   0.9960   0.9951   0.9942   0.9935
     0.9889   0.9876   0.9861   0.9853   0.9823   0.9816   0.9804   0.9791
     0.9778   0.9760   0.9711   0.9703   0.9666   0.9641   0.9596   0.9525
     0.9319   0.9149   0.9064   0.9038   0.8902   0.8821   0.8746   0.8522
     0.8412   0.8392   0.8252   0.8127   0.8030   0.7665   0.7464   0.7410
     0.7382   0.7277   0.7166   0.7102   0.7030   0.6955   0.6846   0.6778
     0.6728   0.6684   0.6624   0.6562   0.3510   0.3229   0.2526   0.2419
     0.1307   0.1112   0.0976   0.0518   0.0152   0.0105   0.0055   0.0046
     0.0010   0.0009   0.0004   0.0003   0.0002   0.0001   0.0000   0.0000
     0.0000   0.0000   0.0000   0.0000   0.0000   0.0000   0.0000   0.0000
     0.0000   0.0000   0.0000   0.0000   0.0000   0.0000   0.0000   0.0000
     0.0000   0.0000   0.0000

     the Fermi energy is     3.3421 ev

!    total energy              =   -4441.65795688 Ry
     estimated scf accuracy    <          8.8E-09 Ry
     smearing contrib. (-TS)   =      -1.15485159 Ry
     internal energy E=F+TS    =   -4440.50310528 Ry

     The total energy is F=E-TS. E is the sum of the following terms:
     one-electron contribution =  -20804.52568514 Ry
     hartree contribution      =   10534.47203422 Ry
     xc contribution           =    -694.18295651 Ry
     ewald contribution        =    6799.90353218 Ry
     one-center paw contrib.   =    -276.17003004 Ry
      -> PAW hartree energy AE =      25.16944677 Ry
      -> PAW hartree energy PS =     -25.05327270 Ry
      -> PAW xc energy AE      =     -16.51843808 Ry
      -> PAW xc energy PS      =       6.87794090 Ry
      -> total E_H with PAW    =   10534.58820829 Ry
      -> total E_XC with PAW   =    -703.82345369 Ry

     convergence has been achieved in  46 iterations

     Writing all to output data dir /bsuhome/zayahcortright/scratch/pwscf.save/
 
     init_run     :      7.55s CPU      8.31s WALL (       1 calls)
     electrons    :    757.60s CPU    836.06s WALL (       1 calls)

     Called by init_run:
     wfcinit      :      6.04s CPU      6.24s WALL (       1 calls)
     wfcinit:atom :      0.04s CPU      0.07s WALL (       5 calls)
     wfcinit:wfcr :      5.74s CPU      5.85s WALL (       5 calls)
     potinit      :      0.18s CPU      0.21s WALL (       1 calls)
     hinit0       :      0.42s CPU      0.73s WALL (       1 calls)

     Called by electrons:
     c_bands      :    610.31s CPU    622.03s WALL (      46 calls)
     sum_band     :    109.60s CPU    146.96s WALL (      46 calls)
     v_of_rho     :      5.17s CPU      5.45s WALL (      47 calls)
     v_h          :      0.42s CPU      0.43s WALL (      47 calls)
     v_xc         :      4.74s CPU      5.02s WALL (      47 calls)
     newd         :     18.12s CPU     46.82s WALL (      47 calls)
     PAW_pot      :      1.57s CPU      1.60s WALL (      47 calls)
     mix_rho      :     12.59s CPU     12.92s WALL (      46 calls)

     Called by c_bands:
     init_us_2    :      5.68s CPU      5.76s WALL (     465 calls)
     init_us_2:cp :      5.67s CPU      5.76s WALL (     465 calls)
     cegterg      :    575.26s CPU    586.65s WALL (     230 calls)

     Called by sum_band:
     sum_band:wei :      0.33s CPU      0.34s WALL (      46 calls)
     sum_band:loo :     89.58s CPU     90.25s WALL (      46 calls)
     sum_band:buf :      1.01s CPU      1.05s WALL (     230 calls)
     sum_band:ini :      2.38s CPU      2.39s WALL (     230 calls)
     sum_band:cal :     18.16s CPU     18.20s WALL (     230 calls)
     sum_band:bec :      0.56s CPU      0.58s WALL (     230 calls)
     addusdens    :     17.14s CPU     53.77s WALL (      46 calls)
                                        0.00s GPU  (      46 calls)
     addusd:skk   :      0.29s CPU      1.94s WALL (     184 calls)
                                        0.00s GPU  (     184 calls)

     Called by *egterg:
     cdiaghg      :     58.38s CPU     58.63s WALL (    1267 calls)
     cegterg:over :     49.09s CPU     49.32s WALL (    1037 calls)
     cegterg:upda :     45.50s CPU     46.64s WALL (    1037 calls)
     cegterg:last :     64.85s CPU     65.08s WALL (     407 calls)
     cdiaghg:chol :      3.24s CPU      3.26s WALL (    1267 calls)
     cdiaghg:inve :      3.54s CPU      3.56s WALL (    1267 calls)
     cdiaghg:para :      7.64s CPU      7.70s WALL (    2534 calls)
     h_psi        :    294.82s CPU    299.25s WALL (    1272 calls)
     s_psi        :     37.12s CPU     37.25s WALL (    1272 calls)
     g_psi        :      2.35s CPU      2.36s WALL (    1037 calls)

     Called by h_psi:
     h_psi:calbec :     44.39s CPU     44.61s WALL (    1272 calls)
     vloc_psi     :    208.16s CPU    210.04s WALL (    1272 calls)
     add_vuspsi   :     37.03s CPU     37.23s WALL (    1272 calls)

     General routines
     calbec       :     62.54s CPU     62.80s WALL (    1502 calls)
     fft          :      4.92s CPU      4.98s WALL (     609 calls)
     ffts         :      4.71s CPU      4.76s WALL (    4882 calls)
     fftw         :    190.56s CPU    192.07s WALL (  312356 calls)
     interpolate  :      0.38s CPU      0.39s WALL (      47 calls)
 
     Parallel routines

     PAW routines
     PAW_pot      :      1.57s CPU      1.60s WALL (      47 calls)
 
     PWSCF        :  12m47.11s CPU  14m 9.75s WALL

 
   This run was terminated on:   1:49:58  22Jun2024            

=------------------------------------------------------------------------------=
   JOB DONE.
=------------------------------------------------------------------------------=
