
     Program PWSCF v.7.2 starts on 22Jun2024 at  4:16:58 

     This program is part of the open-source Quantum ESPRESSO suite
     for quantum simulation of materials; please cite
         "P. Giannozzi et al., J. Phys.:Condens. Matter 21 395502 (2009);
         "P. Giannozzi et al., J. Phys.:Condens. Matter 29 465901 (2017);
         "P. Giannozzi et al., J. Chem. Phys. 152 154105 (2020);
          URL http://www.quantum-espresso.org", 
     in publications or presentations arising from this work. More details at
     http://www.quantum-espresso.org/quote

     Parallel version (MPI & OpenMP), running on      48 processor cores
     Number of MPI processes:                48
     Threads/MPI process:                     1

     MPI processes distributed on     1 nodes
     33217 MiB available memory on the printing compute node when the environment starts
 
     Reading input from espresso.pwi
Warning: card &CELL ignored
Warning: card / ignored
Warning: card &FCP ignored
Warning: card / ignored
Warning: card &RISM ignored
Warning: card / ignored

     Current dimensions of program PWSCF are:
     Max number of different atomic species (ntypx) = 10
     Max number of k-points (npk) =  40000
     Max angular momentum in pseudopotentials (lmaxx) =  4
     file O.pbe-n-kjpaw_psl.0.1.UPF: wavefunction(s)  2P renormalized
     signal trapping enabled: kill the code with -SIGUSR1 to stop cleanly the simulation 
 
     K-points division:     npool     =       2
     R & G space division:  proc/nbgrp/npool/nimage =      24
     Subspace diagonalization in iterative solution of the eigenvalue problem:
     one sub-group per band group will be used
     scalapack distributed-memory algorithm (size of sub-group:  3*  3 procs)

 
     Parallelization info
     --------------------
     sticks:   dense  smooth     PW     G-vecs:    dense   smooth      PW
     Min         350     175     47                61430    21716    3036
     Max         351     177     48                61449    21727    3041
     Sum        8421    4205   1137              1474595   521381   72913
 
     Using Slab Decomposition
 


     bravais-lattice index     =            0
     lattice parameter (alat)  =      14.8599  a.u.
     unit-cell volume          =    8305.1283 (a.u.)^3
     number of atoms/cell      =           50
     number of atomic types    =            4
     number of electrons       =       431.00
     number of Kohn-Sham states=          259
     kinetic-energy cutoff     =      60.0000  Ry
     charge density cutoff     =     480.0000  Ry
     scf convergence threshold =      1.0E-08
     mixing beta               =       0.1500
     number of iterations used =            8  local-TF  mixing
     Exchange-correlation= PBE
                           (   1   4   3   4   0   0   0)

     celldm(1)=  14.859904  celldm(2)=   0.000000  celldm(3)=   0.000000
     celldm(4)=   0.000000  celldm(5)=   0.000000  celldm(6)=   0.000000

     crystal axes: (cart. coord. in units of alat)
               a(1) = (   1.000000   0.000000   0.000000 )  
               a(2) = (   0.000000   1.000000   0.000000 )  
               a(3) = (   0.000000   0.000000   2.531036 )  

     reciprocal axes: (cart. coord. in units 2 pi/alat)
               b(1) = (  1.000000  0.000000  0.000000 )  
               b(2) = (  0.000000  1.000000  0.000000 )  
               b(3) = (  0.000000  0.000000  0.395095 )  


     PseudoPot. # 1 for Sr read from file:
     /bsuhome/zayahcortright/q-e/pseudo/Sr_pbe_v1.uspp.F.UPF
     MD5 check sum: 6b418c05fbe9db5448babca5e47b7a5b
     Pseudo is Ultrasoft + core correction, Zval = 10.0
     Generated by new atomic code, or converted to UPF format
     Using radial grid of  883 points,  6 beta functions with: 
                l(1) =   0
                l(2) =   0
                l(3) =   1
                l(4) =   1
                l(5) =   2
                l(6) =   2
     Q(r) pseudized with  6 coefficients,  rinner =    1.400   1.400   1.400
                                                       1.400   1.400

     PseudoPot. # 2 for O  read from file:
     /bsuhome/zayahcortright/q-e/pseudo/O.pbe-n-kjpaw_psl.0.1.UPF
     MD5 check sum: 0234752ac141de4415c5fc33072bef88
     Pseudo is Projector augmented-wave + core cor, Zval =  6.0
     Generated using "atomic" code by A. Dal Corso  v.5.0.99 svn rev. 10869
     Shape of augmentation charge: BESSEL
     Using radial grid of 1095 points,  4 beta functions with: 
                l(1) =   0
                l(2) =   0
                l(3) =   1
                l(4) =   1
     Q(r) pseudized with 0 coefficients 


     PseudoPot. # 3 for Co read from file:
     /bsuhome/zayahcortright/q-e/pseudo/Co_pbe_v1.2.uspp.F.UPF
     MD5 check sum: 5f91765df6ddd3222702df6e7b74a16d
     Pseudo is Ultrasoft + core correction, Zval = 17.0
     Generated by new atomic code, or converted to UPF format
     Using radial grid of  863 points,  6 beta functions with: 
                l(1) =   0
                l(2) =   0
                l(3) =   1
                l(4) =   1
                l(5) =   2
                l(6) =   2
     Q(r) pseudized with  8 coefficients,  rinner =    1.200   1.200   1.200
                                                       1.200   1.200

     PseudoPot. # 4 for H  read from file:
     /bsuhome/zayahcortright/q-e/pseudo/H.pbe-rrkjus_psl.1.0.0.UPF
     MD5 check sum: f52b6d4d1c606e5624b1dc7b2218f220
     Pseudo is Ultrasoft, Zval =  1.0
     Generated using "atomic" code by A. Dal Corso  v.5.1
     Using radial grid of  929 points,  2 beta functions with: 
                l(1) =   0
                l(2) =   0
     Q(r) pseudized with 0 coefficients 


     atomic species   valence    mass     pseudopotential
        Sr            10.00    87.62000     Sr( 1.00)
        O              6.00    15.99900     O ( 1.00)
        Co            17.00    58.93319     Co( 1.00)
        H              1.00     1.00800     H ( 1.00)

     No symmetry found


                                    s                        frac. trans.

      isym =  1     identity                                     

 cryst.   s( 1) = (     1          0          0      )
                  (     0          1          0      )
                  (     0          0          1      )

 cart.    s( 1) = (  1.0000000  0.0000000  0.0000000 )
                  (  0.0000000  1.0000000  0.0000000 )
                  (  0.0000000  0.0000000  1.0000000 )


   Cartesian axes

     site n.     atom                  positions (alat units)
         1           Sr  tau(   1) = (   0.2508693   0.7491307   1.7574407  )
         2           O   tau(   2) = (   0.4985141   0.5014859   1.7715967  )
         3           Sr  tau(   3) = (   0.7482398   0.7454518   1.7648669  )
         4           Sr  tau(   4) = (   0.7441748   0.2558252   1.7667843  )
         5           Sr  tau(   5) = (   0.2508693   0.7491307   1.2696799  )
         6           Sr  tau(   6) = (   0.2508693   0.7491307   0.7632319  )
         7           Co  tau(   7) = (   0.4998914   0.5001086   1.0164559  )
         8           Co  tau(   8) = (   0.4936915   0.5063085   1.5135603  )
         9           O   tau(   9) = (   0.4988895   0.7610401   1.0164559  )
        10           O   tau(  10) = (   0.2389599   0.5011105   1.0164559  )
        11           O   tau(  11) = (   0.0070918   0.7374880   1.0164559  )
        12           O   tau(  12) = (   0.0088340   0.7405089   1.5135603  )
        13           O   tau(  13) = (   0.5066944   0.7415376   1.5135603  )
        14           O   tau(  14) = (   0.2584624   0.4933056   1.5135603  )
        15           O   tau(  15) = (   0.4985141   0.5014859   0.7773880  )
        16           O   tau(  16) = (   0.4985141   0.5014859   1.2555238  )
        17           Sr  tau(  17) = (   0.7482398   0.7454518   0.7706582  )
        18           Sr  tau(  18) = (   0.7482398   0.7454518   1.2622536  )
        19           Sr  tau(  19) = (   0.7441748   0.2558252   0.7725755  )
        20           Sr  tau(  20) = (   0.7441748   0.2558252   1.2603363  )
        21           O   tau(  21) = (   0.7322655   0.0078049   1.5135603  )
        22           O   tau(  22) = (   0.7558175   0.4996027   1.5135603  )
        23           O   tau(  23) = (   0.5003973   0.2441825   1.5135603  )
        24           O   tau(  24) = (   0.7527966   0.4978604   1.0164559  )
        25           O   tau(  25) = (   0.5021396   0.2472034   1.0164559  )
        26           O   tau(  26) = (   0.7517679   0.0000000   1.0164559  )
        27           O   tau(  27) = (   0.0114961   0.4948124   1.7455321  )
        28           O   tau(  28) = (   0.0048226   0.0077944   1.7715967  )
        29           Sr  tau(  29) = (   0.2545482   0.2517602   1.7648669  )
        30           O   tau(  30) = (   0.5048017   0.0015068   1.7786929  )
        31           Co  tau(  31) = (   0.0056869   0.5006215   1.0164559  )
        32           Co  tau(  32) = (   0.0065315   0.4997770   1.5135603  )
        33           Co  tau(  33) = (   0.0061999   0.0064171   1.0164559  )
        34           Co  tau(  34) = (   0.0000000   0.0126169   1.5135603  )
        35           O   tau(  35) = (   0.0114961   0.4948124   1.2815885  )
        36           O   tau(  36) = (   0.0114961   0.4948124   0.7513233  )
        37           O   tau(  37) = (   0.0051979   0.2673486   1.0164559  )
        38           O   tau(  38) = (   0.0130029   0.2478461   1.5135603  )
        39           O   tau(  39) = (   0.0048226   0.0077944   0.7773880  )
        40           O   tau(  40) = (   0.0048226   0.0077944   1.2555238  )
        41           Sr  tau(  41) = (   0.2545482   0.2517602   0.7706582  )
        42           Sr  tau(  42) = (   0.2545482   0.2517602   1.2622536  )
        43           Co  tau(  43) = (   0.4989925   0.0073160   1.5135603  )
        44           Co  tau(  44) = (   0.4998370   0.0064714   1.0164559  )
        45           O   tau(  45) = (   0.5048017   0.0015068   0.7844841  )
        46           O   tau(  46) = (   0.5048017   0.0015068   1.2484277  )
        47           O   tau(  47) = (   0.2621260   0.0059111   1.5135603  )
        48           O   tau(  48) = (   0.2591051   0.0041689   1.0164559  )
        49           O   tau(  49) = (   0.9951520   0.2843291   2.1602013  )
        50           H   tau(  50) = (   0.9951520   0.2843291   2.2847091  )

   Crystallographic axes

     site n.     atom                  positions (cryst. coord.)
         1           Sr  tau(   1) = (  0.2508693  0.7491307  0.6943562  )
         2           O   tau(   2) = (  0.4985141  0.5014859  0.6999492  )
         3           Sr  tau(   3) = (  0.7482398  0.7454518  0.6972903  )
         4           Sr  tau(   4) = (  0.7441748  0.2558252  0.6980478  )
         5           Sr  tau(   5) = (  0.2508693  0.7491307  0.5016443  )
         6           Sr  tau(   6) = (  0.2508693  0.7491307  0.3015492  )
         7           Co  tau(   7) = (  0.4998914  0.5001086  0.4015968  )
         8           Co  tau(   8) = (  0.4936915  0.5063085  0.5980003  )
         9           O   tau(   9) = (  0.4988895  0.7610401  0.4015968  )
        10           O   tau(  10) = (  0.2389599  0.5011105  0.4015968  )
        11           O   tau(  11) = (  0.0070918  0.7374880  0.4015968  )
        12           O   tau(  12) = (  0.0088340  0.7405089  0.5980003  )
        13           O   tau(  13) = (  0.5066944  0.7415376  0.5980003  )
        14           O   tau(  14) = (  0.2584624  0.4933056  0.5980003  )
        15           O   tau(  15) = (  0.4985141  0.5014859  0.3071422  )
        16           O   tau(  16) = (  0.4985141  0.5014859  0.4960513  )
        17           Sr  tau(  17) = (  0.7482398  0.7454518  0.3044833  )
        18           Sr  tau(  18) = (  0.7482398  0.7454518  0.4987103  )
        19           Sr  tau(  19) = (  0.7441748  0.2558252  0.3052408  )
        20           Sr  tau(  20) = (  0.7441748  0.2558252  0.4979527  )
        21           O   tau(  21) = (  0.7322655  0.0078049  0.5980003  )
        22           O   tau(  22) = (  0.7558175  0.4996027  0.5980003  )
        23           O   tau(  23) = (  0.5003973  0.2441825  0.5980003  )
        24           O   tau(  24) = (  0.7527966  0.4978604  0.4015968  )
        25           O   tau(  25) = (  0.5021396  0.2472034  0.4015968  )
        26           O   tau(  26) = (  0.7517679  0.0000000  0.4015968  )
        27           O   tau(  27) = (  0.0114961  0.4948124  0.6896512  )
        28           O   tau(  28) = (  0.0048226  0.0077944  0.6999492  )
        29           Sr  tau(  29) = (  0.2545482  0.2517602  0.6972903  )
        30           O   tau(  30) = (  0.5048017  0.0015068  0.7027529  )
        31           Co  tau(  31) = (  0.0056869  0.5006215  0.4015968  )
        32           Co  tau(  32) = (  0.0065315  0.4997770  0.5980003  )
        33           Co  tau(  33) = (  0.0061999  0.0064171  0.4015968  )
        34           Co  tau(  34) = (  0.0000000  0.0126169  0.5980003  )
        35           O   tau(  35) = (  0.0114961  0.4948124  0.5063494  )
        36           O   tau(  36) = (  0.0114961  0.4948124  0.2968442  )
        37           O   tau(  37) = (  0.0051979  0.2673486  0.4015968  )
        38           O   tau(  38) = (  0.0130029  0.2478461  0.5980003  )
        39           O   tau(  39) = (  0.0048226  0.0077944  0.3071422  )
        40           O   tau(  40) = (  0.0048226  0.0077944  0.4960513  )
        41           Sr  tau(  41) = (  0.2545482  0.2517602  0.3044833  )
        42           Sr  tau(  42) = (  0.2545482  0.2517602  0.4987103  )
        43           Co  tau(  43) = (  0.4989925  0.0073160  0.5980003  )
        44           Co  tau(  44) = (  0.4998370  0.0064714  0.4015968  )
        45           O   tau(  45) = (  0.5048017  0.0015068  0.3099459  )
        46           O   tau(  46) = (  0.5048017  0.0015068  0.4932477  )
        47           O   tau(  47) = (  0.2621260  0.0059111  0.5980003  )
        48           O   tau(  48) = (  0.2591051  0.0041689  0.4015968  )
        49           O   tau(  49) = (  0.9951520  0.2843291  0.8534850  )
        50           H   tau(  50) = (  0.9951520  0.2843291  0.9026774  )

     number of k points=    10  Gaussian smearing, width (Ry)=  0.0700
                       cart. coord. in units 2pi/alat
        k(    1) = (   0.0000000   0.0000000   0.0000000), wk =   0.1250000
        k(    2) = (   0.0000000   0.2500000   0.0000000), wk =   0.2500000
        k(    3) = (   0.0000000  -0.5000000   0.0000000), wk =   0.1250000
        k(    4) = (   0.2500000   0.2500000   0.0000000), wk =   0.2500000
        k(    5) = (   0.2500000  -0.5000000   0.0000000), wk =   0.2500000
        k(    6) = (  -0.5000000  -0.5000000   0.0000000), wk =   0.1250000
        k(    7) = (   0.2500000   0.0000000   0.0000000), wk =   0.2500000
        k(    8) = (  -0.5000000   0.0000000   0.0000000), wk =   0.1250000
        k(    9) = (  -0.2500000   0.2500000   0.0000000), wk =   0.2500000
        k(   10) = (  -0.5000000   0.2500000   0.0000000), wk =   0.2500000

                       cryst. coord.
        k(    1) = (   0.0000000   0.0000000   0.0000000), wk =   0.1250000
        k(    2) = (   0.0000000   0.2500000   0.0000000), wk =   0.2500000
        k(    3) = (   0.0000000  -0.5000000   0.0000000), wk =   0.1250000
        k(    4) = (   0.2500000   0.2500000   0.0000000), wk =   0.2500000
        k(    5) = (   0.2500000  -0.5000000   0.0000000), wk =   0.2500000
        k(    6) = (  -0.5000000  -0.5000000   0.0000000), wk =   0.1250000
        k(    7) = (   0.2500000   0.0000000   0.0000000), wk =   0.2500000
        k(    8) = (  -0.5000000   0.0000000   0.0000000), wk =   0.1250000
        k(    9) = (  -0.2500000   0.2500000   0.0000000), wk =   0.2500000
        k(   10) = (  -0.5000000   0.2500000   0.0000000), wk =   0.2500000

     Dense  grid:  1474595 G-vectors     FFT dimensions: ( 108, 108, 270)

     Smooth grid:   521381 G-vectors     FFT dimensions: (  75,  75, 192)

     Dynamical RAM for                 wfc:      10.73 MB

     Dynamical RAM for     wfc (w. buffer):      64.38 MB

     Dynamical RAM for           str. fact:       3.75 MB

     Dynamical RAM for           local pot:       0.00 MB

     Dynamical RAM for          nlocal pot:      24.61 MB

     Dynamical RAM for                qrad:       7.03 MB

     Dynamical RAM for          rho,v,vnew:       6.02 MB

     Dynamical RAM for               rhoin:       2.01 MB

     Dynamical RAM for            rho*nmix:      15.00 MB

     Dynamical RAM for           G-vectors:       3.68 MB

     Dynamical RAM for          h,s,v(r/c):       1.35 MB

     Dynamical RAM for          <psi|beta>:       2.35 MB

     Dynamical RAM for                 psi:      21.46 MB

     Dynamical RAM for                hpsi:      21.46 MB

     Dynamical RAM for                spsi:      21.46 MB

     Dynamical RAM for      wfcinit/wfcrot:      34.49 MB

     Dynamical RAM for           addusdens:     101.26 MB

     Estimated static dynamical RAM per process >     121.50 MB

     Estimated max dynamical RAM per process >     237.76 MB

     Estimated total dynamical RAM >      10.79 GB

     Check: negative core charge=   -0.000004

     Initial potential from superposition of free atoms

     starting charge     422.5961, renormalised to     431.0000

     negative rho (up, down):  7.820E-01 0.000E+00
     Starting wfcs are  377 randomized atomic wfcs
     Checking if some PAW data can be deallocated... 
       PAW data deallocated on   19 nodes for type:  2

     total cpu time spent up to now is        8.9 secs

     Self-consistent Calculation

     iteration #  1     ecut=    60.00 Ry     beta= 0.15
     Davidson diagonalization with overlap

---- Real-time Memory Report at c_bands before calling an iterative solver
             0 MiB given to the printing process from OS
             0 MiB allocation reported by mallinfo(arena+hblkhd)
         24005 MiB available memory on the node where the printing process lives
------------------
     ethr =  1.00E-02,  avg # of iterations =  2.0

     negative rho (up, down):  7.717E-01 0.000E+00

     total cpu time spent up to now is       25.9 secs

     total energy              =   -4446.66418719 Ry
     estimated scf accuracy    <      44.71900087 Ry

     iteration #  2     ecut=    60.00 Ry     beta= 0.15
     Davidson diagonalization with overlap

---- Real-time Memory Report at c_bands before calling an iterative solver
             0 MiB given to the printing process from OS
             0 MiB allocation reported by mallinfo(arena+hblkhd)
         24263 MiB available memory on the node where the printing process lives
------------------
     ethr =  1.00E-02,  avg # of iterations =  1.0

     negative rho (up, down):  7.585E-01 0.000E+00

     total cpu time spent up to now is       40.7 secs

     total energy              =   -4443.33831096 Ry
     estimated scf accuracy    <      29.87659224 Ry

     iteration #  3     ecut=    60.00 Ry     beta= 0.15
     Davidson diagonalization with overlap

---- Real-time Memory Report at c_bands before calling an iterative solver
             0 MiB given to the printing process from OS
             0 MiB allocation reported by mallinfo(arena+hblkhd)
         23414 MiB available memory on the node where the printing process lives
------------------
     ethr =  6.93E-03,  avg # of iterations =  1.0

     negative rho (up, down):  7.555E-01 0.000E+00

     total cpu time spent up to now is       55.8 secs

     total energy              =   -4444.26553296 Ry
     estimated scf accuracy    <      27.89248432 Ry

     iteration #  4     ecut=    60.00 Ry     beta= 0.15
     Davidson diagonalization with overlap

---- Real-time Memory Report at c_bands before calling an iterative solver
             0 MiB given to the printing process from OS
             0 MiB allocation reported by mallinfo(arena+hblkhd)
         23384 MiB available memory on the node where the printing process lives
------------------
     ethr =  6.47E-03,  avg # of iterations =  1.0

     negative rho (up, down):  7.503E-01 0.000E+00

     total cpu time spent up to now is       70.9 secs

     total energy              =   -4443.08077758 Ry
     estimated scf accuracy    <      20.53271646 Ry

     iteration #  5     ecut=    60.00 Ry     beta= 0.15
     Davidson diagonalization with overlap

---- Real-time Memory Report at c_bands before calling an iterative solver
             0 MiB given to the printing process from OS
             0 MiB allocation reported by mallinfo(arena+hblkhd)
         23372 MiB available memory on the node where the printing process lives
------------------
     ethr =  4.76E-03,  avg # of iterations =  1.0

     negative rho (up, down):  7.397E-01 0.000E+00

     total cpu time spent up to now is       85.8 secs

     total energy              =   -4442.48290933 Ry
     estimated scf accuracy    <      11.99349697 Ry

     iteration #  6     ecut=    60.00 Ry     beta= 0.15
     Davidson diagonalization with overlap

---- Real-time Memory Report at c_bands before calling an iterative solver
             0 MiB given to the printing process from OS
             0 MiB allocation reported by mallinfo(arena+hblkhd)
         23352 MiB available memory on the node where the printing process lives
------------------
     ethr =  2.78E-03,  avg # of iterations =  1.1

     negative rho (up, down):  7.425E-01 0.000E+00

     total cpu time spent up to now is      101.1 secs

     total energy              =   -4442.82243080 Ry
     estimated scf accuracy    <       5.03186635 Ry

     iteration #  7     ecut=    60.00 Ry     beta= 0.15
     Davidson diagonalization with overlap

---- Real-time Memory Report at c_bands before calling an iterative solver
             0 MiB given to the printing process from OS
             0 MiB allocation reported by mallinfo(arena+hblkhd)
         23334 MiB available memory on the node where the printing process lives
------------------
     ethr =  1.17E-03,  avg # of iterations =  1.7

     negative rho (up, down):  7.650E-01 0.000E+00

     total cpu time spent up to now is      116.5 secs

     total energy              =   -4441.64141759 Ry
     estimated scf accuracy    <       3.96967302 Ry

     iteration #  8     ecut=    60.00 Ry     beta= 0.15
     Davidson diagonalization with overlap

---- Real-time Memory Report at c_bands before calling an iterative solver
             0 MiB given to the printing process from OS
             0 MiB allocation reported by mallinfo(arena+hblkhd)
         23311 MiB available memory on the node where the printing process lives
------------------
     ethr =  9.21E-04,  avg # of iterations =  4.2

     negative rho (up, down):  7.731E-01 0.000E+00

     total cpu time spent up to now is      136.2 secs

     total energy              =   -4441.30126794 Ry
     estimated scf accuracy    <      21.37044131 Ry

     iteration #  9     ecut=    60.00 Ry     beta= 0.15
     Davidson diagonalization with overlap

---- Real-time Memory Report at c_bands before calling an iterative solver
             0 MiB given to the printing process from OS
             0 MiB allocation reported by mallinfo(arena+hblkhd)
         23201 MiB available memory on the node where the printing process lives
------------------
     ethr =  9.21E-04,  avg # of iterations =  9.6

     negative rho (up, down):  7.703E-01 0.000E+00

     total cpu time spent up to now is      158.6 secs

     total energy              =   -4441.72256331 Ry
     estimated scf accuracy    <       3.72574172 Ry

     iteration # 10     ecut=    60.00 Ry     beta= 0.15
     Davidson diagonalization with overlap

---- Real-time Memory Report at c_bands before calling an iterative solver
             0 MiB given to the printing process from OS
             0 MiB allocation reported by mallinfo(arena+hblkhd)
         22837 MiB available memory on the node where the printing process lives
------------------
     ethr =  8.64E-04,  avg # of iterations =  1.2

     negative rho (up, down):  7.746E-01 0.000E+00

     total cpu time spent up to now is      174.4 secs

     total energy              =   -4441.88909836 Ry
     estimated scf accuracy    <       1.54579586 Ry

     iteration # 11     ecut=    60.00 Ry     beta= 0.15
     Davidson diagonalization with overlap

---- Real-time Memory Report at c_bands before calling an iterative solver
             0 MiB given to the printing process from OS
             0 MiB allocation reported by mallinfo(arena+hblkhd)
         22820 MiB available memory on the node where the printing process lives
------------------
     ethr =  3.59E-04,  avg # of iterations =  2.2

     negative rho (up, down):  8.034E-01 0.000E+00

     total cpu time spent up to now is      191.7 secs

     total energy              =   -4441.74703922 Ry
     estimated scf accuracy    <       1.09720855 Ry

     iteration # 12     ecut=    60.00 Ry     beta= 0.15
     Davidson diagonalization with overlap

---- Real-time Memory Report at c_bands before calling an iterative solver
             0 MiB given to the printing process from OS
             0 MiB allocation reported by mallinfo(arena+hblkhd)
         22829 MiB available memory on the node where the printing process lives
------------------
     ethr =  2.55E-04,  avg # of iterations =  4.7

     negative rho (up, down):  8.164E-01 0.000E+00

     total cpu time spent up to now is      210.6 secs

     total energy              =   -4441.88111432 Ry
     estimated scf accuracy    <       1.58722195 Ry

     iteration # 13     ecut=    60.00 Ry     beta= 0.15
     Davidson diagonalization with overlap

---- Real-time Memory Report at c_bands before calling an iterative solver
             0 MiB given to the printing process from OS
             0 MiB allocation reported by mallinfo(arena+hblkhd)
         22820 MiB available memory on the node where the printing process lives
------------------
     ethr =  2.55E-04,  avg # of iterations =  9.9

     negative rho (up, down):  8.191E-01 0.000E+00

     total cpu time spent up to now is      231.1 secs

     total energy              =   -4441.80452952 Ry
     estimated scf accuracy    <       1.13231606 Ry

     iteration # 14     ecut=    60.00 Ry     beta= 0.15
     Davidson diagonalization with overlap

---- Real-time Memory Report at c_bands before calling an iterative solver
             0 MiB given to the printing process from OS
             0 MiB allocation reported by mallinfo(arena+hblkhd)
         22708 MiB available memory on the node where the printing process lives
------------------
     ethr =  2.55E-04,  avg # of iterations =  2.4

     negative rho (up, down):  8.171E-01 0.000E+00

     total cpu time spent up to now is      247.8 secs

     total energy              =   -4441.76357937 Ry
     estimated scf accuracy    <       0.44409904 Ry

     iteration # 15     ecut=    60.00 Ry     beta= 0.15
     Davidson diagonalization with overlap

---- Real-time Memory Report at c_bands before calling an iterative solver
             0 MiB given to the printing process from OS
             0 MiB allocation reported by mallinfo(arena+hblkhd)
         22720 MiB available memory on the node where the printing process lives
------------------
     ethr =  1.03E-04,  avg # of iterations =  8.7

     negative rho (up, down):  8.265E-01 0.000E+00

     total cpu time spent up to now is      268.6 secs

     total energy              =   -4441.73052747 Ry
     estimated scf accuracy    <       0.29143596 Ry

     iteration # 16     ecut=    60.00 Ry     beta= 0.15
     Davidson diagonalization with overlap

---- Real-time Memory Report at c_bands before calling an iterative solver
             0 MiB given to the printing process from OS
             0 MiB allocation reported by mallinfo(arena+hblkhd)
         22691 MiB available memory on the node where the printing process lives
------------------
     c_bands:  1 eigenvalues not converged
     ethr =  6.76E-05,  avg # of iterations = 10.8

     negative rho (up, down):  8.302E-01 0.000E+00

     total cpu time spent up to now is      290.2 secs

     total energy              =   -4441.72966359 Ry
     estimated scf accuracy    <       0.30489104 Ry

     iteration # 17     ecut=    60.00 Ry     beta= 0.15
     Davidson diagonalization with overlap

---- Real-time Memory Report at c_bands before calling an iterative solver
             0 MiB given to the printing process from OS
             0 MiB allocation reported by mallinfo(arena+hblkhd)
         22708 MiB available memory on the node where the printing process lives
------------------
     ethr =  6.76E-05,  avg # of iterations =  1.0

     negative rho (up, down):  8.259E-01 0.000E+00

     total cpu time spent up to now is      304.9 secs

     total energy              =   -4441.71110011 Ry
     estimated scf accuracy    <       0.23765246 Ry

     iteration # 18     ecut=    60.00 Ry     beta= 0.15
     Davidson diagonalization with overlap

---- Real-time Memory Report at c_bands before calling an iterative solver
             0 MiB given to the printing process from OS
             0 MiB allocation reported by mallinfo(arena+hblkhd)
         22700 MiB available memory on the node where the printing process lives
------------------
     ethr =  5.51E-05,  avg # of iterations =  5.9

     negative rho (up, down):  8.171E-01 0.000E+00

     total cpu time spent up to now is      323.5 secs

     total energy              =   -4441.68432517 Ry
     estimated scf accuracy    <       0.15812070 Ry

     iteration # 19     ecut=    60.00 Ry     beta= 0.15
     Davidson diagonalization with overlap

---- Real-time Memory Report at c_bands before calling an iterative solver
             0 MiB given to the printing process from OS
             0 MiB allocation reported by mallinfo(arena+hblkhd)
         22691 MiB available memory on the node where the printing process lives
------------------
     ethr =  3.67E-05,  avg # of iterations =  9.7

     negative rho (up, down):  8.321E-01 0.000E+00

     total cpu time spent up to now is      345.3 secs

     total energy              =   -4441.67126467 Ry
     estimated scf accuracy    <       0.11403062 Ry

     iteration # 20     ecut=    60.00 Ry     beta= 0.15
     Davidson diagonalization with overlap

---- Real-time Memory Report at c_bands before calling an iterative solver
             0 MiB given to the printing process from OS
             0 MiB allocation reported by mallinfo(arena+hblkhd)
         22634 MiB available memory on the node where the printing process lives
------------------
     ethr =  2.65E-05,  avg # of iterations =  5.5

     negative rho (up, down):  8.210E-01 0.000E+00

     total cpu time spent up to now is      364.8 secs

     total energy              =   -4441.67183221 Ry
     estimated scf accuracy    <       0.04899387 Ry

     iteration # 21     ecut=    60.00 Ry     beta= 0.15
     Davidson diagonalization with overlap

---- Real-time Memory Report at c_bands before calling an iterative solver
             0 MiB given to the printing process from OS
             0 MiB allocation reported by mallinfo(arena+hblkhd)
         22597 MiB available memory on the node where the printing process lives
------------------
     ethr =  1.14E-05,  avg # of iterations = 10.2

     negative rho (up, down):  8.129E-01 0.000E+00

     total cpu time spent up to now is      387.1 secs

     total energy              =   -4441.67048771 Ry
     estimated scf accuracy    <       0.03189625 Ry

     iteration # 22     ecut=    60.00 Ry     beta= 0.15
     Davidson diagonalization with overlap

---- Real-time Memory Report at c_bands before calling an iterative solver
             0 MiB given to the printing process from OS
             0 MiB allocation reported by mallinfo(arena+hblkhd)
         22564 MiB available memory on the node where the printing process lives
------------------
     ethr =  7.40E-06,  avg # of iterations =  5.7

     negative rho (up, down):  8.069E-01 0.000E+00

     total cpu time spent up to now is      406.3 secs

     total energy              =   -4441.66875093 Ry
     estimated scf accuracy    <       0.02270975 Ry

     iteration # 23     ecut=    60.00 Ry     beta= 0.15
     Davidson diagonalization with overlap

---- Real-time Memory Report at c_bands before calling an iterative solver
             0 MiB given to the printing process from OS
             0 MiB allocation reported by mallinfo(arena+hblkhd)
         22591 MiB available memory on the node where the printing process lives
------------------
     c_bands:  1 eigenvalues not converged
     ethr =  5.27E-06,  avg # of iterations = 10.9

     negative rho (up, down):  7.917E-01 0.000E+00

     total cpu time spent up to now is      428.4 secs

     total energy              =   -4441.66515534 Ry
     estimated scf accuracy    <       0.01628595 Ry

     iteration # 24     ecut=    60.00 Ry     beta= 0.15
     Davidson diagonalization with overlap

---- Real-time Memory Report at c_bands before calling an iterative solver
             0 MiB given to the printing process from OS
             0 MiB allocation reported by mallinfo(arena+hblkhd)
         22619 MiB available memory on the node where the printing process lives
------------------
     c_bands:  1 eigenvalues not converged
     ethr =  3.78E-06,  avg # of iterations =  9.1

     negative rho (up, down):  8.011E-01 0.000E+00

     total cpu time spent up to now is      450.3 secs

     total energy              =   -4441.66466914 Ry
     estimated scf accuracy    <       0.01012603 Ry

     iteration # 25     ecut=    60.00 Ry     beta= 0.15
     Davidson diagonalization with overlap

---- Real-time Memory Report at c_bands before calling an iterative solver
             0 MiB given to the printing process from OS
             0 MiB allocation reported by mallinfo(arena+hblkhd)
         22593 MiB available memory on the node where the printing process lives
------------------
     ethr =  2.35E-06,  avg # of iterations =  9.2

     negative rho (up, down):  7.970E-01 0.000E+00

     total cpu time spent up to now is      472.8 secs

     total energy              =   -4441.66431491 Ry
     estimated scf accuracy    <       0.00317807 Ry

     iteration # 26     ecut=    60.00 Ry     beta= 0.15
     Davidson diagonalization with overlap

---- Real-time Memory Report at c_bands before calling an iterative solver
             0 MiB given to the printing process from OS
             0 MiB allocation reported by mallinfo(arena+hblkhd)
         22557 MiB available memory on the node where the printing process lives
------------------
     ethr =  7.37E-07,  avg # of iterations = 10.1

     negative rho (up, down):  7.958E-01 0.000E+00

     total cpu time spent up to now is      494.7 secs

     total energy              =   -4441.66433600 Ry
     estimated scf accuracy    <       0.00119600 Ry

     iteration # 27     ecut=    60.00 Ry     beta= 0.15
     Davidson diagonalization with overlap

---- Real-time Memory Report at c_bands before calling an iterative solver
             0 MiB given to the printing process from OS
             0 MiB allocation reported by mallinfo(arena+hblkhd)
         22528 MiB available memory on the node where the printing process lives
------------------
     c_bands:  1 eigenvalues not converged
     c_bands:  1 eigenvalues not converged
     ethr =  2.77E-07,  avg # of iterations = 10.7

     negative rho (up, down):  7.952E-01 0.000E+00

     total cpu time spent up to now is      520.0 secs

     total energy              =   -4441.66446197 Ry
     estimated scf accuracy    <       0.00044892 Ry

     iteration # 28     ecut=    60.00 Ry     beta= 0.15
     Davidson diagonalization with overlap

---- Real-time Memory Report at c_bands before calling an iterative solver
             0 MiB given to the printing process from OS
             0 MiB allocation reported by mallinfo(arena+hblkhd)
         22292 MiB available memory on the node where the printing process lives
------------------
     ethr =  1.04E-07,  avg # of iterations =  2.5

     negative rho (up, down):  7.947E-01 0.000E+00

     total cpu time spent up to now is      536.8 secs

     total energy              =   -4441.66446854 Ry
     estimated scf accuracy    <       0.00031108 Ry

     iteration # 29     ecut=    60.00 Ry     beta= 0.15
     Davidson diagonalization with overlap

---- Real-time Memory Report at c_bands before calling an iterative solver
             0 MiB given to the printing process from OS
             0 MiB allocation reported by mallinfo(arena+hblkhd)
         22340 MiB available memory on the node where the printing process lives
------------------
     ethr =  7.22E-08,  avg # of iterations =  2.1

     negative rho (up, down):  7.937E-01 0.000E+00

     total cpu time spent up to now is      554.0 secs

     total energy              =   -4441.66446862 Ry
     estimated scf accuracy    <       0.00018057 Ry

     iteration # 30     ecut=    60.00 Ry     beta= 0.15
     Davidson diagonalization with overlap

---- Real-time Memory Report at c_bands before calling an iterative solver
             0 MiB given to the printing process from OS
             0 MiB allocation reported by mallinfo(arena+hblkhd)
         22354 MiB available memory on the node where the printing process lives
------------------
     ethr =  4.19E-08,  avg # of iterations =  3.7

     negative rho (up, down):  7.934E-01 0.000E+00

     total cpu time spent up to now is      572.1 secs

     total energy              =   -4441.66447728 Ry
     estimated scf accuracy    <       0.00008560 Ry

     iteration # 31     ecut=    60.00 Ry     beta= 0.15
     Davidson diagonalization with overlap

---- Real-time Memory Report at c_bands before calling an iterative solver
             0 MiB given to the printing process from OS
             0 MiB allocation reported by mallinfo(arena+hblkhd)
         22351 MiB available memory on the node where the printing process lives
------------------
     ethr =  1.99E-08,  avg # of iterations =  2.1

     negative rho (up, down):  7.929E-01 0.000E+00

     total cpu time spent up to now is      589.2 secs

     total energy              =   -4441.66448023 Ry
     estimated scf accuracy    <       0.00006445 Ry

     iteration # 32     ecut=    60.00 Ry     beta= 0.15
     Davidson diagonalization with overlap

---- Real-time Memory Report at c_bands before calling an iterative solver
             0 MiB given to the printing process from OS
             0 MiB allocation reported by mallinfo(arena+hblkhd)
         22356 MiB available memory on the node where the printing process lives
------------------
     ethr =  1.50E-08,  avg # of iterations =  2.0

     negative rho (up, down):  7.922E-01 0.000E+00

     total cpu time spent up to now is      606.2 secs

     total energy              =   -4441.66448518 Ry
     estimated scf accuracy    <       0.00005016 Ry

     iteration # 33     ecut=    60.00 Ry     beta= 0.15
     Davidson diagonalization with overlap

---- Real-time Memory Report at c_bands before calling an iterative solver
             0 MiB given to the printing process from OS
             0 MiB allocation reported by mallinfo(arena+hblkhd)
         22377 MiB available memory on the node where the printing process lives
------------------
     ethr =  1.16E-08,  avg # of iterations =  4.5

     negative rho (up, down):  7.920E-01 0.000E+00

     total cpu time spent up to now is      625.2 secs

     total energy              =   -4441.66448918 Ry
     estimated scf accuracy    <       0.00003352 Ry

     iteration # 34     ecut=    60.00 Ry     beta= 0.15
     Davidson diagonalization with overlap

---- Real-time Memory Report at c_bands before calling an iterative solver
             0 MiB given to the printing process from OS
             0 MiB allocation reported by mallinfo(arena+hblkhd)
         22395 MiB available memory on the node where the printing process lives
------------------
     ethr =  7.78E-09,  avg # of iterations =  2.2

     negative rho (up, down):  7.921E-01 0.000E+00

     total cpu time spent up to now is      642.4 secs

     total energy              =   -4441.66449302 Ry
     estimated scf accuracy    <       0.00002339 Ry

     iteration # 35     ecut=    60.00 Ry     beta= 0.15
     Davidson diagonalization with overlap

---- Real-time Memory Report at c_bands before calling an iterative solver
             0 MiB given to the printing process from OS
             0 MiB allocation reported by mallinfo(arena+hblkhd)
         22427 MiB available memory on the node where the printing process lives
------------------
     ethr =  5.43E-09,  avg # of iterations =  2.1

     negative rho (up, down):  7.923E-01 0.000E+00

     total cpu time spent up to now is      659.8 secs

     total energy              =   -4441.66449508 Ry
     estimated scf accuracy    <       0.00001736 Ry

     iteration # 36     ecut=    60.00 Ry     beta= 0.15
     Davidson diagonalization with overlap

---- Real-time Memory Report at c_bands before calling an iterative solver
             0 MiB given to the printing process from OS
             0 MiB allocation reported by mallinfo(arena+hblkhd)
         22419 MiB available memory on the node where the printing process lives
------------------
     ethr =  4.03E-09,  avg # of iterations =  2.2

     negative rho (up, down):  7.924E-01 0.000E+00

     total cpu time spent up to now is      677.2 secs

     total energy              =   -4441.66449515 Ry
     estimated scf accuracy    <       0.00001035 Ry

     iteration # 37     ecut=    60.00 Ry     beta= 0.15
     Davidson diagonalization with overlap

---- Real-time Memory Report at c_bands before calling an iterative solver
             0 MiB given to the printing process from OS
             0 MiB allocation reported by mallinfo(arena+hblkhd)
         22424 MiB available memory on the node where the printing process lives
------------------
     ethr =  2.40E-09,  avg # of iterations =  2.1

     negative rho (up, down):  7.926E-01 0.000E+00

     total cpu time spent up to now is      694.1 secs

     total energy              =   -4441.66449356 Ry
     estimated scf accuracy    <       0.00000679 Ry

     iteration # 38     ecut=    60.00 Ry     beta= 0.15
     Davidson diagonalization with overlap

---- Real-time Memory Report at c_bands before calling an iterative solver
             0 MiB given to the printing process from OS
             0 MiB allocation reported by mallinfo(arena+hblkhd)
         22423 MiB available memory on the node where the printing process lives
------------------
     ethr =  1.58E-09,  avg # of iterations =  2.9

     negative rho (up, down):  7.927E-01 0.000E+00

     total cpu time spent up to now is      711.8 secs

     total energy              =   -4441.66449361 Ry
     estimated scf accuracy    <       0.00000213 Ry

     iteration # 39     ecut=    60.00 Ry     beta= 0.15
     Davidson diagonalization with overlap

---- Real-time Memory Report at c_bands before calling an iterative solver
             0 MiB given to the printing process from OS
             0 MiB allocation reported by mallinfo(arena+hblkhd)
         22427 MiB available memory on the node where the printing process lives
------------------
     ethr =  4.93E-10,  avg # of iterations =  3.2

     negative rho (up, down):  7.927E-01 0.000E+00

     total cpu time spent up to now is      729.5 secs

     total energy              =   -4441.66449386 Ry
     estimated scf accuracy    <       0.00000122 Ry

     iteration # 40     ecut=    60.00 Ry     beta= 0.15
     Davidson diagonalization with overlap

---- Real-time Memory Report at c_bands before calling an iterative solver
             0 MiB given to the printing process from OS
             0 MiB allocation reported by mallinfo(arena+hblkhd)
         22426 MiB available memory on the node where the printing process lives
------------------
     ethr =  2.83E-10,  avg # of iterations =  2.2

     negative rho (up, down):  7.926E-01 0.000E+00

     total cpu time spent up to now is      746.7 secs

     total energy              =   -4441.66449448 Ry
     estimated scf accuracy    <       0.00000082 Ry

     iteration # 41     ecut=    60.00 Ry     beta= 0.15
     Davidson diagonalization with overlap

---- Real-time Memory Report at c_bands before calling an iterative solver
             0 MiB given to the printing process from OS
             0 MiB allocation reported by mallinfo(arena+hblkhd)
         22445 MiB available memory on the node where the printing process lives
------------------
     ethr =  1.91E-10,  avg # of iterations =  3.3

     negative rho (up, down):  7.926E-01 0.000E+00

     total cpu time spent up to now is      764.6 secs

     total energy              =   -4441.66449467 Ry
     estimated scf accuracy    <       0.00000034 Ry

     iteration # 42     ecut=    60.00 Ry     beta= 0.15
     Davidson diagonalization with overlap

---- Real-time Memory Report at c_bands before calling an iterative solver
             0 MiB given to the printing process from OS
             0 MiB allocation reported by mallinfo(arena+hblkhd)
         22442 MiB available memory on the node where the printing process lives
------------------
     ethr =  7.78E-11,  avg # of iterations =  3.3

     negative rho (up, down):  7.925E-01 0.000E+00

     total cpu time spent up to now is      782.8 secs

     total energy              =   -4441.66449475 Ry
     estimated scf accuracy    <       0.00000014 Ry

     iteration # 43     ecut=    60.00 Ry     beta= 0.15
     Davidson diagonalization with overlap

---- Real-time Memory Report at c_bands before calling an iterative solver
             0 MiB given to the printing process from OS
             0 MiB allocation reported by mallinfo(arena+hblkhd)
         22442 MiB available memory on the node where the printing process lives
------------------
     ethr =  3.17E-11,  avg # of iterations =  2.6

     negative rho (up, down):  7.925E-01 0.000E+00

     total cpu time spent up to now is      800.6 secs

     total energy              =   -4441.66449479 Ry
     estimated scf accuracy    <       0.00000007 Ry

     iteration # 44     ecut=    60.00 Ry     beta= 0.15
     Davidson diagonalization with overlap

---- Real-time Memory Report at c_bands before calling an iterative solver
             0 MiB given to the printing process from OS
             0 MiB allocation reported by mallinfo(arena+hblkhd)
         22452 MiB available memory on the node where the printing process lives
------------------
     ethr =  1.65E-11,  avg # of iterations =  2.9

     negative rho (up, down):  7.925E-01 0.000E+00

     total cpu time spent up to now is      818.4 secs

     total energy              =   -4441.66449482 Ry
     estimated scf accuracy    <       0.00000003 Ry

     iteration # 45     ecut=    60.00 Ry     beta= 0.15
     Davidson diagonalization with overlap

---- Real-time Memory Report at c_bands before calling an iterative solver
             0 MiB given to the printing process from OS
             0 MiB allocation reported by mallinfo(arena+hblkhd)
         22456 MiB available memory on the node where the printing process lives
------------------
     ethr =  7.32E-12,  avg # of iterations =  2.7

     negative rho (up, down):  7.925E-01 0.000E+00

     total cpu time spent up to now is      835.9 secs

     total energy              =   -4441.66449484 Ry
     estimated scf accuracy    <       0.00000002 Ry

     iteration # 46     ecut=    60.00 Ry     beta= 0.15
     Davidson diagonalization with overlap

---- Real-time Memory Report at c_bands before calling an iterative solver
             0 MiB given to the printing process from OS
             0 MiB allocation reported by mallinfo(arena+hblkhd)
         22457 MiB available memory on the node where the printing process lives
------------------
     ethr =  5.26E-12,  avg # of iterations =  2.2

     negative rho (up, down):  7.925E-01 0.000E+00

     total cpu time spent up to now is      853.3 secs

     total energy              =   -4441.66449487 Ry
     estimated scf accuracy    <       0.00000002 Ry

     iteration # 47     ecut=    60.00 Ry     beta= 0.15
     Davidson diagonalization with overlap

---- Real-time Memory Report at c_bands before calling an iterative solver
             0 MiB given to the printing process from OS
             0 MiB allocation reported by mallinfo(arena+hblkhd)
         22453 MiB available memory on the node where the printing process lives
------------------
     ethr =  3.87E-12,  avg # of iterations =  3.6

     negative rho (up, down):  7.925E-01 0.000E+00

     total cpu time spent up to now is      871.6 secs

     End of self-consistent calculation

          k = 0.0000 0.0000 0.0000 ( 65197 PWs)   bands (ev):

   -92.7033 -92.6544 -92.5580 -92.5109 -92.4526 -92.4098 -92.3926 -92.2738
   -56.0567 -56.0410 -55.9150 -55.9040 -55.8984 -55.8908 -55.8575 -55.8270
   -55.8112 -55.8093 -55.8045 -55.7598 -55.7416 -55.7036 -55.6848 -55.6528
   -55.6463 -55.5998 -55.5982 -55.5950 -55.5866 -55.5489 -55.5228 -55.4388
   -31.2804 -31.2609 -31.1190 -31.1141 -31.0322 -30.9192 -30.8336 -30.6287
   -29.8507 -29.8075 -29.7809 -29.6723 -15.0835 -15.0353 -14.9573 -14.8281
   -14.6293 -14.5104 -14.2206 -14.2001 -14.1725 -14.1246 -14.0780 -14.0605
   -14.0567 -14.0373 -14.0231 -13.9777 -13.9673 -13.9329 -13.7793 -13.5932
   -13.5680 -13.5372 -13.4987 -13.4843 -13.4329 -13.3998 -13.3249 -13.2525
   -13.1295 -13.1124 -13.1095 -13.0833 -13.0772 -13.0582 -13.0040 -12.9954
   -12.9783 -12.9544 -12.9258 -12.9074 -12.8984 -12.8752 -12.8265 -12.7696
   -12.7524 -12.7231 -12.5856 -12.5780 -12.5524 -12.3449 -12.1989 -12.0005
   -11.9257 -11.8635 -11.7900 -11.7785 -11.7556 -11.7378 -11.6743 -11.6568
   -11.6227 -11.5934 -11.4806 -11.4016 -11.3981  -2.9427  -2.7112  -2.4818
    -2.3331  -2.2716  -2.1299  -1.8218  -1.8071  -1.7887  -1.7009  -1.6837
    -1.6159  -1.5994  -1.5592  -1.5140  -1.3330  -1.1560  -1.1034  -1.0761
    -0.9332  -0.9182  -0.8710  -0.8503  -0.8059  -0.7892  -0.7360  -0.7087
    -0.6341  -0.6227  -0.5490  -0.4173  -0.4049  -0.3741  -0.2939  -0.2738
    -0.2200  -0.1954  -0.1292  -0.0840  -0.0299  -0.0073   0.0601   0.1344
     0.1786   0.2052   0.2179   0.4729   0.4882   0.6624   0.7243   0.7880
     0.8459   0.9276   0.9372   0.9572   1.0218   1.0492   1.0831   1.1400
     1.2717   1.3290   1.3515   1.3805   1.3879   1.4484   1.5189   1.6289
     1.6483   1.7026   1.7120   1.7559   1.7792   1.7881   1.8415   1.9062
     1.9170   1.9460   1.9790   2.0276   2.1584   2.2411   2.2837   2.3161
     2.4169   2.4500   2.4656   2.4904   2.5101   2.5120   2.6264   2.6572
     2.6851   2.7039   2.7207   2.8026   2.9063   2.9409   2.9493   2.9553
     3.0231   3.0283   3.0513   3.0590   3.0679   3.0797   3.0882   3.1015
     3.1083   3.1198   3.1275   3.1344   3.1546   3.1758   3.1811   3.1928
     3.2150   3.3329   3.4159   4.1046   4.4264   4.7671   4.8655   5.0419
     5.8023   5.9498   5.9848   6.0106   6.3119   6.3588   6.4782   6.4897
     6.7476   7.0065   7.1010   7.3155   7.5494   7.5680   7.6534   7.6646
     7.7004   7.8816   7.9839   8.0422   8.1108   8.1610   8.3697   8.4475
     8.7566   8.8660   8.9167

     occupation numbers 
     1.0000   1.0000   1.0000   1.0000   1.0000   1.0000   1.0000   1.0000
     1.0000   1.0000   1.0000   1.0000   1.0000   1.0000   1.0000   1.0000
     1.0000   1.0000   1.0000   1.0000   1.0000   1.0000   1.0000   1.0000
     1.0000   1.0000   1.0000   1.0000   1.0000   1.0000   1.0000   1.0000
     1.0000   1.0000   1.0000   1.0000   1.0000   1.0000   1.0000   1.0000
     1.0000   1.0000   1.0000   1.0000   1.0000   1.0000   1.0000   1.0000
     1.0000   1.0000   1.0000   1.0000   1.0000   1.0000   1.0000   1.0000
     1.0000   1.0000   1.0000   1.0000   1.0000   1.0000   1.0000   1.0000
     1.0000   1.0000   1.0000   1.0000   1.0000   1.0000   1.0000   1.0000
     1.0000   1.0000   1.0000   1.0000   1.0000   1.0000   1.0000   1.0000
     1.0000   1.0000   1.0000   1.0000   1.0000   1.0000   1.0000   1.0000
     1.0000   1.0000   1.0000   1.0000   1.0000   1.0000   1.0000   1.0000
     1.0000   1.0000   1.0000   1.0000   1.0000   1.0000   1.0000   1.0000
     1.0000   1.0000   1.0000   1.0000   1.0000   1.0000   1.0000   1.0000
     1.0000   1.0000   1.0000   1.0000   1.0000   1.0000   1.0000   1.0000
     1.0000   1.0000   1.0000   1.0000   1.0000   1.0000   1.0000   1.0000
     1.0000   1.0000   1.0000   1.0000   1.0000   1.0000   1.0000   1.0000
     1.0000   1.0000   1.0000   1.0000   1.0000   1.0000   1.0000   1.0000
     1.0000   1.0000   1.0000   1.0000   1.0000   1.0000   1.0000   1.0000
     1.0000   1.0000   1.0000   1.0000   1.0000   1.0000   0.9999   0.9999
     0.9999   0.9998   0.9998   0.9998   0.9997   0.9996   0.9996   0.9994
     0.9988   0.9985   0.9983   0.9981   0.9980   0.9973   0.9963   0.9941
     0.9936   0.9920   0.9917   0.9901   0.9891   0.9887   0.9862   0.9824
     0.9817   0.9797   0.9771   0.9729   0.9583   0.9461   0.9388   0.9328
     0.9111   0.9029   0.8989   0.8922   0.8867   0.8861   0.8500   0.8390
     0.8287   0.8215   0.8149   0.7807   0.7326   0.7154   0.7112   0.7081
     0.6726   0.6699   0.6574   0.6532   0.6483   0.6418   0.6371   0.6296
     0.6258   0.6193   0.6149   0.6110   0.5994   0.5873   0.5842   0.5774
     0.5645   0.4949   0.4459   0.1233   0.0509   0.0161   0.0111   0.0054
     0.0001   0.0000   0.0000   0.0000   0.0000   0.0000   0.0000   0.0000
     0.0000   0.0000   0.0000   0.0000   0.0000   0.0000   0.0000   0.0000
     0.0000   0.0000   0.0000   0.0000   0.0000   0.0000   0.0000   0.0000
     0.0000   0.0000   0.0000

          k = 0.0000 0.2500 0.0000 ( 65257 PWs)   bands (ev):

   -92.7033 -92.6544 -92.5580 -92.5109 -92.4526 -92.4098 -92.3926 -92.2738
   -56.0567 -56.0410 -55.9150 -55.9040 -55.8984 -55.8908 -55.8575 -55.8270
   -55.8112 -55.8093 -55.8045 -55.7598 -55.7416 -55.7036 -55.6848 -55.6528
   -55.6463 -55.5998 -55.5982 -55.5950 -55.5866 -55.5489 -55.5228 -55.4388
   -31.2802 -31.2608 -31.1192 -31.1140 -31.0323 -30.9191 -30.8337 -30.6289
   -29.8501 -29.8072 -29.7815 -29.6726 -15.0471 -15.0087 -14.9323 -14.7985
   -14.6728 -14.4992 -14.3653 -14.1868 -14.1498 -14.1314 -14.1001 -14.0438
   -14.0342 -14.0192 -14.0016 -13.9685 -13.9459 -13.8508 -13.8108 -13.6496
   -13.6190 -13.5797 -13.5412 -13.4826 -13.4539 -13.4028 -13.3450 -13.3102
   -13.2362 -13.1635 -13.1495 -13.1123 -13.1017 -13.0667 -12.9874 -12.9624
   -12.9364 -12.9097 -12.8908 -12.8753 -12.8683 -12.8393 -12.8002 -12.7448
   -12.6658 -12.6197 -12.5726 -12.5296 -12.4802 -12.4062 -12.2501 -12.0544
   -11.9885 -11.8290 -11.7868 -11.7583 -11.7300 -11.7135 -11.6662 -11.6549
   -11.6322 -11.5988 -11.4948 -11.4431 -11.4327  -2.8073  -2.5869  -2.4489
    -2.2665  -2.2230  -2.0600  -1.8387  -1.7563  -1.7432  -1.6811  -1.5825
    -1.5665  -1.5323  -1.5053  -1.4617  -1.2641  -1.1558  -1.1322  -1.1231
    -1.0450  -1.0361  -0.9328  -0.9036  -0.8436  -0.8177  -0.7793  -0.7144
    -0.6878  -0.6551  -0.6248  -0.6072  -0.5752  -0.5020  -0.4505  -0.3708
    -0.2711  -0.2382  -0.1946  -0.0930  -0.0557   0.0114   0.0574   0.1224
     0.1390   0.1590   0.2161   0.5215   0.6079   0.6418   0.7285   0.7747
     0.8036   0.9097   0.9291   1.0245   1.0495   1.0757   1.1907   1.2865
     1.3050   1.3313   1.3544   1.3737   1.4334   1.4615   1.4892   1.5355
     1.5726   1.6047   1.6913   1.7276   1.7571   1.8120   1.8624   1.9028
     1.9333   1.9601   1.9722   2.0757   2.1935   2.2673   2.2981   2.3578
     2.4027   2.4175   2.4441   2.4519   2.4897   2.5177   2.5527   2.6420
     2.6841   2.7000   2.8635   2.8847   2.9185   2.9425   2.9569   2.9657
     2.9719   2.9812   3.0113   3.0138   3.0315   3.0393   3.0462   3.0653
     3.0765   3.0845   3.1058   3.1163   3.1219   3.1570   3.1731   3.2332
     3.5978   3.6393   3.8800   4.2966   4.4197   4.7123   5.0182   5.0659
     5.6427   5.8234   5.9498   5.9935   6.0835   6.1064   6.1811   6.5969
     6.8428   7.1017   7.1834   7.3291   7.4838   7.4985   7.6276   7.6440
     7.8495   7.8845   8.0379   8.1803   8.2675   8.3714   8.3966   8.4229
     8.6134   8.8814   8.9684

     occupation numbers 
     1.0000   1.0000   1.0000   1.0000   1.0000   1.0000   1.0000   1.0000
     1.0000   1.0000   1.0000   1.0000   1.0000   1.0000   1.0000   1.0000
     1.0000   1.0000   1.0000   1.0000   1.0000   1.0000   1.0000   1.0000
     1.0000   1.0000   1.0000   1.0000   1.0000   1.0000   1.0000   1.0000
     1.0000   1.0000   1.0000   1.0000   1.0000   1.0000   1.0000   1.0000
     1.0000   1.0000   1.0000   1.0000   1.0000   1.0000   1.0000   1.0000
     1.0000   1.0000   1.0000   1.0000   1.0000   1.0000   1.0000   1.0000
     1.0000   1.0000   1.0000   1.0000   1.0000   1.0000   1.0000   1.0000
     1.0000   1.0000   1.0000   1.0000   1.0000   1.0000   1.0000   1.0000
     1.0000   1.0000   1.0000   1.0000   1.0000   1.0000   1.0000   1.0000
     1.0000   1.0000   1.0000   1.0000   1.0000   1.0000   1.0000   1.0000
     1.0000   1.0000   1.0000   1.0000   1.0000   1.0000   1.0000   1.0000
     1.0000   1.0000   1.0000   1.0000   1.0000   1.0000   1.0000   1.0000
     1.0000   1.0000   1.0000   1.0000   1.0000   1.0000   1.0000   1.0000
     1.0000   1.0000   1.0000   1.0000   1.0000   1.0000   1.0000   1.0000
     1.0000   1.0000   1.0000   1.0000   1.0000   1.0000   1.0000   1.0000
     1.0000   1.0000   1.0000   1.0000   1.0000   1.0000   1.0000   1.0000
     1.0000   1.0000   1.0000   1.0000   1.0000   1.0000   1.0000   1.0000
     1.0000   1.0000   1.0000   1.0000   1.0000   1.0000   1.0000   1.0000
     1.0000   1.0000   1.0000   1.0000   1.0000   1.0000   0.9999   0.9999
     0.9999   0.9998   0.9998   0.9997   0.9996   0.9996   0.9992   0.9988
     0.9986   0.9985   0.9983   0.9981   0.9975   0.9972   0.9968   0.9960
     0.9954   0.9947   0.9923   0.9911   0.9900   0.9876   0.9850   0.9826
     0.9806   0.9786   0.9777   0.9681   0.9534   0.9417   0.9362   0.9244
     0.9144   0.9109   0.9044   0.9024   0.8924   0.8845   0.8740   0.8445
     0.8291   0.8230   0.7531   0.7430   0.7266   0.7146   0.7073   0.7028
     0.6996   0.6948   0.6789   0.6776   0.6681   0.6639   0.6602   0.6497
     0.6435   0.6391   0.6272   0.6213   0.6181   0.5981   0.5888   0.5538
     0.3423   0.3200   0.2046   0.0744   0.0519   0.0196   0.0059   0.0049
     0.0003   0.0001   0.0000   0.0000   0.0000   0.0000   0.0000   0.0000
     0.0000   0.0000   0.0000   0.0000   0.0000   0.0000   0.0000   0.0000
     0.0000   0.0000   0.0000   0.0000   0.0000   0.0000   0.0000   0.0000
     0.0000   0.0000   0.0000

          k = 0.0000-0.5000 0.0000 ( 65180 PWs)   bands (ev):

   -92.7033 -92.6544 -92.5580 -92.5109 -92.4526 -92.4098 -92.3926 -92.2738
   -56.0567 -56.0410 -55.9150 -55.9040 -55.8984 -55.8908 -55.8575 -55.8270
   -55.8112 -55.8093 -55.8045 -55.7598 -55.7416 -55.7036 -55.6848 -55.6528
   -55.6463 -55.5998 -55.5982 -55.5950 -55.5866 -55.5489 -55.5228 -55.4388
   -31.2800 -31.2607 -31.1195 -31.1139 -31.0325 -30.9190 -30.8339 -30.6290
   -29.8495 -29.8068 -29.7821 -29.6730 -15.0098 -14.9624 -14.9053 -14.7807
   -14.6944 -14.5619 -14.3961 -14.2862 -14.1597 -14.0827 -14.0428 -14.0370
   -13.9885 -13.9738 -13.9689 -13.9189 -13.8944 -13.8758 -13.8454 -13.8024
   -13.7529 -13.5855 -13.5261 -13.4832 -13.4587 -13.3965 -13.3605 -13.3042
   -13.2858 -13.2565 -13.2202 -13.1140 -13.1040 -13.0625 -12.9701 -12.9591
   -12.9315 -12.9232 -12.8852 -12.8734 -12.8386 -12.7391 -12.7080 -12.6546
   -12.6362 -12.6005 -12.5691 -12.5171 -12.4206 -12.3251 -12.3025 -12.1447
   -12.0947 -11.7838 -11.7807 -11.7531 -11.7157 -11.6813 -11.6702 -11.6288
   -11.6247 -11.5806 -11.5161 -11.5035 -11.4896  -2.5922  -2.5339  -2.3836
    -2.3121  -2.0277  -1.9464  -1.8177  -1.6828  -1.6385  -1.6249  -1.5464
    -1.5163  -1.4315  -1.3979  -1.3184  -1.2803  -1.2431  -1.2158  -1.1639
    -1.1446  -1.1161  -1.0721  -1.0358  -1.0028  -0.9712  -0.8594  -0.8160
    -0.7787  -0.7737  -0.6899  -0.6595  -0.6385  -0.5884  -0.4995  -0.4321
    -0.3399  -0.2898  -0.2126  -0.1748  -0.0317   0.0282   0.0371   0.0951
     0.2157   0.2675   0.3895   0.4611   0.4695   0.5941   0.6548   0.7659
     0.8738   0.9805   1.0129   1.0537   1.0650   1.1003   1.1136   1.1475
     1.1636   1.1783   1.2845   1.3468   1.3871   1.4083   1.6784   1.6996
     1.7196   1.8135   1.8374   1.8677   1.8821   1.9093   1.9280   1.9400
     1.9622   2.0035   2.0346   2.0682   2.0688   2.0982   2.1498   2.2392
     2.2692   2.4167   2.4441   2.4870   2.6011   2.6131   2.6343   2.6691
     2.6784   2.6817   2.7320   2.7437   2.7976   2.8185   2.8951   2.9155
     2.9819   2.9843   3.0100   3.0129   3.0284   3.0322   3.0388   3.0428
     3.0447   3.0580   3.0755   3.0774   3.1427   3.1459   3.1625   3.2173
     4.1285   4.1434   4.1790   4.2622   4.7416   4.9015   5.0230   5.1770
     5.4138   5.4625   5.5821   5.7407   6.0332   6.0452   6.2773   6.5612
     6.8509   6.9529   7.2209   7.3234   7.4256   7.4935   7.6946   7.7533
     7.9070   7.9467   8.1589   8.2900   8.3193   8.4868   8.5477   8.6854
     8.8083   8.8366   8.8698

     occupation numbers 
     1.0000   1.0000   1.0000   1.0000   1.0000   1.0000   1.0000   1.0000
     1.0000   1.0000   1.0000   1.0000   1.0000   1.0000   1.0000   1.0000
     1.0000   1.0000   1.0000   1.0000   1.0000   1.0000   1.0000   1.0000
     1.0000   1.0000   1.0000   1.0000   1.0000   1.0000   1.0000   1.0000
     1.0000   1.0000   1.0000   1.0000   1.0000   1.0000   1.0000   1.0000
     1.0000   1.0000   1.0000   1.0000   1.0000   1.0000   1.0000   1.0000
     1.0000   1.0000   1.0000   1.0000   1.0000   1.0000   1.0000   1.0000
     1.0000   1.0000   1.0000   1.0000   1.0000   1.0000   1.0000   1.0000
     1.0000   1.0000   1.0000   1.0000   1.0000   1.0000   1.0000   1.0000
     1.0000   1.0000   1.0000   1.0000   1.0000   1.0000   1.0000   1.0000
     1.0000   1.0000   1.0000   1.0000   1.0000   1.0000   1.0000   1.0000
     1.0000   1.0000   1.0000   1.0000   1.0000   1.0000   1.0000   1.0000
     1.0000   1.0000   1.0000   1.0000   1.0000   1.0000   1.0000   1.0000
     1.0000   1.0000   1.0000   1.0000   1.0000   1.0000   1.0000   1.0000
     1.0000   1.0000   1.0000   1.0000   1.0000   1.0000   1.0000   1.0000
     1.0000   1.0000   1.0000   1.0000   1.0000   1.0000   1.0000   1.0000
     1.0000   1.0000   1.0000   1.0000   1.0000   1.0000   1.0000   1.0000
     1.0000   1.0000   1.0000   1.0000   1.0000   1.0000   1.0000   1.0000
     1.0000   1.0000   1.0000   1.0000   1.0000   1.0000   1.0000   1.0000
     1.0000   1.0000   1.0000   1.0000   1.0000   1.0000   1.0000   0.9999
     0.9999   0.9997   0.9997   0.9996   0.9996   0.9995   0.9995   0.9994
     0.9993   0.9993   0.9988   0.9983   0.9980   0.9978   0.9927   0.9921
     0.9914   0.9876   0.9864   0.9847   0.9839   0.9822   0.9809   0.9801
     0.9784   0.9751   0.9723   0.9689   0.9689   0.9657   0.9594   0.9464
     0.9414   0.9111   0.9044   0.8931   0.8586   0.8545   0.8472   0.8347
     0.8312   0.8300   0.8104   0.8057   0.7829   0.7737   0.7380   0.7281
     0.6944   0.6932   0.6796   0.6781   0.6698   0.6677   0.6642   0.6620
     0.6610   0.6537   0.6441   0.6430   0.6063   0.6044   0.5949   0.5631
     0.1162   0.1119   0.1022   0.0818   0.0177   0.0096   0.0058   0.0030
     0.0010   0.0007   0.0004   0.0002   0.0000   0.0000   0.0000   0.0000
     0.0000   0.0000   0.0000   0.0000   0.0000   0.0000   0.0000   0.0000
     0.0000   0.0000   0.0000   0.0000   0.0000   0.0000   0.0000   0.0000
     0.0000   0.0000   0.0000

          k = 0.2500 0.2500 0.0000 ( 65198 PWs)   bands (ev):

   -92.7033 -92.6544 -92.5580 -92.5109 -92.4526 -92.4098 -92.3926 -92.2738
   -56.0567 -56.0410 -55.9150 -55.9040 -55.8984 -55.8908 -55.8575 -55.8270
   -55.8112 -55.8093 -55.8045 -55.7598 -55.7416 -55.7036 -55.6848 -55.6528
   -55.6463 -55.5998 -55.5982 -55.5950 -55.5866 -55.5489 -55.5228 -55.4388
   -31.2785 -31.2625 -31.1189 -31.1139 -31.0327 -30.9192 -30.8336 -30.6290
   -29.8491 -29.8081 -29.7811 -29.6730 -15.0181 -14.9741 -14.9040 -14.7884
   -14.6648 -14.5406 -14.4715 -14.2629 -14.1101 -14.0974 -14.0595 -14.0319
   -14.0068 -13.9768 -13.9692 -13.9451 -13.9078 -13.8409 -13.8241 -13.6649
   -13.6500 -13.6179 -13.6023 -13.5280 -13.5109 -13.4363 -13.4278 -13.2942
   -13.2523 -13.2292 -13.1455 -13.1051 -13.0628 -13.0378 -13.0201 -12.9748
   -12.9491 -12.9204 -12.8933 -12.8445 -12.7858 -12.7703 -12.7463 -12.7170
   -12.7109 -12.6427 -12.5690 -12.4751 -12.4546 -12.3511 -12.2792 -12.0846
   -12.0376 -11.8014 -11.7701 -11.7588 -11.7517 -11.6895 -11.6541 -11.6479
   -11.6125 -11.6044 -11.5116 -11.4715 -11.4541  -2.6689  -2.4611  -2.3430
    -2.2472  -2.1278  -2.0634  -1.8633  -1.7206  -1.7020  -1.6688  -1.5771
    -1.5428  -1.4490  -1.4208  -1.3711  -1.2412  -1.1934  -1.1515  -1.1153
    -1.0737  -1.0281  -1.0051  -0.9823  -0.9385  -0.9243  -0.8334  -0.7833
    -0.7136  -0.6674  -0.6384  -0.5892  -0.5751  -0.5113  -0.4613  -0.3949
    -0.3681  -0.2759  -0.2307  -0.1977  -0.1634  -0.1078  -0.0340   0.0039
     0.0351   0.1080   0.1498   0.4095   0.5617   0.5912   0.6523   0.6917
     0.7640   0.8082   0.8709   0.9042   1.1778   1.2403   1.3144   1.3373
     1.3916   1.4174   1.4548   1.4916   1.5082   1.5354   1.5817   1.5910
     1.6065   1.6545   1.6908   1.7293   1.7836   1.8248   1.8366   1.8689
     1.9021   1.9596   1.9870   2.1145   2.1764   2.2098   2.2334   2.3128
     2.3653   2.3937   2.4118   2.4308   2.4560   2.4666   2.4925   2.5854
     2.6228   2.7130   2.8746   2.8921   2.8971   2.9137   2.9287   2.9426
     2.9541   2.9607   2.9727   2.9859   2.9999   3.0163   3.0236   3.0343
     3.0585   3.0681   3.0772   3.1086   3.4089   3.5016   3.5484   3.6167
     3.6322   3.8614   3.9517   4.3037   4.5080   4.7194   4.9803   5.1666
     5.6453   5.7044   5.7884   5.8365   5.8946   6.1149   6.1597   6.2082
     6.8931   6.9848   7.0979   7.3205   7.5507   7.6050   7.7113   7.8578
     7.8813   8.0221   8.1901   8.2374   8.2920   8.3392   8.4428   8.4565
     8.5585   8.7980   8.9364

     occupation numbers 
     1.0000   1.0000   1.0000   1.0000   1.0000   1.0000   1.0000   1.0000
     1.0000   1.0000   1.0000   1.0000   1.0000   1.0000   1.0000   1.0000
     1.0000   1.0000   1.0000   1.0000   1.0000   1.0000   1.0000   1.0000
     1.0000   1.0000   1.0000   1.0000   1.0000   1.0000   1.0000   1.0000
     1.0000   1.0000   1.0000   1.0000   1.0000   1.0000   1.0000   1.0000
     1.0000   1.0000   1.0000   1.0000   1.0000   1.0000   1.0000   1.0000
     1.0000   1.0000   1.0000   1.0000   1.0000   1.0000   1.0000   1.0000
     1.0000   1.0000   1.0000   1.0000   1.0000   1.0000   1.0000   1.0000
     1.0000   1.0000   1.0000   1.0000   1.0000   1.0000   1.0000   1.0000
     1.0000   1.0000   1.0000   1.0000   1.0000   1.0000   1.0000   1.0000
     1.0000   1.0000   1.0000   1.0000   1.0000   1.0000   1.0000   1.0000
     1.0000   1.0000   1.0000   1.0000   1.0000   1.0000   1.0000   1.0000
     1.0000   1.0000   1.0000   1.0000   1.0000   1.0000   1.0000   1.0000
     1.0000   1.0000   1.0000   1.0000   1.0000   1.0000   1.0000   1.0000
     1.0000   1.0000   1.0000   1.0000   1.0000   1.0000   1.0000   1.0000
     1.0000   1.0000   1.0000   1.0000   1.0000   1.0000   1.0000   1.0000
     1.0000   1.0000   1.0000   1.0000   1.0000   1.0000   1.0000   1.0000
     1.0000   1.0000   1.0000   1.0000   1.0000   1.0000   1.0000   1.0000
     1.0000   1.0000   1.0000   1.0000   1.0000   1.0000   1.0000   1.0000
     1.0000   1.0000   1.0000   1.0000   1.0000   1.0000   1.0000   1.0000
     0.9999   0.9999   0.9999   0.9998   0.9993   0.9990   0.9986   0.9984
     0.9979   0.9977   0.9972   0.9967   0.9965   0.9960   0.9952   0.9950
     0.9946   0.9934   0.9924   0.9911   0.9889   0.9870   0.9864   0.9847
     0.9826   0.9786   0.9765   0.9638   0.9559   0.9510   0.9474   0.9335
     0.9228   0.9165   0.9123   0.9077   0.9013   0.8986   0.8916   0.8637
     0.8512   0.8180   0.7479   0.7395   0.7371   0.7290   0.7215   0.7146
     0.7087   0.7054   0.6992   0.6924   0.6850   0.6763   0.6724   0.6666
     0.6534   0.6482   0.6431   0.6256   0.4500   0.3961   0.3696   0.3321
     0.3238   0.2126   0.1757   0.0729   0.0394   0.0191   0.0070   0.0031
     0.0003   0.0002   0.0001   0.0001   0.0001   0.0000   0.0000   0.0000
     0.0000   0.0000   0.0000   0.0000   0.0000   0.0000   0.0000   0.0000
     0.0000   0.0000   0.0000   0.0000   0.0000   0.0000   0.0000   0.0000
     0.0000   0.0000   0.0000

          k = 0.2500-0.5000 0.0000 ( 65138 PWs)   bands (ev):

   -92.7033 -92.6544 -92.5580 -92.5109 -92.4526 -92.4098 -92.3926 -92.2738
   -56.0567 -56.0410 -55.9150 -55.9040 -55.8984 -55.8908 -55.8575 -55.8270
   -55.8112 -55.8093 -55.8045 -55.7598 -55.7416 -55.7036 -55.6848 -55.6528
   -55.6463 -55.5998 -55.5982 -55.5950 -55.5866 -55.5489 -55.5228 -55.4388
   -31.2783 -31.2624 -31.1191 -31.1138 -31.0328 -30.9191 -30.8337 -30.6291
   -29.8485 -29.8078 -29.7817 -29.6734 -14.9789 -14.9355 -14.8624 -14.7524
   -14.7163 -14.6018 -14.5020 -14.3810 -14.0748 -14.0192 -13.9955 -13.9738
   -13.9669 -13.9570 -13.9444 -13.9026 -13.8813 -13.8579 -13.8220 -13.7939
   -13.7432 -13.6674 -13.6200 -13.5442 -13.5384 -13.4713 -13.4468 -13.3488
   -13.3037 -13.2094 -13.1446 -13.1259 -13.0465 -13.0252 -12.9919 -12.9756
   -12.9456 -12.9139 -12.8778 -12.8673 -12.8189 -12.7498 -12.6819 -12.6593
   -12.6566 -12.6274 -12.5715 -12.5237 -12.3732 -12.3226 -12.2515 -12.1398
   -12.1066 -11.7772 -11.7651 -11.7540 -11.7266 -11.6958 -11.6665 -11.6264
   -11.5981 -11.5766 -11.5295 -11.5046 -11.4939  -2.4499  -2.3856  -2.2573
    -2.1808  -2.0483  -1.9660  -1.8421  -1.6934  -1.6357  -1.6160  -1.5548
    -1.5416  -1.4422  -1.3775  -1.2931  -1.2414  -1.2323  -1.1707  -1.1548
    -1.1210  -1.0931  -1.0437  -1.0076  -0.9729  -0.9337  -0.9188  -0.8765
    -0.8473  -0.8033  -0.7736  -0.7064  -0.6005  -0.5652  -0.4857  -0.4197
    -0.3638  -0.3255  -0.3103  -0.2454  -0.0950  -0.0881   0.0382   0.0542
     0.0651   0.1112   0.1438   0.1802   0.2088   0.2742   0.5579   0.6492
     0.7279   0.7801   1.0423   1.0575   1.1476   1.1770   1.3384   1.3761
     1.4133   1.4359   1.4493   1.4710   1.5365   1.5876   1.6193   1.6969
     1.7888   1.8253   1.8464   1.8574   1.8912   1.9079   1.9097   1.9576
     1.9689   1.9862   2.0303   2.0395   2.0605   2.0947   2.1502   2.1945
     2.2719   2.4031   2.4150   2.4905   2.5533   2.5722   2.5908   2.6218
     2.6419   2.6706   2.6908   2.7061   2.7292   2.8244   2.8742   2.8935
     2.9021   2.9107   2.9311   2.9450   2.9641   2.9713   3.0101   3.0200
     3.0314   3.0389   3.0495   3.0582   3.5809   3.5960   3.7402   3.7923
     4.1312   4.1861   4.1894   4.3175   4.7606   4.9234   5.0595   5.1429
     5.3030   5.4335   5.6065   5.6573   5.7672   5.7911   6.3850   6.3960
     6.4859   6.7057   7.2267   7.4521   7.5473   7.7024   7.8074   7.8562
     7.8887   8.0396   8.2849   8.3772   8.4427   8.5103   8.5338   8.5624
     8.7137   8.7666   8.7840

     occupation numbers 
     1.0000   1.0000   1.0000   1.0000   1.0000   1.0000   1.0000   1.0000
     1.0000   1.0000   1.0000   1.0000   1.0000   1.0000   1.0000   1.0000
     1.0000   1.0000   1.0000   1.0000   1.0000   1.0000   1.0000   1.0000
     1.0000   1.0000   1.0000   1.0000   1.0000   1.0000   1.0000   1.0000
     1.0000   1.0000   1.0000   1.0000   1.0000   1.0000   1.0000   1.0000
     1.0000   1.0000   1.0000   1.0000   1.0000   1.0000   1.0000   1.0000
     1.0000   1.0000   1.0000   1.0000   1.0000   1.0000   1.0000   1.0000
     1.0000   1.0000   1.0000   1.0000   1.0000   1.0000   1.0000   1.0000
     1.0000   1.0000   1.0000   1.0000   1.0000   1.0000   1.0000   1.0000
     1.0000   1.0000   1.0000   1.0000   1.0000   1.0000   1.0000   1.0000
     1.0000   1.0000   1.0000   1.0000   1.0000   1.0000   1.0000   1.0000
     1.0000   1.0000   1.0000   1.0000   1.0000   1.0000   1.0000   1.0000
     1.0000   1.0000   1.0000   1.0000   1.0000   1.0000   1.0000   1.0000
     1.0000   1.0000   1.0000   1.0000   1.0000   1.0000   1.0000   1.0000
     1.0000   1.0000   1.0000   1.0000   1.0000   1.0000   1.0000   1.0000
     1.0000   1.0000   1.0000   1.0000   1.0000   1.0000   1.0000   1.0000
     1.0000   1.0000   1.0000   1.0000   1.0000   1.0000   1.0000   1.0000
     1.0000   1.0000   1.0000   1.0000   1.0000   1.0000   1.0000   1.0000
     1.0000   1.0000   1.0000   1.0000   1.0000   1.0000   1.0000   1.0000
     1.0000   1.0000   1.0000   1.0000   1.0000   1.0000   1.0000   1.0000
     0.9999   0.9999   0.9996   0.9996   0.9994   0.9993   0.9984   0.9981
     0.9977   0.9975   0.9973   0.9970   0.9960   0.9950   0.9943   0.9922
     0.9887   0.9870   0.9859   0.9853   0.9833   0.9823   0.9822   0.9788
     0.9779   0.9765   0.9727   0.9718   0.9697   0.9661   0.9594   0.9533
     0.9409   0.9143   0.9115   0.8922   0.8738   0.8679   0.8619   0.8515
     0.8445   0.8341   0.8266   0.8207   0.8115   0.7710   0.7480   0.7388
     0.7347   0.7304   0.7203   0.7134   0.7036   0.6999   0.6796   0.6743
     0.6682   0.6641   0.6584   0.6536   0.3516   0.3433   0.2684   0.2435
     0.1154   0.1003   0.0995   0.0701   0.0165   0.0088   0.0050   0.0035
     0.0017   0.0009   0.0004   0.0003   0.0001   0.0001   0.0000   0.0000
     0.0000   0.0000   0.0000   0.0000   0.0000   0.0000   0.0000   0.0000
     0.0000   0.0000   0.0000   0.0000   0.0000   0.0000   0.0000   0.0000
     0.0000   0.0000   0.0000

          k =-0.5000-0.5000 0.0000 ( 65132 PWs)   bands (ev):

   -92.7033 -92.6544 -92.5580 -92.5109 -92.4526 -92.4098 -92.3926 -92.2738
   -56.0567 -56.0410 -55.9150 -55.9040 -55.8984 -55.8908 -55.8575 -55.8269
   -55.8112 -55.8093 -55.8045 -55.7598 -55.7416 -55.7036 -55.6848 -55.6528
   -55.6463 -55.5998 -55.5982 -55.5950 -55.5866 -55.5489 -55.5228 -55.4388
   -31.2761 -31.2646 -31.1187 -31.1136 -31.0332 -30.9193 -30.8336 -30.6293
   -29.8475 -29.8089 -29.7813 -29.6738 -14.9314 -14.9081 -14.7922 -14.7755
   -14.6782 -14.6482 -14.6101 -14.4789 -13.9848 -13.9754 -13.9693 -13.9397
   -13.9213 -13.9019 -13.8765 -13.8625 -13.8494 -13.8294 -13.8280 -13.8120
   -13.7339 -13.7287 -13.6907 -13.6650 -13.6266 -13.5593 -13.5149 -13.3879
   -13.3434 -13.1606 -13.1231 -13.0515 -13.0279 -13.0086 -12.9906 -12.9862
   -12.9766 -12.9578 -12.8584 -12.8133 -12.7892 -12.7816 -12.7322 -12.7035
   -12.6103 -12.6017 -12.5761 -12.5400 -12.3349 -12.3186 -12.1999 -12.1323
   -12.1296 -11.7735 -11.7614 -11.7436 -11.7265 -11.6919 -11.6746 -11.6385
   -11.5779 -11.5587 -11.5524 -11.5026 -11.4996  -2.2239  -2.1510  -2.1428
    -2.0681  -2.0307  -1.9525  -1.8844  -1.7580  -1.6433  -1.6141  -1.5705
    -1.5169  -1.4454  -1.4290  -1.3607  -1.3174  -1.2002  -1.1699  -1.1520
    -1.1182  -1.0944  -1.0299  -0.9824  -0.9650  -0.9525  -0.8953  -0.8549
    -0.8361  -0.7245  -0.6683  -0.6204  -0.5732  -0.5427  -0.5246  -0.4947
    -0.4554  -0.4133  -0.4070  -0.3215  -0.2572  -0.2123  -0.1840  -0.1129
    -0.0508  -0.0455   0.0159   0.0510   0.0636   0.0823   0.5333   0.5690
     0.6644   0.7078   1.0672   1.0837   1.1181   1.1557   1.4261   1.4436
     1.4501   1.4942   1.6171   1.7097   1.7379   1.7740   1.8003   1.8204
     1.8290   1.8582   1.8701   1.8863   1.8952   1.9483   1.9490   1.9793
     1.9930   2.0166   2.0306   2.0675   2.0939   2.1092   2.1381   2.1738
     2.2311   2.2981   2.4080   2.4869   2.5659   2.5977   2.6195   2.6357
     2.6502   2.6776   2.6821   2.7007   2.7113   2.7279   2.7487   2.7604
     2.8258   2.8283   2.8515   2.8638   2.8780   2.8994   2.9020   2.9104
     3.0180   3.0221   3.0444   3.0566   4.0198   4.0416   4.0506   4.0770
     4.3177   4.3919   4.4162   4.6564   4.7791   4.8616   4.9911   5.0813
     5.0923   5.2064   5.2965   5.4500   5.8554   5.8880   5.9576   6.0248
     6.6592   6.7793   7.0596   7.1378   7.9090   7.9294   7.9518   7.9748
     7.9873   8.0274   8.0905   8.2657   8.4675   8.5806   8.6037   8.6218
     8.6589   8.6941   8.7426

     occupation numbers 
     1.0000   1.0000   1.0000   1.0000   1.0000   1.0000   1.0000   1.0000
     1.0000   1.0000   1.0000   1.0000   1.0000   1.0000   1.0000   1.0000
     1.0000   1.0000   1.0000   1.0000   1.0000   1.0000   1.0000   1.0000
     1.0000   1.0000   1.0000   1.0000   1.0000   1.0000   1.0000   1.0000
     1.0000   1.0000   1.0000   1.0000   1.0000   1.0000   1.0000   1.0000
     1.0000   1.0000   1.0000   1.0000   1.0000   1.0000   1.0000   1.0000
     1.0000   1.0000   1.0000   1.0000   1.0000   1.0000   1.0000   1.0000
     1.0000   1.0000   1.0000   1.0000   1.0000   1.0000   1.0000   1.0000
     1.0000   1.0000   1.0000   1.0000   1.0000   1.0000   1.0000   1.0000
     1.0000   1.0000   1.0000   1.0000   1.0000   1.0000   1.0000   1.0000
     1.0000   1.0000   1.0000   1.0000   1.0000   1.0000   1.0000   1.0000
     1.0000   1.0000   1.0000   1.0000   1.0000   1.0000   1.0000   1.0000
     1.0000   1.0000   1.0000   1.0000   1.0000   1.0000   1.0000   1.0000
     1.0000   1.0000   1.0000   1.0000   1.0000   1.0000   1.0000   1.0000
     1.0000   1.0000   1.0000   1.0000   1.0000   1.0000   1.0000   1.0000
     1.0000   1.0000   1.0000   1.0000   1.0000   1.0000   1.0000   1.0000
     1.0000   1.0000   1.0000   1.0000   1.0000   1.0000   1.0000   1.0000
     1.0000   1.0000   1.0000   1.0000   1.0000   1.0000   1.0000   1.0000
     1.0000   1.0000   1.0000   1.0000   1.0000   1.0000   1.0000   1.0000
     1.0000   1.0000   1.0000   1.0000   1.0000   1.0000   1.0000   1.0000
     1.0000   0.9999   0.9996   0.9996   0.9995   0.9994   0.9976   0.9974
     0.9973   0.9967   0.9944   0.9917   0.9908   0.9893   0.9882   0.9872
     0.9868   0.9853   0.9846   0.9836   0.9831   0.9795   0.9794   0.9771
     0.9760   0.9739   0.9726   0.9690   0.9661   0.9644   0.9609   0.9562
     0.9477   0.9362   0.9132   0.8932   0.8700   0.8597   0.8523   0.8467
     0.8416   0.8315   0.8298   0.8228   0.8186   0.8121   0.8037   0.7988
     0.7704   0.7693   0.7587   0.7530   0.7462   0.7360   0.7347   0.7306
     0.6753   0.6732   0.6612   0.6545   0.1509   0.1434   0.1404   0.1318
     0.0701   0.0564   0.0525   0.0240   0.0154   0.0112   0.0067   0.0045
     0.0043   0.0026   0.0017   0.0008   0.0001   0.0001   0.0000   0.0000
     0.0000   0.0000   0.0000   0.0000   0.0000   0.0000   0.0000   0.0000
     0.0000   0.0000   0.0000   0.0000   0.0000   0.0000   0.0000   0.0000
     0.0000   0.0000   0.0000

          k = 0.2500 0.0000 0.0000 ( 65257 PWs)   bands (ev):

   -92.7033 -92.6544 -92.5580 -92.5109 -92.4526 -92.4098 -92.3926 -92.2738
   -56.0567 -56.0410 -55.9150 -55.9040 -55.8984 -55.8908 -55.8575 -55.8270
   -55.8112 -55.8093 -55.8045 -55.7598 -55.7416 -55.7036 -55.6848 -55.6528
   -55.6463 -55.5998 -55.5982 -55.5950 -55.5866 -55.5489 -55.5228 -55.4388
   -31.2787 -31.2626 -31.1187 -31.1140 -31.0326 -30.9193 -30.8335 -30.6289
   -29.8497 -29.8085 -29.7805 -29.6727 -15.0509 -15.0041 -14.9379 -14.7916
   -14.6805 -14.4883 -14.3566 -14.1767 -14.1601 -14.1296 -14.0967 -14.0735
   -14.0382 -14.0224 -14.0013 -13.9709 -13.9493 -13.8413 -13.8088 -13.6615
   -13.5902 -13.5763 -13.5067 -13.4930 -13.4794 -13.4174 -13.3476 -13.3152
   -13.2255 -13.1620 -13.1537 -13.0811 -13.0628 -13.0447 -13.0268 -13.0077
   -12.9727 -12.9374 -12.9029 -12.8390 -12.8272 -12.8220 -12.7743 -12.7503
   -12.6920 -12.6638 -12.5703 -12.5204 -12.4540 -12.4083 -12.2511 -12.0551
   -11.9903 -11.8284 -11.7766 -11.7597 -11.7460 -11.7192 -11.6685 -11.6456
[...]
     0.3514   0.3264   0.2043   0.0788   0.0462   0.0216   0.0059   0.0048
     0.0003   0.0001   0.0000   0.0000   0.0000   0.0000   0.0000   0.0000
     0.0000   0.0000   0.0000   0.0000   0.0000   0.0000   0.0000   0.0000
     0.0000   0.0000   0.0000   0.0000   0.0000   0.0000   0.0000   0.0000
     0.0000   0.0000   0.0000

          k =-0.5000 0.0000 0.0000 ( 65180 PWs)   bands (ev):

   -92.7033 -92.6544 -92.5580 -92.5109 -92.4526 -92.4098 -92.3926 -92.2738
   -56.0567 -56.0410 -55.9150 -55.9040 -55.8984 -55.8908 -55.8575 -55.8269
   -55.8112 -55.8093 -55.8045 -55.7598 -55.7416 -55.7036 -55.6848 -55.6528
   -55.6463 -55.5998 -55.5982 -55.5950 -55.5866 -55.5489 -55.5228 -55.4388
   -31.2765 -31.2648 -31.1183 -31.1138 -31.0329 -30.9195 -30.8333 -30.6291
   -29.8487 -29.8095 -29.7801 -29.6731 -15.0166 -14.9615 -14.9014 -14.7890
   -14.6902 -14.5451 -14.3993 -14.2508 -14.1345 -14.1179 -14.1106 -14.0496
   -13.9942 -13.9701 -13.9604 -13.9098 -13.8963 -13.8821 -13.8383 -13.8114
   -13.7098 -13.5574 -13.5120 -13.4953 -13.4872 -13.4198 -13.3665 -13.3045
   -13.2702 -13.2467 -13.2216 -13.0713 -13.0566 -13.0407 -13.0169 -13.0021
   -12.9582 -12.9388 -12.9235 -12.8336 -12.8175 -12.7497 -12.6665 -12.6453
   -12.6426 -12.6338 -12.5705 -12.5433 -12.3977 -12.3290 -12.2759 -12.1494
   -12.1059 -11.7807 -11.7588 -11.7523 -11.7378 -11.7197 -11.6786 -11.6151
   -11.5974 -11.5646 -11.5194 -11.5107 -11.4950  -2.5826  -2.5444  -2.3811
    -2.3420  -2.0273  -1.9507  -1.8056  -1.6876  -1.6479  -1.6003  -1.5547
    -1.5306  -1.4067  -1.3632  -1.3457  -1.2650  -1.2299  -1.2180  -1.1845
    -1.1427  -1.1230  -1.0552  -1.0277  -0.9931  -0.9017  -0.8558  -0.8057
    -0.7743  -0.7532  -0.7194  -0.6742  -0.6493  -0.6106  -0.5037  -0.4400
    -0.3638  -0.3037  -0.1498  -0.1023  -0.0586  -0.0035   0.0378   0.0576
     0.1962   0.2275   0.2828   0.4377   0.5373   0.5860   0.6856   0.7378
     0.8624   0.8790   1.0025   1.0300   1.0854   1.1253   1.1524   1.1613
     1.2095   1.2324   1.2990   1.3490   1.3971   1.4078   1.7024   1.7131
     1.7302   1.7603   1.8556   1.8702   1.8851   1.8921   1.9273   1.9356
     1.9739   1.9973   2.0193   2.0755   2.0918   2.1465   2.1667   2.2222
     2.3466   2.4064   2.4289   2.4915   2.5001   2.5145   2.6013   2.6242
     2.6574   2.7230   2.7320   2.7393   2.7708   2.8354   2.8794   2.9343
     2.9522   2.9987   3.0029   3.0066   3.0149   3.0318   3.0427   3.0554
     3.0615   3.0813   3.0865   3.1068   3.1270   3.1318   3.2601   3.2670
     4.0790   4.1284   4.1889   4.3147   4.7893   4.8620   5.0433   5.0613
     5.4834   5.5104   5.6055   5.6527   6.0317   6.0524   6.3815   6.4486
     6.7961   6.9985   7.2684   7.2860   7.3541   7.4394   7.7745   7.8730
     7.8856   8.0315   8.1870   8.2660   8.2933   8.4945   8.5250   8.6391
     8.7614   8.8319   8.9264

     occupation numbers 
     1.0000   1.0000   1.0000   1.0000   1.0000   1.0000   1.0000   1.0000
     1.0000   1.0000   1.0000   1.0000   1.0000   1.0000   1.0000   1.0000
     1.0000   1.0000   1.0000   1.0000   1.0000   1.0000   1.0000   1.0000
     1.0000   1.0000   1.0000   1.0000   1.0000   1.0000   1.0000   1.0000
     1.0000   1.0000   1.0000   1.0000   1.0000   1.0000   1.0000   1.0000
     1.0000   1.0000   1.0000   1.0000   1.0000   1.0000   1.0000   1.0000
     1.0000   1.0000   1.0000   1.0000   1.0000   1.0000   1.0000   1.0000
     1.0000   1.0000   1.0000   1.0000   1.0000   1.0000   1.0000   1.0000
     1.0000   1.0000   1.0000   1.0000   1.0000   1.0000   1.0000   1.0000
     1.0000   1.0000   1.0000   1.0000   1.0000   1.0000   1.0000   1.0000
     1.0000   1.0000   1.0000   1.0000   1.0000   1.0000   1.0000   1.0000
     1.0000   1.0000   1.0000   1.0000   1.0000   1.0000   1.0000   1.0000
     1.0000   1.0000   1.0000   1.0000   1.0000   1.0000   1.0000   1.0000
     1.0000   1.0000   1.0000   1.0000   1.0000   1.0000   1.0000   1.0000
     1.0000   1.0000   1.0000   1.0000   1.0000   1.0000   1.0000   1.0000
     1.0000   1.0000   1.0000   1.0000   1.0000   1.0000   1.0000   1.0000
     1.0000   1.0000   1.0000   1.0000   1.0000   1.0000   1.0000   1.0000
     1.0000   1.0000   1.0000   1.0000   1.0000   1.0000   1.0000   1.0000
     1.0000   1.0000   1.0000   1.0000   1.0000   1.0000   1.0000   1.0000
     1.0000   1.0000   1.0000   1.0000   1.0000   1.0000   1.0000   0.9999
     0.9999   0.9999   0.9997   0.9997   0.9996   0.9995   0.9994   0.9993
     0.9992   0.9991   0.9987   0.9983   0.9979   0.9978   0.9920   0.9916
     0.9910   0.9899   0.9854   0.9846   0.9837   0.9833   0.9810   0.9804
     0.9775   0.9756   0.9737   0.9682   0.9664   0.9598   0.9572   0.9491
     0.9267   0.9136   0.9082   0.8919   0.8895   0.8854   0.8585   0.8507
     0.8390   0.8140   0.8104   0.8075   0.7944   0.7661   0.7456   0.7187
     0.7097   0.6856   0.6834   0.6814   0.6770   0.6680   0.6621   0.6552
     0.6518   0.6409   0.6380   0.6266   0.6152   0.6125   0.5380   0.5339
     0.1312   0.1162   0.0996   0.0707   0.0148   0.0112   0.0053   0.0050
     0.0007   0.0006   0.0004   0.0003   0.0000   0.0000   0.0000   0.0000
     0.0000   0.0000   0.0000   0.0000   0.0000   0.0000   0.0000   0.0000
     0.0000   0.0000   0.0000   0.0000   0.0000   0.0000   0.0000   0.0000
     0.0000   0.0000   0.0000

          k =-0.2500 0.2500 0.0000 ( 65198 PWs)   bands (ev):

   -92.7033 -92.6544 -92.5580 -92.5109 -92.4526 -92.4098 -92.3926 -92.2738
   -56.0567 -56.0410 -55.9150 -55.9040 -55.8984 -55.8908 -55.8575 -55.8270
   -55.8112 -55.8093 -55.8045 -55.7598 -55.7416 -55.7036 -55.6848 -55.6528
   -55.6463 -55.5998 -55.5982 -55.5950 -55.5866 -55.5489 -55.5228 -55.4388
   -31.2785 -31.2625 -31.1189 -31.1139 -31.0327 -30.9192 -30.8336 -30.6290
   -29.8491 -29.8081 -29.7811 -29.6730 -15.0194 -14.9728 -14.9030 -14.7866
   -14.6703 -14.5465 -14.4630 -14.2533 -14.1166 -14.0885 -14.0732 -14.0260
   -14.0018 -13.9790 -13.9699 -13.9535 -13.9164 -13.8359 -13.8248 -13.6745
   -13.6465 -13.6152 -13.5967 -13.5282 -13.4989 -13.4379 -13.4300 -13.3039
   -13.2466 -13.2237 -13.1495 -13.1073 -13.0478 -13.0374 -13.0052 -12.9855
   -12.9478 -12.9291 -12.8929 -12.8515 -12.8160 -12.7737 -12.7485 -12.7333
   -12.6946 -12.6167 -12.5710 -12.4445 -12.4414 -12.3835 -12.2849 -12.0903
   -12.0309 -11.8006 -11.7793 -11.7519 -11.7398 -11.6990 -11.6639 -11.6414
   -11.6193 -11.5970 -11.5114 -11.4668 -11.4574  -2.6673  -2.4600  -2.3390
    -2.2487  -2.1321  -2.0662  -1.8608  -1.7176  -1.6996  -1.6669  -1.5777
    -1.5416  -1.4487  -1.4144  -1.3881  -1.2476  -1.1903  -1.1538  -1.1185
    -1.0907  -1.0307  -1.0122  -0.9716  -0.9433  -0.9028  -0.8399  -0.7912
    -0.7252  -0.6588  -0.6348  -0.5839  -0.5556  -0.5089  -0.4505  -0.3969
    -0.3642  -0.2589  -0.2324  -0.2139  -0.1720  -0.1110  -0.0390   0.0043
     0.0443   0.1114   0.1485   0.3904   0.5640   0.5988   0.6408   0.6995
     0.7620   0.8156   0.8736   0.9036   1.1857   1.2903   1.3307   1.3643
     1.3732   1.4125   1.4274   1.4735   1.5043   1.5176   1.5431   1.5905
     1.6069   1.6474   1.6717   1.7140   1.7973   1.8145   1.8376   1.8728
     1.8995   1.9422   1.9929   2.1014   2.2077   2.2335   2.2836   2.3072
     2.3641   2.4044   2.4118   2.4340   2.4560   2.4765   2.4943   2.5847
     2.6213   2.7127   2.8822   2.8891   2.9035   2.9126   2.9242   2.9377
     2.9452   2.9636   2.9727   2.9856   2.9961   3.0074   3.0173   3.0265
     3.0595   3.0689   3.0766   3.1105   3.4023   3.4837   3.5506   3.6227
     3.6393   3.8461   3.9603   4.3030   4.5053   4.7207   4.9903   5.1666
     5.6469   5.7020   5.7919   5.8317   5.8952   6.1174   6.1688   6.1977
     6.8869   6.9843   7.1157   7.3012   7.5649   7.6124   7.6723   7.8621
     7.9167   8.0031   8.1845   8.2207   8.3325   8.3497   8.4337   8.4519
     8.5660   8.7817   8.9481

     occupation numbers 
     1.0000   1.0000   1.0000   1.0000   1.0000   1.0000   1.0000   1.0000
     1.0000   1.0000   1.0000   1.0000   1.0000   1.0000   1.0000   1.0000
     1.0000   1.0000   1.0000   1.0000   1.0000   1.0000   1.0000   1.0000
     1.0000   1.0000   1.0000   1.0000   1.0000   1.0000   1.0000   1.0000
     1.0000   1.0000   1.0000   1.0000   1.0000   1.0000   1.0000   1.0000
     1.0000   1.0000   1.0000   1.0000   1.0000   1.0000   1.0000   1.0000
     1.0000   1.0000   1.0000   1.0000   1.0000   1.0000   1.0000   1.0000
     1.0000   1.0000   1.0000   1.0000   1.0000   1.0000   1.0000   1.0000
     1.0000   1.0000   1.0000   1.0000   1.0000   1.0000   1.0000   1.0000
     1.0000   1.0000   1.0000   1.0000   1.0000   1.0000   1.0000   1.0000
     1.0000   1.0000   1.0000   1.0000   1.0000   1.0000   1.0000   1.0000
     1.0000   1.0000   1.0000   1.0000   1.0000   1.0000   1.0000   1.0000
     1.0000   1.0000   1.0000   1.0000   1.0000   1.0000   1.0000   1.0000
     1.0000   1.0000   1.0000   1.0000   1.0000   1.0000   1.0000   1.0000
     1.0000   1.0000   1.0000   1.0000   1.0000   1.0000   1.0000   1.0000
     1.0000   1.0000   1.0000   1.0000   1.0000   1.0000   1.0000   1.0000
     1.0000   1.0000   1.0000   1.0000   1.0000   1.0000   1.0000   1.0000
     1.0000   1.0000   1.0000   1.0000   1.0000   1.0000   1.0000   1.0000
     1.0000   1.0000   1.0000   1.0000   1.0000   1.0000   1.0000   1.0000
     1.0000   1.0000   1.0000   1.0000   1.0000   1.0000   1.0000   1.0000
     0.9999   0.9999   0.9999   0.9998   0.9993   0.9987   0.9985   0.9982
     0.9981   0.9977   0.9976   0.9970   0.9966   0.9963   0.9959   0.9950
     0.9946   0.9936   0.9929   0.9916   0.9883   0.9875   0.9864   0.9844
     0.9828   0.9799   0.9760   0.9653   0.9513   0.9473   0.9389   0.9345
     0.9230   0.9140   0.9123   0.9069   0.9014   0.8960   0.8911   0.8639
     0.8517   0.8181   0.7443   0.7409   0.7339   0.7295   0.7238   0.7170
     0.7132   0.7039   0.6992   0.6925   0.6870   0.6810   0.6758   0.6708
     0.6529   0.6477   0.6435   0.6245   0.4539   0.4064   0.3684   0.3289
     0.3200   0.2192   0.1725   0.0731   0.0397   0.0191   0.0067   0.0031
     0.0003   0.0002   0.0001   0.0001   0.0001   0.0000   0.0000   0.0000
     0.0000   0.0000   0.0000   0.0000   0.0000   0.0000   0.0000   0.0000
     0.0000   0.0000   0.0000   0.0000   0.0000   0.0000   0.0000   0.0000
     0.0000   0.0000   0.0000

          k =-0.5000 0.2500 0.0000 ( 65138 PWs)   bands (ev):

   -92.7033 -92.6544 -92.5580 -92.5109 -92.4526 -92.4098 -92.3926 -92.2738
   -56.0567 -56.0410 -55.9150 -55.9040 -55.8984 -55.8908 -55.8575 -55.8269
   -55.8112 -55.8093 -55.8045 -55.7598 -55.7416 -55.7036 -55.6848 -55.6528
   -55.6463 -55.5998 -55.5982 -55.5950 -55.5866 -55.5489 -55.5228 -55.4388
   -31.2763 -31.2647 -31.1185 -31.1137 -31.0331 -30.9194 -30.8334 -30.6292
   -29.8481 -29.8092 -29.7807 -29.6735 -14.9833 -14.9354 -14.8583 -14.7573
   -14.7165 -14.5927 -14.5031 -14.3707 -14.0668 -14.0367 -14.0249 -13.9802
   -13.9699 -13.9565 -13.9326 -13.8963 -13.8808 -13.8623 -13.8247 -13.8114
   -13.7036 -13.6395 -13.5903 -13.5827 -13.5543 -13.4724 -13.4668 -13.3432
   -13.2878 -13.2028 -13.1671 -13.0726 -13.0380 -13.0240 -13.0171 -12.9825
   -12.9500 -12.9406 -12.9020 -12.8316 -12.8084 -12.7530 -12.7024 -12.6749
   -12.6252 -12.6180 -12.5724 -12.5414 -12.3642 -12.3243 -12.2391 -12.1426
   -12.1137 -11.7733 -11.7606 -11.7467 -11.7345 -11.7133 -11.6834 -11.6020
   -11.5934 -11.5705 -11.5338 -11.5065 -11.4974  -2.4399  -2.3984  -2.2507
    -2.2086  -2.0469  -1.9693  -1.8297  -1.6934  -1.6355  -1.6087  -1.5708
    -1.5332  -1.4518  -1.3365  -1.2793  -1.2567  -1.2300  -1.1690  -1.1365
    -1.1229  -1.0857  -1.0693  -1.0085  -0.9762  -0.9406  -0.9057  -0.8769
    -0.8181  -0.7908  -0.7495  -0.7136  -0.6086  -0.5842  -0.4848  -0.4331
    -0.3982  -0.3345  -0.2602  -0.2274  -0.1235  -0.0899  -0.0246   0.0188
     0.0650   0.1192   0.1513   0.1867   0.2308   0.2696   0.5948   0.6443
     0.7117   0.7485   1.0144   1.0842   1.1503   1.1798   1.3531   1.3868
     1.4248   1.4351   1.4533   1.4711   1.5403   1.5877   1.6259   1.6624
     1.7725   1.8160   1.8461   1.8599   1.8921   1.9185   1.9363   1.9502
     1.9666   1.9897   2.0339   2.0500   2.0875   2.1143   2.1438   2.2016
     2.3320   2.4032   2.4214   2.4484   2.4882   2.5134   2.5515   2.6173
     2.6527   2.6583   2.6989   2.7295   2.7531   2.8351   2.8776   2.8918
     2.8970   2.9182   2.9391   2.9514   2.9666   2.9798   3.0028   3.0168
     3.0244   3.0330   3.0425   3.0559   3.5861   3.6207   3.7739   3.7927
     4.0853   4.1442   4.1997   4.4006   4.7837   4.8798   5.0467   5.0791
     5.4114   5.4314   5.5895   5.6301   5.7442   5.8070   6.3927   6.4757
     6.4941   6.5713   7.2989   7.4018   7.5876   7.7148   7.7904   7.8474
     7.8944   8.0259   8.2788   8.4221   8.4660   8.5146   8.5479   8.5821
     8.6664   8.7551   8.8297

     occupation numbers 
     1.0000   1.0000   1.0000   1.0000   1.0000   1.0000   1.0000   1.0000
     1.0000   1.0000   1.0000   1.0000   1.0000   1.0000   1.0000   1.0000
     1.0000   1.0000   1.0000   1.0000   1.0000   1.0000   1.0000   1.0000
     1.0000   1.0000   1.0000   1.0000   1.0000   1.0000   1.0000   1.0000
     1.0000   1.0000   1.0000   1.0000   1.0000   1.0000   1.0000   1.0000
     1.0000   1.0000   1.0000   1.0000   1.0000   1.0000   1.0000   1.0000
     1.0000   1.0000   1.0000   1.0000   1.0000   1.0000   1.0000   1.0000
     1.0000   1.0000   1.0000   1.0000   1.0000   1.0000   1.0000   1.0000
     1.0000   1.0000   1.0000   1.0000   1.0000   1.0000   1.0000   1.0000
     1.0000   1.0000   1.0000   1.0000   1.0000   1.0000   1.0000   1.0000
     1.0000   1.0000   1.0000   1.0000   1.0000   1.0000   1.0000   1.0000
     1.0000   1.0000   1.0000   1.0000   1.0000   1.0000   1.0000   1.0000
     1.0000   1.0000   1.0000   1.0000   1.0000   1.0000   1.0000   1.0000
     1.0000   1.0000   1.0000   1.0000   1.0000   1.0000   1.0000   1.0000
     1.0000   1.0000   1.0000   1.0000   1.0000   1.0000   1.0000   1.0000
     1.0000   1.0000   1.0000   1.0000   1.0000   1.0000   1.0000   1.0000
     1.0000   1.0000   1.0000   1.0000   1.0000   1.0000   1.0000   1.0000
     1.0000   1.0000   1.0000   1.0000   1.0000   1.0000   1.0000   1.0000
     1.0000   1.0000   1.0000   1.0000   1.0000   1.0000   1.0000   1.0000
     1.0000   1.0000   1.0000   1.0000   1.0000   1.0000   1.0000   1.0000
     0.9999   0.9999   0.9997   0.9996   0.9994   0.9993   0.9983   0.9980
     0.9976   0.9975   0.9973   0.9970   0.9960   0.9950   0.9942   0.9932
     0.9894   0.9874   0.9859   0.9852   0.9833   0.9816   0.9803   0.9793
     0.9781   0.9762   0.9723   0.9708   0.9669   0.9638   0.9602   0.9523
     0.9297   0.9143   0.9100   0.9033   0.8928   0.8857   0.8744   0.8531
     0.8407   0.8386   0.8235   0.8114   0.8018   0.7662   0.7464   0.7396
     0.7371   0.7268   0.7163   0.7101   0.7023   0.6955   0.6834   0.6760
     0.6720   0.6673   0.6622   0.6549   0.3487   0.3299   0.2522   0.2433
     0.1292   0.1117   0.0968   0.0550   0.0151   0.0105   0.0053   0.0046
     0.0010   0.0009   0.0004   0.0003   0.0002   0.0001   0.0000   0.0000
     0.0000   0.0000   0.0000   0.0000   0.0000   0.0000   0.0000   0.0000
     0.0000   0.0000   0.0000   0.0000   0.0000   0.0000   0.0000   0.0000
     0.0000   0.0000   0.0000

     the Fermi energy is     3.3243 ev

!    total energy              =   -4441.66449487 Ry
     estimated scf accuracy    <          5.6E-09 Ry
     smearing contrib. (-TS)   =      -1.15490652 Ry
     internal energy E=F+TS    =   -4440.50958836 Ry

     The total energy is F=E-TS. E is the sum of the following terms:
     one-electron contribution =  -20803.71193823 Ry
     hartree contribution      =   10533.80722165 Ry
     xc contribution           =    -694.18328807 Ry
     ewald contribution        =    6799.74777378 Ry
     one-center paw contrib.   =    -276.16935748 Ry
      -> PAW hartree energy AE =      25.16719828 Ry
      -> PAW hartree energy PS =     -25.05104359 Ry
      -> PAW xc energy AE      =     -16.51813089 Ry
      -> PAW xc energy PS      =       6.87761423 Ry
      -> total E_H with PAW    =   10533.92337634 Ry
      -> total E_XC with PAW   =    -703.82380473 Ry

     convergence has been achieved in  47 iterations

     Writing all to output data dir /bsuhome/zayahcortright/scratch/pwscf.save/
 
     init_run     :      7.52s CPU      8.41s WALL (       1 calls)
     electrons    :    784.05s CPU    862.96s WALL (       1 calls)

     Called by init_run:
     wfcinit      :      6.04s CPU      6.25s WALL (       1 calls)
     wfcinit:atom :      0.05s CPU      0.07s WALL (       5 calls)
     wfcinit:wfcr :      5.73s CPU      5.85s WALL (       5 calls)
     potinit      :      0.16s CPU      0.19s WALL (       1 calls)
     hinit0       :      0.40s CPU      0.78s WALL (       1 calls)

     Called by electrons:
     c_bands      :    635.10s CPU    646.68s WALL (      47 calls)
     sum_band     :    111.75s CPU    149.08s WALL (      47 calls)
     v_of_rho     :      5.17s CPU      5.51s WALL (      48 calls)
     v_h          :      0.42s CPU      0.42s WALL (      48 calls)
     v_xc         :      4.76s CPU      5.09s WALL (      48 calls)
     newd         :     17.81s CPU     47.04s WALL (      48 calls)
     PAW_pot      :      1.62s CPU      1.66s WALL (      48 calls)
     mix_rho      :     12.28s CPU     12.67s WALL (      47 calls)

     Called by c_bands:
     init_us_2    :      6.38s CPU      6.48s WALL (     475 calls)
     init_us_2:cp :      6.38s CPU      6.48s WALL (     475 calls)
     cegterg      :    595.95s CPU    607.02s WALL (     235 calls)

     Called by sum_band:
     sum_band:wei :      0.35s CPU      0.36s WALL (      47 calls)
     sum_band:loo :     87.97s CPU     88.81s WALL (      47 calls)
     sum_band:buf :      1.25s CPU      1.31s WALL (     235 calls)
     sum_band:ini :      2.75s CPU      2.76s WALL (     235 calls)
     sum_band:cal :     18.04s CPU     18.12s WALL (     235 calls)
     sum_band:bec :      0.55s CPU      0.57s WALL (     235 calls)
     addusdens    :     17.45s CPU     53.85s WALL (      47 calls)
                                        0.00s GPU  (      47 calls)
     addusd:skk   :      0.28s CPU      2.18s WALL (     188 calls)
                                        0.00s GPU  (     188 calls)

     Called by *egterg:
     cdiaghg      :     57.74s CPU     58.01s WALL (    1265 calls)
     cegterg:over :     43.06s CPU     43.25s WALL (    1030 calls)
     cegterg:upda :     47.89s CPU     48.75s WALL (    1030 calls)
     cegterg:last :     65.81s CPU     66.07s WALL (     426 calls)
     cdiaghg:chol :      3.28s CPU      3.30s WALL (    1265 calls)
     cdiaghg:inve :      3.66s CPU      3.68s WALL (    1265 calls)
     cdiaghg:para :      7.62s CPU      7.67s WALL (    2530 calls)
     h_psi        :    313.32s CPU    317.98s WALL (    1270 calls)
     s_psi        :     42.53s CPU     42.65s WALL (    1270 calls)
     g_psi        :      2.18s CPU      2.20s WALL (    1030 calls)

     Called by h_psi:
     h_psi:calbec :     43.97s CPU     44.19s WALL (    1270 calls)
     vloc_psi     :    222.39s CPU    224.52s WALL (    1270 calls)
     add_vuspsi   :     41.88s CPU     42.11s WALL (    1270 calls)

     General routines
     calbec       :     62.00s CPU     62.30s WALL (    1505 calls)
     fft          :      4.69s CPU      4.75s WALL (     622 calls)
     ffts         :      4.58s CPU      4.64s WALL (    5045 calls)
     fftw         :    177.94s CPU    179.39s WALL (  319237 calls)
     interpolate  :      0.39s CPU      0.41s WALL (      48 calls)
 
     Parallel routines

     PAW routines
     PAW_pot      :      1.62s CPU      1.66s WALL (      48 calls)
 
     PWSCF        :  13m13.18s CPU  14m35.87s WALL

 
   This run was terminated on:   4:31:34  22Jun2024            

=------------------------------------------------------------------------------=
   JOB DONE.
=------------------------------------------------------------------------------=
