
     Program PWSCF v.7.2 starts on 20Jun2024 at 16:24:31 

     This program is part of the open-source Quantum ESPRESSO suite
     for quantum simulation of materials; please cite
         "P. Giannozzi et al., J. Phys.:Condens. Matter 21 395502 (2009);
         "P. Giannozzi et al., J. Phys.:Condens. Matter 29 465901 (2017);
         "P. Giannozzi et al., J. Chem. Phys. 152 154105 (2020);
          URL http://www.quantum-espresso.org", 
     in publications or presentations arising from this work. More details at
     http://www.quantum-espresso.org/quote

     Parallel version (MPI & OpenMP), running on      48 processor cores
     Number of MPI processes:                48
     Threads/MPI process:                     1

     MPI processes distributed on     1 nodes
     41864 MiB available memory on the printing compute node when the environment starts
 
     Reading input from espresso.pwi
Warning: card &CELL ignored
Warning: card / ignored
Warning: card &FCP ignored
Warning: card / ignored
Warning: card &RISM ignored
Warning: card / ignored

     Current dimensions of program PWSCF are:
     Max number of different atomic species (ntypx) = 10
     Max number of k-points (npk) =  40000
     Max angular momentum in pseudopotentials (lmaxx) =  4
     file O.pbe-n-kjpaw_psl.0.1.UPF: wavefunction(s)  2P renormalized
     signal trapping enabled: kill the code with -SIGUSR1 to stop cleanly the simulation 
 
     K-points division:     npool     =       2
     R & G space division:  proc/nbgrp/npool/nimage =      24
     Subspace diagonalization in iterative solution of the eigenvalue problem:
     one sub-group per band group will be used
     scalapack distributed-memory algorithm (size of sub-group:  3*  3 procs)

 
     Parallelization info
     --------------------
     sticks:   dense  smooth     PW     G-vecs:    dense   smooth      PW
     Min         350     175     47                61430    21716    3036
     Max         351     177     48                61449    21727    3041
     Sum        8421    4205   1137              1474595   521381   72913
 
     Using Slab Decomposition
 


     bravais-lattice index     =            0
     lattice parameter (alat)  =      14.8599  a.u.
     unit-cell volume          =    8305.1283 (a.u.)^3
     number of atoms/cell      =           51
     number of atomic types    =            4
     number of electrons       =       437.00
     number of Kohn-Sham states=          263
     kinetic-energy cutoff     =      60.0000  Ry
     charge density cutoff     =     480.0000  Ry
     scf convergence threshold =      1.0E-08
     mixing beta               =       0.1500
     number of iterations used =            8  local-TF  mixing
     Exchange-correlation= PBE
                           (   1   4   3   4   0   0   0)

     celldm(1)=  14.859904  celldm(2)=   0.000000  celldm(3)=   0.000000
     celldm(4)=   0.000000  celldm(5)=   0.000000  celldm(6)=   0.000000

     crystal axes: (cart. coord. in units of alat)
               a(1) = (   1.000000   0.000000   0.000000 )  
               a(2) = (   0.000000   1.000000   0.000000 )  
               a(3) = (   0.000000   0.000000   2.531036 )  

     reciprocal axes: (cart. coord. in units 2 pi/alat)
               b(1) = (  1.000000  0.000000  0.000000 )  
               b(2) = (  0.000000  1.000000  0.000000 )  
               b(3) = (  0.000000  0.000000  0.395095 )  


     PseudoPot. # 1 for Sr read from file:
     /bsuhome/zayahcortright/q-e/pseudo/Sr_pbe_v1.uspp.F.UPF
     MD5 check sum: 6b418c05fbe9db5448babca5e47b7a5b
     Pseudo is Ultrasoft + core correction, Zval = 10.0
     Generated by new atomic code, or converted to UPF format
     Using radial grid of  883 points,  6 beta functions with: 
                l(1) =   0
                l(2) =   0
                l(3) =   1
                l(4) =   1
                l(5) =   2
                l(6) =   2
     Q(r) pseudized with  6 coefficients,  rinner =    1.400   1.400   1.400
                                                       1.400   1.400

     PseudoPot. # 2 for O  read from file:
     /bsuhome/zayahcortright/q-e/pseudo/O.pbe-n-kjpaw_psl.0.1.UPF
     MD5 check sum: 0234752ac141de4415c5fc33072bef88
     Pseudo is Projector augmented-wave + core cor, Zval =  6.0
     Generated using "atomic" code by A. Dal Corso  v.5.0.99 svn rev. 10869
     Shape of augmentation charge: BESSEL
     Using radial grid of 1095 points,  4 beta functions with: 
                l(1) =   0
                l(2) =   0
                l(3) =   1
                l(4) =   1
     Q(r) pseudized with 0 coefficients 


     PseudoPot. # 3 for Co read from file:
     /bsuhome/zayahcortright/q-e/pseudo/Co_pbe_v1.2.uspp.F.UPF
     MD5 check sum: 5f91765df6ddd3222702df6e7b74a16d
     Pseudo is Ultrasoft + core correction, Zval = 17.0
     Generated by new atomic code, or converted to UPF format
     Using radial grid of  863 points,  6 beta functions with: 
                l(1) =   0
                l(2) =   0
                l(3) =   1
                l(4) =   1
                l(5) =   2
                l(6) =   2
     Q(r) pseudized with  8 coefficients,  rinner =    1.200   1.200   1.200
                                                       1.200   1.200

     PseudoPot. # 4 for H  read from file:
     /bsuhome/zayahcortright/q-e/pseudo/H.pbe-rrkjus_psl.1.0.0.UPF
     MD5 check sum: f52b6d4d1c606e5624b1dc7b2218f220
     Pseudo is Ultrasoft, Zval =  1.0
     Generated using "atomic" code by A. Dal Corso  v.5.1
     Using radial grid of  929 points,  2 beta functions with: 
                l(1) =   0
                l(2) =   0
     Q(r) pseudized with 0 coefficients 


     atomic species   valence    mass     pseudopotential
        Sr            10.00    87.62000     Sr( 1.00)
        O              6.00    15.99900     O ( 1.00)
        Co            17.00    58.93319     Co( 1.00)
        H              1.00     1.00800     H ( 1.00)

     No symmetry found


                                    s                        frac. trans.

      isym =  1     identity                                     

 cryst.   s( 1) = (     1          0          0      )
                  (     0          1          0      )
                  (     0          0          1      )

 cart.    s( 1) = (  1.0000000  0.0000000  0.0000000 )
                  (  0.0000000  1.0000000  0.0000000 )
                  (  0.0000000  0.0000000  1.0000000 )


   Cartesian axes

     site n.     atom                  positions (alat units)
         1           Sr  tau(   1) = (   0.2508693   0.7491307   1.7574407  )
         2           O   tau(   2) = (   0.4985141   0.5014859   1.7715967  )
         3           Sr  tau(   3) = (   0.7482398   0.7454518   1.7648669  )
         4           Sr  tau(   4) = (   0.7441748   0.2558252   1.7667843  )
         5           Sr  tau(   5) = (   0.2508693   0.7491307   1.2696799  )
         6           Sr  tau(   6) = (   0.2508693   0.7491307   0.7632319  )
         7           Co  tau(   7) = (   0.4998914   0.5001086   1.0164559  )
         8           Co  tau(   8) = (   0.4936915   0.5063085   1.5135603  )
         9           O   tau(   9) = (   0.4988895   0.7610401   1.0164559  )
        10           O   tau(  10) = (   0.2389599   0.5011105   1.0164559  )
        11           O   tau(  11) = (   0.0070918   0.7374880   1.0164559  )
        12           O   tau(  12) = (   0.0088340   0.7405089   1.5135603  )
        13           O   tau(  13) = (   0.5066944   0.7415376   1.5135603  )
        14           O   tau(  14) = (   0.2584624   0.4933056   1.5135603  )
        15           O   tau(  15) = (   0.4985141   0.5014859   0.7773880  )
        16           O   tau(  16) = (   0.4985141   0.5014859   1.2555238  )
        17           Sr  tau(  17) = (   0.7482398   0.7454518   0.7706582  )
        18           Sr  tau(  18) = (   0.7482398   0.7454518   1.2622536  )
        19           Sr  tau(  19) = (   0.7441748   0.2558252   0.7725755  )
        20           Sr  tau(  20) = (   0.7441748   0.2558252   1.2603363  )
        21           O   tau(  21) = (   0.7322655   0.0078049   1.5135603  )
        22           O   tau(  22) = (   0.7558175   0.4996027   1.5135603  )
        23           O   tau(  23) = (   0.5003973   0.2441825   1.5135603  )
        24           O   tau(  24) = (   0.7527966   0.4978604   1.0164559  )
        25           O   tau(  25) = (   0.5021396   0.2472034   1.0164559  )
        26           O   tau(  26) = (   0.7517679   0.0000000   1.0164559  )
        27           O   tau(  27) = (   0.0114961   0.4948124   1.7455321  )
        28           O   tau(  28) = (   0.0048226   0.0077944   1.7715967  )
        29           Sr  tau(  29) = (   0.2545482   0.2517602   1.7648669  )
        30           O   tau(  30) = (   0.5048017   0.0015068   1.7786929  )
        31           Co  tau(  31) = (   0.0056869   0.5006215   1.0164559  )
        32           Co  tau(  32) = (   0.0065315   0.4997770   1.5135603  )
        33           Co  tau(  33) = (   0.0061999   0.0064171   1.0164559  )
        34           Co  tau(  34) = (   0.0000000   0.0126169   1.5135603  )
        35           O   tau(  35) = (   0.0114961   0.4948124   1.2815885  )
        36           O   tau(  36) = (   0.0114961   0.4948124   0.7513233  )
        37           O   tau(  37) = (   0.0051979   0.2673486   1.0164559  )
        38           O   tau(  38) = (   0.0130029   0.2478461   1.5135603  )
        39           O   tau(  39) = (   0.0048226   0.0077944   0.7773880  )
        40           O   tau(  40) = (   0.0048226   0.0077944   1.2555238  )
        41           Sr  tau(  41) = (   0.2545482   0.2517602   0.7706582  )
        42           Sr  tau(  42) = (   0.2545482   0.2517602   1.2622536  )
        43           Co  tau(  43) = (   0.4989925   0.0073160   1.5135603  )
        44           Co  tau(  44) = (   0.4998370   0.0064714   1.0164559  )
        45           O   tau(  45) = (   0.5048017   0.0015068   0.7844841  )
        46           O   tau(  46) = (   0.5048017   0.0015068   1.2484277  )
        47           O   tau(  47) = (   0.2621260   0.0059111   1.5135603  )
        48           O   tau(  48) = (   0.2591051   0.0041689   1.0164559  )
        49           O   tau(  49) = (   0.7108228   0.5686583   2.1602013  )
        50           O   tau(  50) = (   0.7108228   0.5686583   2.3186489  )
        51           H   tau(  51) = (   0.7108228   0.5686583   2.4431567  )

   Crystallographic axes

     site n.     atom                  positions (cryst. coord.)
         1           Sr  tau(   1) = (  0.2508693  0.7491307  0.6943562  )
         2           O   tau(   2) = (  0.4985141  0.5014859  0.6999492  )
         3           Sr  tau(   3) = (  0.7482398  0.7454518  0.6972903  )
         4           Sr  tau(   4) = (  0.7441748  0.2558252  0.6980478  )
         5           Sr  tau(   5) = (  0.2508693  0.7491307  0.5016443  )
         6           Sr  tau(   6) = (  0.2508693  0.7491307  0.3015492  )
         7           Co  tau(   7) = (  0.4998914  0.5001086  0.4015968  )
         8           Co  tau(   8) = (  0.4936915  0.5063085  0.5980003  )
         9           O   tau(   9) = (  0.4988895  0.7610401  0.4015968  )
        10           O   tau(  10) = (  0.2389599  0.5011105  0.4015968  )
        11           O   tau(  11) = (  0.0070918  0.7374880  0.4015968  )
        12           O   tau(  12) = (  0.0088340  0.7405089  0.5980003  )
        13           O   tau(  13) = (  0.5066944  0.7415376  0.5980003  )
        14           O   tau(  14) = (  0.2584624  0.4933056  0.5980003  )
        15           O   tau(  15) = (  0.4985141  0.5014859  0.3071422  )
        16           O   tau(  16) = (  0.4985141  0.5014859  0.4960513  )
        17           Sr  tau(  17) = (  0.7482398  0.7454518  0.3044833  )
        18           Sr  tau(  18) = (  0.7482398  0.7454518  0.4987103  )
        19           Sr  tau(  19) = (  0.7441748  0.2558252  0.3052408  )
        20           Sr  tau(  20) = (  0.7441748  0.2558252  0.4979527  )
        21           O   tau(  21) = (  0.7322655  0.0078049  0.5980003  )
        22           O   tau(  22) = (  0.7558175  0.4996027  0.5980003  )
        23           O   tau(  23) = (  0.5003973  0.2441825  0.5980003  )
        24           O   tau(  24) = (  0.7527966  0.4978604  0.4015968  )
        25           O   tau(  25) = (  0.5021396  0.2472034  0.4015968  )
        26           O   tau(  26) = (  0.7517679  0.0000000  0.4015968  )
        27           O   tau(  27) = (  0.0114961  0.4948124  0.6896512  )
        28           O   tau(  28) = (  0.0048226  0.0077944  0.6999492  )
        29           Sr  tau(  29) = (  0.2545482  0.2517602  0.6972903  )
        30           O   tau(  30) = (  0.5048017  0.0015068  0.7027529  )
        31           Co  tau(  31) = (  0.0056869  0.5006215  0.4015968  )
        32           Co  tau(  32) = (  0.0065315  0.4997770  0.5980003  )
        33           Co  tau(  33) = (  0.0061999  0.0064171  0.4015968  )
        34           Co  tau(  34) = (  0.0000000  0.0126169  0.5980003  )
        35           O   tau(  35) = (  0.0114961  0.4948124  0.5063494  )
        36           O   tau(  36) = (  0.0114961  0.4948124  0.2968442  )
        37           O   tau(  37) = (  0.0051979  0.2673486  0.4015968  )
        38           O   tau(  38) = (  0.0130029  0.2478461  0.5980003  )
        39           O   tau(  39) = (  0.0048226  0.0077944  0.3071422  )
        40           O   tau(  40) = (  0.0048226  0.0077944  0.4960513  )
        41           Sr  tau(  41) = (  0.2545482  0.2517602  0.3044833  )
        42           Sr  tau(  42) = (  0.2545482  0.2517602  0.4987103  )
        43           Co  tau(  43) = (  0.4989925  0.0073160  0.5980003  )
        44           Co  tau(  44) = (  0.4998370  0.0064714  0.4015968  )
        45           O   tau(  45) = (  0.5048017  0.0015068  0.3099459  )
        46           O   tau(  46) = (  0.5048017  0.0015068  0.4932477  )
        47           O   tau(  47) = (  0.2621260  0.0059111  0.5980003  )
        48           O   tau(  48) = (  0.2591051  0.0041689  0.4015968  )
        49           O   tau(  49) = (  0.7108228  0.5686583  0.8534850  )
        50           O   tau(  50) = (  0.7108228  0.5686583  0.9160869  )
        51           H   tau(  51) = (  0.7108228  0.5686583  0.9652793  )

     number of k points=    10  Gaussian smearing, width (Ry)=  0.0700
                       cart. coord. in units 2pi/alat
        k(    1) = (   0.0000000   0.0000000   0.0000000), wk =   0.1250000
        k(    2) = (   0.0000000   0.2500000   0.0000000), wk =   0.2500000
        k(    3) = (   0.0000000  -0.5000000   0.0000000), wk =   0.1250000
        k(    4) = (   0.2500000   0.2500000   0.0000000), wk =   0.2500000
        k(    5) = (   0.2500000  -0.5000000   0.0000000), wk =   0.2500000
        k(    6) = (  -0.5000000  -0.5000000   0.0000000), wk =   0.1250000
        k(    7) = (   0.2500000   0.0000000   0.0000000), wk =   0.2500000
        k(    8) = (  -0.5000000   0.0000000   0.0000000), wk =   0.1250000
        k(    9) = (  -0.2500000   0.2500000   0.0000000), wk =   0.2500000
        k(   10) = (  -0.5000000   0.2500000   0.0000000), wk =   0.2500000

                       cryst. coord.
        k(    1) = (   0.0000000   0.0000000   0.0000000), wk =   0.1250000
        k(    2) = (   0.0000000   0.2500000   0.0000000), wk =   0.2500000
        k(    3) = (   0.0000000  -0.5000000   0.0000000), wk =   0.1250000
        k(    4) = (   0.2500000   0.2500000   0.0000000), wk =   0.2500000
        k(    5) = (   0.2500000  -0.5000000   0.0000000), wk =   0.2500000
        k(    6) = (  -0.5000000  -0.5000000   0.0000000), wk =   0.1250000
        k(    7) = (   0.2500000   0.0000000   0.0000000), wk =   0.2500000
        k(    8) = (  -0.5000000   0.0000000   0.0000000), wk =   0.1250000
        k(    9) = (  -0.2500000   0.2500000   0.0000000), wk =   0.2500000
        k(   10) = (  -0.5000000   0.2500000   0.0000000), wk =   0.2500000

     Dense  grid:  1474595 G-vectors     FFT dimensions: ( 108, 108, 270)

     Smooth grid:   521381 G-vectors     FFT dimensions: (  75,  75, 192)

     Dynamical RAM for                 wfc:      10.90 MB

     Dynamical RAM for     wfc (w. buffer):      65.37 MB

     Dynamical RAM for           str. fact:       3.75 MB

     Dynamical RAM for           local pot:       0.00 MB

     Dynamical RAM for          nlocal pot:      24.94 MB

     Dynamical RAM for                qrad:       7.03 MB

     Dynamical RAM for          rho,v,vnew:       6.02 MB

     Dynamical RAM for               rhoin:       2.01 MB

     Dynamical RAM for            rho*nmix:      15.00 MB

     Dynamical RAM for           G-vectors:       3.68 MB

     Dynamical RAM for          h,s,v(r/c):       1.40 MB

     Dynamical RAM for          <psi|beta>:       2.42 MB

     Dynamical RAM for                 psi:      21.79 MB

     Dynamical RAM for                hpsi:      21.79 MB

     Dynamical RAM for                spsi:      21.79 MB

     Dynamical RAM for      wfcinit/wfcrot:      34.89 MB

     Dynamical RAM for           addusdens:     101.73 MB

     Estimated static dynamical RAM per process >     122.82 MB

     Estimated max dynamical RAM per process >     239.55 MB

     Estimated total dynamical RAM >      10.88 GB

     Check: negative core charge=   -0.000004

     Initial potential from superposition of free atoms

     starting charge     428.5961, renormalised to     437.0000

     negative rho (up, down):  7.813E-01 0.000E+00
     Starting wfcs are  381 randomized atomic wfcs
     Checking if some PAW data can be deallocated... 
       PAW data deallocated on   18 nodes for type:  2

     total cpu time spent up to now is        9.5 secs

     Self-consistent Calculation

     iteration #  1     ecut=    60.00 Ry     beta= 0.15
     Davidson diagonalization with overlap

---- Real-time Memory Report at c_bands before calling an iterative solver
             0 MiB given to the printing process from OS
             0 MiB allocation reported by mallinfo(arena+hblkhd)
         32087 MiB available memory on the node where the printing process lives
------------------
     ethr =  1.00E-02,  avg # of iterations =  2.0

     negative rho (up, down):  7.714E-01 0.000E+00

     total cpu time spent up to now is       25.4 secs

     total energy              =   -4489.26639181 Ry
     estimated scf accuracy    <      49.78048131 Ry

     iteration #  2     ecut=    60.00 Ry     beta= 0.15
     Davidson diagonalization with overlap

---- Real-time Memory Report at c_bands before calling an iterative solver
             0 MiB given to the printing process from OS
             0 MiB allocation reported by mallinfo(arena+hblkhd)
         32484 MiB available memory on the node where the printing process lives
------------------
     ethr =  1.00E-02,  avg # of iterations =  1.0

     negative rho (up, down):  7.613E-01 0.000E+00

     total cpu time spent up to now is       38.6 secs

     total energy              =   -4486.81142991 Ry
     estimated scf accuracy    <      35.24681316 Ry

     iteration #  3     ecut=    60.00 Ry     beta= 0.15
     Davidson diagonalization with overlap

---- Real-time Memory Report at c_bands before calling an iterative solver
             0 MiB given to the printing process from OS
             0 MiB allocation reported by mallinfo(arena+hblkhd)
         31711 MiB available memory on the node where the printing process lives
------------------
     ethr =  8.07E-03,  avg # of iterations =  1.0

     negative rho (up, down):  7.562E-01 0.000E+00

     total cpu time spent up to now is       51.7 secs

     total energy              =   -4486.75688486 Ry
     estimated scf accuracy    <      35.12150345 Ry

     iteration #  4     ecut=    60.00 Ry     beta= 0.15
     Davidson diagonalization with overlap

---- Real-time Memory Report at c_bands before calling an iterative solver
             0 MiB given to the printing process from OS
             0 MiB allocation reported by mallinfo(arena+hblkhd)
         31694 MiB available memory on the node where the printing process lives
------------------
     ethr =  8.04E-03,  avg # of iterations =  1.0

     negative rho (up, down):  7.573E-01 0.000E+00

     total cpu time spent up to now is       64.8 secs

     total energy              =   -4486.63783417 Ry
     estimated scf accuracy    <      34.29305253 Ry

     iteration #  5     ecut=    60.00 Ry     beta= 0.15
     Davidson diagonalization with overlap

---- Real-time Memory Report at c_bands before calling an iterative solver
             0 MiB given to the printing process from OS
             0 MiB allocation reported by mallinfo(arena+hblkhd)
         31679 MiB available memory on the node where the printing process lives
------------------
     ethr =  7.85E-03,  avg # of iterations =  1.0

     negative rho (up, down):  7.336E-01 0.000E+00

     total cpu time spent up to now is       77.8 secs

     total energy              =   -4482.76460954 Ry
     estimated scf accuracy    <      23.33294685 Ry

     iteration #  6     ecut=    60.00 Ry     beta= 0.15
     Davidson diagonalization with overlap

---- Real-time Memory Report at c_bands before calling an iterative solver
             0 MiB given to the printing process from OS
             0 MiB allocation reported by mallinfo(arena+hblkhd)
         31662 MiB available memory on the node where the printing process lives
------------------
     ethr =  5.34E-03,  avg # of iterations =  2.0

     negative rho (up, down):  7.478E-01 0.000E+00

     total cpu time spent up to now is       92.4 secs

     total energy              =   -4484.01558141 Ry
     estimated scf accuracy    <      43.30408861 Ry

     iteration #  7     ecut=    60.00 Ry     beta= 0.15
     Davidson diagonalization with overlap

---- Real-time Memory Report at c_bands before calling an iterative solver
             0 MiB given to the printing process from OS
             0 MiB allocation reported by mallinfo(arena+hblkhd)
         31639 MiB available memory on the node where the printing process lives
------------------
     ethr =  5.34E-03,  avg # of iterations =  1.0

     negative rho (up, down):  7.534E-01 0.000E+00

     total cpu time spent up to now is      105.4 secs

     total energy              =   -4483.40606761 Ry
     estimated scf accuracy    <      43.39657309 Ry

     iteration #  8     ecut=    60.00 Ry     beta= 0.15
     Davidson diagonalization with overlap

---- Real-time Memory Report at c_bands before calling an iterative solver
             0 MiB given to the printing process from OS
             0 MiB allocation reported by mallinfo(arena+hblkhd)
         31625 MiB available memory on the node where the printing process lives
------------------
     ethr =  5.34E-03,  avg # of iterations =  1.0

     negative rho (up, down):  7.508E-01 0.000E+00

     total cpu time spent up to now is      118.3 secs

     total energy              =   -4483.84428555 Ry
     estimated scf accuracy    <       6.03247970 Ry

     iteration #  9     ecut=    60.00 Ry     beta= 0.15
     Davidson diagonalization with overlap

---- Real-time Memory Report at c_bands before calling an iterative solver
             0 MiB given to the printing process from OS
             0 MiB allocation reported by mallinfo(arena+hblkhd)
         31605 MiB available memory on the node where the printing process lives
------------------
     ethr =  1.38E-03,  avg # of iterations =  5.2

     negative rho (up, down):  7.639E-01 0.000E+00

     total cpu time spent up to now is      134.0 secs

     total energy              =   -4483.74210507 Ry
     estimated scf accuracy    <       3.52498666 Ry

     iteration # 10     ecut=    60.00 Ry     beta= 0.15
     Davidson diagonalization with overlap

---- Real-time Memory Report at c_bands before calling an iterative solver
             0 MiB given to the printing process from OS
             0 MiB allocation reported by mallinfo(arena+hblkhd)
         31566 MiB available memory on the node where the printing process lives
------------------
     ethr =  8.07E-04,  avg # of iterations =  9.7

     negative rho (up, down):  7.821E-01 0.000E+00

     total cpu time spent up to now is      152.6 secs

     total energy              =   -4483.52858828 Ry
     estimated scf accuracy    <       4.46176987 Ry

     iteration # 11     ecut=    60.00 Ry     beta= 0.15
     Davidson diagonalization with overlap

---- Real-time Memory Report at c_bands before calling an iterative solver
             0 MiB given to the printing process from OS
             0 MiB allocation reported by mallinfo(arena+hblkhd)
         31209 MiB available memory on the node where the printing process lives
------------------
     ethr =  8.07E-04,  avg # of iterations =  6.5

     negative rho (up, down):  7.890E-01 0.000E+00

     total cpu time spent up to now is      169.4 secs

     total energy              =   -4483.31018281 Ry
     estimated scf accuracy    <       4.17811955 Ry

     iteration # 12     ecut=    60.00 Ry     beta= 0.15
     Davidson diagonalization with overlap

---- Real-time Memory Report at c_bands before calling an iterative solver
             0 MiB given to the printing process from OS
             0 MiB allocation reported by mallinfo(arena+hblkhd)
         31083 MiB available memory on the node where the printing process lives
------------------
     ethr =  8.07E-04,  avg # of iterations =  6.7

     negative rho (up, down):  8.005E-01 0.000E+00

     total cpu time spent up to now is      186.0 secs

     total energy              =   -4483.19083695 Ry
     estimated scf accuracy    <       2.23131060 Ry

     iteration # 13     ecut=    60.00 Ry     beta= 0.15
     Davidson diagonalization with overlap

---- Real-time Memory Report at c_bands before calling an iterative solver
             0 MiB given to the printing process from OS
             0 MiB allocation reported by mallinfo(arena+hblkhd)
         31045 MiB available memory on the node where the printing process lives
------------------
     ethr =  5.11E-04,  avg # of iterations =  2.0

     negative rho (up, down):  7.986E-01 0.000E+00

     total cpu time spent up to now is      200.5 secs

     total energy              =   -4483.28852101 Ry
     estimated scf accuracy    <       1.69068489 Ry

     iteration # 14     ecut=    60.00 Ry     beta= 0.15
     Davidson diagonalization with overlap

---- Real-time Memory Report at c_bands before calling an iterative solver
             0 MiB given to the printing process from OS
             0 MiB allocation reported by mallinfo(arena+hblkhd)
         31068 MiB available memory on the node where the printing process lives
------------------
     ethr =  3.87E-04,  avg # of iterations =  2.2

     negative rho (up, down):  8.078E-01 0.000E+00

     total cpu time spent up to now is      214.9 secs

     total energy              =   -4483.19848584 Ry
     estimated scf accuracy    <       0.94112668 Ry

     iteration # 15     ecut=    60.00 Ry     beta= 0.15
     Davidson diagonalization with overlap

---- Real-time Memory Report at c_bands before calling an iterative solver
             0 MiB given to the printing process from OS
             0 MiB allocation reported by mallinfo(arena+hblkhd)
         31066 MiB available memory on the node where the printing process lives
------------------
     ethr =  2.15E-04,  avg # of iterations =  9.2

     negative rho (up, down):  8.136E-01 0.000E+00

     total cpu time spent up to now is      232.7 secs

     total energy              =   -4483.15076481 Ry
     estimated scf accuracy    <       1.32103785 Ry

     iteration # 16     ecut=    60.00 Ry     beta= 0.15
     Davidson diagonalization with overlap

---- Real-time Memory Report at c_bands before calling an iterative solver
             0 MiB given to the printing process from OS
             0 MiB allocation reported by mallinfo(arena+hblkhd)
         31083 MiB available memory on the node where the printing process lives
------------------
     ethr =  2.15E-04,  avg # of iterations =  2.0

     negative rho (up, down):  8.139E-01 0.000E+00

     total cpu time spent up to now is      247.1 secs

     total energy              =   -4483.13042336 Ry
     estimated scf accuracy    <       1.14895812 Ry

     iteration # 17     ecut=    60.00 Ry     beta= 0.15
     Davidson diagonalization with overlap

---- Real-time Memory Report at c_bands before calling an iterative solver
             0 MiB given to the printing process from OS
             0 MiB allocation reported by mallinfo(arena+hblkhd)
         31072 MiB available memory on the node where the printing process lives
------------------
     ethr =  2.15E-04,  avg # of iterations =  4.3

     negative rho (up, down):  8.171E-01 0.000E+00

     total cpu time spent up to now is      263.0 secs

     total energy              =   -4483.10515177 Ry
     estimated scf accuracy    <       0.39817882 Ry

     iteration # 18     ecut=    60.00 Ry     beta= 0.15
     Davidson diagonalization with overlap

---- Real-time Memory Report at c_bands before calling an iterative solver
             0 MiB given to the printing process from OS
             0 MiB allocation reported by mallinfo(arena+hblkhd)
         31078 MiB available memory on the node where the printing process lives
------------------
     ethr =  9.11E-05,  avg # of iterations = 11.4

     negative rho (up, down):  8.186E-01 0.000E+00

     total cpu time spent up to now is      281.7 secs

     total energy              =   -4483.06374930 Ry
     estimated scf accuracy    <       0.41754005 Ry

     iteration # 19     ecut=    60.00 Ry     beta= 0.15
     Davidson diagonalization with overlap

---- Real-time Memory Report at c_bands before calling an iterative solver
             0 MiB given to the printing process from OS
             0 MiB allocation reported by mallinfo(arena+hblkhd)
         31027 MiB available memory on the node where the printing process lives
------------------
     ethr =  9.11E-05,  avg # of iterations =  7.1

     negative rho (up, down):  8.234E-01 0.000E+00

     total cpu time spent up to now is      299.1 secs

     total energy              =   -4483.03377223 Ry
     estimated scf accuracy    <       0.37674090 Ry

     iteration # 20     ecut=    60.00 Ry     beta= 0.15
     Davidson diagonalization with overlap

---- Real-time Memory Report at c_bands before calling an iterative solver
             0 MiB given to the printing process from OS
             0 MiB allocation reported by mallinfo(arena+hblkhd)
         31023 MiB available memory on the node where the printing process lives
------------------
     ethr =  8.62E-05,  avg # of iterations =  7.7

     negative rho (up, down):  8.267E-01 0.000E+00

     total cpu time spent up to now is      317.1 secs

     total energy              =   -4483.01591086 Ry
     estimated scf accuracy    <       0.25990021 Ry

     iteration # 21     ecut=    60.00 Ry     beta= 0.15
     Davidson diagonalization with overlap

---- Real-time Memory Report at c_bands before calling an iterative solver
             0 MiB given to the printing process from OS
             0 MiB allocation reported by mallinfo(arena+hblkhd)
         31036 MiB available memory on the node where the printing process lives
------------------
     ethr =  5.95E-05,  avg # of iterations =  8.5

     negative rho (up, down):  8.375E-01 0.000E+00

     total cpu time spent up to now is      335.4 secs

     total energy              =   -4482.98176292 Ry
     estimated scf accuracy    <       0.38684159 Ry

     iteration # 22     ecut=    60.00 Ry     beta= 0.15
     Davidson diagonalization with overlap

---- Real-time Memory Report at c_bands before calling an iterative solver
             0 MiB given to the printing process from OS
             0 MiB allocation reported by mallinfo(arena+hblkhd)
         31012 MiB available memory on the node where the printing process lives
------------------
     ethr =  5.95E-05,  avg # of iterations =  9.5

     negative rho (up, down):  8.411E-01 0.000E+00

     total cpu time spent up to now is      353.9 secs

     total energy              =   -4482.98429549 Ry
     estimated scf accuracy    <       0.05607652 Ry

     iteration # 23     ecut=    60.00 Ry     beta= 0.15
     Davidson diagonalization with overlap

---- Real-time Memory Report at c_bands before calling an iterative solver
             0 MiB given to the printing process from OS
             0 MiB allocation reported by mallinfo(arena+hblkhd)
         31000 MiB available memory on the node where the printing process lives
------------------
     c_bands:  1 eigenvalues not converged
     ethr =  1.28E-05,  avg # of iterations = 12.4

     negative rho (up, down):  8.389E-01 0.000E+00

     total cpu time spent up to now is      374.0 secs

     total energy              =   -4482.98264413 Ry
     estimated scf accuracy    <       0.03585029 Ry

     iteration # 24     ecut=    60.00 Ry     beta= 0.15
     Davidson diagonalization with overlap

---- Real-time Memory Report at c_bands before calling an iterative solver
             0 MiB given to the printing process from OS
             0 MiB allocation reported by mallinfo(arena+hblkhd)
         30890 MiB available memory on the node where the printing process lives
------------------
     ethr =  8.20E-06,  avg # of iterations =  8.6

     negative rho (up, down):  8.283E-01 0.000E+00

     total cpu time spent up to now is      391.8 secs

     total energy              =   -4482.98083187 Ry
     estimated scf accuracy    <       0.01951147 Ry

     iteration # 25     ecut=    60.00 Ry     beta= 0.15
     Davidson diagonalization with overlap

---- Real-time Memory Report at c_bands before calling an iterative solver
             0 MiB given to the printing process from OS
             0 MiB allocation reported by mallinfo(arena+hblkhd)
         30899 MiB available memory on the node where the printing process lives
------------------
     ethr =  4.46E-06,  avg # of iterations = 11.5

     negative rho (up, down):  8.187E-01 0.000E+00

     total cpu time spent up to now is      411.7 secs

     total energy              =   -4482.98020239 Ry
     estimated scf accuracy    <       0.01156496 Ry

     iteration # 26     ecut=    60.00 Ry     beta= 0.15
     Davidson diagonalization with overlap

---- Real-time Memory Report at c_bands before calling an iterative solver
             0 MiB given to the printing process from OS
             0 MiB allocation reported by mallinfo(arena+hblkhd)
         30902 MiB available memory on the node where the printing process lives
------------------
     ethr =  2.65E-06,  avg # of iterations =  2.1

     negative rho (up, down):  7.962E-01 0.000E+00

     total cpu time spent up to now is      426.4 secs

     total energy              =   -4482.97814694 Ry
     estimated scf accuracy    <       0.00859553 Ry

     iteration # 27     ecut=    60.00 Ry     beta= 0.15
     Davidson diagonalization with overlap

---- Real-time Memory Report at c_bands before calling an iterative solver
             0 MiB given to the printing process from OS
             0 MiB allocation reported by mallinfo(arena+hblkhd)
         30906 MiB available memory on the node where the printing process lives
------------------
     ethr =  1.97E-06,  avg # of iterations =  9.9

     negative rho (up, down):  7.961E-01 0.000E+00

     total cpu time spent up to now is      446.0 secs

     total energy              =   -4482.97834057 Ry
     estimated scf accuracy    <       0.00284095 Ry

     iteration # 28     ecut=    60.00 Ry     beta= 0.15
     Davidson diagonalization with overlap

---- Real-time Memory Report at c_bands before calling an iterative solver
             0 MiB given to the printing process from OS
             0 MiB allocation reported by mallinfo(arena+hblkhd)
         30873 MiB available memory on the node where the printing process lives
------------------
     ethr =  6.50E-07,  avg # of iterations =  5.3

     negative rho (up, down):  7.949E-01 0.000E+00

     total cpu time spent up to now is      462.6 secs

     total energy              =   -4482.97834458 Ry
     estimated scf accuracy    <       0.00114153 Ry

     iteration # 29     ecut=    60.00 Ry     beta= 0.15
     Davidson diagonalization with overlap

---- Real-time Memory Report at c_bands before calling an iterative solver
             0 MiB given to the printing process from OS
             0 MiB allocation reported by mallinfo(arena+hblkhd)
         30862 MiB available memory on the node where the printing process lives
------------------
     ethr =  2.61E-07,  avg # of iterations =  6.1

     negative rho (up, down):  7.944E-01 0.000E+00

     total cpu time spent up to now is      479.0 secs

     total energy              =   -4482.97830124 Ry
     estimated scf accuracy    <       0.00076142 Ry

     iteration # 30     ecut=    60.00 Ry     beta= 0.15
     Davidson diagonalization with overlap

---- Real-time Memory Report at c_bands before calling an iterative solver
             0 MiB given to the printing process from OS
             0 MiB allocation reported by mallinfo(arena+hblkhd)
         30849 MiB available memory on the node where the printing process lives
------------------
     ethr =  1.74E-07,  avg # of iterations =  7.6

     negative rho (up, down):  7.929E-01 0.000E+00

     total cpu time spent up to now is      496.1 secs

     total energy              =   -4482.97825079 Ry
     estimated scf accuracy    <       0.00044002 Ry

     iteration # 31     ecut=    60.00 Ry     beta= 0.15
     Davidson diagonalization with overlap

---- Real-time Memory Report at c_bands before calling an iterative solver
             0 MiB given to the printing process from OS
             0 MiB allocation reported by mallinfo(arena+hblkhd)
         30860 MiB available memory on the node where the printing process lives
------------------
     ethr =  1.01E-07,  avg # of iterations =  7.0

     negative rho (up, down):  7.925E-01 0.000E+00

     total cpu time spent up to now is      513.1 secs

     total energy              =   -4482.97825472 Ry
     estimated scf accuracy    <       0.00016171 Ry

     iteration # 32     ecut=    60.00 Ry     beta= 0.15
     Davidson diagonalization with overlap

---- Real-time Memory Report at c_bands before calling an iterative solver
             0 MiB given to the printing process from OS
             0 MiB allocation reported by mallinfo(arena+hblkhd)
         30878 MiB available memory on the node where the printing process lives
------------------
     ethr =  3.70E-08,  avg # of iterations =  3.8

     negative rho (up, down):  7.923E-01 0.000E+00

     total cpu time spent up to now is      528.8 secs

     total energy              =   -4482.97824974 Ry
     estimated scf accuracy    <       0.00009277 Ry

     iteration # 33     ecut=    60.00 Ry     beta= 0.15
     Davidson diagonalization with overlap

---- Real-time Memory Report at c_bands before calling an iterative solver
             0 MiB given to the printing process from OS
             0 MiB allocation reported by mallinfo(arena+hblkhd)
         30832 MiB available memory on the node where the printing process lives
------------------
     ethr =  2.12E-08,  avg # of iterations =  4.2

     negative rho (up, down):  7.922E-01 0.000E+00

     total cpu time spent up to now is      544.3 secs

     total energy              =   -4482.97823969 Ry
     estimated scf accuracy    <       0.00005689 Ry

     iteration # 34     ecut=    60.00 Ry     beta= 0.15
     Davidson diagonalization with overlap

---- Real-time Memory Report at c_bands before calling an iterative solver
             0 MiB given to the printing process from OS
             0 MiB allocation reported by mallinfo(arena+hblkhd)
         30827 MiB available memory on the node where the printing process lives
------------------
     ethr =  1.30E-08,  avg # of iterations =  6.0

     negative rho (up, down):  7.921E-01 0.000E+00

     total cpu time spent up to now is      560.6 secs

     total energy              =   -4482.97824503 Ry
     estimated scf accuracy    <       0.00004115 Ry

     iteration # 35     ecut=    60.00 Ry     beta= 0.15
     Davidson diagonalization with overlap

---- Real-time Memory Report at c_bands before calling an iterative solver
             0 MiB given to the printing process from OS
             0 MiB allocation reported by mallinfo(arena+hblkhd)
         30828 MiB available memory on the node where the printing process lives
------------------
     ethr =  9.42E-09,  avg # of iterations =  2.3

     negative rho (up, down):  7.921E-01 0.000E+00

     total cpu time spent up to now is      575.5 secs

     total energy              =   -4482.97825895 Ry
     estimated scf accuracy    <       0.00002782 Ry

     iteration # 36     ecut=    60.00 Ry     beta= 0.15
     Davidson diagonalization with overlap

---- Real-time Memory Report at c_bands before calling an iterative solver
             0 MiB given to the printing process from OS
             0 MiB allocation reported by mallinfo(arena+hblkhd)
         30829 MiB available memory on the node where the printing process lives
------------------
     ethr =  6.37E-09,  avg # of iterations =  3.5

     negative rho (up, down):  7.922E-01 0.000E+00

     total cpu time spent up to now is      590.8 secs

     total energy              =   -4482.97826578 Ry
     estimated scf accuracy    <       0.00001526 Ry

     iteration # 37     ecut=    60.00 Ry     beta= 0.15
     Davidson diagonalization with overlap

---- Real-time Memory Report at c_bands before calling an iterative solver
             0 MiB given to the printing process from OS
             0 MiB allocation reported by mallinfo(arena+hblkhd)
         30843 MiB available memory on the node where the printing process lives
------------------
     ethr =  3.49E-09,  avg # of iterations =  4.4

     negative rho (up, down):  7.923E-01 0.000E+00

     total cpu time spent up to now is      606.5 secs

     total energy              =   -4482.97826985 Ry
     estimated scf accuracy    <       0.00001172 Ry

     iteration # 38     ecut=    60.00 Ry     beta= 0.15
     Davidson diagonalization with overlap

---- Real-time Memory Report at c_bands before calling an iterative solver
             0 MiB given to the printing process from OS
             0 MiB allocation reported by mallinfo(arena+hblkhd)
         30846 MiB available memory on the node where the printing process lives
------------------
     ethr =  2.68E-09,  avg # of iterations =  4.5

     negative rho (up, down):  7.923E-01 0.000E+00

     total cpu time spent up to now is      622.3 secs

     total energy              =   -4482.97827103 Ry
     estimated scf accuracy    <       0.00000856 Ry

     iteration # 39     ecut=    60.00 Ry     beta= 0.15
     Davidson diagonalization with overlap

---- Real-time Memory Report at c_bands before calling an iterative solver
             0 MiB given to the printing process from OS
             0 MiB allocation reported by mallinfo(arena+hblkhd)
         30856 MiB available memory on the node where the printing process lives
------------------
     ethr =  1.96E-09,  avg # of iterations =  3.7

     negative rho (up, down):  7.925E-01 0.000E+00

     total cpu time spent up to now is      637.5 secs

     total energy              =   -4482.97827261 Ry
     estimated scf accuracy    <       0.00000700 Ry

     iteration # 40     ecut=    60.00 Ry     beta= 0.15
     Davidson diagonalization with overlap

---- Real-time Memory Report at c_bands before calling an iterative solver
             0 MiB given to the printing process from OS
             0 MiB allocation reported by mallinfo(arena+hblkhd)
         30863 MiB available memory on the node where the printing process lives
------------------
     ethr =  1.60E-09,  avg # of iterations =  4.5

     negative rho (up, down):  7.925E-01 0.000E+00

     total cpu time spent up to now is      653.4 secs

     total energy              =   -4482.97827280 Ry
     estimated scf accuracy    <       0.00000324 Ry

     iteration # 41     ecut=    60.00 Ry     beta= 0.15
     Davidson diagonalization with overlap

---- Real-time Memory Report at c_bands before calling an iterative solver
             0 MiB given to the printing process from OS
             0 MiB allocation reported by mallinfo(arena+hblkhd)
         30855 MiB available memory on the node where the printing process lives
------------------
     ethr =  7.41E-10,  avg # of iterations =  3.3

     negative rho (up, down):  7.925E-01 0.000E+00

     total cpu time spent up to now is      668.6 secs

     total energy              =   -4482.97827236 Ry
     estimated scf accuracy    <       0.00000204 Ry

     iteration # 42     ecut=    60.00 Ry     beta= 0.15
     Davidson diagonalization with overlap

---- Real-time Memory Report at c_bands before calling an iterative solver
             0 MiB given to the printing process from OS
             0 MiB allocation reported by mallinfo(arena+hblkhd)
         30855 MiB available memory on the node where the printing process lives
------------------
     ethr =  4.66E-10,  avg # of iterations =  4.3

     negative rho (up, down):  7.924E-01 0.000E+00

     total cpu time spent up to now is      684.0 secs

     total energy              =   -4482.97827199 Ry
     estimated scf accuracy    <       0.00000113 Ry

     iteration # 43     ecut=    60.00 Ry     beta= 0.15
     Davidson diagonalization with overlap

---- Real-time Memory Report at c_bands before calling an iterative solver
             0 MiB given to the printing process from OS
             0 MiB allocation reported by mallinfo(arena+hblkhd)
         30846 MiB available memory on the node where the printing process lives
------------------
     ethr =  2.58E-10,  avg # of iterations =  4.8

     negative rho (up, down):  7.924E-01 0.000E+00

     total cpu time spent up to now is      700.1 secs

     total energy              =   -4482.97827229 Ry
     estimated scf accuracy    <       0.00000044 Ry

     iteration # 44     ecut=    60.00 Ry     beta= 0.15
     Davidson diagonalization with overlap

---- Real-time Memory Report at c_bands before calling an iterative solver
             0 MiB given to the printing process from OS
             0 MiB allocation reported by mallinfo(arena+hblkhd)
         30846 MiB available memory on the node where the printing process lives
------------------
     ethr =  1.02E-10,  avg # of iterations =  3.6

     negative rho (up, down):  7.924E-01 0.000E+00

     total cpu time spent up to now is      715.4 secs

     total energy              =   -4482.97827238 Ry
     estimated scf accuracy    <       0.00000025 Ry

     iteration # 45     ecut=    60.00 Ry     beta= 0.15
     Davidson diagonalization with overlap

---- Real-time Memory Report at c_bands before calling an iterative solver
             0 MiB given to the printing process from OS
             0 MiB allocation reported by mallinfo(arena+hblkhd)
         30850 MiB available memory on the node where the printing process lives
------------------
     ethr =  5.69E-11,  avg # of iterations =  3.3

     negative rho (up, down):  7.923E-01 0.000E+00

     total cpu time spent up to now is      730.6 secs

     total energy              =   -4482.97827258 Ry
     estimated scf accuracy    <       0.00000016 Ry

     iteration # 46     ecut=    60.00 Ry     beta= 0.15
     Davidson diagonalization with overlap

---- Real-time Memory Report at c_bands before calling an iterative solver
             0 MiB given to the printing process from OS
             0 MiB allocation reported by mallinfo(arena+hblkhd)
         30855 MiB available memory on the node where the printing process lives
------------------
     ethr =  3.60E-11,  avg # of iterations =  4.9

     negative rho (up, down):  7.923E-01 0.000E+00

     total cpu time spent up to now is      746.5 secs

     total energy              =   -4482.97827270 Ry
     estimated scf accuracy    <       0.00000010 Ry

     iteration # 47     ecut=    60.00 Ry     beta= 0.15
     Davidson diagonalization with overlap

---- Real-time Memory Report at c_bands before calling an iterative solver
             0 MiB given to the printing process from OS
             0 MiB allocation reported by mallinfo(arena+hblkhd)
         30852 MiB available memory on the node where the printing process lives
------------------
     ethr =  2.31E-11,  avg # of iterations =  5.8

     negative rho (up, down):  7.923E-01 0.000E+00

     total cpu time spent up to now is      762.9 secs

     total energy              =   -4482.97827273 Ry
     estimated scf accuracy    <       0.00000004 Ry

     iteration # 48     ecut=    60.00 Ry     beta= 0.15
     Davidson diagonalization with overlap

---- Real-time Memory Report at c_bands before calling an iterative solver
             0 MiB given to the printing process from OS
             0 MiB allocation reported by mallinfo(arena+hblkhd)
         30830 MiB available memory on the node where the printing process lives
------------------
     ethr =  8.88E-12,  avg # of iterations =  5.2

     negative rho (up, down):  7.923E-01 0.000E+00

     total cpu time spent up to now is      779.0 secs

     total energy              =   -4482.97827274 Ry
     estimated scf accuracy    <       0.00000002 Ry

     iteration # 49     ecut=    60.00 Ry     beta= 0.15
     Davidson diagonalization with overlap

---- Real-time Memory Report at c_bands before calling an iterative solver
             0 MiB given to the printing process from OS
             0 MiB allocation reported by mallinfo(arena+hblkhd)
         30923 MiB available memory on the node where the printing process lives
------------------
     ethr =  5.27E-12,  avg # of iterations =  4.8

     negative rho (up, down):  7.923E-01 0.000E+00

     total cpu time spent up to now is      794.7 secs

     total energy              =   -4482.97827275 Ry
     estimated scf accuracy    <       0.00000001 Ry

     iteration # 50     ecut=    60.00 Ry     beta= 0.15
     Davidson diagonalization with overlap

---- Real-time Memory Report at c_bands before calling an iterative solver
             0 MiB given to the printing process from OS
             0 MiB allocation reported by mallinfo(arena+hblkhd)
         30909 MiB available memory on the node where the printing process lives
------------------
     ethr =  3.22E-12,  avg # of iterations =  4.0

     negative rho (up, down):  7.923E-01 0.000E+00

     total cpu time spent up to now is      810.2 secs

     End of self-consistent calculation

          k = 0.0000 0.0000 0.0000 ( 65197 PWs)   bands (ev):

   -92.3497 -92.2963 -92.2036 -92.1547 -92.0980 -92.0563 -92.0386 -91.9141
   -55.7029 -55.6829 -55.5615 -55.5508 -55.5430 -55.5376 -55.5003 -55.4732
   -55.4567 -55.4554 -55.4479 -55.4058 -55.3859 -55.3492 -55.3296 -55.2978
   -55.2900 -55.2449 -55.2421 -55.2420 -55.2335 -55.1882 -55.1694 -55.0810
   -30.9364 -30.9175 -30.7764 -30.6900 -30.6747 -30.6561 -30.6219 -30.5240
   -29.5007 -29.4573 -29.4314 -29.3237 -22.2591 -14.7348 -14.6979 -14.6120
   -14.4821 -14.2967 -14.1747 -13.8745 -13.8548 -13.8249 -13.7837 -13.7793
   -13.7401 -13.7333 -13.7176 -13.6973 -13.6789 -13.6369 -13.5837 -13.4349
   -13.2619 -13.2229 -13.1924 -13.1622 -13.1454 -13.0976 -13.0599 -12.9834
   -12.9105 -12.8076 -12.7694 -12.7583 -12.7391 -12.7328 -12.7159 -12.6790
   -12.6623 -12.6521 -12.6174 -12.5838 -12.5650 -12.5463 -12.5351 -12.5104
   -12.5048 -12.4838 -12.4663 -12.4479 -12.4079 -12.3927 -12.0017 -11.8569
   -11.7368 -11.6595 -11.5147 -11.4400 -11.4287 -11.4068 -11.3890 -11.3251
   -11.3079 -11.2731 -11.2439 -11.1335 -11.0525 -11.0490  -5.9319  -3.1662
    -3.1570  -2.5948  -2.3616  -2.1319  -1.9859  -1.9218  -1.7791  -1.4727
    -1.4583  -1.4375  -1.3550  -1.3366  -1.2685  -1.2524  -1.2101  -1.1666
    -0.9855  -0.7627  -0.7314  -0.5828  -0.5690  -0.5252  -0.5059  -0.4617
    -0.4470  -0.3865  -0.3598  -0.2899  -0.2805  -0.1989  -0.0726  -0.0584
    -0.0281   0.0536   0.0669   0.0715   0.1368   0.2177   0.2528   0.3102
     0.3321   0.3954   0.4647   0.5264   0.5427   0.5559   0.8121   0.8259
     0.9957   1.0665   1.1294   1.1667   1.2663   1.2773   1.2919   1.3650
     1.3934   1.4273   1.4867   1.6214   1.6739   1.6951   1.7120   1.7275
     1.7942   1.8708   1.9690   1.9808   2.0355   2.0587   2.0974   2.1157
     2.1245   2.1816   2.2352   2.2433   2.2695   2.2976   2.3692   2.4991
     2.5836   2.6275   2.6362   2.7901   2.8031   2.8556   2.8626   2.9618
     3.0036   3.0146   3.0294   3.0430   3.0537   3.0712   3.1421   3.2520
     3.2877   3.3001   3.3069   3.3732   3.3775   3.4019   3.4101   3.4179
     3.4265   3.4374   3.4499   3.4560   3.4679   3.4769   3.4853   3.5054
     3.5271   3.5317   3.5439   3.5632   3.6853   3.7349   4.4118   4.7534
     4.7803   5.1304   5.3803   5.4728   5.7516   6.2719   6.3159   6.3379
     6.6096   6.6263   6.6635   6.7106   7.0016   7.1731   7.2192   7.4048
     7.6047   7.6411   7.8561   7.9174   7.9330   7.9558   8.0360   8.0778
     8.3108   8.3601   8.4025   8.4447   8.5222   8.5480   8.6155

     occupation numbers 
     1.0000   1.0000   1.0000   1.0000   1.0000   1.0000   1.0000   1.0000
     1.0000   1.0000   1.0000   1.0000   1.0000   1.0000   1.0000   1.0000
     1.0000   1.0000   1.0000   1.0000   1.0000   1.0000   1.0000   1.0000
     1.0000   1.0000   1.0000   1.0000   1.0000   1.0000   1.0000   1.0000
     1.0000   1.0000   1.0000   1.0000   1.0000   1.0000   1.0000   1.0000
     1.0000   1.0000   1.0000   1.0000   1.0000   1.0000   1.0000   1.0000
     1.0000   1.0000   1.0000   1.0000   1.0000   1.0000   1.0000   1.0000
     1.0000   1.0000   1.0000   1.0000   1.0000   1.0000   1.0000   1.0000
     1.0000   1.0000   1.0000   1.0000   1.0000   1.0000   1.0000   1.0000
     1.0000   1.0000   1.0000   1.0000   1.0000   1.0000   1.0000   1.0000
     1.0000   1.0000   1.0000   1.0000   1.0000   1.0000   1.0000   1.0000
     1.0000   1.0000   1.0000   1.0000   1.0000   1.0000   1.0000   1.0000
     1.0000   1.0000   1.0000   1.0000   1.0000   1.0000   1.0000   1.0000
     1.0000   1.0000   1.0000   1.0000   1.0000   1.0000   1.0000   1.0000
     1.0000   1.0000   1.0000   1.0000   1.0000   1.0000   1.0000   1.0000
     1.0000   1.0000   1.0000   1.0000   1.0000   1.0000   1.0000   1.0000
     1.0000   1.0000   1.0000   1.0000   1.0000   1.0000   1.0000   1.0000
     1.0000   1.0000   1.0000   1.0000   1.0000   1.0000   1.0000   1.0000
     1.0000   1.0000   1.0000   1.0000   1.0000   1.0000   1.0000   1.0000
     1.0000   1.0000   1.0000   1.0000   1.0000   1.0000   1.0000   1.0000
     1.0000   0.9999   0.9999   0.9999   0.9998   0.9998   0.9998   0.9997
     0.9997   0.9996   0.9994   0.9989   0.9985   0.9984   0.9982   0.9981
     0.9974   0.9963   0.9944   0.9941   0.9926   0.9919   0.9905   0.9898
     0.9894   0.9868   0.9838   0.9833   0.9817   0.9797   0.9739   0.9598
     0.9477   0.9404   0.9388   0.9060   0.9027   0.8886   0.8866   0.8558
     0.8412   0.8372   0.8318   0.8266   0.8225   0.8157   0.7863   0.7358
     0.7182   0.7120   0.7085   0.6739   0.6716   0.6583   0.6539   0.6496
     0.6448   0.6388   0.6319   0.6284   0.6217   0.6166   0.6118   0.6004
     0.5879   0.5852   0.5781   0.5669   0.4949   0.4655   0.1375   0.0549
     0.0506   0.0154   0.0057   0.0038   0.0010   0.0001   0.0000   0.0000
     0.0000   0.0000   0.0000   0.0000   0.0000   0.0000   0.0000   0.0000
     0.0000   0.0000   0.0000   0.0000   0.0000   0.0000   0.0000   0.0000
     0.0000   0.0000   0.0000   0.0000   0.0000   0.0000   0.0000

          k = 0.0000 0.2500 0.0000 ( 65257 PWs)   bands (ev):

   -92.3497 -92.2963 -92.2036 -92.1547 -92.0980 -92.0563 -92.0386 -91.9141
   -55.7029 -55.6829 -55.5615 -55.5508 -55.5430 -55.5376 -55.5003 -55.4732
   -55.4567 -55.4554 -55.4479 -55.4058 -55.3859 -55.3492 -55.3296 -55.2978
   -55.2900 -55.2449 -55.2421 -55.2420 -55.2335 -55.1882 -55.1694 -55.0810
   -30.9362 -30.9174 -30.7767 -30.6902 -30.6729 -30.6579 -30.6216 -30.5243
   -29.5001 -29.4570 -29.4320 -29.3240 -22.2591 -14.6977 -14.6721 -14.5872
   -14.4525 -14.3360 -14.1634 -14.0204 -13.8402 -13.8093 -13.7882 -13.7793
   -13.7576 -13.7009 -13.6945 -13.6822 -13.6627 -13.6176 -13.5040 -13.4656
   -13.3045 -13.2858 -13.2336 -13.1994 -13.1546 -13.1116 -13.0725 -13.0016
   -12.9689 -12.9239 -12.8584 -12.8071 -12.7674 -12.7503 -12.7193 -12.6484
   -12.6265 -12.6007 -12.5916 -12.5618 -12.5280 -12.5180 -12.4918 -12.4863
   -12.4598 -12.4537 -12.4526 -12.4201 -12.3008 -12.2135 -12.0630 -11.9082
   -11.7940 -11.7276 -11.4802 -11.4368 -11.4093 -11.3808 -11.3642 -11.3171
   -11.3056 -11.2830 -11.2489 -11.1477 -11.0943 -11.0836  -5.9319  -3.1664
    -3.1570  -2.4596  -2.2373  -2.0999  -1.9178  -1.8742  -1.7099  -1.4920
    -1.4054  -1.3923  -1.3358  -1.2327  -1.2183  -1.1848  -1.1582  -1.1150
    -0.9166  -0.7871  -0.7761  -0.7006  -0.6893  -0.5844  -0.5539  -0.4981
    -0.4729  -0.4304  -0.3685  -0.3428  -0.3088  -0.2795  -0.2632  -0.2286
    -0.1566  -0.1036  -0.0426   0.0706   0.0889   0.1291   0.2540   0.2885
     0.3388   0.3990   0.4417   0.4702   0.5044   0.5610   0.8583   0.9466
     0.9821   1.0611   1.1028   1.1247   1.2508   1.2705   1.3677   1.3910
     1.4222   1.5356   1.6241   1.6513   1.6749   1.6891   1.7189   1.7813
     1.8065   1.8349   1.8827   1.9125   1.9448   2.0274   2.0551   2.0867
     2.1446   2.1986   2.2322   2.2559   2.2864   2.3111   2.4035   2.5415
     2.6060   2.6213   2.7060   2.7485   2.7877   2.7933   2.8590   2.9024
     2.9791   3.0103   3.0213   3.0389   3.0600   3.2138   3.2349   3.2677
     3.2899   3.3061   3.3156   3.3230   3.3302   3.3608   3.3626   3.3796
     3.3839   3.3961   3.4139   3.4232   3.4342   3.4563   3.4669   3.4717
     3.5075   3.5245   3.5839   3.9439   3.9617   4.2233   4.5950   4.7448
     4.8999   5.0806   5.4003   5.5014   5.8779   5.9390   6.1505   6.2866
     6.3278   6.4454   6.5174   6.7413   6.9343   7.0743   7.2446   7.5445
     7.6629   7.7070   7.7867   7.8771   7.9291   7.9844   8.1106   8.2206
     8.3178   8.4137   8.5170   8.5847   8.6210   8.6675   8.9497

     occupation numbers 
     1.0000   1.0000   1.0000   1.0000   1.0000   1.0000   1.0000   1.0000
     1.0000   1.0000   1.0000   1.0000   1.0000   1.0000   1.0000   1.0000
     1.0000   1.0000   1.0000   1.0000   1.0000   1.0000   1.0000   1.0000
     1.0000   1.0000   1.0000   1.0000   1.0000   1.0000   1.0000   1.0000
     1.0000   1.0000   1.0000   1.0000   1.0000   1.0000   1.0000   1.0000
     1.0000   1.0000   1.0000   1.0000   1.0000   1.0000   1.0000   1.0000
     1.0000   1.0000   1.0000   1.0000   1.0000   1.0000   1.0000   1.0000
     1.0000   1.0000   1.0000   1.0000   1.0000   1.0000   1.0000   1.0000
     1.0000   1.0000   1.0000   1.0000   1.0000   1.0000   1.0000   1.0000
     1.0000   1.0000   1.0000   1.0000   1.0000   1.0000   1.0000   1.0000
     1.0000   1.0000   1.0000   1.0000   1.0000   1.0000   1.0000   1.0000
     1.0000   1.0000   1.0000   1.0000   1.0000   1.0000   1.0000   1.0000
     1.0000   1.0000   1.0000   1.0000   1.0000   1.0000   1.0000   1.0000
     1.0000   1.0000   1.0000   1.0000   1.0000   1.0000   1.0000   1.0000
     1.0000   1.0000   1.0000   1.0000   1.0000   1.0000   1.0000   1.0000
     1.0000   1.0000   1.0000   1.0000   1.0000   1.0000   1.0000   1.0000
     1.0000   1.0000   1.0000   1.0000   1.0000   1.0000   1.0000   1.0000
     1.0000   1.0000   1.0000   1.0000   1.0000   1.0000   1.0000   1.0000
     1.0000   1.0000   1.0000   1.0000   1.0000   1.0000   1.0000   1.0000
     1.0000   1.0000   1.0000   1.0000   1.0000   1.0000   1.0000   1.0000
     1.0000   0.9999   0.9999   0.9999   0.9998   0.9998   0.9997   0.9997
     0.9996   0.9993   0.9988   0.9987   0.9985   0.9984   0.9982   0.9976
     0.9973   0.9969   0.9961   0.9956   0.9949   0.9928   0.9920   0.9909
     0.9885   0.9859   0.9840   0.9826   0.9805   0.9787   0.9707   0.9541
     0.9441   0.9415   0.9253   0.9159   0.9066   0.9052   0.8877   0.8749
     0.8499   0.8388   0.8347   0.8282   0.8201   0.7541   0.7441   0.7282
     0.7171   0.7089   0.7040   0.7003   0.6965   0.6805   0.6795   0.6704
     0.6681   0.6615   0.6518   0.6467   0.6406   0.6282   0.6222   0.6195
     0.5991   0.5894   0.5548   0.3458   0.3360   0.2085   0.0863   0.0564
     0.0347   0.0185   0.0052   0.0034   0.0005   0.0004   0.0001   0.0001
     0.0000   0.0000   0.0000   0.0000   0.0000   0.0000   0.0000   0.0000
     0.0000   0.0000   0.0000   0.0000   0.0000   0.0000   0.0000   0.0000
     0.0000   0.0000   0.0000   0.0000   0.0000   0.0000   0.0000

          k = 0.0000-0.5000 0.0000 ( 65180 PWs)   bands (ev):

   -92.3497 -92.2963 -92.2036 -92.1547 -92.0980 -92.0563 -92.0386 -91.9141
   -55.7029 -55.6829 -55.5615 -55.5508 -55.5430 -55.5376 -55.5003 -55.4732
   -55.4567 -55.4554 -55.4479 -55.4058 -55.3859 -55.3492 -55.3296 -55.2978
   -55.2900 -55.2449 -55.2421 -55.2420 -55.2335 -55.1882 -55.1694 -55.0810
   -30.9360 -30.9172 -30.7769 -30.6903 -30.6706 -30.6603 -30.6213 -30.5247
   -29.4994 -29.4567 -29.4327 -29.3243 -22.2591 -14.6655 -14.6167 -14.5655
   -14.4381 -14.3509 -14.2136 -14.0673 -13.9426 -13.8110 -13.7824 -13.7440
   -13.6994 -13.6914 -13.6449 -13.6262 -13.5810 -13.5600 -13.5355 -13.4998
   -13.4640 -13.4356 -13.2377 -13.1802 -13.1622 -13.1115 -13.0675 -13.0155
   -12.9997 -12.9449 -12.9433 -12.8782 -12.7682 -12.7508 -12.6859 -12.6766
   -12.6320 -12.6159 -12.5886 -12.5405 -12.5163 -12.4936 -12.4815 -12.4511
   -12.4377 -12.4237 -12.3640 -12.3107 -12.1742 -12.1464 -11.9876 -11.9834
   -11.8984 -11.8624 -11.4337 -11.4317 -11.4045 -11.3665 -11.3322 -11.3212
   -11.2786 -11.2748 -11.2307 -11.1692 -11.1552 -11.1408  -5.9319  -3.1666
    -3.1569  -2.2445  -2.1860  -2.0341  -1.9616  -1.6807  -1.5987  -1.4695
    -1.3316  -1.2949  -1.2755  -1.1974  -1.1652  -1.0846  -1.0489  -0.9719
    -0.9316  -0.8921  -0.8653  -0.8105  -0.7714  -0.7254  -0.6880  -0.6555
    -0.6218  -0.5109  -0.4661  -0.4335  -0.4307  -0.3450  -0.3138  -0.2903
    -0.2459  -0.1582  -0.0884  -0.0030   0.0228   0.1343   0.1629   0.3169
     0.3454   0.3843   0.4157   0.5323   0.6098   0.7393   0.8059   0.8140
     0.9423   0.9885   1.0605   1.2217   1.3226   1.3562   1.3937   1.4015
     1.4312   1.4561   1.4933   1.5097   1.5264   1.6308   1.6869   1.7153
     1.7399   2.0087   2.0351   2.0587   2.1359   2.1645   2.2091   2.2219
     2.2565   2.2645   2.2730   2.2981   2.3474   2.3676   2.3948   2.4120
     2.4404   2.4952   2.5790   2.6121   2.7760   2.9513   2.9616   2.9714
     2.9966   3.0144   3.0280   3.0323   3.0538   3.0833   3.0944   3.1475
     3.1673   3.2444   3.2565   3.3290   3.3300   3.3593   3.3602   3.3777
     3.3808   3.3842   3.3912   3.3941   3.4065   3.4269   3.4276   3.4928
     3.4978   3.5140   3.5694   4.4574   4.4665   4.5332   4.5767   5.0085
     5.0694   5.2393   5.3044   5.5304   5.7175   5.8041   5.8646   6.0482
     6.2675   6.3606   6.3856   6.4362   7.0151   7.1029   7.1449   7.3970
     7.5460   7.6813   7.8598   8.0538   8.1088   8.1296   8.2029   8.3039
     8.5110   8.5440   8.6535   8.7152   8.7707   8.8518   8.9745

     occupation numbers 
     1.0000   1.0000   1.0000   1.0000   1.0000   1.0000   1.0000   1.0000
     1.0000   1.0000   1.0000   1.0000   1.0000   1.0000   1.0000   1.0000
     1.0000   1.0000   1.0000   1.0000   1.0000   1.0000   1.0000   1.0000
     1.0000   1.0000   1.0000   1.0000   1.0000   1.0000   1.0000   1.0000
     1.0000   1.0000   1.0000   1.0000   1.0000   1.0000   1.0000   1.0000
     1.0000   1.0000   1.0000   1.0000   1.0000   1.0000   1.0000   1.0000
     1.0000   1.0000   1.0000   1.0000   1.0000   1.0000   1.0000   1.0000
     1.0000   1.0000   1.0000   1.0000   1.0000   1.0000   1.0000   1.0000
     1.0000   1.0000   1.0000   1.0000   1.0000   1.0000   1.0000   1.0000
     1.0000   1.0000   1.0000   1.0000   1.0000   1.0000   1.0000   1.0000
     1.0000   1.0000   1.0000   1.0000   1.0000   1.0000   1.0000   1.0000
     1.0000   1.0000   1.0000   1.0000   1.0000   1.0000   1.0000   1.0000
     1.0000   1.0000   1.0000   1.0000   1.0000   1.0000   1.0000   1.0000
     1.0000   1.0000   1.0000   1.0000   1.0000   1.0000   1.0000   1.0000
     1.0000   1.0000   1.0000   1.0000   1.0000   1.0000   1.0000   1.0000
     1.0000   1.0000   1.0000   1.0000   1.0000   1.0000   1.0000   1.0000
     1.0000   1.0000   1.0000   1.0000   1.0000   1.0000   1.0000   1.0000
     1.0000   1.0000   1.0000   1.0000   1.0000   1.0000   1.0000   1.0000
     1.0000   1.0000   1.0000   1.0000   1.0000   1.0000   1.0000   1.0000
     1.0000   1.0000   1.0000   1.0000   1.0000   1.0000   1.0000   1.0000
     1.0000   1.0000   0.9999   0.9999   0.9998   0.9997   0.9997   0.9996
     0.9996   0.9995   0.9994   0.9994   0.9993   0.9988   0.9984   0.9982
     0.9980   0.9934   0.9926   0.9919   0.9889   0.9876   0.9853   0.9846
     0.9825   0.9820   0.9814   0.9797   0.9758   0.9740   0.9715   0.9698
     0.9668   0.9603   0.9484   0.9430   0.9094   0.8593   0.8558   0.8525
     0.8437   0.8373   0.8323   0.8307   0.8225   0.8108   0.8064   0.7840
     0.7753   0.7395   0.7337   0.6971   0.6966   0.6813   0.6808   0.6715
     0.6698   0.6679   0.6642   0.6626   0.6559   0.6446   0.6443   0.6076
     0.6047   0.5954   0.5632   0.1232   0.1204   0.1017   0.0907   0.0240
     0.0193   0.0102   0.0078   0.0030   0.0012   0.0008   0.0006   0.0002
     0.0001   0.0000   0.0000   0.0000   0.0000   0.0000   0.0000   0.0000
     0.0000   0.0000   0.0000   0.0000   0.0000   0.0000   0.0000   0.0000
     0.0000   0.0000   0.0000   0.0000   0.0000   0.0000   0.0000

          k = 0.2500 0.2500 0.0000 ( 65198 PWs)   bands (ev):

   -92.3497 -92.2963 -92.2036 -92.1547 -92.0980 -92.0563 -92.0386 -91.9141
   -55.7029 -55.6829 -55.5615 -55.5508 -55.5430 -55.5376 -55.5003 -55.4732
   -55.4567 -55.4554 -55.4479 -55.4058 -55.3859 -55.3492 -55.3296 -55.2978
   -55.2900 -55.2449 -55.2421 -55.2420 -55.2335 -55.1882 -55.1694 -55.0810
   -30.9345 -30.9191 -30.7763 -30.6906 -30.6726 -30.6572 -30.6224 -30.5246
   -29.4991 -29.4580 -29.4316 -29.3244 -22.2591 -14.6697 -14.6368 -14.5593
   -14.4420 -14.3274 -14.2033 -14.1250 -13.9227 -13.7827 -13.7629 -13.7512
   -13.7171 -13.6860 -13.6653 -13.6440 -13.6086 -13.5774 -13.4958 -13.4800
   -13.3201 -13.3063 -13.2757 -13.2568 -13.2099 -13.1668 -13.1082 -13.0841
   -12.9871 -12.9502 -12.8896 -12.8017 -12.7607 -12.7082 -12.6788 -12.6595
   -12.6385 -12.6076 -12.6030 -12.5781 -12.5468 -12.5139 -12.4773 -12.4695
   -12.4281 -12.4173 -12.4017 -12.3729 -12.2330 -12.1115 -12.0988 -11.9374
   -11.8240 -11.7799 -11.4523 -11.4204 -11.4098 -11.4023 -11.3401 -11.3049
   -11.2985 -11.2634 -11.2551 -11.1643 -11.1225 -11.1052  -5.9319  -3.1664
    -3.1571  -2.3214  -2.1116  -1.9940  -1.9005  -1.7785  -1.7133  -1.5171
    -1.3708  -1.3506  -1.3226  -1.2274  -1.1947  -1.1008  -1.0744  -1.0239
    -0.8914  -0.8445  -0.7721  -0.7264  -0.6818  -0.6576  -0.6327  -0.5909
    -0.5752  -0.4855  -0.4355  -0.3716  -0.3228  -0.2934  -0.2417  -0.2315
    -0.1673  -0.1159  -0.0612  -0.0269   0.0576   0.1124   0.1387   0.1809
     0.2346   0.3086   0.3429   0.3661   0.4358   0.4687   0.7525   0.9012
     0.9379   0.9914   1.0335   1.0717   1.1311   1.2009   1.2402   1.5128
     1.5844   1.6578   1.6850   1.7297   1.7634   1.7993   1.8368   1.8539
     1.8831   1.9225   1.9312   1.9492   1.9889   2.0267   2.0709   2.1247
     2.1530   2.1703   2.1964   2.2366   2.2851   2.3086   2.4436   2.5178
     2.5573   2.5824   2.6371   2.7065   2.7399   2.7780   2.8026   2.8115
     2.9224   2.9617   3.0140   3.0460   3.0621   3.2243   3.2425   3.2485
     3.2640   3.2789   3.2915   3.3043   3.3109   3.3211   3.3347   3.3464
     3.3657   3.3719   3.3832   3.4040   3.4178   3.4281   3.4583   3.7601
     3.8504   3.8898   3.9565   3.9678   4.1955   4.3016   4.6338   4.7933
     4.9694   5.1256   5.3240   5.5541   5.9292   5.9909   6.0122   6.1166
     6.1894   6.2391   6.3557   6.3847   6.9725   7.0320   7.1247   7.2177
     7.7193   7.7998   7.8616   7.9135   8.0159   8.1427   8.2606   8.3038
     8.4132   8.4636   8.6277   8.6779   8.7028   8.7571   8.8412

     occupation numbers 
     1.0000   1.0000   1.0000   1.0000   1.0000   1.0000   1.0000   1.0000
     1.0000   1.0000   1.0000   1.0000   1.0000   1.0000   1.0000   1.0000
     1.0000   1.0000   1.0000   1.0000   1.0000   1.0000   1.0000   1.0000
     1.0000   1.0000   1.0000   1.0000   1.0000   1.0000   1.0000   1.0000
     1.0000   1.0000   1.0000   1.0000   1.0000   1.0000   1.0000   1.0000
     1.0000   1.0000   1.0000   1.0000   1.0000   1.0000   1.0000   1.0000
     1.0000   1.0000   1.0000   1.0000   1.0000   1.0000   1.0000   1.0000
     1.0000   1.0000   1.0000   1.0000   1.0000   1.0000   1.0000   1.0000
     1.0000   1.0000   1.0000   1.0000   1.0000   1.0000   1.0000   1.0000
     1.0000   1.0000   1.0000   1.0000   1.0000   1.0000   1.0000   1.0000
     1.0000   1.0000   1.0000   1.0000   1.0000   1.0000   1.0000   1.0000
     1.0000   1.0000   1.0000   1.0000   1.0000   1.0000   1.0000   1.0000
     1.0000   1.0000   1.0000   1.0000   1.0000   1.0000   1.0000   1.0000
     1.0000   1.0000   1.0000   1.0000   1.0000   1.0000   1.0000   1.0000
     1.0000   1.0000   1.0000   1.0000   1.0000   1.0000   1.0000   1.0000
     1.0000   1.0000   1.0000   1.0000   1.0000   1.0000   1.0000   1.0000
     1.0000   1.0000   1.0000   1.0000   1.0000   1.0000   1.0000   1.0000
     1.0000   1.0000   1.0000   1.0000   1.0000   1.0000   1.0000   1.0000
     1.0000   1.0000   1.0000   1.0000   1.0000   1.0000   1.0000   1.0000
     1.0000   1.0000   1.0000   1.0000   1.0000   1.0000   1.0000   1.0000
     1.0000   1.0000   1.0000   0.9999   0.9999   0.9999   0.9999   0.9993
     0.9991   0.9986   0.9984   0.9981   0.9978   0.9973   0.9969   0.9966
     0.9961   0.9954   0.9952   0.9948   0.9939   0.9929   0.9914   0.9894
     0.9882   0.9873   0.9860   0.9838   0.9806   0.9789   0.9664   0.9574
     0.9518   0.9479   0.9387   0.9252   0.9179   0.9090   0.9028   0.9005
     0.8686   0.8558   0.8374   0.8255   0.8193   0.7491   0.7404   0.7375
     0.7300   0.7226   0.7163   0.7099   0.7065   0.7012   0.6942   0.6881
     0.6779   0.6745   0.6685   0.6572   0.6496   0.6440   0.6271   0.4507
     0.3982   0.3758   0.3389   0.3328   0.2205   0.1767   0.0776   0.0487
     0.0275   0.0157   0.0072   0.0027   0.0004   0.0003   0.0003   0.0001
     0.0001   0.0001   0.0000   0.0000   0.0000   0.0000   0.0000   0.0000
     0.0000   0.0000   0.0000   0.0000   0.0000   0.0000   0.0000   0.0000
     0.0000   0.0000   0.0000   0.0000   0.0000   0.0000   0.0000

          k = 0.2500-0.5000 0.0000 ( 65138 PWs)   bands (ev):

   -92.3497 -92.2963 -92.2036 -92.1547 -92.0980 -92.0563 -92.0386 -91.9141
   -55.7029 -55.6829 -55.5615 -55.5508 -55.5430 -55.5376 -55.5003 -55.4732
   -55.4567 -55.4554 -55.4479 -55.4058 -55.3859 -55.3492 -55.3296 -55.2978
   -55.2900 -55.2449 -55.2421 -55.2420 -55.2335 -55.1882 -55.1694 -55.0810
   -30.9343 -30.9190 -30.7765 -30.6907 -30.6703 -30.6595 -30.6221 -30.5249
   -29.4985 -29.4577 -29.4323 -29.3248 -22.2591 -14.6354 -14.5898 -14.5227
   -14.4069 -14.3746 -14.2540 -14.1679 -14.0387 -13.7819 -13.7271 -13.6780
   -13.6487 -13.6294 -13.6112 -13.5985 -13.5657 -13.5481 -13.5148 -13.4759
   -13.4533 -13.4214 -13.3213 -13.2731 -13.2269 -13.1942 -13.1290 -13.1152
   -13.0423 -13.0127 -12.8659 -12.8017 -12.7786 -12.6919 -12.6564 -12.6445
   -12.6289 -12.6212 -12.6030 -12.5713 -12.5452 -12.5006 -12.4830 -12.4596
   -12.4403 -12.4313 -12.3145 -12.2831 -12.1808 -12.1263 -11.9812 -11.9658
   -11.8870 -11.8633 -11.4277 -11.4159 -11.4049 -11.3776 -11.3460 -11.3177
   -11.2764 -11.2491 -11.2267 -11.1824 -11.1562 -11.1450  -5.9319  -3.1665
    -3.1571  -2.1027  -2.0384  -1.9081  -1.8306  -1.7014  -1.6190  -1.4942
    -1.3432  -1.2899  -1.2676  -1.2051  -1.1916  -1.0952  -1.0277  -0.9422
    -0.8942  -0.8846  -0.8204  -0.7802  -0.7440  -0.6964  -0.6594  -0.6245
    -0.5844  -0.5735  -0.5281  -0.5000  -0.4571  -0.4277  -0.3598  -0.2588
    -0.2232  -0.1428  -0.0775  -0.0292   0.0122   0.0337   0.0903   0.2474
     0.2578   0.3584   0.3909   0.4043   0.4481   0.4833   0.5149   0.5514
     0.6224   0.8963   0.9842   1.0265   1.0926   1.3765   1.3935   1.4861
     1.5108   1.6810   1.7135   1.7552   1.7836   1.7963   1.8175   1.8779
     1.9243   1.9607   2.0290   2.1296   2.1588   2.1823   2.1949   2.2288
     2.2462   2.2517   2.2917   2.3074   2.3263   2.3485   2.3733   2.4043
     2.4322   2.4940   2.5341   2.6131   2.7472   2.9033   2.9173   2.9361
     2.9623   2.9891   3.0064   3.0232   3.0393   3.0479   3.0589   3.0795
     3.1734   3.2233   3.2434   3.2453   3.2612   3.2818   3.2954   3.3145
     3.3219   3.3550   3.3640   3.3803   3.3878   3.3958   3.4082   3.9132
     3.9390   4.0916   4.1444   4.4630   4.5179   4.5363   4.6474   5.0634
     5.0960   5.2842   5.3407   5.4959   5.6369   5.7854   5.8093   5.9470
     6.0655   6.1102   6.3788   6.4791   6.5773   6.6378   7.1986   7.3595
     7.5168   7.6642   7.9509   8.0646   8.1730   8.2192   8.3471   8.4646
     8.5774   8.6222   8.6964   8.7948   8.8708   8.8862   8.9365

     occupation numbers 
     1.0000   1.0000   1.0000   1.0000   1.0000   1.0000   1.0000   1.0000
     1.0000   1.0000   1.0000   1.0000   1.0000   1.0000   1.0000   1.0000
     1.0000   1.0000   1.0000   1.0000   1.0000   1.0000   1.0000   1.0000
     1.0000   1.0000   1.0000   1.0000   1.0000   1.0000   1.0000   1.0000
     1.0000   1.0000   1.0000   1.0000   1.0000   1.0000   1.0000   1.0000
     1.0000   1.0000   1.0000   1.0000   1.0000   1.0000   1.0000   1.0000
     1.0000   1.0000   1.0000   1.0000   1.0000   1.0000   1.0000   1.0000
     1.0000   1.0000   1.0000   1.0000   1.0000   1.0000   1.0000   1.0000
     1.0000   1.0000   1.0000   1.0000   1.0000   1.0000   1.0000   1.0000
     1.0000   1.0000   1.0000   1.0000   1.0000   1.0000   1.0000   1.0000
     1.0000   1.0000   1.0000   1.0000   1.0000   1.0000   1.0000   1.0000
     1.0000   1.0000   1.0000   1.0000   1.0000   1.0000   1.0000   1.0000
     1.0000   1.0000   1.0000   1.0000   1.0000   1.0000   1.0000   1.0000
     1.0000   1.0000   1.0000   1.0000   1.0000   1.0000   1.0000   1.0000
     1.0000   1.0000   1.0000   1.0000   1.0000   1.0000   1.0000   1.0000
     1.0000   1.0000   1.0000   1.0000   1.0000   1.0000   1.0000   1.0000
     1.0000   1.0000   1.0000   1.0000   1.0000   1.0000   1.0000   1.0000
     1.0000   1.0000   1.0000   1.0000   1.0000   1.0000   1.0000   1.0000
     1.0000   1.0000   1.0000   1.0000   1.0000   1.0000   1.0000   1.0000
     1.0000   1.0000   1.0000   1.0000   1.0000   1.0000   1.0000   1.0000
     1.0000   1.0000   1.0000   1.0000   0.9999   0.9997   0.9997   0.9994
     0.9994   0.9985   0.9982   0.9978   0.9975   0.9974   0.9971   0.9962
     0.9954   0.9946   0.9928   0.9892   0.9879   0.9868   0.9861   0.9842
     0.9832   0.9828   0.9801   0.9790   0.9775   0.9757   0.9735   0.9706
     0.9677   0.9605   0.9551   0.9429   0.9162   0.8746   0.8703   0.8643
     0.8556   0.8464   0.8402   0.8341   0.8280   0.8247   0.8205   0.8124
     0.7725   0.7496   0.7400   0.7391   0.7313   0.7212   0.7143   0.7046
     0.7008   0.6836   0.6788   0.6701   0.6660   0.6616   0.6549   0.3627
     0.3484   0.2689   0.2437   0.1215   0.1058   0.1009   0.0747   0.0197
     0.0175   0.0085   0.0067   0.0035   0.0018   0.0009   0.0008   0.0004
     0.0002   0.0002   0.0000   0.0000   0.0000   0.0000   0.0000   0.0000
     0.0000   0.0000   0.0000   0.0000   0.0000   0.0000   0.0000   0.0000
     0.0000   0.0000   0.0000   0.0000   0.0000   0.0000   0.0000

          k =-0.5000-0.5000 0.0000 ( 65132 PWs)   bands (ev):

   -92.3497 -92.2963 -92.2036 -92.1547 -92.0980 -92.0563 -92.0386 -91.9141
   -55.7029 -55.6829 -55.5615 -55.5508 -55.5430 -55.5376 -55.5003 -55.4732
   -55.4567 -55.4554 -55.4479 -55.4058 -55.3859 -55.3492 -55.3296 -55.2978
   -55.2900 -55.2449 -55.2421 -55.2420 -55.2335 -55.1882 -55.1694 -55.0810
   -30.9320 -30.9213 -30.7761 -30.6911 -30.6701 -30.6587 -30.6229 -30.5251
   -29.4974 -29.4587 -29.4319 -29.3252 -22.2591 -14.5904 -14.5623 -14.4450
   -14.4341 -14.3397 -14.3025 -14.2690 -14.1375 -13.7818 -13.6395 -13.6283
   -13.5926 -13.5743 -13.5578 -13.5463 -13.5145 -13.5071 -13.4908 -13.4819
   -13.4635 -13.3887 -13.3843 -13.3519 -13.3280 -13.3202 -13.2199 -13.1792
   -13.0873 -13.0691 -12.8179 -12.7744 -12.7093 -12.6843 -12.6524 -12.6441
   -12.6344 -12.6162 -12.5967 -12.5656 -12.5612 -12.5117 -12.4913 -12.4785
   -12.4490 -12.4404 -12.2644 -12.2566 -12.1972 -12.1077 -11.9777 -11.9430
   -11.8753 -11.8656 -11.4242 -11.4119 -11.3940 -11.3772 -11.3425 -11.3248
   -11.2898 -11.2297 -11.2088 -11.2045 -11.1539 -11.1510  -5.9319  -3.1665
    -3.1573  -1.8784  -1.8032  -1.7948  -1.7227  -1.6827  -1.6042  -1.5363
    -1.4109  -1.2934  -1.2639  -1.2241  -1.1672  -1.0948  -1.0812  -1.0094
    -0.9673  -0.8509  -0.8233  -0.7746  -0.7433  -0.6793  -0.6354  -0.6159
    -0.6047  -0.5524  -0.5043  -0.4903  -0.3773  -0.3212  -0.2748  -0.2239
    -0.2003  -0.1873  -0.1515  -0.1128  -0.0771  -0.0630   0.0210   0.0930
     0.1373   0.1598   0.2354   0.2931   0.2944   0.3583   0.3788   0.3912
     0.3965   0.8626   0.9098   0.9752   0.9913   1.4068   1.4174   1.4497
     1.4871   1.7631   1.7822   1.7898   1.8277   1.9626   2.0582   2.0849
     2.1207   2.1419   2.1574   2.1702   2.2017   2.2090   2.2270   2.2284
     2.2878   2.2962   2.3189   2.3263   2.3489   2.3573   2.4043   2.4279
     2.4424   2.4785   2.5021   2.5782   2.6438   2.9128   2.9481   2.9651
     2.9860   2.9911   3.0058   3.0257   3.0366   3.0486   3.0562   3.0635
     3.0759   3.0983   3.1112   3.1742   3.1790   3.1993   3.2126   3.2267
     3.2448   3.2492   3.2597   3.3597   3.3667   3.3912   3.4022   4.3298
     4.3703   4.3844   4.4275   4.6674   4.7378   4.7680   5.0079   5.1293
     5.1483   5.2134   5.3328   5.3988   5.4658   5.5524   5.5611   5.7541
     5.9908   6.0720   6.1213   6.1996   6.6672   6.7034   6.7962   7.1794
     7.5446   7.5894   7.7157   8.2722   8.2899   8.3673   8.4570   8.5588
     8.7751   8.8206   8.8843   8.9051   8.9170   8.9518   9.0043

     occupation numbers 
     1.0000   1.0000   1.0000   1.0000   1.0000   1.0000   1.0000   1.0000
     1.0000   1.0000   1.0000   1.0000   1.0000   1.0000   1.0000   1.0000
     1.0000   1.0000   1.0000   1.0000   1.0000   1.0000   1.0000   1.0000
     1.0000   1.0000   1.0000   1.0000   1.0000   1.0000   1.0000   1.0000
     1.0000   1.0000   1.0000   1.0000   1.0000   1.0000   1.0000   1.0000
     1.0000   1.0000   1.0000   1.0000   1.0000   1.0000   1.0000   1.0000
     1.0000   1.0000   1.0000   1.0000   1.0000   1.0000   1.0000   1.0000
     1.0000   1.0000   1.0000   1.0000   1.0000   1.0000   1.0000   1.0000
     1.0000   1.0000   1.0000   1.0000   1.0000   1.0000   1.0000   1.0000
     1.0000   1.0000   1.0000   1.0000   1.0000   1.0000   1.0000   1.0000
     1.0000   1.0000   1.0000   1.0000   1.0000   1.0000   1.0000   1.0000
     1.0000   1.0000   1.0000   1.0000   1.0000   1.0000   1.0000   1.0000
     1.0000   1.0000   1.0000   1.0000   1.0000   1.0000   1.0000   1.0000
     1.0000   1.0000   1.0000   1.0000   1.0000   1.0000   1.0000   1.0000
     1.0000   1.0000   1.0000   1.0000   1.0000   1.0000   1.0000   1.0000
[...]
     0.0000   0.0000   0.0000   0.0000   0.0000   0.0000   0.0000   0.0000
     0.0000   0.0000   0.0000   0.0000   0.0000   0.0000   0.0000

          k =-0.5000 0.0000 0.0000 ( 65180 PWs)   bands (ev):

   -92.3497 -92.2963 -92.2036 -92.1547 -92.0980 -92.0563 -92.0386 -91.9141
   -55.7029 -55.6829 -55.5615 -55.5508 -55.5430 -55.5376 -55.5003 -55.4732
   -55.4567 -55.4554 -55.4479 -55.4058 -55.3859 -55.3492 -55.3296 -55.2978
   -55.2900 -55.2449 -55.2421 -55.2420 -55.2335 -55.1882 -55.1694 -55.0810
   -30.9324 -30.9216 -30.7757 -30.6908 -30.6740 -30.6548 -30.6236 -30.5244
   -29.4987 -29.4594 -29.4306 -29.3245 -22.2591 -14.6693 -14.6214 -14.5584
   -14.4488 -14.3445 -14.2000 -14.0633 -13.9133 -13.7878 -13.7837 -13.7763
   -13.7614 -13.7079 -13.6496 -13.6168 -13.5701 -13.5599 -13.5452 -13.4943
   -13.4750 -13.3890 -13.2095 -13.1872 -13.1501 -13.1409 -13.0783 -13.0209
   -13.0062 -12.9283 -12.9061 -12.9050 -12.7132 -12.7036 -12.6976 -12.6764
   -12.6745 -12.6675 -12.6055 -12.5845 -12.5172 -12.5015 -12.4879 -12.4606
   -12.4286 -12.3947 -12.2990 -12.2900 -12.2002 -12.1529 -11.9965 -11.9873
   -11.8956 -11.8605 -11.4310 -11.4101 -11.4029 -11.3884 -11.3704 -11.3290
   -11.2659 -11.2480 -11.2153 -11.1718 -11.1623 -11.1463  -5.9319  -3.1662
    -3.1573  -2.2347  -2.1959  -2.0316  -1.9923  -1.6803  -1.6052  -1.4569
    -1.3380  -1.2993  -1.2539  -1.2058  -1.1796  -1.0581  -1.0125  -0.9991
    -0.9161  -0.8796  -0.8674  -0.8330  -0.7760  -0.7076  -0.6778  -0.6497
    -0.5547  -0.5072  -0.4591  -0.4264  -0.4052  -0.3755  -0.3267  -0.3019
    -0.2639  -0.1680  -0.1002  -0.0331   0.0285   0.1891   0.2217   0.2898
     0.3194   0.3834   0.3978   0.5330   0.5660   0.5976   0.7879   0.8866
     0.9339   0.9995   1.0682   1.1975   1.2143   1.3451   1.3757   1.4277
     1.4503   1.4914   1.5068   1.5542   1.5764   1.6429   1.6866   1.7327
     1.7448   2.0367   2.0520   2.0645   2.0810   2.2012   2.2072   2.2164
     2.2294   2.2593   2.2734   2.3066   2.3387   2.3575   2.4246   2.4294
     2.4874   2.4992   2.5653   2.6600   2.7696   2.8482   2.8638   2.9455
     2.9757   2.9981   3.0168   3.0462   3.0761   3.0796   3.0895   3.1156
     3.1824   3.2284   3.2751   3.3027   3.3472   3.3528   3.3532   3.3656
     3.3787   3.3921   3.4067   3.4094   3.4302   3.4351   3.4592   3.4785
     3.4832   3.6108   3.6160   4.3928   4.4606   4.5323   4.6334   4.9734
     5.1396   5.2085   5.3416   5.4769   5.6501   5.8699   5.9196   5.9938
     6.2277   6.3713   6.3908   6.4784   6.9563   7.1095   7.1691   7.4449
     7.5459   7.7141   7.7302   8.0389   8.0801   8.1188   8.1860   8.3908
     8.4700   8.6124   8.6825   8.7462   8.7632   8.8648   8.9573

     occupation numbers 
     1.0000   1.0000   1.0000   1.0000   1.0000   1.0000   1.0000   1.0000
     1.0000   1.0000   1.0000   1.0000   1.0000   1.0000   1.0000   1.0000
     1.0000   1.0000   1.0000   1.0000   1.0000   1.0000   1.0000   1.0000
     1.0000   1.0000   1.0000   1.0000   1.0000   1.0000   1.0000   1.0000
     1.0000   1.0000   1.0000   1.0000   1.0000   1.0000   1.0000   1.0000
     1.0000   1.0000   1.0000   1.0000   1.0000   1.0000   1.0000   1.0000
     1.0000   1.0000   1.0000   1.0000   1.0000   1.0000   1.0000   1.0000
     1.0000   1.0000   1.0000   1.0000   1.0000   1.0000   1.0000   1.0000
     1.0000   1.0000   1.0000   1.0000   1.0000   1.0000   1.0000   1.0000
     1.0000   1.0000   1.0000   1.0000   1.0000   1.0000   1.0000   1.0000
     1.0000   1.0000   1.0000   1.0000   1.0000   1.0000   1.0000   1.0000
     1.0000   1.0000   1.0000   1.0000   1.0000   1.0000   1.0000   1.0000
     1.0000   1.0000   1.0000   1.0000   1.0000   1.0000   1.0000   1.0000
     1.0000   1.0000   1.0000   1.0000   1.0000   1.0000   1.0000   1.0000
     1.0000   1.0000   1.0000   1.0000   1.0000   1.0000   1.0000   1.0000
     1.0000   1.0000   1.0000   1.0000   1.0000   1.0000   1.0000   1.0000
     1.0000   1.0000   1.0000   1.0000   1.0000   1.0000   1.0000   1.0000
     1.0000   1.0000   1.0000   1.0000   1.0000   1.0000   1.0000   1.0000
     1.0000   1.0000   1.0000   1.0000   1.0000   1.0000   1.0000   1.0000
     1.0000   1.0000   1.0000   1.0000   1.0000   1.0000   1.0000   1.0000
     1.0000   1.0000   0.9999   0.9999   0.9999   0.9997   0.9997   0.9996
     0.9995   0.9994   0.9994   0.9992   0.9991   0.9987   0.9984   0.9981
     0.9979   0.9926   0.9921   0.9917   0.9911   0.9858   0.9854   0.9849
     0.9842   0.9823   0.9814   0.9790   0.9765   0.9749   0.9685   0.9680
     0.9613   0.9598   0.9505   0.9344   0.9110   0.8907   0.8863   0.8612
     0.8510   0.8432   0.8364   0.8254   0.8138   0.8123   0.8084   0.7976
     0.7685   0.7472   0.7245   0.7107   0.6876   0.6847   0.6845   0.6779
     0.6709   0.6637   0.6558   0.6543   0.6428   0.6401   0.6266   0.6157
     0.6130   0.5390   0.5359   0.1438   0.1222   0.1019   0.0777   0.0271
     0.0149   0.0115   0.0067   0.0038   0.0017   0.0006   0.0004   0.0003
     0.0001   0.0000   0.0000   0.0000   0.0000   0.0000   0.0000   0.0000
     0.0000   0.0000   0.0000   0.0000   0.0000   0.0000   0.0000   0.0000
     0.0000   0.0000   0.0000   0.0000   0.0000   0.0000   0.0000

          k =-0.2500 0.2500 0.0000 ( 65198 PWs)   bands (ev):

   -92.3497 -92.2963 -92.2036 -92.1547 -92.0980 -92.0563 -92.0386 -91.9141
   -55.7029 -55.6829 -55.5615 -55.5508 -55.5430 -55.5376 -55.5003 -55.4732
   -55.4567 -55.4554 -55.4479 -55.4058 -55.3859 -55.3492 -55.3296 -55.2978
   -55.2900 -55.2449 -55.2421 -55.2420 -55.2335 -55.1882 -55.1694 -55.0810
   -30.9345 -30.9191 -30.7763 -30.6906 -30.6726 -30.6572 -30.6224 -30.5246
   -29.4991 -29.4580 -29.4316 -29.3244 -22.2591 -14.6711 -14.6357 -14.5577
   -14.4403 -14.3334 -14.2083 -14.1167 -13.9136 -13.7824 -13.7706 -13.7416
   -13.7287 -13.6831 -13.6558 -13.6420 -13.6304 -13.5783 -13.4920 -13.4799
   -13.3297 -13.3011 -13.2742 -13.2533 -13.2150 -13.1520 -13.0973 -13.0917
   -12.9922 -12.9572 -12.8831 -12.8058 -12.7621 -12.7002 -12.6704 -12.6623
   -12.6442 -12.6104 -12.5904 -12.5875 -12.5624 -12.5079 -12.4789 -12.4649
   -12.4314 -12.4280 -12.4148 -12.3509 -12.2089 -12.1239 -12.1013 -11.9432
   -11.8303 -11.7714 -11.4515 -11.4298 -11.4028 -11.3904 -11.3497 -11.3146
   -11.2919 -11.2701 -11.2478 -11.1640 -11.1179 -11.1084  -5.9319  -3.1664
    -3.1571  -2.3198  -2.1106  -1.9898  -1.9023  -1.7827  -1.7159  -1.5147
    -1.3675  -1.3483  -1.3206  -1.2280  -1.1936  -1.1007  -1.0677  -1.0412
    -0.8977  -0.8420  -0.7747  -0.7463  -0.6859  -0.6630  -0.6229  -0.5939
    -0.5541  -0.4917  -0.4447  -0.3820  -0.3146  -0.2899  -0.2375  -0.2095
    -0.1644  -0.1064  -0.0634  -0.0219   0.0773   0.1107   0.1196   0.1684
     0.2323   0.3083   0.3429   0.3729   0.4398   0.4663   0.7335   0.9030
     0.9471   0.9841   1.0374   1.0704   1.1343   1.2097   1.2363   1.5199
     1.6363   1.6750   1.7074   1.7132   1.7553   1.7738   1.8185   1.8501
     1.8648   1.8916   1.9325   1.9451   1.9882   2.0061   2.0506   2.1342
     2.1464   2.1703   2.1985   2.2345   2.2715   2.3114   2.4332   2.5491
     2.5787   2.6200   2.6417   2.7053   2.7515   2.7804   2.8030   2.8227
     2.9232   2.9612   3.0126   3.0500   3.0589   3.2313   3.2400   3.2536
     3.2637   3.2743   3.2880   3.2951   3.3121   3.3192   3.3358   3.3455
     3.3580   3.3668   3.3729   3.4055   3.4175   3.4269   3.4601   3.7531
     3.8334   3.8927   3.9505   3.9858   4.1800   4.3103   4.6324   4.7936
     4.9645   5.1311   5.3323   5.5547   5.9210   5.9943   6.0155   6.1198
     6.1870   6.2355   6.3508   6.3960   6.9658   7.0145   7.1276   7.2453
     7.7282   7.8097   7.8643   7.8950   7.9718   8.1560   8.2483   8.3360
     8.4062   8.4856   8.5676   8.6812   8.7177   8.7755   8.8668

     occupation numbers 
     1.0000   1.0000   1.0000   1.0000   1.0000   1.0000   1.0000   1.0000
     1.0000   1.0000   1.0000   1.0000   1.0000   1.0000   1.0000   1.0000
     1.0000   1.0000   1.0000   1.0000   1.0000   1.0000   1.0000   1.0000
     1.0000   1.0000   1.0000   1.0000   1.0000   1.0000   1.0000   1.0000
     1.0000   1.0000   1.0000   1.0000   1.0000   1.0000   1.0000   1.0000
     1.0000   1.0000   1.0000   1.0000   1.0000   1.0000   1.0000   1.0000
     1.0000   1.0000   1.0000   1.0000   1.0000   1.0000   1.0000   1.0000
     1.0000   1.0000   1.0000   1.0000   1.0000   1.0000   1.0000   1.0000
     1.0000   1.0000   1.0000   1.0000   1.0000   1.0000   1.0000   1.0000
     1.0000   1.0000   1.0000   1.0000   1.0000   1.0000   1.0000   1.0000
     1.0000   1.0000   1.0000   1.0000   1.0000   1.0000   1.0000   1.0000
     1.0000   1.0000   1.0000   1.0000   1.0000   1.0000   1.0000   1.0000
     1.0000   1.0000   1.0000   1.0000   1.0000   1.0000   1.0000   1.0000
     1.0000   1.0000   1.0000   1.0000   1.0000   1.0000   1.0000   1.0000
     1.0000   1.0000   1.0000   1.0000   1.0000   1.0000   1.0000   1.0000
     1.0000   1.0000   1.0000   1.0000   1.0000   1.0000   1.0000   1.0000
     1.0000   1.0000   1.0000   1.0000   1.0000   1.0000   1.0000   1.0000
     1.0000   1.0000   1.0000   1.0000   1.0000   1.0000   1.0000   1.0000
     1.0000   1.0000   1.0000   1.0000   1.0000   1.0000   1.0000   1.0000
     1.0000   1.0000   1.0000   1.0000   1.0000   1.0000   1.0000   1.0000
     1.0000   1.0000   1.0000   0.9999   0.9999   0.9999   0.9999   0.9993
     0.9988   0.9985   0.9983   0.9982   0.9978   0.9976   0.9971   0.9967
     0.9964   0.9960   0.9952   0.9949   0.9939   0.9934   0.9921   0.9890
     0.9885   0.9873   0.9859   0.9839   0.9815   0.9787   0.9676   0.9530
     0.9485   0.9417   0.9378   0.9254   0.9152   0.9084   0.9027   0.8976
     0.8684   0.8560   0.8379   0.8239   0.8205   0.7458   0.7416   0.7351
     0.7301   0.7249   0.7181   0.7145   0.7058   0.7022   0.6936   0.6886
     0.6820   0.6773   0.6740   0.6564   0.6498   0.6446   0.6261   0.4548
     0.4080   0.3742   0.3421   0.3231   0.2274   0.1734   0.0779   0.0486
     0.0279   0.0154   0.0070   0.0026   0.0004   0.0003   0.0003   0.0001
     0.0001   0.0001   0.0000   0.0000   0.0000   0.0000   0.0000   0.0000
     0.0000   0.0000   0.0000   0.0000   0.0000   0.0000   0.0000   0.0000
     0.0000   0.0000   0.0000   0.0000   0.0000   0.0000   0.0000

          k =-0.5000 0.2500 0.0000 ( 65138 PWs)   bands (ev):

   -92.3497 -92.2963 -92.2036 -92.1547 -92.0980 -92.0563 -92.0386 -91.9141
   -55.7029 -55.6829 -55.5615 -55.5508 -55.5430 -55.5376 -55.5003 -55.4732
   -55.4567 -55.4554 -55.4479 -55.4058 -55.3859 -55.3492 -55.3296 -55.2978
   -55.2900 -55.2449 -55.2421 -55.2420 -55.2335 -55.1882 -55.1694 -55.0810
   -30.9322 -30.9214 -30.7759 -30.6909 -30.6723 -30.6565 -30.6233 -30.5248
   -29.4981 -29.4590 -29.4312 -29.3248 -22.2591 -14.6372 -14.5944 -14.5156
   -14.4151 -14.3728 -14.2468 -14.1648 -14.0307 -13.7820 -13.7208 -13.6910
   -13.6795 -13.6372 -13.6153 -13.5891 -13.5550 -13.5446 -13.5244 -13.4813
   -13.4703 -13.3764 -13.2935 -13.2480 -13.2424 -13.2314 -13.1310 -13.1265
   -13.0473 -12.9881 -12.8601 -12.8225 -12.7264 -12.6876 -12.6747 -12.6506
   -12.6386 -12.6243 -12.6104 -12.5984 -12.5489 -12.5001 -12.4844 -12.4689
   -12.4348 -12.4165 -12.2813 -12.2738 -12.1985 -12.1290 -11.9830 -11.9702
   -11.8857 -11.8621 -11.4239 -11.4114 -11.3972 -11.3852 -11.3641 -11.3338
   -11.2528 -11.2446 -11.2208 -11.1862 -11.1578 -11.1487  -5.9319  -3.1664
    -3.1573  -2.0925  -2.0505  -1.9015  -1.8593  -1.6997  -1.6241  -1.4810
    -1.3442  -1.2880  -1.2607  -1.2218  -1.1822  -1.1025  -0.9873  -0.9309
    -0.9072  -0.8817  -0.8076  -0.7760  -0.7395  -0.7203  -0.6602  -0.6313
    -0.5918  -0.5568  -0.5282  -0.4707  -0.4440  -0.4020  -0.3680  -0.2644
    -0.2378  -0.1511  -0.0915  -0.0594  -0.0020   0.0824   0.1157   0.2190
     0.2538   0.3097   0.3604   0.3840   0.4653   0.4848   0.5174   0.5777
     0.6171   0.9223   0.9905   1.0310   1.0416   1.3557   1.4099   1.4892
     1.5121   1.6927   1.7287   1.7667   1.7810   1.7990   1.8169   1.8854
     1.9294   1.9673   1.9949   2.1135   2.1549   2.1804   2.1919   2.2231
     2.2566   2.2718   2.2818   2.3041   2.3302   2.3697   2.3966   2.4258
     2.4495   2.4770   2.5408   2.6568   2.7634   2.7940   2.8630   2.9024
     2.9606   2.9967   3.0054   3.0158   3.0406   3.0557   3.0797   3.1008
     3.1821   3.2260   3.2396   3.2458   3.2673   3.2892   3.3020   3.3167
     3.3312   3.3500   3.3622   3.3736   3.3810   3.3902   3.4021   3.9240
     3.9673   4.1215   4.1435   4.4039   4.4862   4.5372   4.7301   5.0377
     5.1416   5.2352   5.3453   5.4812   5.6964   5.7734   5.7932   5.9104
     6.0623   6.1282   6.3388   6.5154   6.6010   6.6441   7.2054   7.2725
     7.5490   7.6802   7.9610   8.0590   8.1822   8.2292   8.3181   8.4689
     8.5468   8.6478   8.6754   8.8313   8.8498   8.8943   8.9429

     occupation numbers 
     1.0000   1.0000   1.0000   1.0000   1.0000   1.0000   1.0000   1.0000
     1.0000   1.0000   1.0000   1.0000   1.0000   1.0000   1.0000   1.0000
     1.0000   1.0000   1.0000   1.0000   1.0000   1.0000   1.0000   1.0000
     1.0000   1.0000   1.0000   1.0000   1.0000   1.0000   1.0000   1.0000
     1.0000   1.0000   1.0000   1.0000   1.0000   1.0000   1.0000   1.0000
     1.0000   1.0000   1.0000   1.0000   1.0000   1.0000   1.0000   1.0000
     1.0000   1.0000   1.0000   1.0000   1.0000   1.0000   1.0000   1.0000
     1.0000   1.0000   1.0000   1.0000   1.0000   1.0000   1.0000   1.0000
     1.0000   1.0000   1.0000   1.0000   1.0000   1.0000   1.0000   1.0000
     1.0000   1.0000   1.0000   1.0000   1.0000   1.0000   1.0000   1.0000
     1.0000   1.0000   1.0000   1.0000   1.0000   1.0000   1.0000   1.0000
     1.0000   1.0000   1.0000   1.0000   1.0000   1.0000   1.0000   1.0000
     1.0000   1.0000   1.0000   1.0000   1.0000   1.0000   1.0000   1.0000
     1.0000   1.0000   1.0000   1.0000   1.0000   1.0000   1.0000   1.0000
     1.0000   1.0000   1.0000   1.0000   1.0000   1.0000   1.0000   1.0000
     1.0000   1.0000   1.0000   1.0000   1.0000   1.0000   1.0000   1.0000
     1.0000   1.0000   1.0000   1.0000   1.0000   1.0000   1.0000   1.0000
     1.0000   1.0000   1.0000   1.0000   1.0000   1.0000   1.0000   1.0000
     1.0000   1.0000   1.0000   1.0000   1.0000   1.0000   1.0000   1.0000
     1.0000   1.0000   1.0000   1.0000   1.0000   1.0000   1.0000   1.0000
     1.0000   1.0000   1.0000   1.0000   1.0000   0.9997   0.9996   0.9994
     0.9993   0.9984   0.9981   0.9977   0.9976   0.9973   0.9971   0.9961
     0.9953   0.9944   0.9937   0.9899   0.9881   0.9869   0.9863   0.9845
     0.9825   0.9815   0.9808   0.9792   0.9772   0.9738   0.9713   0.9684
     0.9658   0.9626   0.9542   0.9350   0.9125   0.9050   0.8865   0.8748
     0.8562   0.8437   0.8405   0.8368   0.8275   0.8218   0.8123   0.8038
     0.7686   0.7483   0.7418   0.7388   0.7284   0.7175   0.7110   0.7035
     0.6960   0.6862   0.6797   0.6737   0.6697   0.6647   0.6582   0.3567
     0.3330   0.2544   0.2441   0.1401   0.1146   0.1006   0.0589   0.0216
     0.0148   0.0103   0.0066   0.0037   0.0014   0.0009   0.0008   0.0005
     0.0002   0.0001   0.0000   0.0000   0.0000   0.0000   0.0000   0.0000
     0.0000   0.0000   0.0000   0.0000   0.0000   0.0000   0.0000   0.0000
     0.0000   0.0000   0.0000   0.0000   0.0000   0.0000   0.0000

     the Fermi energy is     3.6766 ev

!    total energy              =   -4482.97827276 Ry
     estimated scf accuracy    <          9.0E-09 Ry
     smearing contrib. (-TS)   =      -1.17184080 Ry
     internal energy E=F+TS    =   -4481.80643196 Ry

     The total energy is F=E-TS. E is the sum of the following terms:
     one-electron contribution =  -20252.22580643 Ry
     hartree contribution      =   10265.62121101 Ry
     xc contribution           =    -701.58738024 Ry
     ewald contribution        =    6492.03997008 Ry
     one-center paw contrib.   =    -285.65442637 Ry
      -> PAW hartree energy AE =      25.14934133 Ry
      -> PAW hartree energy PS =     -25.03342939 Ry
      -> PAW xc energy AE      =     -16.51550507 Ry
      -> PAW xc energy PS      =       6.87489140 Ry
      -> total E_H with PAW    =   10265.73712295 Ry
      -> total E_XC with PAW   =    -711.22799390 Ry

     convergence has been achieved in  50 iterations

     Writing all to output data dir /bsuhome/zayahcortright/scratch/pwscf.save/
 
     init_run     :      8.36s CPU      9.15s WALL (       1 calls)
     electrons    :    788.71s CPU    800.90s WALL (       1 calls)

     Called by init_run:
     wfcinit      :      6.99s CPU      7.20s WALL (       1 calls)
     wfcinit:atom :      0.05s CPU      0.06s WALL (       5 calls)
     wfcinit:wfcr :      6.66s CPU      6.82s WALL (       5 calls)
     potinit      :      0.17s CPU      0.19s WALL (       1 calls)
     hinit0       :      0.35s CPU      0.81s WALL (       1 calls)

     Called by electrons:
     c_bands      :    625.80s CPU    630.53s WALL (      50 calls)
     sum_band     :    120.82s CPU    125.07s WALL (      50 calls)
     v_of_rho     :      5.48s CPU      5.76s WALL (      51 calls)
     v_h          :      0.44s CPU      0.45s WALL (      51 calls)
     v_xc         :      5.04s CPU      5.31s WALL (      51 calls)
     newd         :     21.64s CPU     24.18s WALL (      51 calls)
     PAW_pot      :      1.65s CPU      1.67s WALL (      51 calls)
     mix_rho      :     12.95s CPU     13.22s WALL (      50 calls)

     Called by c_bands:
     init_us_2    :      7.61s CPU      7.66s WALL (     505 calls)
     init_us_2:cp :      7.60s CPU      7.66s WALL (     505 calls)
     cegterg      :    590.43s CPU    594.89s WALL (     250 calls)

     Called by sum_band:
     sum_band:wei :      0.35s CPU      0.35s WALL (      50 calls)
     sum_band:loo :     98.06s CPU     98.84s WALL (      50 calls)
     sum_band:buf :      1.84s CPU      1.85s WALL (     250 calls)
     sum_band:ini :      3.45s CPU      3.46s WALL (     250 calls)
     sum_band:cal :     21.05s CPU     21.10s WALL (     250 calls)
     sum_band:bec :      0.71s CPU      0.72s WALL (     250 calls)
     addusdens    :     18.42s CPU     21.85s WALL (      50 calls)
                                        0.00s GPU  (      50 calls)
     addusd:skk   :      0.37s CPU      0.73s WALL (     200 calls)
                                        0.00s GPU  (     200 calls)

     Called by *egterg:
     cdiaghg      :     65.50s CPU     65.76s WALL (    1516 calls)
     cegterg:over :     43.15s CPU     43.33s WALL (    1266 calls)
     cegterg:upda :     33.72s CPU     34.04s WALL (    1266 calls)
     cegterg:last :     66.81s CPU     67.00s WALL (     466 calls)
     cdiaghg:chol :      3.57s CPU      3.60s WALL (    1516 calls)
     cdiaghg:inve :      3.87s CPU      3.89s WALL (    1516 calls)
     cdiaghg:para :      8.35s CPU      8.38s WALL (    3032 calls)
     h_psi        :    320.23s CPU    323.03s WALL (    1521 calls)
     s_psi        :     44.60s CPU     44.73s WALL (    1521 calls)
     g_psi        :      1.21s CPU      1.22s WALL (    1266 calls)

     Called by h_psi:
     h_psi:calbec :     48.97s CPU     49.15s WALL (    1521 calls)
     vloc_psi     :    223.36s CPU    225.60s WALL (    1521 calls)
     add_vuspsi   :     44.70s CPU     44.85s WALL (    1521 calls)

     General routines
     calbec       :     70.01s CPU     70.24s WALL (    1771 calls)
     fft          :      6.76s CPU      6.81s WALL (     661 calls)
     ffts         :      4.78s CPU      4.82s WALL (    5218 calls)
     fftw         :    189.34s CPU    190.93s WALL (  344946 calls)
     interpolate  :      0.41s CPU      0.42s WALL (      51 calls)
 
     Parallel routines

     PAW routines
     PAW_pot      :      1.65s CPU      1.67s WALL (      51 calls)
 
     PWSCF        :  13m18.58s CPU  13m34.46s WALL

 
   This run was terminated on:  16:38: 6  20Jun2024            

=------------------------------------------------------------------------------=
   JOB DONE.
=------------------------------------------------------------------------------=
