
     Program PWSCF v.7.2 starts on 22Jun2024 at  2: 8:15 

     This program is part of the open-source Quantum ESPRESSO suite
     for quantum simulation of materials; please cite
         "P. Giannozzi et al., J. Phys.:Condens. Matter 21 395502 (2009);
         "P. Giannozzi et al., J. Phys.:Condens. Matter 29 465901 (2017);
         "P. Giannozzi et al., J. Chem. Phys. 152 154105 (2020);
          URL http://www.quantum-espresso.org", 
     in publications or presentations arising from this work. More details at
     http://www.quantum-espresso.org/quote

     Parallel version (MPI & OpenMP), running on      48 processor cores
     Number of MPI processes:                48
     Threads/MPI process:                     1

     MPI processes distributed on     1 nodes
     60566 MiB available memory on the printing compute node when the environment starts
 
     Reading input from espresso.pwi
Warning: card &CELL ignored
Warning: card / ignored
Warning: card &FCP ignored
Warning: card / ignored
Warning: card &RISM ignored
Warning: card / ignored

     Current dimensions of program PWSCF are:
     Max number of different atomic species (ntypx) = 10
     Max number of k-points (npk) =  40000
     Max angular momentum in pseudopotentials (lmaxx) =  4
     file O.pbe-n-kjpaw_psl.0.1.UPF: wavefunction(s)  2P renormalized
     signal trapping enabled: kill the code with -SIGUSR1 to stop cleanly the simulation 
 
     K-points division:     npool     =       2
     R & G space division:  proc/nbgrp/npool/nimage =      24
     Subspace diagonalization in iterative solution of the eigenvalue problem:
     one sub-group per band group will be used
     scalapack distributed-memory algorithm (size of sub-group:  3*  3 procs)

 
     Parallelization info
     --------------------
     sticks:   dense  smooth     PW     G-vecs:    dense   smooth      PW
     Min         350     175     47                61430    21716    3036
     Max         351     177     48                61449    21727    3041
     Sum        8421    4205   1137              1474595   521381   72913
 
     Using Slab Decomposition
 


     bravais-lattice index     =            0
     lattice parameter (alat)  =      14.8599  a.u.
     unit-cell volume          =    8305.1283 (a.u.)^3
     number of atoms/cell      =           49
     number of atomic types    =            3
     number of electrons       =       430.00
     number of Kohn-Sham states=          258
     kinetic-energy cutoff     =      60.0000  Ry
     charge density cutoff     =     480.0000  Ry
     scf convergence threshold =      1.0E-08
     mixing beta               =       0.1500
     number of iterations used =            8  local-TF  mixing
     Exchange-correlation= SLA  PW   PBE  PBE
                           (   1   4   3   4   0   0   0)

     celldm(1)=  14.859904  celldm(2)=   0.000000  celldm(3)=   0.000000
     celldm(4)=   0.000000  celldm(5)=   0.000000  celldm(6)=   0.000000

     crystal axes: (cart. coord. in units of alat)
               a(1) = (   1.000000   0.000000   0.000000 )  
               a(2) = (   0.000000   1.000000   0.000000 )  
               a(3) = (   0.000000   0.000000   2.531036 )  

     reciprocal axes: (cart. coord. in units 2 pi/alat)
               b(1) = (  1.000000  0.000000  0.000000 )  
               b(2) = (  0.000000  1.000000  0.000000 )  
               b(3) = (  0.000000  0.000000  0.395095 )  


     PseudoPot. # 1 for Sr read from file:
     /bsuhome/zayahcortright/q-e/pseudo/Sr_pbe_v1.uspp.F.UPF
     MD5 check sum: 6b418c05fbe9db5448babca5e47b7a5b
     Pseudo is Ultrasoft + core correction, Zval = 10.0
     Generated by new atomic code, or converted to UPF format
     Using radial grid of  883 points,  6 beta functions with: 
                l(1) =   0
                l(2) =   0
                l(3) =   1
                l(4) =   1
                l(5) =   2
                l(6) =   2
     Q(r) pseudized with  6 coefficients,  rinner =    1.400   1.400   1.400
                                                       1.400   1.400

     PseudoPot. # 2 for O  read from file:
     /bsuhome/zayahcortright/q-e/pseudo/O.pbe-n-kjpaw_psl.0.1.UPF
     MD5 check sum: 0234752ac141de4415c5fc33072bef88
     Pseudo is Projector augmented-wave + core cor, Zval =  6.0
     Generated using "atomic" code by A. Dal Corso  v.5.0.99 svn rev. 10869
     Shape of augmentation charge: BESSEL
     Using radial grid of 1095 points,  4 beta functions with: 
                l(1) =   0
                l(2) =   0
                l(3) =   1
                l(4) =   1
     Q(r) pseudized with 0 coefficients 


     PseudoPot. # 3 for Co read from file:
     /bsuhome/zayahcortright/q-e/pseudo/Co_pbe_v1.2.uspp.F.UPF
     MD5 check sum: 5f91765df6ddd3222702df6e7b74a16d
     Pseudo is Ultrasoft + core correction, Zval = 17.0
     Generated by new atomic code, or converted to UPF format
     Using radial grid of  863 points,  6 beta functions with: 
                l(1) =   0
                l(2) =   0
                l(3) =   1
                l(4) =   1
                l(5) =   2
                l(6) =   2
     Q(r) pseudized with  8 coefficients,  rinner =    1.200   1.200   1.200
                                                       1.200   1.200

     atomic species   valence    mass     pseudopotential
        Sr            10.00    87.62000     Sr( 1.00)
        O              6.00    15.99900     O ( 1.00)
        Co            17.00    58.93319     Co( 1.00)

     No symmetry found


                                    s                        frac. trans.

      isym =  1     identity                                     

 cryst.   s( 1) = (     1          0          0      )
                  (     0          1          0      )
                  (     0          0          1      )

 cart.    s( 1) = (  1.0000000  0.0000000  0.0000000 )
                  (  0.0000000  1.0000000  0.0000000 )
                  (  0.0000000  0.0000000  1.0000000 )


   Cartesian axes

     site n.     atom                  positions (alat units)
         1           Sr  tau(   1) = (   0.2508693   0.7491307   1.7574407  )
         2           O   tau(   2) = (   0.4985141   0.5014859   1.7715967  )
         3           Sr  tau(   3) = (   0.7482398   0.7454518   1.7648669  )
         4           Sr  tau(   4) = (   0.7441748   0.2558252   1.7667843  )
         5           Sr  tau(   5) = (   0.2508693   0.7491307   1.2696799  )
         6           Sr  tau(   6) = (   0.2508693   0.7491307   0.7632319  )
         7           Co  tau(   7) = (   0.4998914   0.5001086   1.0164559  )
         8           Co  tau(   8) = (   0.4936915   0.5063085   1.5135603  )
         9           O   tau(   9) = (   0.4988895   0.7610401   1.0164559  )
        10           O   tau(  10) = (   0.2389599   0.5011105   1.0164559  )
        11           O   tau(  11) = (   0.0070918   0.7374880   1.0164559  )
        12           O   tau(  12) = (   0.0088340   0.7405089   1.5135603  )
        13           O   tau(  13) = (   0.5066944   0.7415376   1.5135603  )
        14           O   tau(  14) = (   0.2584624   0.4933056   1.5135603  )
        15           O   tau(  15) = (   0.4985141   0.5014859   0.7773880  )
        16           O   tau(  16) = (   0.4985141   0.5014859   1.2555238  )
        17           Sr  tau(  17) = (   0.7482398   0.7454518   0.7706582  )
        18           Sr  tau(  18) = (   0.7482398   0.7454518   1.2622536  )
        19           Sr  tau(  19) = (   0.7441748   0.2558252   0.7725755  )
        20           Sr  tau(  20) = (   0.7441748   0.2558252   1.2603363  )
        21           O   tau(  21) = (   0.7322655   0.0078049   1.5135603  )
        22           O   tau(  22) = (   0.7558175   0.4996027   1.5135603  )
        23           O   tau(  23) = (   0.5003973   0.2441825   1.5135603  )
        24           O   tau(  24) = (   0.7527966   0.4978604   1.0164559  )
        25           O   tau(  25) = (   0.5021396   0.2472034   1.0164559  )
        26           O   tau(  26) = (   0.7517679   0.0000000   1.0164559  )
        27           O   tau(  27) = (   0.0114961   0.4948124   1.7455321  )
        28           O   tau(  28) = (   0.0048226   0.0077944   1.7715967  )
        29           Sr  tau(  29) = (   0.2545482   0.2517602   1.7648669  )
        30           O   tau(  30) = (   0.5048017   0.0015068   1.7786929  )
        31           Co  tau(  31) = (   0.0056869   0.5006215   1.0164559  )
        32           Co  tau(  32) = (   0.0065315   0.4997770   1.5135603  )
        33           Co  tau(  33) = (   0.0061999   0.0064171   1.0164559  )
        34           Co  tau(  34) = (   0.0000000   0.0126169   1.5135603  )
        35           O   tau(  35) = (   0.0114961   0.4948124   1.2815885  )
        36           O   tau(  36) = (   0.0114961   0.4948124   0.7513233  )
        37           O   tau(  37) = (   0.0051979   0.2673486   1.0164559  )
        38           O   tau(  38) = (   0.0130029   0.2478461   1.5135603  )
        39           O   tau(  39) = (   0.0048226   0.0077944   0.7773880  )
        40           O   tau(  40) = (   0.0048226   0.0077944   1.2555238  )
        41           Sr  tau(  41) = (   0.2545482   0.2517602   0.7706582  )
        42           Sr  tau(  42) = (   0.2545482   0.2517602   1.2622536  )
        43           Co  tau(  43) = (   0.4989925   0.0073160   1.5135603  )
        44           Co  tau(  44) = (   0.4998370   0.0064714   1.0164559  )
        45           O   tau(  45) = (   0.5048017   0.0015068   0.7844841  )
        46           O   tau(  46) = (   0.5048017   0.0015068   1.2484277  )
        47           O   tau(  47) = (   0.2621260   0.0059111   1.5135603  )
        48           O   tau(  48) = (   0.2591051   0.0041689   1.0164559  )
        49           O   tau(  49) = (   0.9951520   0.0000000   2.1602013  )

   Crystallographic axes

     site n.     atom                  positions (cryst. coord.)
         1           Sr  tau(   1) = (  0.2508693  0.7491307  0.6943562  )
         2           O   tau(   2) = (  0.4985141  0.5014859  0.6999492  )
         3           Sr  tau(   3) = (  0.7482398  0.7454518  0.6972903  )
         4           Sr  tau(   4) = (  0.7441748  0.2558252  0.6980478  )
         5           Sr  tau(   5) = (  0.2508693  0.7491307  0.5016443  )
         6           Sr  tau(   6) = (  0.2508693  0.7491307  0.3015492  )
         7           Co  tau(   7) = (  0.4998914  0.5001086  0.4015968  )
         8           Co  tau(   8) = (  0.4936915  0.5063085  0.5980003  )
         9           O   tau(   9) = (  0.4988895  0.7610401  0.4015968  )
        10           O   tau(  10) = (  0.2389599  0.5011105  0.4015968  )
        11           O   tau(  11) = (  0.0070918  0.7374880  0.4015968  )
        12           O   tau(  12) = (  0.0088340  0.7405089  0.5980003  )
        13           O   tau(  13) = (  0.5066944  0.7415376  0.5980003  )
        14           O   tau(  14) = (  0.2584624  0.4933056  0.5980003  )
        15           O   tau(  15) = (  0.4985141  0.5014859  0.3071422  )
        16           O   tau(  16) = (  0.4985141  0.5014859  0.4960513  )
        17           Sr  tau(  17) = (  0.7482398  0.7454518  0.3044833  )
        18           Sr  tau(  18) = (  0.7482398  0.7454518  0.4987103  )
        19           Sr  tau(  19) = (  0.7441748  0.2558252  0.3052408  )
        20           Sr  tau(  20) = (  0.7441748  0.2558252  0.4979527  )
        21           O   tau(  21) = (  0.7322655  0.0078049  0.5980003  )
        22           O   tau(  22) = (  0.7558175  0.4996027  0.5980003  )
        23           O   tau(  23) = (  0.5003973  0.2441825  0.5980003  )
        24           O   tau(  24) = (  0.7527966  0.4978604  0.4015968  )
        25           O   tau(  25) = (  0.5021396  0.2472034  0.4015968  )
        26           O   tau(  26) = (  0.7517679  0.0000000  0.4015968  )
        27           O   tau(  27) = (  0.0114961  0.4948124  0.6896512  )
        28           O   tau(  28) = (  0.0048226  0.0077944  0.6999492  )
        29           Sr  tau(  29) = (  0.2545482  0.2517602  0.6972903  )
        30           O   tau(  30) = (  0.5048017  0.0015068  0.7027529  )
        31           Co  tau(  31) = (  0.0056869  0.5006215  0.4015968  )
        32           Co  tau(  32) = (  0.0065315  0.4997770  0.5980003  )
        33           Co  tau(  33) = (  0.0061999  0.0064171  0.4015968  )
        34           Co  tau(  34) = (  0.0000000  0.0126169  0.5980003  )
        35           O   tau(  35) = (  0.0114961  0.4948124  0.5063494  )
        36           O   tau(  36) = (  0.0114961  0.4948124  0.2968442  )
        37           O   tau(  37) = (  0.0051979  0.2673486  0.4015968  )
        38           O   tau(  38) = (  0.0130029  0.2478461  0.5980003  )
        39           O   tau(  39) = (  0.0048226  0.0077944  0.3071422  )
        40           O   tau(  40) = (  0.0048226  0.0077944  0.4960513  )
        41           Sr  tau(  41) = (  0.2545482  0.2517602  0.3044833  )
        42           Sr  tau(  42) = (  0.2545482  0.2517602  0.4987103  )
        43           Co  tau(  43) = (  0.4989925  0.0073160  0.5980003  )
        44           Co  tau(  44) = (  0.4998370  0.0064714  0.4015968  )
        45           O   tau(  45) = (  0.5048017  0.0015068  0.3099459  )
        46           O   tau(  46) = (  0.5048017  0.0015068  0.4932477  )
        47           O   tau(  47) = (  0.2621260  0.0059111  0.5980003  )
        48           O   tau(  48) = (  0.2591051  0.0041689  0.4015968  )
        49           O   tau(  49) = (  0.9951520  0.0000000  0.8534850  )

     number of k points=    10  Gaussian smearing, width (Ry)=  0.0700
                       cart. coord. in units 2pi/alat
        k(    1) = (   0.0000000   0.0000000   0.0000000), wk =   0.1250000
        k(    2) = (   0.0000000   0.2500000   0.0000000), wk =   0.2500000
        k(    3) = (   0.0000000  -0.5000000   0.0000000), wk =   0.1250000
        k(    4) = (   0.2500000   0.2500000   0.0000000), wk =   0.2500000
        k(    5) = (   0.2500000  -0.5000000   0.0000000), wk =   0.2500000
        k(    6) = (  -0.5000000  -0.5000000   0.0000000), wk =   0.1250000
        k(    7) = (   0.2500000   0.0000000   0.0000000), wk =   0.2500000
        k(    8) = (  -0.5000000   0.0000000   0.0000000), wk =   0.1250000
        k(    9) = (  -0.2500000   0.2500000   0.0000000), wk =   0.2500000
        k(   10) = (  -0.5000000   0.2500000   0.0000000), wk =   0.2500000

                       cryst. coord.
        k(    1) = (   0.0000000   0.0000000   0.0000000), wk =   0.1250000
        k(    2) = (   0.0000000   0.2500000   0.0000000), wk =   0.2500000
        k(    3) = (   0.0000000  -0.5000000   0.0000000), wk =   0.1250000
        k(    4) = (   0.2500000   0.2500000   0.0000000), wk =   0.2500000
        k(    5) = (   0.2500000  -0.5000000   0.0000000), wk =   0.2500000
        k(    6) = (  -0.5000000  -0.5000000   0.0000000), wk =   0.1250000
        k(    7) = (   0.2500000   0.0000000   0.0000000), wk =   0.2500000
        k(    8) = (  -0.5000000   0.0000000   0.0000000), wk =   0.1250000
        k(    9) = (  -0.2500000   0.2500000   0.0000000), wk =   0.2500000
        k(   10) = (  -0.5000000   0.2500000   0.0000000), wk =   0.2500000

     Dense  grid:  1474595 G-vectors     FFT dimensions: ( 108, 108, 270)

     Smooth grid:   521381 G-vectors     FFT dimensions: (  75,  75, 192)

     Dynamical RAM for                 wfc:      10.69 MB

     Dynamical RAM for     wfc (w. buffer):      64.13 MB

     Dynamical RAM for           str. fact:       2.81 MB

     Dynamical RAM for           local pot:       0.00 MB

     Dynamical RAM for          nlocal pot:      24.53 MB

     Dynamical RAM for                qrad:       5.27 MB

     Dynamical RAM for          rho,v,vnew:       6.02 MB

     Dynamical RAM for               rhoin:       2.01 MB

     Dynamical RAM for            rho*nmix:      15.00 MB

     Dynamical RAM for           G-vectors:       3.68 MB

     Dynamical RAM for          h,s,v(r/c):       1.35 MB

     Dynamical RAM for          <psi|beta>:       2.33 MB

     Dynamical RAM for                 psi:      21.38 MB

     Dynamical RAM for                hpsi:      21.38 MB

     Dynamical RAM for                spsi:      21.38 MB

     Dynamical RAM for      wfcinit/wfcrot:      34.39 MB

     Dynamical RAM for           addusdens:     101.26 MB

     Estimated static dynamical RAM per process >     117.53 MB

     Estimated max dynamical RAM per process >     233.79 MB

     Estimated total dynamical RAM >      10.61 GB

     Check: negative core charge=   -0.000004

     Initial potential from superposition of free atoms

     starting charge     421.5961, renormalised to     430.0000

     negative rho (up, down):  7.826E-01 0.000E+00
     Starting wfcs are  376 randomized atomic wfcs
     Checking if some PAW data can be deallocated... 
       PAW data deallocated on   19 nodes for type:  2

     total cpu time spent up to now is        8.8 secs

     Self-consistent Calculation

     iteration #  1     ecut=    60.00 Ry     beta= 0.15
     Davidson diagonalization with overlap

---- Real-time Memory Report at c_bands before calling an iterative solver
             0 MiB given to the printing process from OS
             0 MiB allocation reported by mallinfo(arena+hblkhd)
         51474 MiB available memory on the node where the printing process lives
------------------
     ethr =  1.00E-02,  avg # of iterations =  2.0

     negative rho (up, down):  7.717E-01 0.000E+00

     total cpu time spent up to now is       24.0 secs

     total energy              =   -4445.24803458 Ry
     estimated scf accuracy    <      53.98275155 Ry

     iteration #  2     ecut=    60.00 Ry     beta= 0.15
     Davidson diagonalization with overlap

---- Real-time Memory Report at c_bands before calling an iterative solver
             0 MiB given to the printing process from OS
             0 MiB allocation reported by mallinfo(arena+hblkhd)
         51826 MiB available memory on the node where the printing process lives
------------------
     ethr =  1.00E-02,  avg # of iterations =  1.0

     negative rho (up, down):  7.584E-01 0.000E+00

     total cpu time spent up to now is       36.9 secs

     total energy              =   -4441.74092771 Ry
     estimated scf accuracy    <      28.72584361 Ry

     iteration #  3     ecut=    60.00 Ry     beta= 0.15
     Davidson diagonalization with overlap

---- Real-time Memory Report at c_bands before calling an iterative solver
             0 MiB given to the printing process from OS
             0 MiB allocation reported by mallinfo(arena+hblkhd)
         51047 MiB available memory on the node where the printing process lives
------------------
     ethr =  6.68E-03,  avg # of iterations =  1.0

     negative rho (up, down):  7.534E-01 0.000E+00

     total cpu time spent up to now is       49.7 secs

     total energy              =   -4442.67216302 Ry
     estimated scf accuracy    <      28.99367984 Ry

     iteration #  4     ecut=    60.00 Ry     beta= 0.15
     Davidson diagonalization with overlap

---- Real-time Memory Report at c_bands before calling an iterative solver
             0 MiB given to the printing process from OS
             0 MiB allocation reported by mallinfo(arena+hblkhd)
         51029 MiB available memory on the node where the printing process lives
------------------
     ethr =  6.68E-03,  avg # of iterations =  1.0

     negative rho (up, down):  7.534E-01 0.000E+00

     total cpu time spent up to now is       62.4 secs

     total energy              =   -4442.35637328 Ry
     estimated scf accuracy    <      25.96486453 Ry

     iteration #  5     ecut=    60.00 Ry     beta= 0.15
     Davidson diagonalization with overlap

---- Real-time Memory Report at c_bands before calling an iterative solver
             0 MiB given to the printing process from OS
             0 MiB allocation reported by mallinfo(arena+hblkhd)
         51016 MiB available memory on the node where the printing process lives
------------------
     ethr =  6.04E-03,  avg # of iterations =  1.0

     negative rho (up, down):  7.354E-01 0.000E+00

     total cpu time spent up to now is       75.1 secs

     total energy              =   -4440.90314558 Ry
     estimated scf accuracy    <      17.38005933 Ry

     iteration #  6     ecut=    60.00 Ry     beta= 0.15
     Davidson diagonalization with overlap

---- Real-time Memory Report at c_bands before calling an iterative solver
             0 MiB given to the printing process from OS
             0 MiB allocation reported by mallinfo(arena+hblkhd)
         50996 MiB available memory on the node where the printing process lives
------------------
     ethr =  4.04E-03,  avg # of iterations =  2.0

     negative rho (up, down):  7.406E-01 0.000E+00

     total cpu time spent up to now is       89.1 secs

     total energy              =   -4443.30890285 Ry
     estimated scf accuracy    <      60.82188969 Ry

     iteration #  7     ecut=    60.00 Ry     beta= 0.15
     Davidson diagonalization with overlap

---- Real-time Memory Report at c_bands before calling an iterative solver
             0 MiB given to the printing process from OS
             0 MiB allocation reported by mallinfo(arena+hblkhd)
         50970 MiB available memory on the node where the printing process lives
------------------
     ethr =  4.04E-03,  avg # of iterations =  1.0

     negative rho (up, down):  7.451E-01 0.000E+00

     total cpu time spent up to now is      101.9 secs

     total energy              =   -4440.87087219 Ry
     estimated scf accuracy    <      51.91109331 Ry

     iteration #  8     ecut=    60.00 Ry     beta= 0.15
     Davidson diagonalization with overlap

---- Real-time Memory Report at c_bands before calling an iterative solver
             0 MiB given to the printing process from OS
             0 MiB allocation reported by mallinfo(arena+hblkhd)
         50951 MiB available memory on the node where the printing process lives
------------------
     ethr =  4.04E-03,  avg # of iterations =  1.0

     negative rho (up, down):  7.497E-01 0.000E+00

     total cpu time spent up to now is      115.2 secs

     total energy              =   -4441.19661368 Ry
     estimated scf accuracy    <       7.99486655 Ry

     iteration #  9     ecut=    60.00 Ry     beta= 0.15
     Davidson diagonalization with overlap

---- Real-time Memory Report at c_bands before calling an iterative solver
             0 MiB given to the printing process from OS
             0 MiB allocation reported by mallinfo(arena+hblkhd)
         50932 MiB available memory on the node where the printing process lives
------------------
     ethr =  1.86E-03,  avg # of iterations =  1.3

     negative rho (up, down):  7.557E-01 0.000E+00

     total cpu time spent up to now is      128.5 secs

     total energy              =   -4440.47632749 Ry
     estimated scf accuracy    <       4.65398284 Ry

     iteration # 10     ecut=    60.00 Ry     beta= 0.15
     Davidson diagonalization with overlap

---- Real-time Memory Report at c_bands before calling an iterative solver
             0 MiB given to the printing process from OS
             0 MiB allocation reported by mallinfo(arena+hblkhd)
         50908 MiB available memory on the node where the printing process lives
------------------
     ethr =  1.08E-03,  avg # of iterations =  7.1

     negative rho (up, down):  7.666E-01 0.000E+00

     total cpu time spent up to now is      145.6 secs

     total energy              =   -4440.65598193 Ry
     estimated scf accuracy    <       2.02915369 Ry

     iteration # 11     ecut=    60.00 Ry     beta= 0.15
     Davidson diagonalization with overlap

---- Real-time Memory Report at c_bands before calling an iterative solver
             0 MiB given to the printing process from OS
             0 MiB allocation reported by mallinfo(arena+hblkhd)
         50709 MiB available memory on the node where the printing process lives
------------------
     ethr =  4.72E-04,  avg # of iterations = 13.0

     negative rho (up, down):  7.820E-01 0.000E+00

     total cpu time spent up to now is      165.7 secs

     total energy              =   -4440.31909803 Ry
     estimated scf accuracy    <      21.28872754 Ry

     iteration # 12     ecut=    60.00 Ry     beta= 0.15
     Davidson diagonalization with overlap

---- Real-time Memory Report at c_bands before calling an iterative solver
             0 MiB given to the printing process from OS
             0 MiB allocation reported by mallinfo(arena+hblkhd)
         50432 MiB available memory on the node where the printing process lives
------------------
     ethr =  4.72E-04,  avg # of iterations =  2.0

     negative rho (up, down):  7.816E-01 0.000E+00

     total cpu time spent up to now is      180.0 secs

     total energy              =   -4440.18479086 Ry
     estimated scf accuracy    <       7.67125220 Ry

     iteration # 13     ecut=    60.00 Ry     beta= 0.15
     Davidson diagonalization with overlap

---- Real-time Memory Report at c_bands before calling an iterative solver
             0 MiB given to the printing process from OS
             0 MiB allocation reported by mallinfo(arena+hblkhd)
         50439 MiB available memory on the node where the printing process lives
------------------
     ethr =  4.72E-04,  avg # of iterations =  2.0

     negative rho (up, down):  7.883E-01 0.000E+00

     total cpu time spent up to now is      194.5 secs

     total energy              =   -4440.43487515 Ry
     estimated scf accuracy    <       2.08950228 Ry

     iteration # 14     ecut=    60.00 Ry     beta= 0.15
     Davidson diagonalization with overlap

---- Real-time Memory Report at c_bands before calling an iterative solver
             0 MiB given to the printing process from OS
             0 MiB allocation reported by mallinfo(arena+hblkhd)
         50447 MiB available memory on the node where the printing process lives
------------------
     ethr =  4.72E-04,  avg # of iterations =  1.1

     negative rho (up, down):  8.077E-01 0.000E+00

     total cpu time spent up to now is      207.4 secs

     total energy              =   -4440.44243364 Ry
     estimated scf accuracy    <       0.74498056 Ry

     iteration # 15     ecut=    60.00 Ry     beta= 0.15
     Davidson diagonalization with overlap

---- Real-time Memory Report at c_bands before calling an iterative solver
             0 MiB given to the printing process from OS
             0 MiB allocation reported by mallinfo(arena+hblkhd)
         50460 MiB available memory on the node where the printing process lives
------------------
     ethr =  1.73E-04,  avg # of iterations =  6.6

     negative rho (up, down):  8.158E-01 0.000E+00

     total cpu time spent up to now is      223.5 secs

     total energy              =   -4440.19408385 Ry
     estimated scf accuracy    <       7.04316609 Ry

     iteration # 16     ecut=    60.00 Ry     beta= 0.15
     Davidson diagonalization with overlap

---- Real-time Memory Report at c_bands before calling an iterative solver
             0 MiB given to the printing process from OS
             0 MiB allocation reported by mallinfo(arena+hblkhd)
         50413 MiB available memory on the node where the printing process lives
------------------
     ethr =  1.73E-04,  avg # of iterations =  7.2

     negative rho (up, down):  8.277E-01 0.000E+00

     total cpu time spent up to now is      240.0 secs

     total energy              =   -4440.38030409 Ry
     estimated scf accuracy    <       1.02269945 Ry

     iteration # 17     ecut=    60.00 Ry     beta= 0.15
     Davidson diagonalization with overlap

---- Real-time Memory Report at c_bands before calling an iterative solver
             0 MiB given to the printing process from OS
             0 MiB allocation reported by mallinfo(arena+hblkhd)
         50381 MiB available memory on the node where the printing process lives
------------------
     ethr =  1.73E-04,  avg # of iterations =  8.4

     negative rho (up, down):  8.239E-01 0.000E+00

     total cpu time spent up to now is      256.6 secs

     total energy              =   -4440.33140825 Ry
     estimated scf accuracy    <       1.08957392 Ry

     iteration # 18     ecut=    60.00 Ry     beta= 0.15
     Davidson diagonalization with overlap

---- Real-time Memory Report at c_bands before calling an iterative solver
             0 MiB given to the printing process from OS
             0 MiB allocation reported by mallinfo(arena+hblkhd)
         50393 MiB available memory on the node where the printing process lives
------------------
     ethr =  1.73E-04,  avg # of iterations =  1.0

     negative rho (up, down):  8.214E-01 0.000E+00

     total cpu time spent up to now is      269.0 secs

     total energy              =   -4440.34717067 Ry
     estimated scf accuracy    <       0.32951998 Ry

     iteration # 19     ecut=    60.00 Ry     beta= 0.15
     Davidson diagonalization with overlap

---- Real-time Memory Report at c_bands before calling an iterative solver
             0 MiB given to the printing process from OS
             0 MiB allocation reported by mallinfo(arena+hblkhd)
         50413 MiB available memory on the node where the printing process lives
------------------
     ethr =  7.66E-05,  avg # of iterations =  7.5

     negative rho (up, down):  8.142E-01 0.000E+00

     total cpu time spent up to now is      284.9 secs

     total energy              =   -4440.32714126 Ry
     estimated scf accuracy    <       0.37234376 Ry

     iteration # 20     ecut=    60.00 Ry     beta= 0.15
     Davidson diagonalization with overlap

---- Real-time Memory Report at c_bands before calling an iterative solver
             0 MiB given to the printing process from OS
             0 MiB allocation reported by mallinfo(arena+hblkhd)
         50527 MiB available memory on the node where the printing process lives
------------------
     ethr =  7.66E-05,  avg # of iterations =  5.7

     negative rho (up, down):  8.150E-01 0.000E+00

     total cpu time spent up to now is      300.8 secs

     total energy              =   -4440.32338416 Ry
     estimated scf accuracy    <       0.36993169 Ry

     iteration # 21     ecut=    60.00 Ry     beta= 0.15
     Davidson diagonalization with overlap

---- Real-time Memory Report at c_bands before calling an iterative solver
             0 MiB given to the printing process from OS
             0 MiB allocation reported by mallinfo(arena+hblkhd)
         50460 MiB available memory on the node where the printing process lives
------------------
     ethr =  7.66E-05,  avg # of iterations =  1.2

     negative rho (up, down):  8.060E-01 0.000E+00

     total cpu time spent up to now is      313.9 secs

     total energy              =   -4440.30273105 Ry
     estimated scf accuracy    <       0.38703102 Ry

     iteration # 22     ecut=    60.00 Ry     beta= 0.15
     Davidson diagonalization with overlap

---- Real-time Memory Report at c_bands before calling an iterative solver
             0 MiB given to the printing process from OS
             0 MiB allocation reported by mallinfo(arena+hblkhd)
         50463 MiB available memory on the node where the printing process lives
------------------
     ethr =  7.66E-05,  avg # of iterations =  3.1

     negative rho (up, down):  8.042E-01 0.000E+00

     total cpu time spent up to now is      328.4 secs

     total energy              =   -4440.30264600 Ry
     estimated scf accuracy    <       0.06114420 Ry

     iteration # 23     ecut=    60.00 Ry     beta= 0.15
     Davidson diagonalization with overlap

---- Real-time Memory Report at c_bands before calling an iterative solver
             0 MiB given to the printing process from OS
             0 MiB allocation reported by mallinfo(arena+hblkhd)
         50461 MiB available memory on the node where the printing process lives
------------------
     ethr =  1.42E-05,  avg # of iterations = 11.7

     negative rho (up, down):  8.018E-01 0.000E+00

     total cpu time spent up to now is      347.7 secs

     total energy              =   -4440.29607732 Ry
     estimated scf accuracy    <       0.10225392 Ry

     iteration # 24     ecut=    60.00 Ry     beta= 0.15
     Davidson diagonalization with overlap

---- Real-time Memory Report at c_bands before calling an iterative solver
             0 MiB given to the printing process from OS
             0 MiB allocation reported by mallinfo(arena+hblkhd)
         50289 MiB available memory on the node where the printing process lives
------------------
     ethr =  1.42E-05,  avg # of iterations =  4.4

     negative rho (up, down):  7.946E-01 0.000E+00

     total cpu time spent up to now is      362.5 secs

     total energy              =   -4440.28916813 Ry
     estimated scf accuracy    <       0.03403093 Ry

     iteration # 25     ecut=    60.00 Ry     beta= 0.15
     Davidson diagonalization with overlap

---- Real-time Memory Report at c_bands before calling an iterative solver
             0 MiB given to the printing process from OS
             0 MiB allocation reported by mallinfo(arena+hblkhd)
         50329 MiB available memory on the node where the printing process lives
------------------
     ethr =  7.91E-06,  avg # of iterations = 11.6

     negative rho (up, down):  7.945E-01 0.000E+00

     total cpu time spent up to now is      381.8 secs

     total energy              =   -4440.29083364 Ry
     estimated scf accuracy    <       0.02536889 Ry

     iteration # 26     ecut=    60.00 Ry     beta= 0.15
     Davidson diagonalization with overlap

---- Real-time Memory Report at c_bands before calling an iterative solver
             0 MiB given to the printing process from OS
             0 MiB allocation reported by mallinfo(arena+hblkhd)
         50339 MiB available memory on the node where the printing process lives
------------------
     ethr =  5.90E-06,  avg # of iterations =  1.0

     negative rho (up, down):  7.959E-01 0.000E+00

     total cpu time spent up to now is      394.4 secs

     total energy              =   -4440.28951480 Ry
     estimated scf accuracy    <       0.00863552 Ry

     iteration # 27     ecut=    60.00 Ry     beta= 0.15
     Davidson diagonalization with overlap

---- Real-time Memory Report at c_bands before calling an iterative solver
             0 MiB given to the printing process from OS
             0 MiB allocation reported by mallinfo(arena+hblkhd)
         50338 MiB available memory on the node where the printing process lives
------------------
     ethr =  2.01E-06,  avg # of iterations =  7.1

     negative rho (up, down):  7.967E-01 0.000E+00

     total cpu time spent up to now is      410.8 secs

     total energy              =   -4440.28946918 Ry
     estimated scf accuracy    <       0.00338224 Ry

     iteration # 28     ecut=    60.00 Ry     beta= 0.15
     Davidson diagonalization with overlap

---- Real-time Memory Report at c_bands before calling an iterative solver
             0 MiB given to the printing process from OS
             0 MiB allocation reported by mallinfo(arena+hblkhd)
         50341 MiB available memory on the node where the printing process lives
------------------
     ethr =  7.87E-07,  avg # of iterations =  4.8

     negative rho (up, down):  7.949E-01 0.000E+00

     total cpu time spent up to now is      426.0 secs

     total energy              =   -4440.28948067 Ry
     estimated scf accuracy    <       0.00165111 Ry

     iteration # 29     ecut=    60.00 Ry     beta= 0.15
     Davidson diagonalization with overlap

---- Real-time Memory Report at c_bands before calling an iterative solver
             0 MiB given to the printing process from OS
             0 MiB allocation reported by mallinfo(arena+hblkhd)
         50341 MiB available memory on the node where the printing process lives
------------------
     c_bands:  1 eigenvalues not converged
     ethr =  3.84E-07,  avg # of iterations =  6.9

     negative rho (up, down):  7.955E-01 0.000E+00

     total cpu time spent up to now is      442.5 secs

     total energy              =   -4440.28956652 Ry
     estimated scf accuracy    <       0.00107171 Ry

     iteration # 30     ecut=    60.00 Ry     beta= 0.15
     Davidson diagonalization with overlap

---- Real-time Memory Report at c_bands before calling an iterative solver
             0 MiB given to the printing process from OS
             0 MiB allocation reported by mallinfo(arena+hblkhd)
         50333 MiB available memory on the node where the printing process lives
------------------
     ethr =  2.49E-07,  avg # of iterations =  5.8

     negative rho (up, down):  7.942E-01 0.000E+00

     total cpu time spent up to now is      458.1 secs

     total energy              =   -4440.28959287 Ry
     estimated scf accuracy    <       0.00062502 Ry

     iteration # 31     ecut=    60.00 Ry     beta= 0.15
     Davidson diagonalization with overlap

---- Real-time Memory Report at c_bands before calling an iterative solver
             0 MiB given to the printing process from OS
             0 MiB allocation reported by mallinfo(arena+hblkhd)
         50328 MiB available memory on the node where the printing process lives
------------------
     ethr =  1.45E-07,  avg # of iterations =  8.9

     negative rho (up, down):  7.970E-01 0.000E+00

     total cpu time spent up to now is      475.7 secs

     total energy              =   -4440.28969078 Ry
     estimated scf accuracy    <       0.00022467 Ry

     iteration # 32     ecut=    60.00 Ry     beta= 0.15
     Davidson diagonalization with overlap

---- Real-time Memory Report at c_bands before calling an iterative solver
             0 MiB given to the printing process from OS
             0 MiB allocation reported by mallinfo(arena+hblkhd)
         50316 MiB available memory on the node where the printing process lives
------------------
     ethr =  5.22E-08,  avg # of iterations =  5.5

     negative rho (up, down):  7.958E-01 0.000E+00

     total cpu time spent up to now is      491.4 secs

     total energy              =   -4440.28967399 Ry
     estimated scf accuracy    <       0.00009507 Ry

     iteration # 33     ecut=    60.00 Ry     beta= 0.15
     Davidson diagonalization with overlap

---- Real-time Memory Report at c_bands before calling an iterative solver
             0 MiB given to the printing process from OS
             0 MiB allocation reported by mallinfo(arena+hblkhd)
         50315 MiB available memory on the node where the printing process lives
------------------
     ethr =  2.21E-08,  avg # of iterations =  2.0

     negative rho (up, down):  7.938E-01 0.000E+00

     total cpu time spent up to now is      505.6 secs

     total energy              =   -4440.28963723 Ry
     estimated scf accuracy    <       0.00004321 Ry

     iteration # 34     ecut=    60.00 Ry     beta= 0.15
     Davidson diagonalization with overlap

---- Real-time Memory Report at c_bands before calling an iterative solver
             0 MiB given to the printing process from OS
             0 MiB allocation reported by mallinfo(arena+hblkhd)
         50360 MiB available memory on the node where the printing process lives
------------------
     ethr =  1.00E-08,  avg # of iterations =  4.7

     negative rho (up, down):  7.934E-01 0.000E+00

     total cpu time spent up to now is      521.0 secs

     total energy              =   -4440.28963744 Ry
     estimated scf accuracy    <       0.00002393 Ry

     iteration # 35     ecut=    60.00 Ry     beta= 0.15
     Davidson diagonalization with overlap

---- Real-time Memory Report at c_bands before calling an iterative solver
             0 MiB given to the printing process from OS
             0 MiB allocation reported by mallinfo(arena+hblkhd)
         50348 MiB available memory on the node where the printing process lives
------------------
     ethr =  5.56E-09,  avg # of iterations =  1.8

     negative rho (up, down):  7.932E-01 0.000E+00

     total cpu time spent up to now is      534.8 secs

     total energy              =   -4440.28964081 Ry
     estimated scf accuracy    <       0.00001989 Ry

     iteration # 36     ecut=    60.00 Ry     beta= 0.15
     Davidson diagonalization with overlap

---- Real-time Memory Report at c_bands before calling an iterative solver
             0 MiB given to the printing process from OS
             0 MiB allocation reported by mallinfo(arena+hblkhd)
         50355 MiB available memory on the node where the printing process lives
------------------
     ethr =  4.63E-09,  avg # of iterations =  2.0

     negative rho (up, down):  7.926E-01 0.000E+00

     total cpu time spent up to now is      548.8 secs

     total energy              =   -4440.28964645 Ry
     estimated scf accuracy    <       0.00001239 Ry

     iteration # 37     ecut=    60.00 Ry     beta= 0.15
     Davidson diagonalization with overlap

---- Real-time Memory Report at c_bands before calling an iterative solver
             0 MiB given to the printing process from OS
             0 MiB allocation reported by mallinfo(arena+hblkhd)
         50373 MiB available memory on the node where the printing process lives
------------------
     ethr =  2.88E-09,  avg # of iterations =  2.1

     negative rho (up, down):  7.924E-01 0.000E+00

     total cpu time spent up to now is      562.9 secs

     total energy              =   -4440.28964804 Ry
     estimated scf accuracy    <       0.00000584 Ry

     iteration # 38     ecut=    60.00 Ry     beta= 0.15
     Davidson diagonalization with overlap

---- Real-time Memory Report at c_bands before calling an iterative solver
             0 MiB given to the printing process from OS
             0 MiB allocation reported by mallinfo(arena+hblkhd)
         50371 MiB available memory on the node where the printing process lives
------------------
     ethr =  1.36E-09,  avg # of iterations =  2.0

     negative rho (up, down):  7.924E-01 0.000E+00

     total cpu time spent up to now is      576.9 secs

     total energy              =   -4440.28964771 Ry
     estimated scf accuracy    <       0.00000440 Ry

     iteration # 39     ecut=    60.00 Ry     beta= 0.15
     Davidson diagonalization with overlap

---- Real-time Memory Report at c_bands before calling an iterative solver
             0 MiB given to the printing process from OS
             0 MiB allocation reported by mallinfo(arena+hblkhd)
         50375 MiB available memory on the node where the printing process lives
------------------
     ethr =  1.02E-09,  avg # of iterations =  2.7

     negative rho (up, down):  7.924E-01 0.000E+00

     total cpu time spent up to now is      591.1 secs

     total energy              =   -4440.28964581 Ry
     estimated scf accuracy    <       0.00000290 Ry

     iteration # 40     ecut=    60.00 Ry     beta= 0.15
     Davidson diagonalization with overlap

---- Real-time Memory Report at c_bands before calling an iterative solver
             0 MiB given to the printing process from OS
             0 MiB allocation reported by mallinfo(arena+hblkhd)
         50371 MiB available memory on the node where the printing process lives
------------------
     ethr =  6.74E-10,  avg # of iterations =  2.0

     negative rho (up, down):  7.924E-01 0.000E+00

     total cpu time spent up to now is      605.2 secs

     total energy              =   -4440.28964542 Ry
     estimated scf accuracy    <       0.00000187 Ry

     iteration # 41     ecut=    60.00 Ry     beta= 0.15
     Davidson diagonalization with overlap

---- Real-time Memory Report at c_bands before calling an iterative solver
             0 MiB given to the printing process from OS
             0 MiB allocation reported by mallinfo(arena+hblkhd)
         50383 MiB available memory on the node where the printing process lives
------------------
     ethr =  4.35E-10,  avg # of iterations =  2.1

     negative rho (up, down):  7.925E-01 0.000E+00

     total cpu time spent up to now is      619.2 secs

     total energy              =   -4440.28964582 Ry
     estimated scf accuracy    <       0.00000128 Ry

     iteration # 42     ecut=    60.00 Ry     beta= 0.15
     Davidson diagonalization with overlap

---- Real-time Memory Report at c_bands before calling an iterative solver
             0 MiB given to the printing process from OS
             0 MiB allocation reported by mallinfo(arena+hblkhd)
         50397 MiB available memory on the node where the printing process lives
------------------
     ethr =  2.98E-10,  avg # of iterations =  2.0

     negative rho (up, down):  7.925E-01 0.000E+00

     total cpu time spent up to now is      633.2 secs

     total energy              =   -4440.28964689 Ry
     estimated scf accuracy    <       0.00000102 Ry

     iteration # 43     ecut=    60.00 Ry     beta= 0.15
     Davidson diagonalization with overlap

---- Real-time Memory Report at c_bands before calling an iterative solver
             0 MiB given to the printing process from OS
             0 MiB allocation reported by mallinfo(arena+hblkhd)
         50398 MiB available memory on the node where the printing process lives
------------------
     ethr =  2.37E-10,  avg # of iterations =  2.4

     negative rho (up, down):  7.925E-01 0.000E+00

     total cpu time spent up to now is      647.4 secs

     total energy              =   -4440.28964771 Ry
     estimated scf accuracy    <       0.00000053 Ry

     iteration # 44     ecut=    60.00 Ry     beta= 0.15
     Davidson diagonalization with overlap

---- Real-time Memory Report at c_bands before calling an iterative solver
             0 MiB given to the printing process from OS
             0 MiB allocation reported by mallinfo(arena+hblkhd)
         50421 MiB available memory on the node where the printing process lives
------------------
     ethr =  1.24E-10,  avg # of iterations =  3.2

     negative rho (up, down):  7.925E-01 0.000E+00

     total cpu time spent up to now is      661.9 secs

     total energy              =   -4440.28964797 Ry
     estimated scf accuracy    <       0.00000036 Ry

     iteration # 45     ecut=    60.00 Ry     beta= 0.15
     Davidson diagonalization with overlap

---- Real-time Memory Report at c_bands before calling an iterative solver
             0 MiB given to the printing process from OS
             0 MiB allocation reported by mallinfo(arena+hblkhd)
         50422 MiB available memory on the node where the printing process lives
------------------
     ethr =  8.31E-11,  avg # of iterations =  2.8

     negative rho (up, down):  7.925E-01 0.000E+00

     total cpu time spent up to now is      676.3 secs

     total energy              =   -4440.28964799 Ry
     estimated scf accuracy    <       0.00000013 Ry

     iteration # 46     ecut=    60.00 Ry     beta= 0.15
     Davidson diagonalization with overlap

---- Real-time Memory Report at c_bands before calling an iterative solver
             0 MiB given to the printing process from OS
             0 MiB allocation reported by mallinfo(arena+hblkhd)
         50421 MiB available memory on the node where the printing process lives
------------------
     ethr =  2.91E-11,  avg # of iterations =  2.8

     negative rho (up, down):  7.925E-01 0.000E+00

     total cpu time spent up to now is      690.5 secs

     total energy              =   -4440.28964797 Ry
     estimated scf accuracy    <       0.00000008 Ry

     iteration # 47     ecut=    60.00 Ry     beta= 0.15
     Davidson diagonalization with overlap

---- Real-time Memory Report at c_bands before calling an iterative solver
             0 MiB given to the printing process from OS
             0 MiB allocation reported by mallinfo(arena+hblkhd)
         50423 MiB available memory on the node where the printing process lives
------------------
     ethr =  1.82E-11,  avg # of iterations =  2.8

     negative rho (up, down):  7.926E-01 0.000E+00

     total cpu time spent up to now is      704.7 secs

     total energy              =   -4440.28964796 Ry
     estimated scf accuracy    <       0.00000004 Ry

     iteration # 48     ecut=    60.00 Ry     beta= 0.15
     Davidson diagonalization with overlap

---- Real-time Memory Report at c_bands before calling an iterative solver
             0 MiB given to the printing process from OS
             0 MiB allocation reported by mallinfo(arena+hblkhd)
         50422 MiB available memory on the node where the printing process lives
------------------
     ethr =  1.02E-11,  avg # of iterations =  2.5

     negative rho (up, down):  7.926E-01 0.000E+00

     total cpu time spent up to now is      719.0 secs

     total energy              =   -4440.28964795 Ry
     estimated scf accuracy    <       0.00000003 Ry

     iteration # 49     ecut=    60.00 Ry     beta= 0.15
     Davidson diagonalization with overlap

---- Real-time Memory Report at c_bands before calling an iterative solver
             0 MiB given to the printing process from OS
             0 MiB allocation reported by mallinfo(arena+hblkhd)
         50422 MiB available memory on the node where the printing process lives
------------------
     ethr =  6.15E-12,  avg # of iterations =  2.2

     negative rho (up, down):  7.926E-01 0.000E+00

     total cpu time spent up to now is      733.2 secs

     total energy              =   -4440.28964794 Ry
     estimated scf accuracy    <       0.00000002 Ry

     iteration # 50     ecut=    60.00 Ry     beta= 0.15
     Davidson diagonalization with overlap

---- Real-time Memory Report at c_bands before calling an iterative solver
             0 MiB given to the printing process from OS
             0 MiB allocation reported by mallinfo(arena+hblkhd)
         50424 MiB available memory on the node where the printing process lives
------------------
     ethr =  4.78E-12,  avg # of iterations =  2.0

     negative rho (up, down):  7.926E-01 0.000E+00

     total cpu time spent up to now is      747.4 secs

     total energy              =   -4440.28964795 Ry
     estimated scf accuracy    <       0.00000002 Ry

     iteration # 51     ecut=    60.00 Ry     beta= 0.15
     Davidson diagonalization with overlap

---- Real-time Memory Report at c_bands before calling an iterative solver
             0 MiB given to the printing process from OS
             0 MiB allocation reported by mallinfo(arena+hblkhd)
         50420 MiB available memory on the node where the printing process lives
------------------
     ethr =  3.83E-12,  avg # of iterations =  2.3

     negative rho (up, down):  7.926E-01 0.000E+00

     total cpu time spent up to now is      761.7 secs

     total energy              =   -4440.28964796 Ry
     estimated scf accuracy    <       0.00000001 Ry

     iteration # 52     ecut=    60.00 Ry     beta= 0.15
     Davidson diagonalization with overlap

---- Real-time Memory Report at c_bands before calling an iterative solver
             0 MiB given to the printing process from OS
             0 MiB allocation reported by mallinfo(arena+hblkhd)
         50424 MiB available memory on the node where the printing process lives
------------------
     ethr =  2.85E-12,  avg # of iterations =  2.0

     negative rho (up, down):  7.926E-01 0.000E+00

     total cpu time spent up to now is      775.5 secs

     End of self-consistent calculation

          k = 0.0000 0.0000 0.0000 ( 65197 PWs)   bands (ev):

   -92.8505 -92.7985 -92.7045 -92.6574 -92.5981 -92.5568 -92.5401 -92.4136
   -56.2041 -56.1853 -56.0614 -56.0509 -56.0447 -56.0378 -56.0032 -55.9734
   -55.9590 -55.9565 -55.9479 -55.9057 -55.8875 -55.8492 -55.8311 -55.7980
   -55.7931 -55.7451 -55.7418 -55.7401 -55.7334 -55.6845 -55.6701 -55.5833
   -31.4154 -31.3955 -31.2541 -31.1813 -31.1671 -31.0983 -30.9960 -30.8799
   -29.9962 -29.9529 -29.9272 -29.8190 -15.2277 -15.1848 -15.1034 -14.9728
   -14.7791 -14.6556 -14.3647 -14.3436 -14.3159 -14.2692 -14.2229 -14.2127
   -14.2024 -14.1854 -14.1646 -14.1245 -14.0769 -13.9252 -13.7457 -13.7130
   -13.6831 -13.6505 -13.6343 -13.5766 -13.5452 -13.4581 -13.3905 -13.2697
   -13.2481 -13.2379 -13.2135 -13.1958 -13.1879 -13.1409 -13.1383 -13.1197
   -13.0922 -13.0610 -13.0414 -13.0196 -12.9920 -12.9785 -12.9224 -12.9083
   -12.8918 -12.8214 -12.7889 -12.7746 -12.4814 -12.3357 -12.1705 -12.0981
   -12.0095 -11.9706 -11.9355 -11.9244 -11.9016 -11.8840 -11.8204 -11.8031
   -11.7684 -11.7392 -11.6277 -11.5480 -11.5443  -3.0893  -2.8573  -2.6273
    -2.4809  -2.4179  -2.2759  -1.9686  -1.9544  -1.9348  -1.8502  -1.8307
    -1.7620  -1.7457  -1.7051  -1.6577  -1.4794  -1.2539  -1.2251  -1.0783
    -1.0639  -1.0182  -0.9995  -0.9529  -0.9362  -0.8816  -0.8549  -0.7823
    -0.7688  -0.6948  -0.5608  -0.5466  -0.5203  -0.4400  -0.4173  -0.4074
    -0.3404  -0.2757  -0.2325  -0.1762  -0.1514  -0.0850  -0.0039   0.0329
     0.0598   0.0746   0.3265   0.3413   0.5147   0.5779   0.6431   0.6984
     0.7813   0.7939   0.8136   0.8762   0.9029   0.9370   0.9945   1.1254
     1.1847   1.2066   1.2318   1.2406   1.3032   1.3728   1.4810   1.4958
     1.5570   1.5684   1.6134   1.6334   1.6397   1.6932   1.7536   1.7668
     1.8025   1.8423   1.8802   2.0126   2.0950   2.1374   2.1660   2.3068
     2.3245   2.3631   2.3648   2.4734   2.5093   2.5351   2.5543   2.5683
     2.6357   2.6460   2.6615   2.6839   2.7604   2.7919   2.8038   2.8105
     2.8769   2.8814   2.9061   2.9132   2.9233   2.9414   2.9424   2.9583
     2.9622   2.9781   2.9843   2.9996   3.0090   3.0293   3.0359   3.0471
     3.0727   3.1879   3.3057   3.9786   4.2844   4.6373   4.8452   4.9082
     5.7723   5.7915   5.8484   5.9081   6.1668   6.2135   6.4526   6.4634
     6.9644   6.9845   7.0892   7.1883   7.3914   7.5108   7.5405   7.5713
     7.5911   7.7982   7.8943   8.0538   8.1254   8.1818   8.2945   8.3851
     8.7359   8.8417

     occupation numbers 
     1.0000   1.0000   1.0000   1.0000   1.0000   1.0000   1.0000   1.0000
     1.0000   1.0000   1.0000   1.0000   1.0000   1.0000   1.0000   1.0000
     1.0000   1.0000   1.0000   1.0000   1.0000   1.0000   1.0000   1.0000
     1.0000   1.0000   1.0000   1.0000   1.0000   1.0000   1.0000   1.0000
     1.0000   1.0000   1.0000   1.0000   1.0000   1.0000   1.0000   1.0000
     1.0000   1.0000   1.0000   1.0000   1.0000   1.0000   1.0000   1.0000
     1.0000   1.0000   1.0000   1.0000   1.0000   1.0000   1.0000   1.0000
     1.0000   1.0000   1.0000   1.0000   1.0000   1.0000   1.0000   1.0000
     1.0000   1.0000   1.0000   1.0000   1.0000   1.0000   1.0000   1.0000
     1.0000   1.0000   1.0000   1.0000   1.0000   1.0000   1.0000   1.0000
     1.0000   1.0000   1.0000   1.0000   1.0000   1.0000   1.0000   1.0000
     1.0000   1.0000   1.0000   1.0000   1.0000   1.0000   1.0000   1.0000
     1.0000   1.0000   1.0000   1.0000   1.0000   1.0000   1.0000   1.0000
     1.0000   1.0000   1.0000   1.0000   1.0000   1.0000   1.0000   1.0000
     1.0000   1.0000   1.0000   1.0000   1.0000   1.0000   1.0000   1.0000
     1.0000   1.0000   1.0000   1.0000   1.0000   1.0000   1.0000   1.0000
     1.0000   1.0000   1.0000   1.0000   1.0000   1.0000   1.0000   1.0000
     1.0000   1.0000   1.0000   1.0000   1.0000   1.0000   1.0000   1.0000
     1.0000   1.0000   1.0000   1.0000   1.0000   1.0000   1.0000   1.0000
     1.0000   1.0000   1.0000   1.0000   1.0000   0.9999   0.9999   0.9999
     0.9998   0.9998   0.9998   0.9997   0.9996   0.9996   0.9994   0.9988
     0.9985   0.9983   0.9981   0.9980   0.9973   0.9963   0.9941   0.9938
     0.9920   0.9916   0.9899   0.9891   0.9888   0.9863   0.9828   0.9819
     0.9795   0.9763   0.9730   0.9582   0.9461   0.9389   0.9336   0.9021
     0.8975   0.8869   0.8864   0.8523   0.8397   0.8302   0.8228   0.8174
     0.7897   0.7853   0.7785   0.7685   0.7324   0.7168   0.7108   0.7074
     0.6726   0.6702   0.6568   0.6530   0.6474   0.6374   0.6369   0.6279
     0.6257   0.6168   0.6133   0.6045   0.5992   0.5874   0.5836   0.5771
     0.5622   0.4942   0.4249   0.1173   0.0502   0.0151   0.0067   0.0051
     0.0001   0.0001   0.0000   0.0000   0.0000   0.0000   0.0000   0.0000
     0.0000   0.0000   0.0000   0.0000   0.0000   0.0000   0.0000   0.0000
     0.0000   0.0000   0.0000   0.0000   0.0000   0.0000   0.0000   0.0000
     0.0000   0.0000

          k = 0.0000 0.2500 0.0000 ( 65257 PWs)   bands (ev):

   -92.8505 -92.7985 -92.7045 -92.6574 -92.5981 -92.5568 -92.5401 -92.4136
   -56.2041 -56.1853 -56.0614 -56.0509 -56.0447 -56.0378 -56.0032 -55.9734
   -55.9590 -55.9565 -55.9479 -55.9057 -55.8875 -55.8492 -55.8311 -55.7980
   -55.7931 -55.7451 -55.7418 -55.7401 -55.7334 -55.6845 -55.6701 -55.5833
   -31.4152 -31.3954 -31.2543 -31.1809 -31.1673 -31.0986 -30.9957 -30.8802
   -29.9955 -29.9526 -29.9278 -29.8193 -15.1911 -15.1585 -15.0784 -14.9435
   -14.8210 -14.6462 -14.5106 -14.3304 -14.2946 -14.2733 -14.2450 -14.1879
   -14.1814 -14.1668 -14.1471 -14.0966 -13.9955 -13.9560 -13.7905 -13.7721
   -13.7233 -13.6870 -13.6414 -13.5971 -13.5545 -13.4840 -13.4443 -13.3775
   -13.3072 -13.2850 -13.2466 -13.2300 -13.1700 -13.1267 -13.1011 -13.0734
   -13.0486 -13.0382 -13.0056 -12.9608 -12.9442 -12.9385 -12.9158 -12.8747
   -12.8518 -12.8147 -12.7057 -12.6322 -12.5427 -12.3869 -12.2272 -12.1639
   -11.9751 -11.9713 -11.9323 -11.9043 -11.8761 -11.8596 -11.8122 -11.8009
   -11.7783 -11.7441 -11.6420 -11.5896 -11.5790  -2.9539  -2.7330  -2.5949
    -2.4133  -2.3697  -2.2063  -1.9859  -1.9027  -1.8897  -1.8312  -1.7289
    -1.7127  -1.6765  -1.6514  -1.6074  -1.4106  -1.2817  -1.2702  -1.1925
    -1.1835  -1.0793  -1.0491  -0.9912  -0.9656  -0.9258  -0.8609  -0.8338
    -0.8028  -0.7704  -0.7536  -0.7215  -0.6460  -0.5963  -0.5259  -0.4156
    -0.3941  -0.3531  -0.2389  -0.2041  -0.1336  -0.0917  -0.0208  -0.0010
     0.0160   0.0721   0.3742   0.4612   0.4906   0.5832   0.6301   0.6562
     0.7656   0.7848   0.8791   0.9046   0.9287   1.0446   1.1398   1.1601
     1.1835   1.2062   1.2287   1.2873   1.3158   1.3422   1.3902   1.4278
     1.4571   1.5403   1.5743   1.6125   1.6652   1.7162   1.7617   1.7915
     1.8188   1.8311   1.9251   2.0450   2.1200   2.1475   2.2122   2.2601
     2.2993   2.3111   2.3698   2.4069   2.4892   2.5297   2.5473   2.6347
     2.6573   2.6625   2.7206   2.7455   2.7725   2.7960   2.8132   2.8216
     2.8267   2.8392   2.8660   2.8715   2.8881   2.8940   2.9032   2.9214
     2.9363   2.9425   2.9607   2.9714   2.9769   3.0102   3.0273   3.0928
     3.4554   3.5170   3.7426   4.1741   4.2803   4.5720   4.9267   5.0096
     5.5373   5.6650   5.8404   5.9245   5.9739   6.0189   6.0898   6.5682
     7.0436   7.0547   7.2126   7.2650   7.3736   7.4295   7.4660   7.5706
     7.7103   7.9169   8.0929   8.2447   8.2755   8.3027   8.3246   8.3618
     8.4436   8.8325

     occupation numbers 
     1.0000   1.0000   1.0000   1.0000   1.0000   1.0000   1.0000   1.0000
     1.0000   1.0000   1.0000   1.0000   1.0000   1.0000   1.0000   1.0000
     1.0000   1.0000   1.0000   1.0000   1.0000   1.0000   1.0000   1.0000
     1.0000   1.0000   1.0000   1.0000   1.0000   1.0000   1.0000   1.0000
     1.0000   1.0000   1.0000   1.0000   1.0000   1.0000   1.0000   1.0000
     1.0000   1.0000   1.0000   1.0000   1.0000   1.0000   1.0000   1.0000
     1.0000   1.0000   1.0000   1.0000   1.0000   1.0000   1.0000   1.0000
     1.0000   1.0000   1.0000   1.0000   1.0000   1.0000   1.0000   1.0000
     1.0000   1.0000   1.0000   1.0000   1.0000   1.0000   1.0000   1.0000
     1.0000   1.0000   1.0000   1.0000   1.0000   1.0000   1.0000   1.0000
     1.0000   1.0000   1.0000   1.0000   1.0000   1.0000   1.0000   1.0000
     1.0000   1.0000   1.0000   1.0000   1.0000   1.0000   1.0000   1.0000
     1.0000   1.0000   1.0000   1.0000   1.0000   1.0000   1.0000   1.0000
     1.0000   1.0000   1.0000   1.0000   1.0000   1.0000   1.0000   1.0000
     1.0000   1.0000   1.0000   1.0000   1.0000   1.0000   1.0000   1.0000
     1.0000   1.0000   1.0000   1.0000   1.0000   1.0000   1.0000   1.0000
     1.0000   1.0000   1.0000   1.0000   1.0000   1.0000   1.0000   1.0000
     1.0000   1.0000   1.0000   1.0000   1.0000   1.0000   1.0000   1.0000
     1.0000   1.0000   1.0000   1.0000   1.0000   1.0000   1.0000   1.0000
     1.0000   1.0000   1.0000   1.0000   1.0000   0.9999   0.9999   0.9999
     0.9998   0.9998   0.9997   0.9996   0.9996   0.9992   0.9988   0.9986
     0.9985   0.9983   0.9981   0.9975   0.9972   0.9968   0.9960   0.9953
     0.9947   0.9925   0.9914   0.9900   0.9877   0.9850   0.9823   0.9803
     0.9782   0.9773   0.9686   0.9538   0.9419   0.9370   0.9242   0.9136
     0.9040   0.9010   0.8850   0.8739   0.8468   0.8322   0.8256   0.7901
     0.7803   0.7780   0.7515   0.7397   0.7265   0.7148   0.7060   0.7017
     0.6991   0.6926   0.6785   0.6756   0.6666   0.6635   0.6584   0.6485
     0.6402   0.6368   0.6266   0.6206   0.6174   0.5984   0.5886   0.5504
     0.3403   0.3074   0.2009   0.0696   0.0509   0.0192   0.0047   0.0033
     0.0002   0.0001   0.0000   0.0000   0.0000   0.0000   0.0000   0.0000
     0.0000   0.0000   0.0000   0.0000   0.0000   0.0000   0.0000   0.0000
     0.0000   0.0000   0.0000   0.0000   0.0000   0.0000   0.0000   0.0000
     0.0000   0.0000

          k = 0.0000-0.5000 0.0000 ( 65180 PWs)   bands (ev):

   -92.8505 -92.7985 -92.7045 -92.6574 -92.5981 -92.5568 -92.5401 -92.4136
   -56.2041 -56.1853 -56.0614 -56.0509 -56.0447 -56.0378 -56.0032 -55.9734
   -55.9590 -55.9565 -55.9479 -55.9057 -55.8875 -55.8492 -55.8311 -55.7980
   -55.7931 -55.7451 -55.7418 -55.7401 -55.7334 -55.6845 -55.6701 -55.5833
   -31.4150 -31.3953 -31.2545 -31.1806 -31.1674 -31.0990 -30.9955 -30.8804
   -29.9949 -29.9523 -29.9284 -29.8196 -15.1563 -15.1076 -15.0542 -14.9261
   -14.8421 -14.7042 -14.5500 -14.4259 -14.3026 -14.2294 -14.1886 -14.1830
   -14.1307 -14.1153 -14.0673 -14.0447 -14.0213 -13.9846 -13.9468 -13.9087
   -13.7287 -13.6700 -13.6471 -13.6004 -13.5524 -13.5015 -13.4475 -13.4198
   -13.3964 -13.3546 -13.2474 -13.2312 -13.1543 -13.1126 -13.1031 -13.0818
   -13.0664 -13.0210 -12.9580 -12.9383 -12.9156 -12.8601 -12.8446 -12.8346
   -12.8203 -12.7909 -12.6536 -12.5668 -12.4620 -12.4207 -12.3340 -12.2902
   -11.9718 -11.9292 -11.9267 -11.8992 -11.8621 -11.8276 -11.8164 -11.7740
   -11.7700 -11.7257 -11.6638 -11.6503 -11.6362  -2.7396  -2.6795  -2.5300
    -2.4579  -2.1758  -2.0913  -1.9656  -1.8282  -1.7902  -1.7714  -1.6907
    -1.6609  -1.5794  -1.5438  -1.4663  -1.4263  -1.3883  -1.3609  -1.3016
    -1.2654  -1.2186  -1.1825  -1.1498  -1.1157  -1.0060  -0.9613  -0.9252
    -0.9241  -0.8383  -0.8045  -0.7842  -0.7328  -0.6473  -0.5761  -0.4904
    -0.4628  -0.3575  -0.3120  -0.1757  -0.1302  -0.1127  -0.0402   0.0789
     0.1180   0.2449   0.3142   0.3207   0.4484   0.5007   0.6240   0.7268
     0.8381   0.8680   0.9069   0.9128   0.9585   0.9678   1.0024   1.0207
     1.0293   1.1399   1.2026   1.2350   1.2599   1.5209   1.5506   1.5712
     1.6735   1.7009   1.7224   1.7368   1.7646   1.7780   1.7980   1.8231
     1.8563   1.8888   1.9216   1.9230   1.9529   2.0066   2.0896   2.1194
     2.3066   2.4549   2.4652   2.4817   2.5203   2.5256   2.5333   2.5820
     2.5956   2.6251   2.6353   2.6538   2.6603   2.6976   2.7588   2.7681
     2.8316   2.8494   2.8616   2.8661   2.8828   2.8940   2.8959   2.9002
     2.9034   2.9241   2.9323   2.9411   2.9952   3.0046   3.0168   3.0702
     3.9947   4.0302   4.0325   4.1217   4.6191   4.7597   4.9371   5.0286
     5.3171   5.3826   5.5187   5.6080   5.8853   5.9099   6.2651   6.6359
     6.8158   6.9102   7.1662   7.3297   7.5190   7.5870   7.6841   7.7002
     7.8034   7.9317   8.1107   8.1830   8.2370   8.3062   8.3751   8.5489
     8.7169   8.7775

     occupation numbers 
     1.0000   1.0000   1.0000   1.0000   1.0000   1.0000   1.0000   1.0000
     1.0000   1.0000   1.0000   1.0000   1.0000   1.0000   1.0000   1.0000
     1.0000   1.0000   1.0000   1.0000   1.0000   1.0000   1.0000   1.0000
     1.0000   1.0000   1.0000   1.0000   1.0000   1.0000   1.0000   1.0000
     1.0000   1.0000   1.0000   1.0000   1.0000   1.0000   1.0000   1.0000
     1.0000   1.0000   1.0000   1.0000   1.0000   1.0000   1.0000   1.0000
     1.0000   1.0000   1.0000   1.0000   1.0000   1.0000   1.0000   1.0000
     1.0000   1.0000   1.0000   1.0000   1.0000   1.0000   1.0000   1.0000
     1.0000   1.0000   1.0000   1.0000   1.0000   1.0000   1.0000   1.0000
     1.0000   1.0000   1.0000   1.0000   1.0000   1.0000   1.0000   1.0000
     1.0000   1.0000   1.0000   1.0000   1.0000   1.0000   1.0000   1.0000
     1.0000   1.0000   1.0000   1.0000   1.0000   1.0000   1.0000   1.0000
     1.0000   1.0000   1.0000   1.0000   1.0000   1.0000   1.0000   1.0000
     1.0000   1.0000   1.0000   1.0000   1.0000   1.0000   1.0000   1.0000
     1.0000   1.0000   1.0000   1.0000   1.0000   1.0000   1.0000   1.0000
     1.0000   1.0000   1.0000   1.0000   1.0000   1.0000   1.0000   1.0000
     1.0000   1.0000   1.0000   1.0000   1.0000   1.0000   1.0000   1.0000
     1.0000   1.0000   1.0000   1.0000   1.0000   1.0000   1.0000   1.0000
     1.0000   1.0000   1.0000   1.0000   1.0000   1.0000   1.0000   1.0000
     1.0000   1.0000   1.0000   1.0000   1.0000   1.0000   0.9999   0.9999
     0.9997   0.9997   0.9996   0.9996   0.9995   0.9995   0.9994   0.9993
     0.9993   0.9988   0.9983   0.9980   0.9978   0.9931   0.9922   0.9915
     0.9873   0.9859   0.9847   0.9838   0.9821   0.9812   0.9798   0.9779
     0.9752   0.9722   0.9690   0.9688   0.9656   0.9590   0.9470   0.9420
     0.9022   0.8586   0.8551   0.8495   0.8356   0.8337   0.8308   0.8120
     0.8065   0.7942   0.7899   0.7819   0.7790   0.7622   0.7332   0.7287
     0.6966   0.6872   0.6808   0.6784   0.6695   0.6634   0.6624   0.6601
     0.6583   0.6469   0.6424   0.6375   0.6070   0.6017   0.5946   0.5636
     0.1126   0.1029   0.1023   0.0806   0.0162   0.0094   0.0045   0.0030
     0.0007   0.0005   0.0003   0.0002   0.0000   0.0000   0.0000   0.0000
     0.0000   0.0000   0.0000   0.0000   0.0000   0.0000   0.0000   0.0000
     0.0000   0.0000   0.0000   0.0000   0.0000   0.0000   0.0000   0.0000
     0.0000   0.0000

          k = 0.2500 0.2500 0.0000 ( 65198 PWs)   bands (ev):

   -92.8505 -92.7985 -92.7045 -92.6574 -92.5981 -92.5568 -92.5401 -92.4136
   -56.2041 -56.1853 -56.0614 -56.0509 -56.0447 -56.0378 -56.0032 -55.9734
   -55.9590 -55.9565 -55.9479 -55.9057 -55.8875 -55.8492 -55.8311 -55.7980
   -55.7931 -55.7451 -55.7418 -55.7401 -55.7334 -55.6845 -55.6701 -55.5833
   -31.4135 -31.3971 -31.2539 -31.1808 -31.1677 -31.0985 -30.9959 -30.8803
   -29.9946 -29.9536 -29.9274 -29.8197 -15.1624 -15.1235 -15.0504 -14.9332
   -14.8132 -14.6877 -14.6163 -14.4086 -14.2535 -14.2391 -14.2038 -14.1749
   -14.1534 -14.1251 -14.0930 -14.0594 -13.9860 -13.9694 -13.8070 -13.7931
   -13.7652 -13.7435 -13.6902 -13.6540 -13.5897 -13.5672 -13.4333 -13.3898
   -13.3661 -13.2800 -13.2396 -13.1890 -13.1573 -13.1363 -13.1159 -13.0848
   -13.0593 -13.0454 -12.9840 -12.9352 -12.9149 -12.8836 -12.8811 -12.8527
   -12.8289 -12.8145 -12.6497 -12.5912 -12.5291 -12.4160 -12.2576 -12.2124
   -11.9716 -11.9473 -11.9158 -11.9047 -11.8976 -11.8353 -11.8003 -11.7939
   -11.7585 -11.7503 -11.6587 -11.6178 -11.6005  -2.8156  -2.6072  -2.4886
    -2.3950  -2.2743  -2.2095  -2.0105  -1.8676  -1.8480  -1.8180  -1.7238
    -1.6869  -1.5950  -1.5673  -1.5170  -1.3862  -1.3381  -1.2646  -1.2205
    -1.1757  -1.1525  -1.1283  -1.0856  -1.0707  -0.9795  -0.9297  -0.8633
    -0.8138  -0.7843  -0.7353  -0.7201  -0.6571  -0.6083  -0.5489  -0.5152
    -0.4285  -0.3780  -0.3479  -0.3105  -0.2539  -0.1813  -0.1433  -0.1127
    -0.0366   0.0104   0.2627   0.4105   0.4451   0.5047   0.5456   0.6212
     0.6676   0.7231   0.7581   1.0303   1.0938   1.1677   1.1919   1.2438
     1.2729   1.3077   1.3444   1.3622   1.3892   1.4347   1.4436   1.4578
     1.5055   1.5477   1.5823   1.6378   1.6822   1.6868   1.7274   1.7572
     1.8177   1.8458   1.9657   2.0289   2.0626   2.0877   2.1606   2.2244
     2.2492   2.2845   2.3099   2.3227   2.4343   2.4712   2.5590   2.6358
     2.6486   2.6850   2.7307   2.7467   2.7516   2.7678   2.7826   2.7964
     2.8081   2.8152   2.8273   2.8402   2.8534   2.8723   2.8800   2.8914
     2.9119   2.9236   2.9307   2.9649   3.2634   3.3582   3.4023   3.4753
     3.5183   3.7270   3.8083   4.1709   4.3760   4.5846   4.8446   5.1479
     5.5286   5.5868   5.6304   5.6907   5.7536   6.0968   6.1358   6.1797
     6.8566   7.0378   7.1726   7.3551   7.4786   7.5083   7.6180   7.7849
     7.8295   7.9427   8.1800   8.2296   8.3505   8.4048   8.4484   8.4909
     8.5234   8.5659

     occupation numbers 
     1.0000   1.0000   1.0000   1.0000   1.0000   1.0000   1.0000   1.0000
     1.0000   1.0000   1.0000   1.0000   1.0000   1.0000   1.0000   1.0000
     1.0000   1.0000   1.0000   1.0000   1.0000   1.0000   1.0000   1.0000
     1.0000   1.0000   1.0000   1.0000   1.0000   1.0000   1.0000   1.0000
     1.0000   1.0000   1.0000   1.0000   1.0000   1.0000   1.0000   1.0000
     1.0000   1.0000   1.0000   1.0000   1.0000   1.0000   1.0000   1.0000
     1.0000   1.0000   1.0000   1.0000   1.0000   1.0000   1.0000   1.0000
     1.0000   1.0000   1.0000   1.0000   1.0000   1.0000   1.0000   1.0000
     1.0000   1.0000   1.0000   1.0000   1.0000   1.0000   1.0000   1.0000
     1.0000   1.0000   1.0000   1.0000   1.0000   1.0000   1.0000   1.0000
     1.0000   1.0000   1.0000   1.0000   1.0000   1.0000   1.0000   1.0000
     1.0000   1.0000   1.0000   1.0000   1.0000   1.0000   1.0000   1.0000
     1.0000   1.0000   1.0000   1.0000   1.0000   1.0000   1.0000   1.0000
     1.0000   1.0000   1.0000   1.0000   1.0000   1.0000   1.0000   1.0000
     1.0000   1.0000   1.0000   1.0000   1.0000   1.0000   1.0000   1.0000
     1.0000   1.0000   1.0000   1.0000   1.0000   1.0000   1.0000   1.0000
     1.0000   1.0000   1.0000   1.0000   1.0000   1.0000   1.0000   1.0000
     1.0000   1.0000   1.0000   1.0000   1.0000   1.0000   1.0000   1.0000
     1.0000   1.0000   1.0000   1.0000   1.0000   1.0000   1.0000   1.0000
     1.0000   1.0000   1.0000   1.0000   1.0000   1.0000   1.0000   0.9999
     0.9999   0.9999   0.9998   0.9993   0.9990   0.9986   0.9984   0.9980
     0.9977   0.9973   0.9968   0.9965   0.9961   0.9952   0.9950   0.9947
     0.9935   0.9923   0.9911   0.9889   0.9868   0.9866   0.9844   0.9826
     0.9783   0.9761   0.9641   0.9560   0.9512   0.9473   0.9346   0.9216
     0.9161   0.9077   0.9013   0.8980   0.8653   0.8531   0.8210   0.7897
     0.7842   0.7680   0.7468   0.7391   0.7367   0.7288   0.7215   0.7146
     0.7087   0.7050   0.6988   0.6921   0.6851   0.6751   0.6710   0.6649
     0.6537   0.6473   0.6433   0.6242   0.4496   0.3946   0.3696   0.3295
     0.3067   0.2075   0.1747   0.0702   0.0376   0.0184   0.0067   0.0017
     0.0002   0.0002   0.0001   0.0001   0.0001   0.0000   0.0000   0.0000
     0.0000   0.0000   0.0000   0.0000   0.0000   0.0000   0.0000   0.0000
     0.0000   0.0000   0.0000   0.0000   0.0000   0.0000   0.0000   0.0000
     0.0000   0.0000

          k = 0.2500-0.5000 0.0000 ( 65138 PWs)   bands (ev):

   -92.8505 -92.7985 -92.7045 -92.6574 -92.5981 -92.5568 -92.5401 -92.4136
   -56.2041 -56.1853 -56.0614 -56.0509 -56.0447 -56.0378 -56.0032 -55.9734
   -55.9590 -55.9565 -55.9479 -55.9057 -55.8875 -55.8492 -55.8311 -55.7980
   -55.7931 -55.7451 -55.7418 -55.7401 -55.7334 -55.6845 -55.6701 -55.5833
   -31.4133 -31.3969 -31.2541 -31.1804 -31.1678 -31.0989 -30.9956 -30.8806
   -29.9939 -29.9533 -29.9280 -29.8201 -15.1258 -15.0808 -15.0112 -14.8962
   -14.8646 -14.7449 -14.6533 -14.5243 -14.2181 -14.1644 -14.1392 -14.1162
   -14.1007 -14.0877 -14.0519 -14.0333 -14.0011 -13.9618 -13.9371 -13.8994
   -13.8103 -13.7607 -13.7067 -13.6812 -13.6125 -13.5999 -13.4860 -13.4442
   -13.3451 -13.2800 -13.2587 -13.1736 -13.1291 -13.1179 -13.1132 -13.0836
   -13.0644 -13.0501 -12.9642 -12.9335 -12.9179 -12.8805 -12.8518 -12.8266
   -12.7939 -12.7626 -12.6602 -12.5432 -12.4594 -12.3928 -12.3243 -12.2943
   -11.9718 -11.9230 -11.9109 -11.9000 -11.8728 -11.8413 -11.8129 -11.7715
   -11.7443 -11.7221 -11.6769 -11.6514 -11.6403  -2.5977  -2.5311  -2.4037
    -2.3266  -2.1962  -2.1109  -1.9900  -1.8393  -1.7854  -1.7635  -1.6997
    -1.6868  -1.5901  -1.5231  -1.4385  -1.3879  -1.3786  -1.3157  -1.2722
    -1.2386  -1.1911  -1.1539  -1.1194  -1.0796  -1.0678  -1.0225  -0.9930
    -0.9511  -0.9202  -0.8526  -0.7502  -0.7092  -0.6319  -0.5669  -0.5176
    -0.4754  -0.4548  -0.4022  -0.2400  -0.2294  -0.1190  -0.0887  -0.0762
    -0.0305  -0.0049   0.0380   0.0599   0.1280   0.4035   0.4974   0.5892
     0.6403   0.8896   0.9169   1.0025   1.0279   1.1910   1.2271   1.2680
     1.2884   1.3040   1.3248   1.3881   1.4365   1.4703   1.5564   1.6403
     1.6811   1.7033   1.7137   1.7476   1.7626   1.7648   1.8128   1.8237
     1.8411   1.8872   1.8950   1.9133   1.9502   2.0065   2.0428   2.1249
     2.2659   2.4073   2.4246   2.4430   2.4718   2.4946   2.5218   2.5426
     2.5534   2.5772   2.6356   2.6418   2.6531   2.7109   2.7330   2.7477
     2.7618   2.7705   2.7855   2.8005   2.8187   2.8263   2.8588   2.8714
     2.8844   2.8960   2.9079   2.9166   3.4470   3.4642   3.5950   3.6449
     4.0047   4.0382   4.0659   4.1751   4.6354   4.7812   4.9581   4.9934
     5.1665   5.3299   5.5338   5.5505   5.6581   5.6933   6.3620   6.3668
     6.4639   6.7592   7.1634   7.6112   7.6767   7.6978   7.7389   7.8102
     7.8398   7.9509   8.1193   8.3463   8.4253   8.4514   8.5728   8.5837
     8.6165   8.6615

     occupation numbers 
     1.0000   1.0000   1.0000   1.0000   1.0000   1.0000   1.0000   1.0000
     1.0000   1.0000   1.0000   1.0000   1.0000   1.0000   1.0000   1.0000
     1.0000   1.0000   1.0000   1.0000   1.0000   1.0000   1.0000   1.0000
     1.0000   1.0000   1.0000   1.0000   1.0000   1.0000   1.0000   1.0000
     1.0000   1.0000   1.0000   1.0000   1.0000   1.0000   1.0000   1.0000
     1.0000   1.0000   1.0000   1.0000   1.0000   1.0000   1.0000   1.0000
     1.0000   1.0000   1.0000   1.0000   1.0000   1.0000   1.0000   1.0000
     1.0000   1.0000   1.0000   1.0000   1.0000   1.0000   1.0000   1.0000
     1.0000   1.0000   1.0000   1.0000   1.0000   1.0000   1.0000   1.0000
     1.0000   1.0000   1.0000   1.0000   1.0000   1.0000   1.0000   1.0000
     1.0000   1.0000   1.0000   1.0000   1.0000   1.0000   1.0000   1.0000
     1.0000   1.0000   1.0000   1.0000   1.0000   1.0000   1.0000   1.0000
     1.0000   1.0000   1.0000   1.0000   1.0000   1.0000   1.0000   1.0000
     1.0000   1.0000   1.0000   1.0000   1.0000   1.0000   1.0000   1.0000
     1.0000   1.0000   1.0000   1.0000   1.0000   1.0000   1.0000   1.0000
     1.0000   1.0000   1.0000   1.0000   1.0000   1.0000   1.0000   1.0000
     1.0000   1.0000   1.0000   1.0000   1.0000   1.0000   1.0000   1.0000
     1.0000   1.0000   1.0000   1.0000   1.0000   1.0000   1.0000   1.0000
     1.0000   1.0000   1.0000   1.0000   1.0000   1.0000   1.0000   1.0000
     1.0000   1.0000   1.0000   1.0000   1.0000   1.0000   1.0000   0.9999
     0.9999   0.9997   0.9996   0.9994   0.9993   0.9984   0.9981   0.9977
     0.9975   0.9973   0.9970   0.9961   0.9951   0.9944   0.9920   0.9888
     0.9869   0.9857   0.9852   0.9832   0.9822   0.9821   0.9787   0.9778
     0.9764   0.9724   0.9716   0.9698   0.9659   0.9590   0.9541   0.9411
     0.9122   0.8738   0.8684   0.8625   0.8529   0.8449   0.8351   0.8273
     0.8232   0.8139   0.7898   0.7871   0.7822   0.7561   0.7457   0.7386
     0.7317   0.7275   0.7200   0.7125   0.7032   0.6993   0.6823   0.6756
     0.6686   0.6623   0.6559   0.6511   0.3448   0.3355   0.2680   0.2441
     0.1098   0.1008   0.0937   0.0694   0.0152   0.0086   0.0041   0.0035
     0.0016   0.0007   0.0002   0.0002   0.0001   0.0001   0.0000   0.0000
     0.0000   0.0000   0.0000   0.0000   0.0000   0.0000   0.0000   0.0000
     0.0000   0.0000   0.0000   0.0000   0.0000   0.0000   0.0000   0.0000
     0.0000   0.0000

          k =-0.5000-0.5000 0.0000 ( 65132 PWs)   bands (ev):

   -92.8505 -92.7985 -92.7045 -92.6574 -92.5981 -92.5568 -92.5401 -92.4136
   -56.2041 -56.1853 -56.0614 -56.0509 -56.0447 -56.0378 -56.0032 -55.9734
   -55.9590 -55.9565 -55.9479 -55.9057 -55.8875 -55.8492 -55.8311 -55.7980
   -55.7931 -55.7451 -55.7418 -55.7401 -55.7334 -55.6845 -55.6701 -55.5833
   -31.4112 -31.3990 -31.2538 -31.1803 -31.1682 -31.0987 -30.9958 -30.8807
   -29.9929 -29.9543 -29.9276 -29.8205 -15.0793 -15.0537 -14.9360 -14.9234
   -14.8274 -14.7924 -14.7567 -14.6247 -14.1303 -14.1168 -14.0840 -14.0645
   -14.0473 -14.0317 -14.0060 -13.9931 -13.9785 -13.9701 -13.9542 -13.8772
   -13.8686 -13.8377 -13.8037 -13.7955 -13.6975 -13.6674 -13.5260 -13.4829
   -13.2956 -13.2565 -13.1883 -13.1642 -13.1298 -13.1230 -13.1136 -13.0969
   -13.0905 -13.0384 -12.9521 -12.9330 -12.9230 -12.9009 -12.8670 -12.8402
   -12.7439 -12.7358 -12.6765 -12.5217 -12.4557 -12.3615 -12.3164 -12.3006
   -11.9717 -11.9195 -11.9072 -11.8892 -11.8726 -11.8374 -11.8199 -11.7850
   -11.7246 -11.7044 -11.6993 -11.6491 -11.6461  -2.3732  -2.2980  -2.2878
    -2.2129  -2.1769  -2.0991  -2.0313  -1.9047  -1.7899  -1.7601  -1.7200
    -1.6631  -1.5912  -1.5766  -1.5061  -1.4622  -1.3455  -1.3160  -1.2679
    -1.2403  -1.1761  -1.1291  -1.1109  -1.0980  -1.0441  -1.0005  -0.9840
    -0.8721  -0.8145  -0.7683  -0.7178  -0.6882  -0.6771  -0.6431  -0.5994
    -0.5645  -0.5554  -0.4690  -0.4039  -0.3576  -0.3320  -0.2579  -0.2008
    -0.1834  -0.1289  -0.0959  -0.0905  -0.0627   0.3775   0.4147   0.5333
     0.5658   0.9228   0.9360   0.9671   1.0068   1.2782   1.2982   1.3050
     1.3439   1.4695   1.5647   1.5921   1.6276   1.6493   1.6769   1.6829
     1.7134   1.7242   1.7401   1.7525   1.8030   1.8046   1.8349   1.8548
     1.8711   1.8864   1.9228   1.9471   1.9649   1.9932   2.0269   2.0852
     2.1509   2.4196   2.4511   2.4704   2.4892   2.4996   2.5274   2.5335
     2.5536   2.5625   2.5788   2.5960   2.6114   2.6361   2.6404   2.6459
     2.6822   2.6895   2.7096   2.7269   2.7427   2.7566   2.7604   2.7868
     2.8680   2.8722   2.9048   2.9146   3.8887   3.9205   3.9237   3.9336
     4.1748   4.2565   4.2701   4.5108   4.6330   4.7159   4.8483   4.9483
     4.9765   5.0594   5.1953   5.2774   5.8213   5.8726   5.9145   6.0280
     6.5845   6.7886   7.0011   7.3198   7.8669   7.8771   7.9558   8.0920
     8.1288   8.1593   8.1934   8.2726   8.3087   8.4845   8.5240   8.5527
     8.5656   8.6802

     occupation numbers 
     1.0000   1.0000   1.0000   1.0000   1.0000   1.0000   1.0000   1.0000
     1.0000   1.0000   1.0000   1.0000   1.0000   1.0000   1.0000   1.0000
     1.0000   1.0000   1.0000   1.0000   1.0000   1.0000   1.0000   1.0000
     1.0000   1.0000   1.0000   1.0000   1.0000   1.0000   1.0000   1.0000
     1.0000   1.0000   1.0000   1.0000   1.0000   1.0000   1.0000   1.0000
     1.0000   1.0000   1.0000   1.0000   1.0000   1.0000   1.0000   1.0000
     1.0000   1.0000   1.0000   1.0000   1.0000   1.0000   1.0000   1.0000
     1.0000   1.0000   1.0000   1.0000   1.0000   1.0000   1.0000   1.0000
     1.0000   1.0000   1.0000   1.0000   1.0000   1.0000   1.0000   1.0000
     1.0000   1.0000   1.0000   1.0000   1.0000   1.0000   1.0000   1.0000
     1.0000   1.0000   1.0000   1.0000   1.0000   1.0000   1.0000   1.0000
     1.0000   1.0000   1.0000   1.0000   1.0000   1.0000   1.0000   1.0000
     1.0000   1.0000   1.0000   1.0000   1.0000   1.0000   1.0000   1.0000
     1.0000   1.0000   1.0000   1.0000   1.0000   1.0000   1.0000   1.0000
[...]
     0.6338   0.6199   0.6186   0.6146   0.6095   0.6050   0.5987   0.5257
     0.3446   0.3084   0.2043   0.0750   0.0450   0.0206   0.0049   0.0032
     0.0002   0.0001   0.0000   0.0000   0.0000   0.0000   0.0000   0.0000
     0.0000   0.0000   0.0000   0.0000   0.0000   0.0000   0.0000   0.0000
     0.0000   0.0000   0.0000   0.0000   0.0000   0.0000   0.0000   0.0000
     0.0000   0.0000

          k =-0.5000 0.0000 0.0000 ( 65180 PWs)   bands (ev):

   -92.8505 -92.7985 -92.7045 -92.6574 -92.5981 -92.5568 -92.5401 -92.4136
   -56.2041 -56.1853 -56.0614 -56.0509 -56.0447 -56.0378 -56.0032 -55.9734
   -55.9590 -55.9565 -55.9479 -55.9057 -55.8875 -55.8492 -55.8311 -55.7980
   -55.7931 -55.7451 -55.7418 -55.7401 -55.7334 -55.6845 -55.6701 -55.5833
   -31.4116 -31.3993 -31.2533 -31.1810 -31.1679 -31.0980 -30.9963 -30.8802
   -29.9941 -29.9550 -29.9264 -29.8198 -15.1613 -15.1099 -15.0476 -14.9379
   -14.8352 -14.6903 -14.5450 -14.3995 -14.2775 -14.2647 -14.2537 -14.1937
   -14.1350 -14.1043 -14.0549 -14.0477 -14.0304 -13.9809 -13.9610 -13.8563
   -13.6998 -13.6723 -13.6392 -13.6322 -13.5700 -13.5075 -13.4419 -13.4046
   -13.3808 -13.3630 -13.1924 -13.1803 -13.1702 -13.1549 -13.1453 -13.0915
   -13.0791 -13.0630 -12.9922 -12.9763 -12.9020 -12.8276 -12.8043 -12.7919
   -12.7796 -12.7698 -12.6798 -12.5946 -12.4659 -12.4528 -12.3201 -12.2820
   -11.9718 -11.9264 -11.9048 -11.8981 -11.8837 -11.8655 -11.8243 -11.7613
   -11.7436 -11.7106 -11.6663 -11.6571 -11.6416  -2.7293  -2.6907  -2.5275
    -2.4883  -2.1744  -2.0989  -1.9515  -1.8342  -1.7949  -1.7471  -1.7009
    -1.6764  -1.5528  -1.5088  -1.4926  -1.4104  -1.3752  -1.3592  -1.3284
    -1.2700  -1.2021  -1.1729  -1.1433  -1.0487  -1.0018  -0.9528  -0.9196
    -0.8987  -0.8675  -0.8198  -0.7952  -0.7572  -0.6571  -0.5834  -0.5170
    -0.4555  -0.2942  -0.2449  -0.2028  -0.1658  -0.1077  -0.0898   0.0514
     0.0815   0.1381   0.2929   0.3924   0.4391   0.5389   0.5972   0.7174
     0.7306   0.8597   0.8848   0.9392   0.9724   1.0092   1.0156   1.0629
     1.0859   1.1529   1.2044   1.2513   1.2591   1.5591   1.5651   1.5842
     1.6029   1.7088   1.7262   1.7393   1.7484   1.7790   1.7920   1.8298
     1.8536   1.8767   1.9305   1.9481   1.9972   2.0239   2.0748   2.1947
     2.2836   2.3551   2.3687   2.4505   2.4782   2.5069   2.5647   2.5811
     2.5906   2.6209   2.6417   2.6464   2.6548   2.7184   2.7448   2.7846
     2.8078   2.8540   2.8569   2.8651   2.8729   2.8882   2.8970   2.9098
     2.9175   2.9364   2.9455   2.9613   2.9813   2.9858   3.1153   3.1307
     3.9741   3.9918   4.0423   4.1850   4.6490   4.7264   4.9213   4.9499
     5.4025   5.4317   5.5111   5.5397   5.8907   5.8955   6.3389   6.4995
     6.7518   6.9712   7.2215   7.2799   7.5960   7.6490   7.6851   7.6920
     7.7984   7.9169   8.0311   8.2521   8.2661   8.3084   8.3987   8.5136
     8.6632   8.7638

     occupation numbers 
     1.0000   1.0000   1.0000   1.0000   1.0000   1.0000   1.0000   1.0000
     1.0000   1.0000   1.0000   1.0000   1.0000   1.0000   1.0000   1.0000
     1.0000   1.0000   1.0000   1.0000   1.0000   1.0000   1.0000   1.0000
     1.0000   1.0000   1.0000   1.0000   1.0000   1.0000   1.0000   1.0000
     1.0000   1.0000   1.0000   1.0000   1.0000   1.0000   1.0000   1.0000
     1.0000   1.0000   1.0000   1.0000   1.0000   1.0000   1.0000   1.0000
     1.0000   1.0000   1.0000   1.0000   1.0000   1.0000   1.0000   1.0000
     1.0000   1.0000   1.0000   1.0000   1.0000   1.0000   1.0000   1.0000
     1.0000   1.0000   1.0000   1.0000   1.0000   1.0000   1.0000   1.0000
     1.0000   1.0000   1.0000   1.0000   1.0000   1.0000   1.0000   1.0000
     1.0000   1.0000   1.0000   1.0000   1.0000   1.0000   1.0000   1.0000
     1.0000   1.0000   1.0000   1.0000   1.0000   1.0000   1.0000   1.0000
     1.0000   1.0000   1.0000   1.0000   1.0000   1.0000   1.0000   1.0000
     1.0000   1.0000   1.0000   1.0000   1.0000   1.0000   1.0000   1.0000
     1.0000   1.0000   1.0000   1.0000   1.0000   1.0000   1.0000   1.0000
     1.0000   1.0000   1.0000   1.0000   1.0000   1.0000   1.0000   1.0000
     1.0000   1.0000   1.0000   1.0000   1.0000   1.0000   1.0000   1.0000
     1.0000   1.0000   1.0000   1.0000   1.0000   1.0000   1.0000   1.0000
     1.0000   1.0000   1.0000   1.0000   1.0000   1.0000   1.0000   1.0000
     1.0000   1.0000   1.0000   1.0000   1.0000   1.0000   0.9999   0.9999
     0.9999   0.9997   0.9997   0.9996   0.9995   0.9994   0.9993   0.9992
     0.9991   0.9987   0.9983   0.9979   0.9978   0.9919   0.9917   0.9910
     0.9903   0.9854   0.9845   0.9837   0.9831   0.9811   0.9802   0.9774
     0.9754   0.9733   0.9680   0.9661   0.9602   0.9567   0.9493   0.9279
     0.9080   0.8892   0.8853   0.8600   0.8506   0.8405   0.8188   0.8123
     0.8085   0.7960   0.7871   0.7851   0.7814   0.7526   0.7400   0.7205
     0.7088   0.6848   0.6833   0.6789   0.6748   0.6666   0.6618   0.6548
     0.6506   0.6402   0.6351   0.6262   0.6149   0.6124   0.5372   0.5281
     0.1186   0.1135   0.0997   0.0674   0.0145   0.0108   0.0048   0.0043
     0.0005   0.0004   0.0003   0.0002   0.0000   0.0000   0.0000   0.0000
     0.0000   0.0000   0.0000   0.0000   0.0000   0.0000   0.0000   0.0000
     0.0000   0.0000   0.0000   0.0000   0.0000   0.0000   0.0000   0.0000
     0.0000   0.0000

          k =-0.2500 0.2500 0.0000 ( 65198 PWs)   bands (ev):

   -92.8505 -92.7985 -92.7045 -92.6574 -92.5981 -92.5568 -92.5401 -92.4136
   -56.2041 -56.1853 -56.0614 -56.0509 -56.0447 -56.0378 -56.0032 -55.9734
   -55.9590 -55.9565 -55.9479 -55.9057 -55.8875 -55.8492 -55.8311 -55.7980
   -55.7931 -55.7451 -55.7418 -55.7401 -55.7334 -55.6845 -55.6701 -55.5833
   -31.4135 -31.3971 -31.2539 -31.1808 -31.1677 -31.0985 -30.9959 -30.8803
   -29.9946 -29.9536 -29.9274 -29.8197 -15.1638 -15.1224 -15.0490 -14.9315
   -14.8192 -14.6926 -14.6081 -14.3996 -14.2601 -14.2304 -14.2159 -14.1706
   -14.1464 -14.1259 -14.1086 -14.0625 -13.9813 -13.9700 -13.8147 -13.7905
   -13.7623 -13.7400 -13.6937 -13.6413 -13.5830 -13.5750 -13.4401 -13.3887
   -13.3605 -13.2841 -13.2411 -13.1783 -13.1497 -13.1315 -13.1238 -13.0873
   -13.0651 -13.0328 -13.0025 -12.9429 -12.9259 -12.9089 -12.8772 -12.8339
   -12.8227 -12.8049 -12.6292 -12.5809 -12.5496 -12.4217 -12.2609 -12.2078
   -11.9716 -11.9465 -11.9250 -11.8979 -11.8857 -11.8448 -11.8100 -11.7871
   -11.7654 -11.7430 -11.6585 -11.6133 -11.6036  -2.8140  -2.6061  -2.4844
    -2.3967  -2.2785  -2.2122  -2.0081  -1.8645  -1.8457  -1.8161  -1.7244
    -1.6856  -1.5950  -1.5605  -1.5345  -1.3921  -1.3362  -1.2675  -1.2398
    -1.1792  -1.1582  -1.1182  -1.0894  -1.0495  -0.9858  -0.9383  -0.8743
    -0.8055  -0.7802  -0.7295  -0.7002  -0.6548  -0.5978  -0.5523  -0.5101
    -0.4100  -0.3785  -0.3659  -0.3230  -0.2564  -0.1857  -0.1395  -0.1055
    -0.0338   0.0091   0.2438   0.4140   0.4529   0.4930   0.5524   0.6209
     0.6714   0.7291   0.7565   1.0383   1.1440   1.1843   1.2173   1.2247
     1.2657   1.2821   1.3269   1.3575   1.3719   1.3974   1.4431   1.4588
     1.5030   1.5226   1.5677   1.6500   1.6731   1.6873   1.7334   1.7539
     1.7965   1.8554   1.9550   2.0572   2.0865   2.1360   2.1568   2.2224
     2.2615   2.2864   2.3101   2.3336   2.4351   2.4697   2.5591   2.6355
     2.6483   2.6853   2.7359   2.7455   2.7578   2.7673   2.7780   2.7921
     2.7984   2.8172   2.8280   2.8395   2.8508   2.8620   2.8733   2.8851
     2.9133   2.9235   2.9309   2.9665   3.2569   3.3397   3.4045   3.4863
     3.5180   3.7141   3.8172   4.1704   4.3732   4.5860   4.8543   5.1481
     5.5301   5.5832   5.6338   5.6874   5.7547   6.1047   6.1425   6.1642
     6.8576   7.0539   7.1529   7.3545   7.4877   7.5148   7.5916   7.7949
     7.8545   7.9099   8.2113   8.2291   8.3515   8.4008   8.4375   8.4794
     8.5428   8.5616

     occupation numbers 
     1.0000   1.0000   1.0000   1.0000   1.0000   1.0000   1.0000   1.0000
     1.0000   1.0000   1.0000   1.0000   1.0000   1.0000   1.0000   1.0000
     1.0000   1.0000   1.0000   1.0000   1.0000   1.0000   1.0000   1.0000
     1.0000   1.0000   1.0000   1.0000   1.0000   1.0000   1.0000   1.0000
     1.0000   1.0000   1.0000   1.0000   1.0000   1.0000   1.0000   1.0000
     1.0000   1.0000   1.0000   1.0000   1.0000   1.0000   1.0000   1.0000
     1.0000   1.0000   1.0000   1.0000   1.0000   1.0000   1.0000   1.0000
     1.0000   1.0000   1.0000   1.0000   1.0000   1.0000   1.0000   1.0000
     1.0000   1.0000   1.0000   1.0000   1.0000   1.0000   1.0000   1.0000
     1.0000   1.0000   1.0000   1.0000   1.0000   1.0000   1.0000   1.0000
     1.0000   1.0000   1.0000   1.0000   1.0000   1.0000   1.0000   1.0000
     1.0000   1.0000   1.0000   1.0000   1.0000   1.0000   1.0000   1.0000
     1.0000   1.0000   1.0000   1.0000   1.0000   1.0000   1.0000   1.0000
     1.0000   1.0000   1.0000   1.0000   1.0000   1.0000   1.0000   1.0000
     1.0000   1.0000   1.0000   1.0000   1.0000   1.0000   1.0000   1.0000
     1.0000   1.0000   1.0000   1.0000   1.0000   1.0000   1.0000   1.0000
     1.0000   1.0000   1.0000   1.0000   1.0000   1.0000   1.0000   1.0000
     1.0000   1.0000   1.0000   1.0000   1.0000   1.0000   1.0000   1.0000
     1.0000   1.0000   1.0000   1.0000   1.0000   1.0000   1.0000   1.0000
     1.0000   1.0000   1.0000   1.0000   1.0000   1.0000   1.0000   0.9999
     0.9999   0.9999   0.9998   0.9993   0.9987   0.9985   0.9982   0.9981
     0.9977   0.9976   0.9970   0.9966   0.9963   0.9959   0.9950   0.9947
     0.9936   0.9930   0.9916   0.9884   0.9873   0.9866   0.9840   0.9828
     0.9799   0.9752   0.9653   0.9520   0.9475   0.9391   0.9353   0.9221
     0.9133   0.9073   0.9013   0.8951   0.8650   0.8536   0.8210   0.7898
     0.7843   0.7678   0.7443   0.7397   0.7337   0.7291   0.7238   0.7168
     0.7135   0.7040   0.6984   0.6924   0.6865   0.6806   0.6746   0.6682
     0.6529   0.6473   0.6432   0.6233   0.4534   0.4052   0.3684   0.3236
     0.3069   0.2131   0.1713   0.0703   0.0380   0.0183   0.0064   0.0017
     0.0002   0.0002   0.0001   0.0001   0.0001   0.0000   0.0000   0.0000
     0.0000   0.0000   0.0000   0.0000   0.0000   0.0000   0.0000   0.0000
     0.0000   0.0000   0.0000   0.0000   0.0000   0.0000   0.0000   0.0000
     0.0000   0.0000

          k =-0.5000 0.2500 0.0000 ( 65138 PWs)   bands (ev):

   -92.8505 -92.7985 -92.7045 -92.6574 -92.5981 -92.5568 -92.5401 -92.4136
   -56.2041 -56.1853 -56.0614 -56.0509 -56.0447 -56.0378 -56.0032 -55.9734
   -55.9590 -55.9565 -55.9479 -55.9057 -55.8875 -55.8492 -55.8311 -55.7980
   -55.7931 -55.7451 -55.7418 -55.7401 -55.7334 -55.6845 -55.6701 -55.5833
   -31.4114 -31.3992 -31.2535 -31.1806 -31.1680 -31.0983 -30.9961 -30.8805
   -29.9935 -29.9547 -29.9270 -29.8201 -15.1285 -15.0835 -15.0046 -14.9045
   -14.8635 -14.7373 -14.6489 -14.5181 -14.2111 -14.1801 -14.1683 -14.1233
   -14.1016 -14.0769 -14.0411 -14.0330 -14.0093 -13.9690 -13.9586 -13.8494
   -13.7809 -13.7325 -13.7289 -13.7144 -13.6204 -13.6091 -13.4808 -13.4282
   -13.3379 -13.3028 -13.2054 -13.1654 -13.1543 -13.1323 -13.1193 -13.0905
   -13.0778 -13.0424 -13.0136 -12.9363 -12.9148 -12.8605 -12.8351 -12.8164
   -12.7611 -12.7530 -12.6779 -12.5546 -12.4611 -12.4101 -12.3144 -12.2904
   -11.9718 -11.9192 -11.9065 -11.8923 -11.8803 -11.8591 -11.8290 -11.7482
   -11.7398 -11.7164 -11.6807 -11.6528 -11.6440  -2.5868  -2.5448  -2.3971
    -2.3549  -2.1935  -2.1171  -1.9757  -1.8401  -1.7833  -1.7552  -1.7174
    -1.6787  -1.5981  -1.4827  -1.4252  -1.4021  -1.3764  -1.2990  -1.2715
    -1.2327  -1.2156  -1.1550  -1.1254  -1.0870  -1.0515  -1.0228  -0.9644
    -0.9374  -0.8960  -0.8604  -0.7559  -0.7300  -0.6395  -0.5772  -0.5465
    -0.4896  -0.4043  -0.3719  -0.2717  -0.2337  -0.1707  -0.1235  -0.0979
    -0.0267   0.0071   0.0447   0.0859   0.1232   0.4432   0.4929   0.5784
     0.6043   0.8706   0.9337   1.0034   1.0296   1.2057   1.2414   1.2788
     1.2897   1.3081   1.3259   1.3950   1.4394   1.4806   1.5102   1.6285
     1.6660   1.7006   1.7166   1.7503   1.7719   1.7886   1.8065   1.8227
     1.8447   1.8922   1.9058   1.9433   1.9658   1.9991   2.0555   2.1795
     2.2739   2.3009   2.3673   2.4050   2.4667   2.5045   2.5098   2.5475
     2.5809   2.6013   2.6379   2.6424   2.6479   2.7192   2.7435   2.7467
     2.7553   2.7712   2.7950   2.8066   2.8215   2.8337   2.8556   2.8694
     2.8783   2.8876   2.9007   2.9146   3.4509   3.4783   3.6316   3.6479
     3.9738   4.0100   4.0564   4.2653   4.6419   4.7393   4.9180   4.9667
     5.2666   5.2962   5.5132   5.5963   5.6370   5.6729   6.3493   6.4291
     6.4756   6.6106   7.3181   7.6116   7.6277   7.6993   7.7331   7.7854
     7.8464   7.9514   8.1037   8.3841   8.4496   8.4925   8.5309   8.5578
     8.5883   8.7235

     occupation numbers 
     1.0000   1.0000   1.0000   1.0000   1.0000   1.0000   1.0000   1.0000
     1.0000   1.0000   1.0000   1.0000   1.0000   1.0000   1.0000   1.0000
     1.0000   1.0000   1.0000   1.0000   1.0000   1.0000   1.0000   1.0000
     1.0000   1.0000   1.0000   1.0000   1.0000   1.0000   1.0000   1.0000
     1.0000   1.0000   1.0000   1.0000   1.0000   1.0000   1.0000   1.0000
     1.0000   1.0000   1.0000   1.0000   1.0000   1.0000   1.0000   1.0000
     1.0000   1.0000   1.0000   1.0000   1.0000   1.0000   1.0000   1.0000
     1.0000   1.0000   1.0000   1.0000   1.0000   1.0000   1.0000   1.0000
     1.0000   1.0000   1.0000   1.0000   1.0000   1.0000   1.0000   1.0000
     1.0000   1.0000   1.0000   1.0000   1.0000   1.0000   1.0000   1.0000
     1.0000   1.0000   1.0000   1.0000   1.0000   1.0000   1.0000   1.0000
     1.0000   1.0000   1.0000   1.0000   1.0000   1.0000   1.0000   1.0000
     1.0000   1.0000   1.0000   1.0000   1.0000   1.0000   1.0000   1.0000
     1.0000   1.0000   1.0000   1.0000   1.0000   1.0000   1.0000   1.0000
     1.0000   1.0000   1.0000   1.0000   1.0000   1.0000   1.0000   1.0000
     1.0000   1.0000   1.0000   1.0000   1.0000   1.0000   1.0000   1.0000
     1.0000   1.0000   1.0000   1.0000   1.0000   1.0000   1.0000   1.0000
     1.0000   1.0000   1.0000   1.0000   1.0000   1.0000   1.0000   1.0000
     1.0000   1.0000   1.0000   1.0000   1.0000   1.0000   1.0000   1.0000
     1.0000   1.0000   1.0000   1.0000   1.0000   1.0000   1.0000   0.9999
     0.9999   0.9997   0.9996   0.9994   0.9993   0.9983   0.9980   0.9976
     0.9975   0.9973   0.9970   0.9959   0.9951   0.9941   0.9934   0.9893
     0.9876   0.9859   0.9850   0.9830   0.9816   0.9805   0.9792   0.9779
     0.9761   0.9719   0.9706   0.9666   0.9641   0.9600   0.9522   0.9309
     0.9103   0.9036   0.8857   0.8745   0.8546   0.8414   0.8395   0.8255
     0.8124   0.8041   0.7888   0.7868   0.7845   0.7522   0.7406   0.7391
     0.7350   0.7272   0.7153   0.7094   0.7018   0.6955   0.6840   0.6767
     0.6719   0.6669   0.6598   0.6522   0.3427   0.3279   0.2504   0.2427
     0.1187   0.1084   0.0961   0.0532   0.0149   0.0102   0.0049   0.0040
     0.0010   0.0008   0.0003   0.0002   0.0001   0.0001   0.0000   0.0000
     0.0000   0.0000   0.0000   0.0000   0.0000   0.0000   0.0000   0.0000
     0.0000   0.0000   0.0000   0.0000   0.0000   0.0000   0.0000   0.0000
     0.0000   0.0000

     the Fermi energy is     3.1781 ev

!    total energy              =   -4440.28964797 Ry
     estimated scf accuracy    <          8.0E-09 Ry
     smearing contrib. (-TS)   =      -1.20571677 Ry
     internal energy E=F+TS    =   -4439.08393120 Ry

     The total energy is F=E-TS. E is the sum of the following terms:
     one-electron contribution =  -20890.09835090 Ry
     hartree contribution      =   10574.48389835 Ry
     xc contribution           =    -693.24340181 Ry
     ewald contribution        =    6845.96623092 Ry
     one-center paw contrib.   =    -276.19230776 Ry
      -> PAW hartree energy AE =      25.17484157 Ry
      -> PAW hartree energy PS =     -25.05861485 Ry
      -> PAW xc energy AE      =     -16.51919657 Ry
      -> PAW xc energy PS      =       6.87873890 Ry
      -> total E_H with PAW    =   10574.60012508 Ry
      -> total E_XC with PAW   =    -702.88385948 Ry

     convergence has been achieved in  52 iterations

     Writing all to output data dir /bsuhome/zayahcortright/scratch/pwscf.save/
 
     init_run     :      7.74s CPU      8.37s WALL (       1 calls)
     electrons    :    730.91s CPU    766.99s WALL (       1 calls)

     Called by init_run:
     wfcinit      :      6.11s CPU      6.36s WALL (       1 calls)
     wfcinit:atom :      0.04s CPU      0.06s WALL (       5 calls)
     wfcinit:wfcr :      5.80s CPU      5.96s WALL (       5 calls)
     potinit      :      0.15s CPU      0.18s WALL (       1 calls)
     hinit0       :      0.61s CPU      0.69s WALL (       1 calls)

     Called by electrons:
     c_bands      :    578.04s CPU    585.23s WALL (      52 calls)
     sum_band     :    114.45s CPU    130.53s WALL (      52 calls)
     v_of_rho     :      5.67s CPU      6.03s WALL (      53 calls)
     v_h          :      0.49s CPU      0.50s WALL (      53 calls)
     v_xc         :      5.17s CPU      5.53s WALL (      53 calls)
     newd         :     17.19s CPU     29.24s WALL (      53 calls)
     PAW_pot      :      1.77s CPU      1.80s WALL (      53 calls)
     mix_rho      :     13.39s CPU     13.78s WALL (      52 calls)

     Called by c_bands:
     init_us_2    :      7.30s CPU      7.39s WALL (     525 calls)
     init_us_2:cp :      7.30s CPU      7.39s WALL (     525 calls)
     cegterg      :    545.24s CPU    552.11s WALL (     260 calls)

     Called by sum_band:
     sum_band:wei :      0.37s CPU      0.38s WALL (      52 calls)
     sum_band:loo :     95.84s CPU     96.57s WALL (      52 calls)
     sum_band:buf :      1.50s CPU      1.57s WALL (     260 calls)
     sum_band:ini :      3.35s CPU      3.37s WALL (     260 calls)
     sum_band:cal :     20.39s CPU     20.46s WALL (     260 calls)
     sum_band:bec :      0.58s CPU      0.59s WALL (     260 calls)
     addusdens    :     16.55s CPU     31.84s WALL (      52 calls)
                                        0.00s GPU  (      52 calls)
     addusd:skk   :      0.32s CPU      1.03s WALL (     156 calls)
                                        0.00s GPU  (     156 calls)

     Called by *egterg:
     cdiaghg      :     54.41s CPU     54.66s WALL (    1220 calls)
     cegterg:over :     39.69s CPU     39.91s WALL (     960 calls)
     cegterg:upda :     28.53s CPU     29.04s WALL (     960 calls)
     cegterg:last :     60.94s CPU     61.17s WALL (     466 calls)
     cdiaghg:chol :      3.12s CPU      3.14s WALL (    1220 calls)
     cdiaghg:inve :      2.90s CPU      2.92s WALL (    1220 calls)
     cdiaghg:para :      6.92s CPU      6.98s WALL (    2440 calls)
     h_psi        :    304.26s CPU    307.64s WALL (    1225 calls)
     s_psi        :     40.85s CPU     41.02s WALL (    1225 calls)
     g_psi        :      1.09s CPU      1.09s WALL (     960 calls)

     Called by h_psi:
     h_psi:calbec :     45.59s CPU     45.85s WALL (    1225 calls)
     vloc_psi     :    214.98s CPU    217.19s WALL (    1225 calls)
     add_vuspsi   :     40.77s CPU     40.96s WALL (    1225 calls)

     General routines
     calbec       :     65.97s CPU     66.30s WALL (    1485 calls)
     fft          :      3.84s CPU      3.89s WALL (     687 calls)
     ffts         :      4.95s CPU      5.00s WALL (    5678 calls)
     fftw         :    184.11s CPU    185.72s WALL (  348360 calls)
     interpolate  :      0.43s CPU      0.44s WALL (      53 calls)
 
     Parallel routines

     PAW routines
     PAW_pot      :      1.77s CPU      1.80s WALL (      53 calls)
 
     PWSCF        :  12m20.52s CPU  13m 0.62s WALL

 
   This run was terminated on:   2:21:15  22Jun2024            

=------------------------------------------------------------------------------=
   JOB DONE.
=------------------------------------------------------------------------------=
