
     Program PWSCF v.7.2 starts on 21Jun2024 at 14:10:58 

     This program is part of the open-source Quantum ESPRESSO suite
     for quantum simulation of materials; please cite
         "P. Giannozzi et al., J. Phys.:Condens. Matter 21 395502 (2009);
         "P. Giannozzi et al., J. Phys.:Condens. Matter 29 465901 (2017);
         "P. Giannozzi et al., J. Chem. Phys. 152 154105 (2020);
          URL http://www.quantum-espresso.org", 
     in publications or presentations arising from this work. More details at
     http://www.quantum-espresso.org/quote

     Parallel version (MPI & OpenMP), running on      48 processor cores
     Number of MPI processes:                48
     Threads/MPI process:                     1

     MPI processes distributed on     1 nodes
     180162 MiB available memory on the printing compute node when the environment starts
 
     Reading input from espresso.pwi
Warning: card &CELL ignored
Warning: card / ignored
Warning: card &FCP ignored
Warning: card / ignored
Warning: card &RISM ignored
Warning: card / ignored

     Current dimensions of program PWSCF are:
     Max number of different atomic species (ntypx) = 10
     Max number of k-points (npk) =  40000
     Max angular momentum in pseudopotentials (lmaxx) =  4
     file O.pbe-n-kjpaw_psl.0.1.UPF: wavefunction(s)  2P renormalized
     signal trapping enabled: kill the code with -SIGUSR1 to stop cleanly the simulation 
 
     K-points division:     npool     =       2
     R & G space division:  proc/nbgrp/npool/nimage =      24
     Subspace diagonalization in iterative solution of the eigenvalue problem:
     one sub-group per band group will be used
     scalapack distributed-memory algorithm (size of sub-group:  3*  3 procs)

 
     Parallelization info
     --------------------
     sticks:   dense  smooth     PW     G-vecs:    dense   smooth      PW
     Min         350     175     47                61430    21716    3036
     Max         351     177     48                61449    21727    3041
     Sum        8421    4205   1137              1474595   521381   72913
 
     Using Slab Decomposition
 


     bravais-lattice index     =            0
     lattice parameter (alat)  =      14.8599  a.u.
     unit-cell volume          =    8305.1283 (a.u.)^3
     number of atoms/cell      =           49
     number of atomic types    =            4
     number of electrons       =       425.00
     number of Kohn-Sham states=          256
     kinetic-energy cutoff     =      60.0000  Ry
     charge density cutoff     =     480.0000  Ry
     scf convergence threshold =      1.0E-08
     mixing beta               =       0.1500
     number of iterations used =            8  local-TF  mixing
     Exchange-correlation= PBE
                           (   1   4   3   4   0   0   0)

     celldm(1)=  14.859904  celldm(2)=   0.000000  celldm(3)=   0.000000
     celldm(4)=   0.000000  celldm(5)=   0.000000  celldm(6)=   0.000000

     crystal axes: (cart. coord. in units of alat)
               a(1) = (   1.000000   0.000000   0.000000 )  
               a(2) = (   0.000000   1.000000   0.000000 )  
               a(3) = (   0.000000   0.000000   2.531036 )  

     reciprocal axes: (cart. coord. in units 2 pi/alat)
               b(1) = (  1.000000  0.000000  0.000000 )  
               b(2) = (  0.000000  1.000000  0.000000 )  
               b(3) = (  0.000000  0.000000  0.395095 )  


     PseudoPot. # 1 for Sr read from file:
     /bsuhome/zayahcortright/q-e/pseudo/Sr_pbe_v1.uspp.F.UPF
     MD5 check sum: 6b418c05fbe9db5448babca5e47b7a5b
     Pseudo is Ultrasoft + core correction, Zval = 10.0
     Generated by new atomic code, or converted to UPF format
     Using radial grid of  883 points,  6 beta functions with: 
                l(1) =   0
                l(2) =   0
                l(3) =   1
                l(4) =   1
                l(5) =   2
                l(6) =   2
     Q(r) pseudized with  6 coefficients,  rinner =    1.400   1.400   1.400
                                                       1.400   1.400

     PseudoPot. # 2 for O  read from file:
     /bsuhome/zayahcortright/q-e/pseudo/O.pbe-n-kjpaw_psl.0.1.UPF
     MD5 check sum: 0234752ac141de4415c5fc33072bef88
     Pseudo is Projector augmented-wave + core cor, Zval =  6.0
     Generated using "atomic" code by A. Dal Corso  v.5.0.99 svn rev. 10869
     Shape of augmentation charge: BESSEL
     Using radial grid of 1095 points,  4 beta functions with: 
                l(1) =   0
                l(2) =   0
                l(3) =   1
                l(4) =   1
     Q(r) pseudized with 0 coefficients 


     PseudoPot. # 3 for Co read from file:
     /bsuhome/zayahcortright/q-e/pseudo/Co_pbe_v1.2.uspp.F.UPF
     MD5 check sum: 5f91765df6ddd3222702df6e7b74a16d
     Pseudo is Ultrasoft + core correction, Zval = 17.0
     Generated by new atomic code, or converted to UPF format
     Using radial grid of  863 points,  6 beta functions with: 
                l(1) =   0
                l(2) =   0
                l(3) =   1
                l(4) =   1
                l(5) =   2
                l(6) =   2
     Q(r) pseudized with  8 coefficients,  rinner =    1.200   1.200   1.200
                                                       1.200   1.200

     PseudoPot. # 4 for H  read from file:
     /bsuhome/zayahcortright/q-e/pseudo/H.pbe-rrkjus_psl.1.0.0.UPF
     MD5 check sum: f52b6d4d1c606e5624b1dc7b2218f220
     Pseudo is Ultrasoft, Zval =  1.0
     Generated using "atomic" code by A. Dal Corso  v.5.1
     Using radial grid of  929 points,  2 beta functions with: 
                l(1) =   0
                l(2) =   0
     Q(r) pseudized with 0 coefficients 


     atomic species   valence    mass     pseudopotential
        Sr            10.00    87.62000     Sr( 1.00)
        O              6.00    15.99900     O ( 1.00)
        Co            17.00    58.93319     Co( 1.00)
        H              1.00     1.00800     H ( 1.00)

     No symmetry found


                                    s                        frac. trans.

      isym =  1     identity                                     

 cryst.   s( 1) = (     1          0          0      )
                  (     0          1          0      )
                  (     0          0          1      )

 cart.    s( 1) = (  1.0000000  0.0000000  0.0000000 )
                  (  0.0000000  1.0000000  0.0000000 )
                  (  0.0000000  0.0000000  1.0000000 )


   Cartesian axes

     site n.     atom                  positions (alat units)
         1           Sr  tau(   1) = (   0.2508693   0.7491307   1.7574407  )
         2           O   tau(   2) = (   0.4985141   0.5014859   1.7715967  )
         3           Sr  tau(   3) = (   0.7482398   0.7454518   1.7648669  )
         4           Sr  tau(   4) = (   0.7441748   0.2558252   1.7667843  )
         5           Sr  tau(   5) = (   0.2508693   0.7491307   1.2696799  )
         6           Sr  tau(   6) = (   0.2508693   0.7491307   0.7632319  )
         7           Co  tau(   7) = (   0.4998914   0.5001086   1.0164559  )
         8           Co  tau(   8) = (   0.4936915   0.5063085   1.5135603  )
         9           O   tau(   9) = (   0.4988895   0.7610401   1.0164559  )
        10           O   tau(  10) = (   0.2389599   0.5011105   1.0164559  )
        11           O   tau(  11) = (   0.0070918   0.7374880   1.0164559  )
        12           O   tau(  12) = (   0.0088340   0.7405089   1.5135603  )
        13           O   tau(  13) = (   0.5066944   0.7415376   1.5135603  )
        14           O   tau(  14) = (   0.2584624   0.4933056   1.5135603  )
        15           O   tau(  15) = (   0.4985141   0.5014859   0.7773880  )
        16           O   tau(  16) = (   0.4985141   0.5014859   1.2555238  )
        17           Sr  tau(  17) = (   0.7482398   0.7454518   0.7706582  )
        18           Sr  tau(  18) = (   0.7482398   0.7454518   1.2622536  )
        19           Sr  tau(  19) = (   0.7441748   0.2558252   0.7725755  )
        20           Sr  tau(  20) = (   0.7441748   0.2558252   1.2603363  )
        21           O   tau(  21) = (   0.7322655   0.0078049   1.5135603  )
        22           O   tau(  22) = (   0.7558175   0.4996027   1.5135603  )
        23           O   tau(  23) = (   0.5003973   0.2441825   1.5135603  )
        24           O   tau(  24) = (   0.7527966   0.4978604   1.0164559  )
        25           O   tau(  25) = (   0.5021396   0.2472034   1.0164559  )
        26           O   tau(  26) = (   0.7517679   0.0000000   1.0164559  )
        27           O   tau(  27) = (   0.0114961   0.4948124   1.7455321  )
        28           O   tau(  28) = (   0.0048226   0.0077944   1.7715967  )
        29           Sr  tau(  29) = (   0.2545482   0.2517602   1.7648669  )
        30           O   tau(  30) = (   0.5048017   0.0015068   1.7786929  )
        31           Co  tau(  31) = (   0.0056869   0.5006215   1.0164559  )
        32           Co  tau(  32) = (   0.0065315   0.4997770   1.5135603  )
        33           Co  tau(  33) = (   0.0061999   0.0064171   1.0164559  )
        34           Co  tau(  34) = (   0.0000000   0.0126169   1.5135603  )
        35           O   tau(  35) = (   0.0114961   0.4948124   1.2815885  )
        36           O   tau(  36) = (   0.0114961   0.4948124   0.7513233  )
        37           O   tau(  37) = (   0.0051979   0.2673486   1.0164559  )
        38           O   tau(  38) = (   0.0130029   0.2478461   1.5135603  )
        39           O   tau(  39) = (   0.0048226   0.0077944   0.7773880  )
        40           O   tau(  40) = (   0.0048226   0.0077944   1.2555238  )
        41           Sr  tau(  41) = (   0.2545482   0.2517602   0.7706582  )
        42           Sr  tau(  42) = (   0.2545482   0.2517602   1.2622536  )
        43           Co  tau(  43) = (   0.4989925   0.0073160   1.5135603  )
        44           Co  tau(  44) = (   0.4998370   0.0064714   1.0164559  )
        45           O   tau(  45) = (   0.5048017   0.0015068   0.7844841  )
        46           O   tau(  46) = (   0.5048017   0.0015068   1.2484277  )
        47           O   tau(  47) = (   0.2621260   0.0059111   1.5135603  )
        48           O   tau(  48) = (   0.2591051   0.0041689   1.0164559  )
        49           H   tau(  49) = (   0.1421646   0.4264937   2.1602013  )

   Crystallographic axes

     site n.     atom                  positions (cryst. coord.)
         1           Sr  tau(   1) = (  0.2508693  0.7491307  0.6943562  )
         2           O   tau(   2) = (  0.4985141  0.5014859  0.6999492  )
         3           Sr  tau(   3) = (  0.7482398  0.7454518  0.6972903  )
         4           Sr  tau(   4) = (  0.7441748  0.2558252  0.6980478  )
         5           Sr  tau(   5) = (  0.2508693  0.7491307  0.5016443  )
         6           Sr  tau(   6) = (  0.2508693  0.7491307  0.3015492  )
         7           Co  tau(   7) = (  0.4998914  0.5001086  0.4015968  )
         8           Co  tau(   8) = (  0.4936915  0.5063085  0.5980003  )
         9           O   tau(   9) = (  0.4988895  0.7610401  0.4015968  )
        10           O   tau(  10) = (  0.2389599  0.5011105  0.4015968  )
        11           O   tau(  11) = (  0.0070918  0.7374880  0.4015968  )
        12           O   tau(  12) = (  0.0088340  0.7405089  0.5980003  )
        13           O   tau(  13) = (  0.5066944  0.7415376  0.5980003  )
        14           O   tau(  14) = (  0.2584624  0.4933056  0.5980003  )
        15           O   tau(  15) = (  0.4985141  0.5014859  0.3071422  )
        16           O   tau(  16) = (  0.4985141  0.5014859  0.4960513  )
        17           Sr  tau(  17) = (  0.7482398  0.7454518  0.3044833  )
        18           Sr  tau(  18) = (  0.7482398  0.7454518  0.4987103  )
        19           Sr  tau(  19) = (  0.7441748  0.2558252  0.3052408  )
        20           Sr  tau(  20) = (  0.7441748  0.2558252  0.4979527  )
        21           O   tau(  21) = (  0.7322655  0.0078049  0.5980003  )
        22           O   tau(  22) = (  0.7558175  0.4996027  0.5980003  )
        23           O   tau(  23) = (  0.5003973  0.2441825  0.5980003  )
        24           O   tau(  24) = (  0.7527966  0.4978604  0.4015968  )
        25           O   tau(  25) = (  0.5021396  0.2472034  0.4015968  )
        26           O   tau(  26) = (  0.7517679  0.0000000  0.4015968  )
        27           O   tau(  27) = (  0.0114961  0.4948124  0.6896512  )
        28           O   tau(  28) = (  0.0048226  0.0077944  0.6999492  )
        29           Sr  tau(  29) = (  0.2545482  0.2517602  0.6972903  )
        30           O   tau(  30) = (  0.5048017  0.0015068  0.7027529  )
        31           Co  tau(  31) = (  0.0056869  0.5006215  0.4015968  )
        32           Co  tau(  32) = (  0.0065315  0.4997770  0.5980003  )
        33           Co  tau(  33) = (  0.0061999  0.0064171  0.4015968  )
        34           Co  tau(  34) = (  0.0000000  0.0126169  0.5980003  )
        35           O   tau(  35) = (  0.0114961  0.4948124  0.5063494  )
        36           O   tau(  36) = (  0.0114961  0.4948124  0.2968442  )
        37           O   tau(  37) = (  0.0051979  0.2673486  0.4015968  )
        38           O   tau(  38) = (  0.0130029  0.2478461  0.5980003  )
        39           O   tau(  39) = (  0.0048226  0.0077944  0.3071422  )
        40           O   tau(  40) = (  0.0048226  0.0077944  0.4960513  )
        41           Sr  tau(  41) = (  0.2545482  0.2517602  0.3044833  )
        42           Sr  tau(  42) = (  0.2545482  0.2517602  0.4987103  )
        43           Co  tau(  43) = (  0.4989925  0.0073160  0.5980003  )
        44           Co  tau(  44) = (  0.4998370  0.0064714  0.4015968  )
        45           O   tau(  45) = (  0.5048017  0.0015068  0.3099459  )
        46           O   tau(  46) = (  0.5048017  0.0015068  0.4932477  )
        47           O   tau(  47) = (  0.2621260  0.0059111  0.5980003  )
        48           O   tau(  48) = (  0.2591051  0.0041689  0.4015968  )
        49           H   tau(  49) = (  0.1421646  0.4264937  0.8534850  )

     number of k points=    10  Gaussian smearing, width (Ry)=  0.0700
                       cart. coord. in units 2pi/alat
        k(    1) = (   0.0000000   0.0000000   0.0000000), wk =   0.1250000
        k(    2) = (   0.0000000   0.2500000   0.0000000), wk =   0.2500000
        k(    3) = (   0.0000000  -0.5000000   0.0000000), wk =   0.1250000
        k(    4) = (   0.2500000   0.2500000   0.0000000), wk =   0.2500000
        k(    5) = (   0.2500000  -0.5000000   0.0000000), wk =   0.2500000
        k(    6) = (  -0.5000000  -0.5000000   0.0000000), wk =   0.1250000
        k(    7) = (   0.2500000   0.0000000   0.0000000), wk =   0.2500000
        k(    8) = (  -0.5000000   0.0000000   0.0000000), wk =   0.1250000
        k(    9) = (  -0.2500000   0.2500000   0.0000000), wk =   0.2500000
        k(   10) = (  -0.5000000   0.2500000   0.0000000), wk =   0.2500000

                       cryst. coord.
        k(    1) = (   0.0000000   0.0000000   0.0000000), wk =   0.1250000
        k(    2) = (   0.0000000   0.2500000   0.0000000), wk =   0.2500000
        k(    3) = (   0.0000000  -0.5000000   0.0000000), wk =   0.1250000
        k(    4) = (   0.2500000   0.2500000   0.0000000), wk =   0.2500000
        k(    5) = (   0.2500000  -0.5000000   0.0000000), wk =   0.2500000
        k(    6) = (  -0.5000000  -0.5000000   0.0000000), wk =   0.1250000
        k(    7) = (   0.2500000   0.0000000   0.0000000), wk =   0.2500000
        k(    8) = (  -0.5000000   0.0000000   0.0000000), wk =   0.1250000
        k(    9) = (  -0.2500000   0.2500000   0.0000000), wk =   0.2500000
        k(   10) = (  -0.5000000   0.2500000   0.0000000), wk =   0.2500000

     Dense  grid:  1474595 G-vectors     FFT dimensions: ( 108, 108, 270)

     Smooth grid:   521381 G-vectors     FFT dimensions: (  75,  75, 192)

     Dynamical RAM for                 wfc:      10.61 MB

     Dynamical RAM for     wfc (w. buffer):      63.63 MB

     Dynamical RAM for           str. fact:       3.75 MB

     Dynamical RAM for           local pot:       0.00 MB

     Dynamical RAM for          nlocal pot:      24.28 MB

     Dynamical RAM for                qrad:       7.03 MB

     Dynamical RAM for          rho,v,vnew:       6.02 MB

     Dynamical RAM for               rhoin:       2.01 MB

     Dynamical RAM for            rho*nmix:      15.00 MB

     Dynamical RAM for           G-vectors:       3.68 MB

     Dynamical RAM for          h,s,v(r/c):       1.32 MB

     Dynamical RAM for          <psi|beta>:       2.29 MB

     Dynamical RAM for                 psi:      21.21 MB

     Dynamical RAM for                hpsi:      21.21 MB

     Dynamical RAM for                spsi:      21.21 MB

     Dynamical RAM for      wfcinit/wfcrot:      34.09 MB

     Dynamical RAM for           addusdens:     100.79 MB

     Estimated static dynamical RAM per process >     120.42 MB

     Estimated max dynamical RAM per process >     236.21 MB

     Estimated total dynamical RAM >      10.72 GB

     Check: negative core charge=   -0.000004

     Initial potential from superposition of free atoms

     starting charge     416.5961, renormalised to     425.0000

     negative rho (up, down):  7.826E-01 0.000E+00
     Starting wfcs are  373 randomized atomic wfcs
     Checking if some PAW data can be deallocated... 
       PAW data deallocated on   20 nodes for type:  2

     total cpu time spent up to now is        8.5 secs

     Self-consistent Calculation

     iteration #  1     ecut=    60.00 Ry     beta= 0.15
     Davidson diagonalization with overlap

---- Real-time Memory Report at c_bands before calling an iterative solver
             0 MiB given to the printing process from OS
             0 MiB allocation reported by mallinfo(arena+hblkhd)
        170487 MiB available memory on the node where the printing process lives
------------------
     ethr =  1.00E-02,  avg # of iterations =  2.0

     negative rho (up, down):  7.717E-01 0.000E+00

     total cpu time spent up to now is       22.9 secs

     total energy              =   -4404.74407213 Ry
     estimated scf accuracy    <      42.20698380 Ry

     iteration #  2     ecut=    60.00 Ry     beta= 0.15
     Davidson diagonalization with overlap

---- Real-time Memory Report at c_bands before calling an iterative solver
             0 MiB given to the printing process from OS
             0 MiB allocation reported by mallinfo(arena+hblkhd)
        170716 MiB available memory on the node where the printing process lives
------------------
     ethr =  9.93E-03,  avg # of iterations =  1.0

     negative rho (up, down):  7.532E-01 0.000E+00

     total cpu time spent up to now is       34.8 secs

     total energy              =   -4400.04229945 Ry
     estimated scf accuracy    <      26.60488874 Ry

     iteration #  3     ecut=    60.00 Ry     beta= 0.15
     Davidson diagonalization with overlap

---- Real-time Memory Report at c_bands before calling an iterative solver
             0 MiB given to the printing process from OS
             0 MiB allocation reported by mallinfo(arena+hblkhd)
        169971 MiB available memory on the node where the printing process lives
------------------
     ethr =  6.26E-03,  avg # of iterations =  2.0

     negative rho (up, down):  7.544E-01 0.000E+00

     total cpu time spent up to now is       48.2 secs

     total energy              =   -4402.38687330 Ry
     estimated scf accuracy    <      49.02403142 Ry

     iteration #  4     ecut=    60.00 Ry     beta= 0.15
     Davidson diagonalization with overlap

---- Real-time Memory Report at c_bands before calling an iterative solver
             0 MiB given to the printing process from OS
             0 MiB allocation reported by mallinfo(arena+hblkhd)
        169836 MiB available memory on the node where the printing process lives
------------------
     ethr =  6.26E-03,  avg # of iterations =  1.0

     negative rho (up, down):  7.410E-01 0.000E+00

     total cpu time spent up to now is       60.1 secs

     total energy              =   -4401.65014571 Ry
     estimated scf accuracy    <      29.25924629 Ry

     iteration #  5     ecut=    60.00 Ry     beta= 0.15
     Davidson diagonalization with overlap

---- Real-time Memory Report at c_bands before calling an iterative solver
             0 MiB given to the printing process from OS
             0 MiB allocation reported by mallinfo(arena+hblkhd)
        169823 MiB available memory on the node where the printing process lives
------------------
     ethr =  6.26E-03,  avg # of iterations =  1.0

     negative rho (up, down):  7.471E-01 0.000E+00

     total cpu time spent up to now is       72.2 secs

     total energy              =   -4399.80013678 Ry
     estimated scf accuracy    <      44.23997805 Ry

     iteration #  6     ecut=    60.00 Ry     beta= 0.15
     Davidson diagonalization with overlap

---- Real-time Memory Report at c_bands before calling an iterative solver
             0 MiB given to the printing process from OS
             0 MiB allocation reported by mallinfo(arena+hblkhd)
        169802 MiB available memory on the node where the printing process lives
------------------
     ethr =  6.26E-03,  avg # of iterations =  1.0

     negative rho (up, down):  7.421E-01 0.000E+00

     total cpu time spent up to now is       84.0 secs

     total energy              =   -4400.64248408 Ry
     estimated scf accuracy    <      11.95303299 Ry

     iteration #  7     ecut=    60.00 Ry     beta= 0.15
     Davidson diagonalization with overlap

---- Real-time Memory Report at c_bands before calling an iterative solver
             0 MiB given to the printing process from OS
             0 MiB allocation reported by mallinfo(arena+hblkhd)
        169783 MiB available memory on the node where the printing process lives
------------------
     ethr =  2.81E-03,  avg # of iterations =  1.1

     negative rho (up, down):  7.443E-01 0.000E+00

     total cpu time spent up to now is       96.2 secs

     total energy              =   -4400.81246671 Ry
     estimated scf accuracy    <       4.06293154 Ry

     iteration #  8     ecut=    60.00 Ry     beta= 0.15
     Davidson diagonalization with overlap

---- Real-time Memory Report at c_bands before calling an iterative solver
             0 MiB given to the printing process from OS
             0 MiB allocation reported by mallinfo(arena+hblkhd)
        169758 MiB available memory on the node where the printing process lives
------------------
     ethr =  9.56E-04,  avg # of iterations =  1.6

     negative rho (up, down):  7.544E-01 0.000E+00

     total cpu time spent up to now is      108.7 secs

     total energy              =   -4400.30744489 Ry
     estimated scf accuracy    <       3.40973239 Ry

     iteration #  9     ecut=    60.00 Ry     beta= 0.15
     Davidson diagonalization with overlap

---- Real-time Memory Report at c_bands before calling an iterative solver
             0 MiB given to the printing process from OS
             0 MiB allocation reported by mallinfo(arena+hblkhd)
        169735 MiB available memory on the node where the printing process lives
------------------
     ethr =  8.02E-04,  avg # of iterations =  4.5

     negative rho (up, down):  7.758E-01 0.000E+00

     total cpu time spent up to now is      123.6 secs

     total energy              =   -4399.78665291 Ry
     estimated scf accuracy    <      47.18887013 Ry

     iteration # 10     ecut=    60.00 Ry     beta= 0.15
     Davidson diagonalization with overlap

---- Real-time Memory Report at c_bands before calling an iterative solver
             0 MiB given to the printing process from OS
             0 MiB allocation reported by mallinfo(arena+hblkhd)
        169631 MiB available memory on the node where the printing process lives
------------------
     ethr =  8.02E-04,  avg # of iterations =  9.3

     negative rho (up, down):  7.787E-01 0.000E+00

     total cpu time spent up to now is      141.1 secs

     total energy              =   -4399.77843771 Ry
     estimated scf accuracy    <      11.42677056 Ry

     iteration # 11     ecut=    60.00 Ry     beta= 0.15
     Davidson diagonalization with overlap

---- Real-time Memory Report at c_bands before calling an iterative solver
             0 MiB given to the printing process from OS
             0 MiB allocation reported by mallinfo(arena+hblkhd)
        169296 MiB available memory on the node where the printing process lives
------------------
     ethr =  8.02E-04,  avg # of iterations =  1.0

     negative rho (up, down):  7.817E-01 0.000E+00

     total cpu time spent up to now is      152.9 secs

     total energy              =   -4400.11583582 Ry
     estimated scf accuracy    <       1.12259368 Ry

     iteration # 12     ecut=    60.00 Ry     beta= 0.15
     Davidson diagonalization with overlap

---- Real-time Memory Report at c_bands before calling an iterative solver
             0 MiB given to the printing process from OS
             0 MiB allocation reported by mallinfo(arena+hblkhd)
        169310 MiB available memory on the node where the printing process lives
------------------
     ethr =  2.64E-04,  avg # of iterations =  2.4

     negative rho (up, down):  7.909E-01 0.000E+00

     total cpu time spent up to now is      165.9 secs

     total energy              =   -4400.09904912 Ry
     estimated scf accuracy    <       0.89161629 Ry

     iteration # 13     ecut=    60.00 Ry     beta= 0.15
     Davidson diagonalization with overlap

---- Real-time Memory Report at c_bands before calling an iterative solver
             0 MiB given to the printing process from OS
             0 MiB allocation reported by mallinfo(arena+hblkhd)
        169333 MiB available memory on the node where the printing process lives
------------------
     ethr =  2.10E-04,  avg # of iterations =  2.2

     negative rho (up, down):  7.990E-01 0.000E+00

     total cpu time spent up to now is      178.6 secs

     total energy              =   -4400.09170789 Ry
     estimated scf accuracy    <       2.01846783 Ry

     iteration # 14     ecut=    60.00 Ry     beta= 0.15
     Davidson diagonalization with overlap

---- Real-time Memory Report at c_bands before calling an iterative solver
             0 MiB given to the printing process from OS
             0 MiB allocation reported by mallinfo(arena+hblkhd)
        169334 MiB available memory on the node where the printing process lives
------------------
     ethr =  2.10E-04,  avg # of iterations =  7.5

     negative rho (up, down):  8.065E-01 0.000E+00

     total cpu time spent up to now is      194.5 secs

     total energy              =   -4400.00861794 Ry
     estimated scf accuracy    <       1.59781487 Ry

     iteration # 15     ecut=    60.00 Ry     beta= 0.15
     Davidson diagonalization with overlap

---- Real-time Memory Report at c_bands before calling an iterative solver
             0 MiB given to the printing process from OS
             0 MiB allocation reported by mallinfo(arena+hblkhd)
        169289 MiB available memory on the node where the printing process lives
------------------
     ethr =  2.10E-04,  avg # of iterations =  5.0

     negative rho (up, down):  8.100E-01 0.000E+00

     total cpu time spent up to now is      209.2 secs

     total energy              =   -4400.04056590 Ry
     estimated scf accuracy    <       0.35011315 Ry

     iteration # 16     ecut=    60.00 Ry     beta= 0.15
     Davidson diagonalization with overlap

---- Real-time Memory Report at c_bands before calling an iterative solver
             0 MiB given to the printing process from OS
             0 MiB allocation reported by mallinfo(arena+hblkhd)
        169292 MiB available memory on the node where the printing process lives
------------------
     ethr =  8.24E-05,  avg # of iterations =  7.9

     negative rho (up, down):  8.152E-01 0.000E+00

     total cpu time spent up to now is      224.8 secs

     total energy              =   -4400.00702898 Ry
     estimated scf accuracy    <       0.30208168 Ry

     iteration # 17     ecut=    60.00 Ry     beta= 0.15
     Davidson diagonalization with overlap

---- Real-time Memory Report at c_bands before calling an iterative solver
             0 MiB given to the printing process from OS
             0 MiB allocation reported by mallinfo(arena+hblkhd)
        169242 MiB available memory on the node where the printing process lives
------------------
     ethr =  7.11E-05,  avg # of iterations =  8.4

     negative rho (up, down):  8.179E-01 0.000E+00

     total cpu time spent up to now is      241.2 secs

     total energy              =   -4399.95106580 Ry
     estimated scf accuracy    <       0.23979410 Ry

     iteration # 18     ecut=    60.00 Ry     beta= 0.15
     Davidson diagonalization with overlap

---- Real-time Memory Report at c_bands before calling an iterative solver
             0 MiB given to the printing process from OS
             0 MiB allocation reported by mallinfo(arena+hblkhd)
        169297 MiB available memory on the node where the printing process lives
------------------
     ethr =  5.64E-05,  avg # of iterations =  9.7

     negative rho (up, down):  8.158E-01 0.000E+00

     total cpu time spent up to now is      258.9 secs

     total energy              =   -4399.95098079 Ry
     estimated scf accuracy    <       0.12288159 Ry

     iteration # 19     ecut=    60.00 Ry     beta= 0.15
     Davidson diagonalization with overlap

---- Real-time Memory Report at c_bands before calling an iterative solver
             0 MiB given to the printing process from OS
             0 MiB allocation reported by mallinfo(arena+hblkhd)
        169251 MiB available memory on the node where the printing process lives
------------------
     ethr =  2.89E-05,  avg # of iterations =  6.4

     negative rho (up, down):  8.140E-01 0.000E+00

     total cpu time spent up to now is      274.5 secs

     total energy              =   -4399.94135525 Ry
     estimated scf accuracy    <       0.10116826 Ry

     iteration # 20     ecut=    60.00 Ry     beta= 0.15
     Davidson diagonalization with overlap

---- Real-time Memory Report at c_bands before calling an iterative solver
             0 MiB given to the printing process from OS
             0 MiB allocation reported by mallinfo(arena+hblkhd)
        169236 MiB available memory on the node where the printing process lives
------------------
     ethr =  2.38E-05,  avg # of iterations =  6.9

     negative rho (up, down):  8.138E-01 0.000E+00

     total cpu time spent up to now is      289.9 secs

     total energy              =   -4399.93129892 Ry
     estimated scf accuracy    <       0.07808410 Ry

     iteration # 21     ecut=    60.00 Ry     beta= 0.15
     Davidson diagonalization with overlap

---- Real-time Memory Report at c_bands before calling an iterative solver
             0 MiB given to the printing process from OS
             0 MiB allocation reported by mallinfo(arena+hblkhd)
        169235 MiB available memory on the node where the printing process lives
------------------
     ethr =  1.84E-05,  avg # of iterations =  8.7

     negative rho (up, down):  8.192E-01 0.000E+00

     total cpu time spent up to now is      306.5 secs

     total energy              =   -4399.92575913 Ry
     estimated scf accuracy    <       0.05403022 Ry

     iteration # 22     ecut=    60.00 Ry     beta= 0.15
     Davidson diagonalization with overlap

---- Real-time Memory Report at c_bands before calling an iterative solver
             0 MiB given to the printing process from OS
             0 MiB allocation reported by mallinfo(arena+hblkhd)
        169271 MiB available memory on the node where the printing process lives
------------------
     ethr =  1.27E-05,  avg # of iterations = 13.1

     negative rho (up, down):  7.926E-01 0.000E+00

     total cpu time spent up to now is      324.6 secs

     total energy              =   -4399.92186084 Ry
     estimated scf accuracy    <       0.03513440 Ry

     iteration # 23     ecut=    60.00 Ry     beta= 0.15
     Davidson diagonalization with overlap

---- Real-time Memory Report at c_bands before calling an iterative solver
             0 MiB given to the printing process from OS
             0 MiB allocation reported by mallinfo(arena+hblkhd)
        169166 MiB available memory on the node where the printing process lives
------------------
     ethr =  8.27E-06,  avg # of iterations =  3.6

     negative rho (up, down):  7.881E-01 0.000E+00

     total cpu time spent up to now is      338.8 secs

     total energy              =   -4399.92038203 Ry
     estimated scf accuracy    <       0.02009191 Ry

     iteration # 24     ecut=    60.00 Ry     beta= 0.15
     Davidson diagonalization with overlap

---- Real-time Memory Report at c_bands before calling an iterative solver
             0 MiB given to the printing process from OS
             0 MiB allocation reported by mallinfo(arena+hblkhd)
        169187 MiB available memory on the node where the printing process lives
------------------
     c_bands:  1 eigenvalues not converged
     ethr =  4.73E-06,  avg # of iterations = 13.9

     negative rho (up, down):  7.932E-01 0.000E+00

     total cpu time spent up to now is      357.4 secs

     total energy              =   -4399.92049955 Ry
     estimated scf accuracy    <       0.01043462 Ry

     iteration # 25     ecut=    60.00 Ry     beta= 0.15
     Davidson diagonalization with overlap

---- Real-time Memory Report at c_bands before calling an iterative solver
             0 MiB given to the printing process from OS
             0 MiB allocation reported by mallinfo(arena+hblkhd)
        169145 MiB available memory on the node where the printing process lives
------------------
     ethr =  2.46E-06,  avg # of iterations = 10.6

     negative rho (up, down):  7.952E-01 0.000E+00

     total cpu time spent up to now is      374.2 secs

     total energy              =   -4399.91997085 Ry
     estimated scf accuracy    <       0.00816945 Ry

     iteration # 26     ecut=    60.00 Ry     beta= 0.15
     Davidson diagonalization with overlap

---- Real-time Memory Report at c_bands before calling an iterative solver
             0 MiB given to the printing process from OS
             0 MiB allocation reported by mallinfo(arena+hblkhd)
        169146 MiB available memory on the node where the printing process lives
------------------
     ethr =  1.92E-06,  avg # of iterations =  6.9

     negative rho (up, down):  7.924E-01 0.000E+00

     total cpu time spent up to now is      389.9 secs

     total energy              =   -4399.91945069 Ry
     estimated scf accuracy    <       0.00568846 Ry

     iteration # 27     ecut=    60.00 Ry     beta= 0.15
     Davidson diagonalization with overlap

---- Real-time Memory Report at c_bands before calling an iterative solver
             0 MiB given to the printing process from OS
             0 MiB allocation reported by mallinfo(arena+hblkhd)
        169154 MiB available memory on the node where the printing process lives
------------------
     c_bands:  1 eigenvalues not converged
     ethr =  1.34E-06,  avg # of iterations =  5.7

     negative rho (up, down):  7.967E-01 0.000E+00

     total cpu time spent up to now is      405.0 secs

     total energy              =   -4399.91904665 Ry
     estimated scf accuracy    <       0.00319842 Ry

     iteration # 28     ecut=    60.00 Ry     beta= 0.15
     Davidson diagonalization with overlap

---- Real-time Memory Report at c_bands before calling an iterative solver
             0 MiB given to the printing process from OS
             0 MiB allocation reported by mallinfo(arena+hblkhd)
        169153 MiB available memory on the node where the printing process lives
------------------
     c_bands:  1 eigenvalues not converged
     ethr =  7.53E-07,  avg # of iterations = 12.3

     negative rho (up, down):  7.982E-01 0.000E+00

     total cpu time spent up to now is      426.8 secs

     total energy              =   -4399.91921578 Ry
     estimated scf accuracy    <       0.00074342 Ry

     iteration # 29     ecut=    60.00 Ry     beta= 0.15
     Davidson diagonalization with overlap

---- Real-time Memory Report at c_bands before calling an iterative solver
             0 MiB given to the printing process from OS
             0 MiB allocation reported by mallinfo(arena+hblkhd)
        168885 MiB available memory on the node where the printing process lives
------------------
     ethr =  1.75E-07,  avg # of iterations =  2.1

     negative rho (up, down):  7.970E-01 0.000E+00

     total cpu time spent up to now is      440.5 secs

     total energy              =   -4399.91924368 Ry
     estimated scf accuracy    <       0.00020250 Ry

     iteration # 30     ecut=    60.00 Ry     beta= 0.15
     Davidson diagonalization with overlap

---- Real-time Memory Report at c_bands before calling an iterative solver
             0 MiB given to the printing process from OS
             0 MiB allocation reported by mallinfo(arena+hblkhd)
        168916 MiB available memory on the node where the printing process lives
------------------
     ethr =  4.76E-08,  avg # of iterations =  2.2

     negative rho (up, down):  7.959E-01 0.000E+00

     total cpu time spent up to now is      454.0 secs

     total energy              =   -4399.91923914 Ry
     estimated scf accuracy    <       0.00014236 Ry

     iteration # 31     ecut=    60.00 Ry     beta= 0.15
     Davidson diagonalization with overlap

---- Real-time Memory Report at c_bands before calling an iterative solver
             0 MiB given to the printing process from OS
             0 MiB allocation reported by mallinfo(arena+hblkhd)
        168904 MiB available memory on the node where the printing process lives
------------------
     ethr =  3.35E-08,  avg # of iterations =  2.1

     negative rho (up, down):  7.933E-01 0.000E+00

     total cpu time spent up to now is      467.4 secs

     total energy              =   -4399.91923312 Ry
     estimated scf accuracy    <       0.00009721 Ry

     iteration # 32     ecut=    60.00 Ry     beta= 0.15
     Davidson diagonalization with overlap

---- Real-time Memory Report at c_bands before calling an iterative solver
             0 MiB given to the printing process from OS
             0 MiB allocation reported by mallinfo(arena+hblkhd)
        168935 MiB available memory on the node where the printing process lives
------------------
     ethr =  2.29E-08,  avg # of iterations =  5.6

     negative rho (up, down):  7.927E-01 0.000E+00

     total cpu time spent up to now is      482.1 secs

     total energy              =   -4399.91924407 Ry
     estimated scf accuracy    <       0.00003280 Ry

     iteration # 33     ecut=    60.00 Ry     beta= 0.15
     Davidson diagonalization with overlap

---- Real-time Memory Report at c_bands before calling an iterative solver
             0 MiB given to the printing process from OS
             0 MiB allocation reported by mallinfo(arena+hblkhd)
        168938 MiB available memory on the node where the printing process lives
------------------
     ethr =  7.72E-09,  avg # of iterations =  2.0

     negative rho (up, down):  7.925E-01 0.000E+00

     total cpu time spent up to now is      495.7 secs

     total energy              =   -4399.91924735 Ry
     estimated scf accuracy    <       0.00001770 Ry

     iteration # 34     ecut=    60.00 Ry     beta= 0.15
     Davidson diagonalization with overlap

---- Real-time Memory Report at c_bands before calling an iterative solver
             0 MiB given to the printing process from OS
             0 MiB allocation reported by mallinfo(arena+hblkhd)
        168948 MiB available memory on the node where the printing process lives
------------------
     ethr =  4.16E-09,  avg # of iterations =  2.7

     negative rho (up, down):  7.923E-01 0.000E+00

     total cpu time spent up to now is      509.5 secs

     total energy              =   -4399.91924987 Ry
     estimated scf accuracy    <       0.00000943 Ry

     iteration # 35     ecut=    60.00 Ry     beta= 0.15
     Davidson diagonalization with overlap

---- Real-time Memory Report at c_bands before calling an iterative solver
             0 MiB given to the printing process from OS
             0 MiB allocation reported by mallinfo(arena+hblkhd)
        168946 MiB available memory on the node where the printing process lives
------------------
     ethr =  2.22E-09,  avg # of iterations =  3.5

     negative rho (up, down):  7.922E-01 0.000E+00

     total cpu time spent up to now is      523.4 secs

     total energy              =   -4399.91925050 Ry
     estimated scf accuracy    <       0.00000576 Ry

     iteration # 36     ecut=    60.00 Ry     beta= 0.15
     Davidson diagonalization with overlap

---- Real-time Memory Report at c_bands before calling an iterative solver
             0 MiB given to the printing process from OS
             0 MiB allocation reported by mallinfo(arena+hblkhd)
        168953 MiB available memory on the node where the printing process lives
------------------
     ethr =  1.35E-09,  avg # of iterations =  2.8

     negative rho (up, down):  7.922E-01 0.000E+00

     total cpu time spent up to now is      537.2 secs

     total energy              =   -4399.91924892 Ry
     estimated scf accuracy    <       0.00000492 Ry

     iteration # 37     ecut=    60.00 Ry     beta= 0.15
     Davidson diagonalization with overlap

---- Real-time Memory Report at c_bands before calling an iterative solver
             0 MiB given to the printing process from OS
             0 MiB allocation reported by mallinfo(arena+hblkhd)
        168953 MiB available memory on the node where the printing process lives
------------------
     ethr =  1.16E-09,  avg # of iterations =  3.2

     negative rho (up, down):  7.923E-01 0.000E+00

     total cpu time spent up to now is      551.2 secs

     total energy              =   -4399.91924928 Ry
     estimated scf accuracy    <       0.00000377 Ry

     iteration # 38     ecut=    60.00 Ry     beta= 0.15
     Davidson diagonalization with overlap

---- Real-time Memory Report at c_bands before calling an iterative solver
             0 MiB given to the printing process from OS
             0 MiB allocation reported by mallinfo(arena+hblkhd)
        168951 MiB available memory on the node where the printing process lives
------------------
     ethr =  8.87E-10,  avg # of iterations =  2.0

     negative rho (up, down):  7.924E-01 0.000E+00

     total cpu time spent up to now is      564.4 secs

     total energy              =   -4399.91925086 Ry
     estimated scf accuracy    <       0.00000344 Ry

     iteration # 39     ecut=    60.00 Ry     beta= 0.15
     Davidson diagonalization with overlap

---- Real-time Memory Report at c_bands before calling an iterative solver
             0 MiB given to the printing process from OS
             0 MiB allocation reported by mallinfo(arena+hblkhd)
        168957 MiB available memory on the node where the printing process lives
------------------
     ethr =  8.09E-10,  avg # of iterations =  2.9

     negative rho (up, down):  7.926E-01 0.000E+00

     total cpu time spent up to now is      578.3 secs

     total energy              =   -4399.91925097 Ry
     estimated scf accuracy    <       0.00000138 Ry

     iteration # 40     ecut=    60.00 Ry     beta= 0.15
     Davidson diagonalization with overlap

---- Real-time Memory Report at c_bands before calling an iterative solver
             0 MiB given to the printing process from OS
             0 MiB allocation reported by mallinfo(arena+hblkhd)
        168948 MiB available memory on the node where the printing process lives
------------------
     ethr =  3.25E-10,  avg # of iterations =  4.1

     negative rho (up, down):  7.926E-01 0.000E+00

     total cpu time spent up to now is      592.4 secs

     total energy              =   -4399.91925088 Ry
     estimated scf accuracy    <       0.00000080 Ry

     iteration # 41     ecut=    60.00 Ry     beta= 0.15
     Davidson diagonalization with overlap

---- Real-time Memory Report at c_bands before calling an iterative solver
             0 MiB given to the printing process from OS
             0 MiB allocation reported by mallinfo(arena+hblkhd)
        168933 MiB available memory on the node where the printing process lives
------------------
     ethr =  1.89E-10,  avg # of iterations =  2.2

     negative rho (up, down):  7.926E-01 0.000E+00

     total cpu time spent up to now is      605.8 secs

     total energy              =   -4399.91925083 Ry
     estimated scf accuracy    <       0.00000063 Ry

     iteration # 42     ecut=    60.00 Ry     beta= 0.15
     Davidson diagonalization with overlap

---- Real-time Memory Report at c_bands before calling an iterative solver
             0 MiB given to the printing process from OS
             0 MiB allocation reported by mallinfo(arena+hblkhd)
        168939 MiB available memory on the node where the printing process lives
------------------
     ethr =  1.49E-10,  avg # of iterations =  1.8

     negative rho (up, down):  7.926E-01 0.000E+00

     total cpu time spent up to now is      619.1 secs

     total energy              =   -4399.91925091 Ry
     estimated scf accuracy    <       0.00000057 Ry

     iteration # 43     ecut=    60.00 Ry     beta= 0.15
     Davidson diagonalization with overlap

---- Real-time Memory Report at c_bands before calling an iterative solver
             0 MiB given to the printing process from OS
             0 MiB allocation reported by mallinfo(arena+hblkhd)
        168950 MiB available memory on the node where the printing process lives
------------------
     ethr =  1.34E-10,  avg # of iterations =  1.1

     negative rho (up, down):  7.925E-01 0.000E+00

     total cpu time spent up to now is      631.2 secs

     total energy              =   -4399.91925113 Ry
     estimated scf accuracy    <       0.00000050 Ry

     iteration # 44     ecut=    60.00 Ry     beta= 0.15
     Davidson diagonalization with overlap

---- Real-time Memory Report at c_bands before calling an iterative solver
             0 MiB given to the printing process from OS
             0 MiB allocation reported by mallinfo(arena+hblkhd)
        168951 MiB available memory on the node where the printing process lives
------------------
     ethr =  1.17E-10,  avg # of iterations =  2.8

     negative rho (up, down):  7.924E-01 0.000E+00

     total cpu time spent up to now is      644.7 secs

     total energy              =   -4399.91925127 Ry
     estimated scf accuracy    <       0.00000031 Ry

     iteration # 45     ecut=    60.00 Ry     beta= 0.15
     Davidson diagonalization with overlap

---- Real-time Memory Report at c_bands before calling an iterative solver
             0 MiB given to the printing process from OS
             0 MiB allocation reported by mallinfo(arena+hblkhd)
        168955 MiB available memory on the node where the printing process lives
------------------
     ethr =  7.20E-11,  avg # of iterations =  3.8

     negative rho (up, down):  7.924E-01 0.000E+00

     total cpu time spent up to now is      658.9 secs

     total energy              =   -4399.91925128 Ry
     estimated scf accuracy    <       0.00000007 Ry

     iteration # 46     ecut=    60.00 Ry     beta= 0.15
     Davidson diagonalization with overlap

---- Real-time Memory Report at c_bands before calling an iterative solver
             0 MiB given to the printing process from OS
             0 MiB allocation reported by mallinfo(arena+hblkhd)
        168955 MiB available memory on the node where the printing process lives
------------------
     ethr =  1.69E-11,  avg # of iterations =  2.2

     negative rho (up, down):  7.924E-01 0.000E+00

     total cpu time spent up to now is      672.6 secs

     total energy              =   -4399.91925130 Ry
     estimated scf accuracy    <       0.00000004 Ry

     iteration # 47     ecut=    60.00 Ry     beta= 0.15
     Davidson diagonalization with overlap

---- Real-time Memory Report at c_bands before calling an iterative solver
             0 MiB given to the printing process from OS
             0 MiB allocation reported by mallinfo(arena+hblkhd)
        168955 MiB available memory on the node where the printing process lives
------------------
     ethr =  8.45E-12,  avg # of iterations =  2.2

     negative rho (up, down):  7.924E-01 0.000E+00

     total cpu time spent up to now is      686.3 secs

     total energy              =   -4399.91925130 Ry
     estimated scf accuracy    <       0.00000002 Ry

     iteration # 48     ecut=    60.00 Ry     beta= 0.15
     Davidson diagonalization with overlap

---- Real-time Memory Report at c_bands before calling an iterative solver
             0 MiB given to the printing process from OS
             0 MiB allocation reported by mallinfo(arena+hblkhd)
        168954 MiB available memory on the node where the printing process lives
------------------
     ethr =  4.90E-12,  avg # of iterations =  3.7

     negative rho (up, down):  7.924E-01 0.000E+00

     total cpu time spent up to now is      700.5 secs

     End of self-consistent calculation

          k = 0.0000 0.0000 0.0000 ( 65197 PWs)   bands (ev):

   -92.7363 -92.6831 -92.5912 -92.5422 -92.4855 -92.4431 -92.4255 -92.3036
   -56.0897 -56.0682 -55.9481 -55.9371 -55.9301 -55.9239 -55.8873 -55.8601
   -55.8440 -55.8426 -55.8349 -55.7928 -55.7732 -55.7366 -55.7179 -55.6854
   -55.6776 -55.6312 -55.6310 -55.6282 -55.6198 -55.5783 -55.5558 -55.4690
   -31.3121 -31.2923 -31.1770 -31.1508 -31.0633 -31.0593 -30.9035 -30.6469
   -29.8850 -29.8408 -29.8154 -29.7065 -15.1166 -15.0720 -14.9924 -14.8623
   -14.6684 -14.5471 -14.2553 -14.2357 -14.2061 -14.1628 -14.1156 -14.1015
   -14.0946 -14.0748 -14.0576 -14.0261 -13.9673 -13.8157 -13.6325 -13.6038
   -13.5727 -13.5374 -13.5223 -13.4724 -13.4381 -13.3562 -13.2846 -13.1870
   -13.1702 -13.1447 -13.1299 -13.1096 -13.0916 -13.0580 -13.0405 -13.0251
   -12.9975 -12.9743 -12.9646 -12.9547 -12.9341 -12.9195 -12.8478 -12.8240
   -12.8142 -12.6296 -12.6194 -12.5882 -12.3767 -12.2305 -12.0533 -11.9810
   -11.8977 -11.8240 -11.8128 -11.7895 -11.7719 -11.7084 -11.6911 -11.6565
   -11.6281 -11.5151 -11.4358 -11.4322  -2.9772  -2.7450  -2.5156  -2.3676
    -2.3056  -2.1632  -1.8554  -1.8408  -1.8219  -1.7349  -1.7181  -1.6500
    -1.6336  -1.5928  -1.5487  -1.3674  -1.1417  -1.1115  -0.9665  -0.9521
    -0.9057  -0.8873  -0.8419  -0.8260  -0.7698  -0.7429  -0.6705  -0.6595
    -0.5828  -0.4512  -0.4385  -0.4091  -0.3286  -0.3056  -0.2754  -0.2348
    -0.1641  -0.1254  -0.0677  -0.0453   0.0177   0.0917   0.1442   0.1654
     0.1762   0.4346   0.4500   0.6211   0.6883   0.7507   0.7981   0.8860
     0.8987   0.9151   0.9857   1.0136   1.0469   1.1054   1.2377   1.2936
     1.3156   1.3401   1.3502   1.4117   1.4856   1.5921   1.6075   1.6621
     1.6771   1.7200   1.7399   1.7500   1.8033   1.8593   1.8670   1.9004
     1.9315   1.9884   2.1206   2.2050   2.2495   2.2622   2.4113   2.4246
     2.4750   2.4773   2.5841   2.6210   2.6485   2.6672   2.6833   2.7525
     2.7808   2.8710   2.9067   2.9156   2.9220   2.9904   2.9986   3.0173
     3.0255   3.0337   3.0440   3.0546   3.0679   3.0734   3.0843   3.0933
     3.1009   3.1212   3.1422   3.1472   3.1594   3.1820   3.3001   3.4040
     4.0722   4.3895   4.7349   4.8550   5.0024   5.8526   5.9322   5.9660
     5.9850   6.2785   6.3257   6.4650   6.4748   6.7453   6.9877   7.0792
     7.1678   7.2820   7.3392   7.5882   7.6348   7.6557   7.7017   7.8583
     7.9609   8.0918   8.1427   8.1783   8.4699   8.6103   8.8106   8.8754

     occupation numbers 
     1.0000   1.0000   1.0000   1.0000   1.0000   1.0000   1.0000   1.0000
     1.0000   1.0000   1.0000   1.0000   1.0000   1.0000   1.0000   1.0000
     1.0000   1.0000   1.0000   1.0000   1.0000   1.0000   1.0000   1.0000
     1.0000   1.0000   1.0000   1.0000   1.0000   1.0000   1.0000   1.0000
     1.0000   1.0000   1.0000   1.0000   1.0000   1.0000   1.0000   1.0000
     1.0000   1.0000   1.0000   1.0000   1.0000   1.0000   1.0000   1.0000
     1.0000   1.0000   1.0000   1.0000   1.0000   1.0000   1.0000   1.0000
     1.0000   1.0000   1.0000   1.0000   1.0000   1.0000   1.0000   1.0000
     1.0000   1.0000   1.0000   1.0000   1.0000   1.0000   1.0000   1.0000
     1.0000   1.0000   1.0000   1.0000   1.0000   1.0000   1.0000   1.0000
     1.0000   1.0000   1.0000   1.0000   1.0000   1.0000   1.0000   1.0000
     1.0000   1.0000   1.0000   1.0000   1.0000   1.0000   1.0000   1.0000
     1.0000   1.0000   1.0000   1.0000   1.0000   1.0000   1.0000   1.0000
     1.0000   1.0000   1.0000   1.0000   1.0000   1.0000   1.0000   1.0000
     1.0000   1.0000   1.0000   1.0000   1.0000   1.0000   1.0000   1.0000
     1.0000   1.0000   1.0000   1.0000   1.0000   1.0000   1.0000   1.0000
     1.0000   1.0000   1.0000   1.0000   1.0000   1.0000   1.0000   1.0000
     1.0000   1.0000   1.0000   1.0000   1.0000   1.0000   1.0000   1.0000
     1.0000   1.0000   1.0000   1.0000   1.0000   1.0000   1.0000   1.0000
     1.0000   1.0000   1.0000   1.0000   0.9999   0.9999   0.9999   0.9998
     0.9998   0.9998   0.9997   0.9996   0.9996   0.9994   0.9989   0.9985
     0.9983   0.9981   0.9980   0.9974   0.9963   0.9942   0.9938   0.9922
     0.9917   0.9902   0.9894   0.9889   0.9864   0.9833   0.9828   0.9805
     0.9783   0.9735   0.9589   0.9466   0.9391   0.9367   0.9043   0.9009
     0.8872   0.8866   0.8531   0.8402   0.8301   0.8229   0.8167   0.7881
     0.7757   0.7336   0.7160   0.7115   0.7082   0.6724   0.6680   0.6579
     0.6534   0.6489   0.6432   0.6373   0.6299   0.6268   0.6207   0.6156
     0.6112   0.5996   0.5875   0.5847   0.5775   0.5644   0.4947   0.4335
     0.1231   0.0515   0.0160   0.0101   0.0055   0.0001   0.0000   0.0000
     0.0000   0.0000   0.0000   0.0000   0.0000   0.0000   0.0000   0.0000
     0.0000   0.0000   0.0000   0.0000   0.0000   0.0000   0.0000   0.0000
     0.0000   0.0000   0.0000   0.0000   0.0000   0.0000   0.0000   0.0000

          k = 0.0000 0.2500 0.0000 ( 65257 PWs)   bands (ev):

   -92.7363 -92.6831 -92.5912 -92.5422 -92.4855 -92.4431 -92.4255 -92.3036
   -56.0897 -56.0682 -55.9481 -55.9371 -55.9301 -55.9239 -55.8873 -55.8601
   -55.8440 -55.8426 -55.8349 -55.7928 -55.7732 -55.7366 -55.7179 -55.6854
   -55.6776 -55.6312 -55.6310 -55.6282 -55.6198 -55.5783 -55.5558 -55.4690
   -31.3119 -31.2922 -31.1768 -31.1510 -31.0634 -31.0595 -30.9034 -30.6471
   -29.8844 -29.8405 -29.8160 -29.7068 -15.0801 -15.0453 -14.9675 -14.8329
   -14.7101 -14.5371 -14.4005 -14.2210 -14.1862 -14.1665 -14.1385 -14.0788
   -14.0734 -14.0557 -14.0387 -13.9982 -13.8859 -13.8464 -13.6825 -13.6594
   -13.6142 -13.5766 -13.5250 -13.4899 -13.4499 -13.3782 -13.3426 -13.3010
   -13.2354 -13.1823 -13.1543 -13.1412 -13.1164 -13.0327 -13.0081 -12.9797
   -12.9661 -12.9382 -12.9158 -12.9032 -12.8889 -12.8442 -12.8297 -12.7834
   -12.7552 -12.5945 -12.5582 -12.5061 -12.4379 -12.2816 -12.1078 -12.0439
   -11.8631 -11.8207 -11.7928 -11.7642 -11.7475 -11.7003 -11.6890 -11.6666
   -11.6327 -11.5294 -11.4774 -11.4668  -2.8418  -2.6207  -2.4830  -2.3004
    -2.2571  -2.0937  -1.8726  -1.7897  -1.7767  -1.7150  -1.6158  -1.6008
    -1.5668  -1.5396  -1.4960  -1.2986  -1.1690  -1.1577  -1.0804  -1.0710
    -0.9673  -0.9373  -0.8797  -0.8539  -0.8136  -0.7489  -0.7231  -0.6902
    -0.6610  -0.6433  -0.6103  -0.5366  -0.4851  -0.4111  -0.3048  -0.2766
    -0.2397  -0.1282  -0.0914  -0.0311   0.0187   0.0743   0.0938   0.1223
     0.1812   0.4816   0.5696   0.6036   0.6871   0.7327   0.7551   0.8721
     0.8908   0.9850   1.0124   1.0402   1.1545   1.2493   1.2695   1.2956
     1.3148   1.3381   1.3986   1.4253   1.4534   1.5006   1.5350   1.5655
     1.6522   1.6880   1.7133   1.7715   1.8237   1.8574   1.8881   1.9162
     1.9344   2.0264   2.1595   2.2284   2.2461   2.3234   2.3678   2.4081
     2.4134   2.4786   2.5188   2.6005   2.6457   2.6605   2.7668   2.8302
     2.8553   2.8861   2.9100   2.9230   2.9317   2.9385   2.9476   2.9781
     2.9807   2.9982   3.0073   3.0116   3.0301   3.0453   3.0511   3.0719
     3.0831   3.0889   3.1245   3.1398   3.1991   3.5651   3.6125   3.8462
     4.2589   4.3839   4.6823   5.0066   5.0287   5.6153   5.7794   5.9308
     5.9961   6.0624   6.0752   6.1527   6.5813   6.8173   6.9219   7.0930
     7.3089   7.4543   7.4737   7.4989   7.6203   7.7611   7.7900   7.9857
     8.0494   8.1064   8.1705   8.2654   8.3818   8.5878   8.7618   8.9150

     occupation numbers 
     1.0000   1.0000   1.0000   1.0000   1.0000   1.0000   1.0000   1.0000
     1.0000   1.0000   1.0000   1.0000   1.0000   1.0000   1.0000   1.0000
     1.0000   1.0000   1.0000   1.0000   1.0000   1.0000   1.0000   1.0000
     1.0000   1.0000   1.0000   1.0000   1.0000   1.0000   1.0000   1.0000
     1.0000   1.0000   1.0000   1.0000   1.0000   1.0000   1.0000   1.0000
     1.0000   1.0000   1.0000   1.0000   1.0000   1.0000   1.0000   1.0000
     1.0000   1.0000   1.0000   1.0000   1.0000   1.0000   1.0000   1.0000
     1.0000   1.0000   1.0000   1.0000   1.0000   1.0000   1.0000   1.0000
     1.0000   1.0000   1.0000   1.0000   1.0000   1.0000   1.0000   1.0000
     1.0000   1.0000   1.0000   1.0000   1.0000   1.0000   1.0000   1.0000
     1.0000   1.0000   1.0000   1.0000   1.0000   1.0000   1.0000   1.0000
     1.0000   1.0000   1.0000   1.0000   1.0000   1.0000   1.0000   1.0000
     1.0000   1.0000   1.0000   1.0000   1.0000   1.0000   1.0000   1.0000
     1.0000   1.0000   1.0000   1.0000   1.0000   1.0000   1.0000   1.0000
     1.0000   1.0000   1.0000   1.0000   1.0000   1.0000   1.0000   1.0000
     1.0000   1.0000   1.0000   1.0000   1.0000   1.0000   1.0000   1.0000
     1.0000   1.0000   1.0000   1.0000   1.0000   1.0000   1.0000   1.0000
     1.0000   1.0000   1.0000   1.0000   1.0000   1.0000   1.0000   1.0000
     1.0000   1.0000   1.0000   1.0000   1.0000   1.0000   1.0000   1.0000
     1.0000   1.0000   1.0000   1.0000   0.9999   0.9999   0.9999   0.9998
     0.9998   0.9997   0.9996   0.9996   0.9992   0.9988   0.9987   0.9985
     0.9983   0.9981   0.9975   0.9972   0.9968   0.9961   0.9954   0.9948
     0.9925   0.9914   0.9904   0.9880   0.9853   0.9834   0.9814   0.9794
     0.9780   0.9698   0.9536   0.9427   0.9397   0.9247   0.9148   0.9051
     0.9038   0.8862   0.8743   0.8475   0.8311   0.8255   0.7819   0.7532
     0.7412   0.7263   0.7143   0.7077   0.7033   0.6998   0.6951   0.6790
     0.6776   0.6682   0.6633   0.6610   0.6509   0.6425   0.6393   0.6276
     0.6214   0.6181   0.5978   0.5889   0.5544   0.3421   0.3166   0.2049
     0.0754   0.0523   0.0194   0.0054   0.0049   0.0003   0.0001   0.0000
     0.0000   0.0000   0.0000   0.0000   0.0000   0.0000   0.0000   0.0000
     0.0000   0.0000   0.0000   0.0000   0.0000   0.0000   0.0000   0.0000
     0.0000   0.0000   0.0000   0.0000   0.0000   0.0000   0.0000   0.0000

          k = 0.0000-0.5000 0.0000 ( 65180 PWs)   bands (ev):

   -92.7363 -92.6831 -92.5912 -92.5422 -92.4855 -92.4431 -92.4255 -92.3036
   -56.0897 -56.0682 -55.9481 -55.9371 -55.9301 -55.9239 -55.8873 -55.8601
   -55.8440 -55.8426 -55.8349 -55.7928 -55.7732 -55.7366 -55.7179 -55.6854
   -55.6776 -55.6312 -55.6310 -55.6282 -55.6198 -55.5783 -55.5558 -55.4690
   -31.3117 -31.2920 -31.1765 -31.1512 -31.0636 -31.0598 -30.9033 -30.6472
   -29.8838 -29.8402 -29.8166 -29.7071 -15.0441 -14.9964 -14.9415 -14.8168
   -14.7301 -14.5954 -14.4373 -14.3215 -14.1925 -14.1268 -14.0791 -14.0733
   -14.0220 -14.0065 -13.9583 -13.9323 -13.9131 -13.8784 -13.8430 -13.8046
   -13.6187 -13.5595 -13.5283 -13.4916 -13.4515 -13.3934 -13.3698 -13.3218
   -13.3172 -13.2518 -13.1535 -13.1408 -13.1025 -13.0538 -13.0004 -12.9859
   -12.9626 -12.9167 -12.9085 -12.8834 -12.8448 -12.7553 -12.7401 -12.7329
   -12.6864 -12.5924 -12.5488 -12.4436 -12.3566 -12.3350 -12.2019 -12.1533
   -11.8177 -11.8147 -11.7877 -11.7500 -11.7158 -11.7048 -11.6624 -11.6585
   -11.6142 -11.5511 -11.5377 -11.5238  -2.6264  -2.5687  -2.4172  -2.3456
    -2.0616  -1.9806  -1.8520  -1.7161  -1.6727  -1.6585  -1.5806  -1.5498
    -1.4665  -1.4321  -1.3529  -1.3142  -1.2762  -1.2491  -1.1878  -1.1543
    -1.1065  -1.0713  -1.0378  -1.0051  -0.8939  -0.8497  -0.8140  -0.8106
    -0.7254  -0.6945  -0.6730  -0.6257  -0.5347  -0.4671  -0.3762  -0.3389
    -0.2440  -0.2127  -0.0656  -0.0167   0.0014   0.0465   0.1624   0.2313
     0.3562   0.4243   0.4336   0.5608   0.6161   0.6992   0.8418   0.9430
     0.9764   1.0162   1.0273   1.0587   1.0773   1.1115   1.1271   1.1403
     1.2504   1.3102   1.3441   1.3683   1.6383   1.6572   1.6793   1.7660
     1.7956   1.8308   1.8486   1.8745   1.8905   1.8927   1.9223   1.9676
     1.9937   2.0218   2.0322   2.0605   2.1145   2.2030   2.2324   2.4005
     2.5672   2.5694   2.5926   2.6291   2.6413   2.6456   2.6947   2.7091
     2.7615   2.7793   2.7907   2.8620   2.8813   2.9482   2.9500   2.9755
     2.9786   2.9943   2.9974   3.0028   3.0087   3.0172   3.0299   3.0422
     3.0458   3.1092   3.1137   3.1296   3.1867   4.0859   4.0989   4.1488
     4.2353   4.6967   4.8722   4.9968   5.1489   5.3922   5.4396   5.5551
     5.7192   5.9969   6.0102   6.0901   6.6057   6.8318   6.9384   7.1994
     7.2983   7.3870   7.4469   7.6079   7.7232   7.7426   7.8765   7.8911
     8.1188   8.2210   8.3925   8.4685   8.6353   8.7289   8.7873   8.8127

     occupation numbers 
     1.0000   1.0000   1.0000   1.0000   1.0000   1.0000   1.0000   1.0000
     1.0000   1.0000   1.0000   1.0000   1.0000   1.0000   1.0000   1.0000
     1.0000   1.0000   1.0000   1.0000   1.0000   1.0000   1.0000   1.0000
     1.0000   1.0000   1.0000   1.0000   1.0000   1.0000   1.0000   1.0000
     1.0000   1.0000   1.0000   1.0000   1.0000   1.0000   1.0000   1.0000
     1.0000   1.0000   1.0000   1.0000   1.0000   1.0000   1.0000   1.0000
     1.0000   1.0000   1.0000   1.0000   1.0000   1.0000   1.0000   1.0000
     1.0000   1.0000   1.0000   1.0000   1.0000   1.0000   1.0000   1.0000
     1.0000   1.0000   1.0000   1.0000   1.0000   1.0000   1.0000   1.0000
     1.0000   1.0000   1.0000   1.0000   1.0000   1.0000   1.0000   1.0000
     1.0000   1.0000   1.0000   1.0000   1.0000   1.0000   1.0000   1.0000
     1.0000   1.0000   1.0000   1.0000   1.0000   1.0000   1.0000   1.0000
     1.0000   1.0000   1.0000   1.0000   1.0000   1.0000   1.0000   1.0000
     1.0000   1.0000   1.0000   1.0000   1.0000   1.0000   1.0000   1.0000
     1.0000   1.0000   1.0000   1.0000   1.0000   1.0000   1.0000   1.0000
     1.0000   1.0000   1.0000   1.0000   1.0000   1.0000   1.0000   1.0000
     1.0000   1.0000   1.0000   1.0000   1.0000   1.0000   1.0000   1.0000
     1.0000   1.0000   1.0000   1.0000   1.0000   1.0000   1.0000   1.0000
     1.0000   1.0000   1.0000   1.0000   1.0000   1.0000   1.0000   1.0000
     1.0000   1.0000   1.0000   1.0000   1.0000   0.9999   0.9999   0.9998
     0.9997   0.9996   0.9996   0.9995   0.9995   0.9994   0.9993   0.9993
     0.9988   0.9984   0.9981   0.9979   0.9929   0.9924   0.9917   0.9882
     0.9868   0.9849   0.9839   0.9823   0.9812   0.9811   0.9790   0.9753
     0.9730   0.9703   0.9692   0.9662   0.9597   0.9469   0.9421   0.9070
     0.8588   0.8581   0.8502   0.8372   0.8328   0.8311   0.8121   0.8063
     0.7842   0.7764   0.7713   0.7381   0.7286   0.6947   0.6938   0.6804
     0.6787   0.6703   0.6686   0.6658   0.6626   0.6579   0.6510   0.6442
     0.6422   0.6065   0.6039   0.5948   0.5617   0.1190   0.1152   0.1014
     0.0805   0.0184   0.0094   0.0057   0.0029   0.0009   0.0007   0.0004
     0.0002   0.0000   0.0000   0.0000   0.0000   0.0000   0.0000   0.0000
     0.0000   0.0000   0.0000   0.0000   0.0000   0.0000   0.0000   0.0000
     0.0000   0.0000   0.0000   0.0000   0.0000   0.0000   0.0000   0.0000

          k = 0.2500 0.2500 0.0000 ( 65198 PWs)   bands (ev):

   -92.7363 -92.6831 -92.5912 -92.5422 -92.4855 -92.4431 -92.4255 -92.3036
   -56.0897 -56.0682 -55.9481 -55.9371 -55.9301 -55.9239 -55.8873 -55.8601
   -55.8440 -55.8426 -55.8349 -55.7928 -55.7732 -55.7366 -55.7179 -55.6854
   -55.6776 -55.6312 -55.6310 -55.6282 -55.6198 -55.5783 -55.5558 -55.4690
   -31.3103 -31.2938 -31.1767 -31.1506 -31.0638 -31.0594 -30.9035 -30.6472
   -29.8834 -29.8414 -29.8156 -29.7072 -15.0513 -15.0099 -14.9395 -14.8228
   -14.7026 -14.5777 -14.5066 -14.3014 -14.1440 -14.1315 -14.0967 -14.0665
   -14.0440 -14.0113 -13.9849 -13.9609 -13.8770 -13.8606 -13.6990 -13.6856
   -13.6546 -13.6358 -13.5721 -13.5456 -13.4867 -13.4609 -13.3575 -13.3171
   -13.2641 -13.1781 -13.1392 -13.1162 -13.0809 -13.0531 -13.0264 -12.9900
   -12.9800 -12.9569 -12.9198 -12.8739 -12.8392 -12.7938 -12.7780 -12.7480
   -12.7123 -12.5923 -12.5386 -12.4864 -12.4030 -12.3107 -12.1316 -12.0940
   -11.8356 -11.8039 -11.7930 -11.7863 -11.7233 -11.6883 -11.6819 -11.6466
   -11.6392 -11.5460 -11.5056 -11.4882  -2.7035  -2.4949  -2.3772  -2.2817
    -2.1618  -2.0969  -1.8973  -1.7544  -1.7352  -1.7025  -1.6103  -1.5772
    -1.4835  -1.4549  -1.4053  -1.2746  -1.2259  -1.1523  -1.1086  -1.0627
    -1.0403  -1.0162  -0.9740  -0.9584  -0.8679  -0.8182  -0.7498  -0.7025
    -0.6740  -0.6240  -0.6115  -0.5469  -0.4960  -0.4331  -0.4040  -0.3142
    -0.2669  -0.2359  -0.1993  -0.1442  -0.0710  -0.0331  -0.0066   0.0631
     0.1002   0.3729   0.5236   0.5563   0.6145   0.6539   0.7090   0.7583
     0.8269   0.8659   1.1387   1.2044   1.2785   1.3025   1.3540   1.3822
     1.4193   1.4564   1.4730   1.5010   1.5455   1.5541   1.5699   1.6153
     1.6510   1.6918   1.7479   1.7805   1.7988   1.8219   1.8636   1.9153
     1.9393   2.0659   2.1386   2.1751   2.1990   2.2621   2.3272   2.3583
     2.3954   2.4209   2.4303   2.5432   2.5840   2.6748   2.7736   2.8425
     2.8584   2.8641   2.8842   2.8981   2.9095   2.9204   2.9273   2.9387
     2.9524   2.9671   2.9829   2.9895   3.0002   3.0234   3.0340   3.0439
     3.0744   3.3755   3.4672   3.5194   3.5774   3.5977   3.8321   3.9183
     4.2652   4.4735   4.6875   4.9418   5.1564   5.6136   5.6727   5.7473
     5.8033   5.8637   6.0531   6.1365   6.2027   6.7367   6.8811   7.0798
     7.2647   7.5283   7.5779   7.6846   7.7304   7.8435   7.9643   8.0998
     8.1271   8.1946   8.2827   8.3092   8.4171   8.4733   8.6878   8.8381

     occupation numbers 
     1.0000   1.0000   1.0000   1.0000   1.0000   1.0000   1.0000   1.0000
     1.0000   1.0000   1.0000   1.0000   1.0000   1.0000   1.0000   1.0000
     1.0000   1.0000   1.0000   1.0000   1.0000   1.0000   1.0000   1.0000
     1.0000   1.0000   1.0000   1.0000   1.0000   1.0000   1.0000   1.0000
     1.0000   1.0000   1.0000   1.0000   1.0000   1.0000   1.0000   1.0000
     1.0000   1.0000   1.0000   1.0000   1.0000   1.0000   1.0000   1.0000
     1.0000   1.0000   1.0000   1.0000   1.0000   1.0000   1.0000   1.0000
     1.0000   1.0000   1.0000   1.0000   1.0000   1.0000   1.0000   1.0000
     1.0000   1.0000   1.0000   1.0000   1.0000   1.0000   1.0000   1.0000
     1.0000   1.0000   1.0000   1.0000   1.0000   1.0000   1.0000   1.0000
     1.0000   1.0000   1.0000   1.0000   1.0000   1.0000   1.0000   1.0000
     1.0000   1.0000   1.0000   1.0000   1.0000   1.0000   1.0000   1.0000
     1.0000   1.0000   1.0000   1.0000   1.0000   1.0000   1.0000   1.0000
     1.0000   1.0000   1.0000   1.0000   1.0000   1.0000   1.0000   1.0000
     1.0000   1.0000   1.0000   1.0000   1.0000   1.0000   1.0000   1.0000
     1.0000   1.0000   1.0000   1.0000   1.0000   1.0000   1.0000   1.0000
     1.0000   1.0000   1.0000   1.0000   1.0000   1.0000   1.0000   1.0000
     1.0000   1.0000   1.0000   1.0000   1.0000   1.0000   1.0000   1.0000
     1.0000   1.0000   1.0000   1.0000   1.0000   1.0000   1.0000   1.0000
     1.0000   1.0000   1.0000   1.0000   1.0000   1.0000   0.9999   0.9999
     0.9999   0.9998   0.9993   0.9990   0.9986   0.9984   0.9980   0.9977
     0.9973   0.9968   0.9965   0.9961   0.9952   0.9951   0.9947   0.9936
     0.9926   0.9912   0.9890   0.9876   0.9867   0.9854   0.9830   0.9795
     0.9776   0.9656   0.9565   0.9513   0.9476   0.9368   0.9239   0.9170
     0.9083   0.9019   0.8994   0.8667   0.8532   0.8200   0.7789   0.7474
     0.7398   0.7370   0.7272   0.7203   0.7146   0.7090   0.7055   0.6996
     0.6925   0.6848   0.6764   0.6729   0.6672   0.6545   0.6487   0.6433
     0.6262   0.4502   0.3969   0.3674   0.3354   0.3245   0.2109   0.1759
     0.0740   0.0396   0.0191   0.0071   0.0028   0.0003   0.0002   0.0001
     0.0001   0.0001   0.0000   0.0000   0.0000   0.0000   0.0000   0.0000
     0.0000   0.0000   0.0000   0.0000   0.0000   0.0000   0.0000   0.0000
     0.0000   0.0000   0.0000   0.0000   0.0000   0.0000   0.0000   0.0000

          k = 0.2500-0.5000 0.0000 ( 65138 PWs)   bands (ev):

   -92.7363 -92.6831 -92.5912 -92.5422 -92.4855 -92.4431 -92.4255 -92.3036
   -56.0897 -56.0682 -55.9481 -55.9371 -55.9301 -55.9239 -55.8873 -55.8601
   -55.8440 -55.8426 -55.8349 -55.7928 -55.7732 -55.7366 -55.7179 -55.6854
   -55.6776 -55.6312 -55.6310 -55.6282 -55.6198 -55.5783 -55.5558 -55.4690
   -31.3101 -31.2937 -31.1764 -31.1508 -31.0640 -31.0597 -30.9034 -30.6473
   -29.8828 -29.8411 -29.8162 -29.7075 -15.0132 -14.9693 -14.8981 -14.7872
   -14.7534 -14.6356 -14.5426 -14.4176 -14.1091 -14.0576 -14.0301 -14.0068
   -13.9925 -13.9781 -13.9423 -13.9202 -13.8945 -13.8547 -13.8331 -13.7934
   -13.7008 -13.6528 -13.5892 -13.5730 -13.5069 -13.4965 -13.4152 -13.3771
   -13.2411 -13.1764 -13.1603 -13.0947 -13.0620 -13.0350 -13.0186 -12.9955
   -12.9760 -12.9457 -12.9035 -12.8754 -12.8359 -12.7826 -12.7626 -12.6904
   -12.6593 -12.5953 -12.5554 -12.4167 -12.3541 -12.3058 -12.1923 -12.1588
   -11.8113 -11.7991 -11.7883 -11.7612 -11.7298 -11.7011 -11.6603 -11.6320
   -11.6104 -11.5642 -11.5390 -11.5279  -2.4841  -2.4207  -2.2910  -2.2143
    -2.0823  -2.0005  -1.8764  -1.7269  -1.6698  -1.6495  -1.5885  -1.5755
    -1.4773  -1.4115  -1.3263  -1.2753  -1.2662  -1.2037  -1.1595  -1.1271
    -1.0791  -1.0419  -1.0073  -0.9677  -0.9551  -0.9112  -0.8820  -0.8386
    -0.8088  -0.7410  -0.6371  -0.6021  -0.5205  -0.4551  -0.4016  -0.3629
    -0.3456  -0.2853  -0.1311  -0.1226  -0.0061   0.0163   0.0248   0.0704
     0.1056   0.1374   0.1718   0.2404   0.5177   0.6140   0.6654   0.7228
     1.0044   1.0176   1.1100   1.1369   1.3017   1.3389   1.3765   1.4000
     1.4146   1.4363   1.4997   1.5504   1.5828   1.6546   1.7544   1.7863
     1.8063   1.8169   1.8518   1.8691   1.8742   1.9172   1.9285   1.9484
     1.9813   1.9962   2.0234   2.0551   2.1135   2.1576   2.2325   2.3690
     2.5190   2.5349   2.5531   2.5818   2.6023   2.6344   2.6561   2.6675
     2.6912   2.7790   2.7945   2.8458   2.8614   2.8713   2.8772   2.8980
     2.9116   2.9321   2.9405   2.9771   2.9841   2.9976   3.0044   3.0145
     3.0240   3.5362   3.5719   3.7071   3.7604   4.0867   4.1477   4.1541
     4.2889   4.7173   4.8928   5.0306   5.1126   5.2702   5.4088   5.5796
     5.6435   5.7355   5.7581   6.2012   6.3771   6.4687   6.5398   7.1058
     7.4620   7.5401   7.6771   7.7652   7.8011   7.8519   8.0127   8.1882
     8.3279   8.3735   8.4317   8.5090   8.5281   8.6302   8.6834   8.7411

     occupation numbers 
     1.0000   1.0000   1.0000   1.0000   1.0000   1.0000   1.0000   1.0000
     1.0000   1.0000   1.0000   1.0000   1.0000   1.0000   1.0000   1.0000
     1.0000   1.0000   1.0000   1.0000   1.0000   1.0000   1.0000   1.0000
     1.0000   1.0000   1.0000   1.0000   1.0000   1.0000   1.0000   1.0000
     1.0000   1.0000   1.0000   1.0000   1.0000   1.0000   1.0000   1.0000
     1.0000   1.0000   1.0000   1.0000   1.0000   1.0000   1.0000   1.0000
     1.0000   1.0000   1.0000   1.0000   1.0000   1.0000   1.0000   1.0000
     1.0000   1.0000   1.0000   1.0000   1.0000   1.0000   1.0000   1.0000
     1.0000   1.0000   1.0000   1.0000   1.0000   1.0000   1.0000   1.0000
     1.0000   1.0000   1.0000   1.0000   1.0000   1.0000   1.0000   1.0000
     1.0000   1.0000   1.0000   1.0000   1.0000   1.0000   1.0000   1.0000
     1.0000   1.0000   1.0000   1.0000   1.0000   1.0000   1.0000   1.0000
     1.0000   1.0000   1.0000   1.0000   1.0000   1.0000   1.0000   1.0000
     1.0000   1.0000   1.0000   1.0000   1.0000   1.0000   1.0000   1.0000
     1.0000   1.0000   1.0000   1.0000   1.0000   1.0000   1.0000   1.0000
     1.0000   1.0000   1.0000   1.0000   1.0000   1.0000   1.0000   1.0000
     1.0000   1.0000   1.0000   1.0000   1.0000   1.0000   1.0000   1.0000
     1.0000   1.0000   1.0000   1.0000   1.0000   1.0000   1.0000   1.0000
     1.0000   1.0000   1.0000   1.0000   1.0000   1.0000   1.0000   1.0000
     1.0000   1.0000   1.0000   1.0000   1.0000   1.0000   1.0000   0.9999
     0.9997   0.9996   0.9994   0.9993   0.9984   0.9981   0.9978   0.9975
     0.9973   0.9971   0.9961   0.9951   0.9944   0.9925   0.9888   0.9873
     0.9863   0.9857   0.9837   0.9826   0.9823   0.9793   0.9785   0.9769
     0.9741   0.9728   0.9701   0.9668   0.9598   0.9538   0.9420   0.9146
     0.8742   0.8693   0.8635   0.8539   0.8468   0.8353   0.8272   0.8228
     0.8135   0.7766   0.7696   0.7458   0.7383   0.7335   0.7306   0.7203
     0.7135   0.7030   0.6988   0.6795   0.6758   0.6685   0.6649   0.6594
     0.6542   0.3580   0.3384   0.2684   0.2430   0.1188   0.1017   0.1000
     0.0692   0.0171   0.0087   0.0049   0.0034   0.0016   0.0008   0.0003
     0.0002   0.0001   0.0001   0.0000   0.0000   0.0000   0.0000   0.0000
     0.0000   0.0000   0.0000   0.0000   0.0000   0.0000   0.0000   0.0000
     0.0000   0.0000   0.0000   0.0000   0.0000   0.0000   0.0000   0.0000

          k =-0.5000-0.5000 0.0000 ( 65132 PWs)   bands (ev):

   -92.7363 -92.6831 -92.5912 -92.5422 -92.4855 -92.4431 -92.4255 -92.3036
   -56.0897 -56.0682 -55.9481 -55.9371 -55.9301 -55.9239 -55.8873 -55.8601
   -55.8440 -55.8426 -55.8349 -55.7928 -55.7732 -55.7366 -55.7179 -55.6854
   -55.6776 -55.6312 -55.6310 -55.6282 -55.6198 -55.5783 -55.5558 -55.4690
   -31.3080 -31.2958 -31.1763 -31.1505 -31.0643 -31.0596 -30.9035 -30.6474
   -29.8818 -29.8421 -29.8158 -29.7080 -14.9656 -14.9420 -14.8254 -14.8103
   -14.7180 -14.6815 -14.6503 -14.5164 -14.0201 -14.0087 -13.9734 -13.9568
   -13.9368 -13.9167 -13.8955 -13.8847 -13.8704 -13.8628 -13.8482 -13.7694
   -13.7616 -13.7366 -13.6984 -13.6726 -13.5917 -13.5671 -13.4581 -13.4235
   -13.1917 -13.1578 -13.0850 -13.0682 -13.0597 -13.0289 -13.0181 -13.0089
   -12.9922 -12.9799 -12.8844 -12.8549 -12.8359 -12.8219 -12.7886 -12.6417
   -12.6334 -12.5989 -12.5717 -12.3923 -12.3504 -12.2765 -12.1818 -12.1671
   -11.8074 -11.7957 -11.7779 -11.7608 -11.7263 -11.7079 -11.6735 -11.6118
   -11.5927 -11.5867 -11.5370 -11.5337  -2.2587  -2.1845  -2.1773  -2.1037
    -2.0646  -1.9865  -1.9184  -1.7924  -1.6768  -1.6474  -1.6040  -1.5506
    -1.4791  -1.4641  -1.3938  -1.3514  -1.2342  -1.2031  -1.1566  -1.1279
    -1.0635  -1.0165  -0.9990  -0.9864  -0.9312  -0.8882  -0.8714  -0.7600
    -0.7021  -0.6546  -0.6069  -0.5791  -0.5629  -0.5312  -0.4916  -0.4506
    -0.4448  -0.3579  -0.2912  -0.2460  -0.2196  -0.1467  -0.0870  -0.0821
    -0.0190   0.0116   0.0182   0.0317   0.4905   0.5354   0.6112   0.6307
     1.0291   1.0429   1.0782   1.1167   1.3883   1.4053   1.4132   1.4559
     1.5821   1.6764   1.7034   1.7399   1.7640   1.7795   1.7912   1.8224
     1.8332   1.8504   1.8568   1.9094   1.9146   1.9400   1.9527   1.9738
     1.9871   2.0275   2.0529   2.0674   2.0985   2.1277   2.1965   2.2633
     2.5311   2.5627   2.5763   2.6022   2.6053   2.6362   2.6454   2.6644
     2.6750   2.6933   2.7092   2.7267   2.7884   2.7914   2.8046   2.8160
     2.8305   2.8429   2.8640   2.8722   2.8934   2.9815   2.9887   3.0085
     3.0210   3.9640   4.0088   4.0208   4.0403   4.2831   4.3555   4.3832
     4.6231   4.7455   4.8284   4.9579   5.0487   5.0547   5.1732   5.2665
     5.4194   5.8371   5.8711   5.9326   6.0309   6.4149   6.5265   6.6371
     7.7264   7.8551   7.9087   7.9228   7.9484   7.9609   7.9926   8.0562
     8.2412   8.3330   8.5456   8.5535   8.5851   8.6091   8.6286   8.6728

     occupation numbers 
     1.0000   1.0000   1.0000   1.0000   1.0000   1.0000   1.0000   1.0000
     1.0000   1.0000   1.0000   1.0000   1.0000   1.0000   1.0000   1.0000
     1.0000   1.0000   1.0000   1.0000   1.0000   1.0000   1.0000   1.0000
     1.0000   1.0000   1.0000   1.0000   1.0000   1.0000   1.0000   1.0000
     1.0000   1.0000   1.0000   1.0000   1.0000   1.0000   1.0000   1.0000
     1.0000   1.0000   1.0000   1.0000   1.0000   1.0000   1.0000   1.0000
     1.0000   1.0000   1.0000   1.0000   1.0000   1.0000   1.0000   1.0000
     1.0000   1.0000   1.0000   1.0000   1.0000   1.0000   1.0000   1.0000
     1.0000   1.0000   1.0000   1.0000   1.0000   1.0000   1.0000   1.0000
     1.0000   1.0000   1.0000   1.0000   1.0000   1.0000   1.0000   1.0000
     1.0000   1.0000   1.0000   1.0000   1.0000   1.0000   1.0000   1.0000
     1.0000   1.0000   1.0000   1.0000   1.0000   1.0000   1.0000   1.0000
     1.0000   1.0000   1.0000   1.0000   1.0000   1.0000   1.0000   1.0000
     1.0000   1.0000   1.0000   1.0000   1.0000   1.0000   1.0000   1.0000
     1.0000   1.0000   1.0000   1.0000   1.0000   1.0000   1.0000   1.0000
     1.0000   1.0000   1.0000   1.0000   1.0000   1.0000   1.0000   1.0000
     1.0000   1.0000   1.0000   1.0000   1.0000   1.0000   1.0000   1.0000
     1.0000   1.0000   1.0000   1.0000   1.0000   1.0000   1.0000   1.0000
     1.0000   1.0000   1.0000   1.0000   1.0000   1.0000   1.0000   1.0000
     1.0000   1.0000   1.0000   1.0000   1.0000   1.0000   1.0000   1.0000
     0.9996   0.9996   0.9995   0.9994   0.9976   0.9974   0.9974   0.9968
     0.9944   0.9918   0.9908   0.9894   0.9883   0.9876   0.9870   0.9854
     0.9848   0.9838   0.9834   0.9799   0.9795   0.9776   0.9766   0.9748
     0.9736   0.9697   0.9670   0.9654   0.9617   0.9580   0.9480   0.9365
     0.8705   0.8603   0.8558   0.8468   0.8458   0.8346   0.8312   0.8240
     0.8199   0.8127   0.8063   0.7990   0.7724   0.7710   0.7650   0.7598
     0.7530   0.7472   0.7370   0.7331   0.7226   0.6772   0.6733   0.6627
     0.6559   0.1589   0.1433   0.1393   0.1330   0.0704   0.0570   0.0524
     0.0240   0.0154   0.0112   0.0067   0.0045   0.0044   0.0026   0.0017
     0.0008   0.0001   0.0001   0.0000   0.0000   0.0000   0.0000   0.0000
     0.0000   0.0000   0.0000   0.0000   0.0000   0.0000   0.0000   0.0000
     0.0000   0.0000   0.0000   0.0000   0.0000   0.0000   0.0000   0.0000

          k = 0.2500 0.0000 0.0000 ( 65257 PWs)   bands (ev):

   -92.7363 -92.6831 -92.5912 -92.5422 -92.4855 -92.4431 -92.4255 -92.3036
   -56.0897 -56.0682 -55.9481 -55.9371 -55.9301 -55.9239 -55.8873 -55.8601
   -55.8440 -55.8426 -55.8349 -55.7928 -55.7732 -55.7366 -55.7179 -55.6854
   -55.6776 -55.6312 -55.6310 -55.6282 -55.6198 -55.5783 -55.5558 -55.4690
   -31.3105 -31.2940 -31.1769 -31.1504 -31.0637 -31.0592 -30.9037 -30.6470
   -29.8840 -29.8417 -29.8150 -29.7069 -15.0838 -15.0405 -14.9732 -14.8258
   -14.7195 -14.5237 -14.3926 -14.2134 -14.1951 -14.1659 -14.1326 -14.1094
   -14.0751 -14.0590 -14.0402 -14.0026 -13.8774 -13.8463 -13.6946 -13.6316
   -13.6124 -13.5471 -13.5275 -13.5149 -13.4618 -13.3812 -13.3467 -13.2781
   -13.2118 -13.1934 -13.1584 -13.0949 -13.0793 -13.0626 -13.0472 -13.0165
   -12.9940 -12.9714 -12.9598 -12.9325 -12.8540 -12.8283 -12.8047 -12.7178
   -12.6837 -12.6040 -12.5845 -12.5463 -12.4401 -12.2826 -12.1042 -12.0421
[...]
     0.7438   0.7306   0.7165   0.7149   0.7032   0.6989   0.6912   0.6795
     0.6759   0.6630   0.6571   0.6539   0.6466   0.6359   0.6215   0.6193
     0.6150   0.6108   0.6053   0.5996   0.5275   0.3574   0.3191   0.2032
     0.0794   0.0464   0.0218   0.0056   0.0047   0.0003   0.0001   0.0000
     0.0000   0.0000   0.0000   0.0000   0.0000   0.0000   0.0000   0.0000
     0.0000   0.0000   0.0000   0.0000   0.0000   0.0000   0.0000   0.0000
     0.0000   0.0000   0.0000   0.0000   0.0000   0.0000   0.0000   0.0000

          k =-0.5000 0.0000 0.0000 ( 65180 PWs)   bands (ev):

   -92.7363 -92.6831 -92.5912 -92.5422 -92.4855 -92.4431 -92.4255 -92.3036
   -56.0897 -56.0682 -55.9481 -55.9371 -55.9301 -55.9239 -55.8873 -55.8601
   -55.8440 -55.8426 -55.8349 -55.7928 -55.7732 -55.7366 -55.7179 -55.6854
   -55.6776 -55.6312 -55.6310 -55.6282 -55.6198 -55.5783 -55.5558 -55.4690
   -31.3084 -31.2961 -31.1768 -31.1501 -31.0641 -31.0591 -30.9038 -30.6471
   -29.8830 -29.8428 -29.8146 -29.7073 -15.0501 -14.9961 -14.9358 -14.8297
   -14.7236 -14.5805 -14.4319 -14.2965 -14.1677 -14.1586 -14.1435 -14.0848
   -14.0270 -13.9939 -13.9450 -13.9381 -13.9222 -13.8732 -13.8625 -13.7566
   -13.5902 -13.5514 -13.5287 -13.5221 -13.4654 -13.3989 -13.3559 -13.3021
   -13.2792 -13.2780 -13.1506 -13.0887 -13.0770 -13.0554 -13.0444 -13.0320
   -12.9806 -12.9648 -12.9588 -12.9369 -12.8218 -12.6779 -12.6747 -12.6658
   -12.6564 -12.5947 -12.5749 -12.4970 -12.3869 -12.3604 -12.1850 -12.1398
   -11.8151 -11.7932 -11.7868 -11.7713 -11.7533 -11.7123 -11.6495 -11.6322
   -11.6001 -11.5533 -11.5445 -11.5290  -2.6170  -2.5787  -2.4148  -2.3762
    -2.0616  -1.9848  -1.8387  -1.7217  -1.6813  -1.6349  -1.5879  -1.5640
    -1.4409  -1.3967  -1.3803  -1.2981  -1.2641  -1.2465  -1.2164  -1.1581
    -1.0895  -1.0611  -1.0304  -0.9385  -0.8900  -0.8400  -0.8081  -0.7874
    -0.7552  -0.7085  -0.6846  -0.6453  -0.5410  -0.4785  -0.4015  -0.3429
    -0.1878  -0.1474  -0.0925  -0.0484   0.0037   0.0207   0.1554   0.1887
     0.2302   0.4045   0.5038   0.5503   0.6338   0.6960   0.8223   0.8331
     0.9676   0.9953   1.0497   1.0816   1.1135   1.1267   1.1717   1.1967
     1.2653   1.3108   1.3581   1.3688   1.6635   1.6712   1.6918   1.7147
     1.8209   1.8360   1.8423   1.8509   1.8855   1.8964   1.9314   1.9590
     1.9780   2.0419   2.0531   2.1076   2.1251   2.1863   2.2901   2.3895
     2.4656   2.4806   2.5624   2.5909   2.6090   2.6789   2.6958   2.7044
     2.7335   2.7783   2.8074   2.8569   2.9040   2.9203   2.9662   2.9696
     2.9729   2.9812   2.9975   3.0083   3.0222   3.0309   3.0468   3.0528
     3.0732   3.0936   3.0985   3.2260   3.2355   4.0257   4.1072   4.1535
     4.2735   4.7585   4.8313   5.0154   5.0271   5.4667   5.4833   5.5874
     5.6134   5.9983   6.0038   6.0453   6.7781   6.8133   6.9885   7.2575
     7.2923   7.3766   7.4003   7.5334   7.6833   7.7435   7.7622   7.8590
     8.1057   8.2880   8.4389   8.4829   8.6057   8.7113   8.7336   8.8330

     occupation numbers 
     1.0000   1.0000   1.0000   1.0000   1.0000   1.0000   1.0000   1.0000
     1.0000   1.0000   1.0000   1.0000   1.0000   1.0000   1.0000   1.0000
     1.0000   1.0000   1.0000   1.0000   1.0000   1.0000   1.0000   1.0000
     1.0000   1.0000   1.0000   1.0000   1.0000   1.0000   1.0000   1.0000
     1.0000   1.0000   1.0000   1.0000   1.0000   1.0000   1.0000   1.0000
     1.0000   1.0000   1.0000   1.0000   1.0000   1.0000   1.0000   1.0000
     1.0000   1.0000   1.0000   1.0000   1.0000   1.0000   1.0000   1.0000
     1.0000   1.0000   1.0000   1.0000   1.0000   1.0000   1.0000   1.0000
     1.0000   1.0000   1.0000   1.0000   1.0000   1.0000   1.0000   1.0000
     1.0000   1.0000   1.0000   1.0000   1.0000   1.0000   1.0000   1.0000
     1.0000   1.0000   1.0000   1.0000   1.0000   1.0000   1.0000   1.0000
     1.0000   1.0000   1.0000   1.0000   1.0000   1.0000   1.0000   1.0000
     1.0000   1.0000   1.0000   1.0000   1.0000   1.0000   1.0000   1.0000
     1.0000   1.0000   1.0000   1.0000   1.0000   1.0000   1.0000   1.0000
     1.0000   1.0000   1.0000   1.0000   1.0000   1.0000   1.0000   1.0000
     1.0000   1.0000   1.0000   1.0000   1.0000   1.0000   1.0000   1.0000
     1.0000   1.0000   1.0000   1.0000   1.0000   1.0000   1.0000   1.0000
     1.0000   1.0000   1.0000   1.0000   1.0000   1.0000   1.0000   1.0000
     1.0000   1.0000   1.0000   1.0000   1.0000   1.0000   1.0000   1.0000
     1.0000   1.0000   1.0000   1.0000   1.0000   0.9999   0.9999   0.9999
     0.9997   0.9997   0.9996   0.9995   0.9994   0.9993   0.9992   0.9991
     0.9987   0.9984   0.9980   0.9978   0.9922   0.9919   0.9912   0.9904
     0.9855   0.9846   0.9843   0.9838   0.9816   0.9808   0.9783   0.9760
     0.9744   0.9682   0.9670   0.9606   0.9583   0.9496   0.9314   0.9097
     0.8899   0.8856   0.8604   0.8508   0.8445   0.8184   0.8117   0.8082
     0.7962   0.7768   0.7637   0.7405   0.7174   0.7091   0.6853   0.6835
     0.6818   0.6774   0.6686   0.6628   0.6552   0.6504   0.6417   0.6383
     0.6269   0.6154   0.6126   0.5385   0.5329   0.1377   0.1128   0.1002
     0.0723   0.0147   0.0111   0.0052   0.0050   0.0006   0.0006   0.0003
     0.0003   0.0000   0.0000   0.0000   0.0000   0.0000   0.0000   0.0000
     0.0000   0.0000   0.0000   0.0000   0.0000   0.0000   0.0000   0.0000
     0.0000   0.0000   0.0000   0.0000   0.0000   0.0000   0.0000   0.0000

          k =-0.2500 0.2500 0.0000 ( 65198 PWs)   bands (ev):

   -92.7363 -92.6831 -92.5912 -92.5422 -92.4855 -92.4431 -92.4255 -92.3036
   -56.0897 -56.0682 -55.9481 -55.9371 -55.9301 -55.9239 -55.8873 -55.8601
   -55.8440 -55.8426 -55.8349 -55.7928 -55.7732 -55.7366 -55.7179 -55.6854
   -55.6776 -55.6312 -55.6310 -55.6282 -55.6198 -55.5783 -55.5558 -55.4690
   -31.3103 -31.2938 -31.1767 -31.1506 -31.0638 -31.0594 -30.9035 -30.6472
   -29.8834 -29.8414 -29.8156 -29.7072 -15.0526 -15.0087 -14.9383 -14.8209
   -14.7086 -14.5832 -14.4982 -14.2917 -14.1514 -14.1218 -14.1088 -14.0615
   -14.0371 -14.0162 -13.9971 -13.9647 -13.8730 -13.8612 -13.7073 -13.6822
   -13.6516 -13.6314 -13.5746 -13.5323 -13.4772 -13.4695 -13.3650 -13.3224
   -13.2579 -13.1815 -13.1416 -13.1059 -13.0739 -13.0453 -13.0250 -12.9948
   -12.9707 -12.9606 -12.9458 -12.8898 -12.8415 -12.8050 -12.7947 -12.7265
   -12.6853 -12.5948 -12.4947 -12.4762 -12.4508 -12.3164 -12.1445 -12.0784
   -11.8348 -11.8135 -11.7860 -11.7740 -11.7330 -11.6980 -11.6751 -11.6539
   -11.6314 -11.5458 -11.5009 -11.4915  -2.7018  -2.4938  -2.3731  -2.2832
    -2.1661  -2.0996  -1.8948  -1.7513  -1.7328  -1.7005  -1.6109  -1.5761
    -1.4831  -1.4488  -1.4223  -1.2803  -1.2248  -1.1549  -1.1268  -1.0661
    -1.0468  -1.0062  -0.9775  -0.9371  -0.8744  -0.8269  -0.7608  -0.6947
    -0.6704  -0.6183  -0.5906  -0.5448  -0.4855  -0.4358  -0.3999  -0.2956
    -0.2678  -0.2535  -0.2102  -0.1472  -0.0739  -0.0336   0.0023   0.0671
     0.0976   0.3541   0.5258   0.5644   0.6038   0.6616   0.7082   0.7616
     0.8334   0.8635   1.1463   1.2551   1.2943   1.3295   1.3349   1.3766
     1.3922   1.4378   1.4690   1.4826   1.5088   1.5550   1.5701   1.6098
     1.6318   1.6747   1.7592   1.7747   1.7974   1.8257   1.8602   1.8989
     1.9440   2.0569   2.1674   2.1960   2.2441   2.2625   2.3262   2.3699
     2.3976   2.4210   2.4417   2.5443   2.5822   2.6747   2.7735   2.8505
     2.8561   2.8699   2.8800   2.8905   2.9092   2.9113   2.9294   2.9401
     2.9525   2.9629   2.9747   2.9844   2.9917   3.0246   3.0346   3.0428
     3.0764   3.3688   3.4497   3.5188   3.5847   3.6070   3.8156   3.9267
     4.2650   4.4699   4.6902   4.9512   5.1565   5.6157   5.6692   5.7466
     5.7996   5.8639   6.0550   6.1494   6.1894   6.7718   6.8801   7.0708
     7.2176   7.5413   7.5860   7.6463   7.7624   7.8580   7.9199   8.1173
     8.1614   8.2147   8.2919   8.3429   8.4179   8.4370   8.6283   8.8301

     occupation numbers 
     1.0000   1.0000   1.0000   1.0000   1.0000   1.0000   1.0000   1.0000
     1.0000   1.0000   1.0000   1.0000   1.0000   1.0000   1.0000   1.0000
     1.0000   1.0000   1.0000   1.0000   1.0000   1.0000   1.0000   1.0000
     1.0000   1.0000   1.0000   1.0000   1.0000   1.0000   1.0000   1.0000
     1.0000   1.0000   1.0000   1.0000   1.0000   1.0000   1.0000   1.0000
     1.0000   1.0000   1.0000   1.0000   1.0000   1.0000   1.0000   1.0000
     1.0000   1.0000   1.0000   1.0000   1.0000   1.0000   1.0000   1.0000
     1.0000   1.0000   1.0000   1.0000   1.0000   1.0000   1.0000   1.0000
     1.0000   1.0000   1.0000   1.0000   1.0000   1.0000   1.0000   1.0000
     1.0000   1.0000   1.0000   1.0000   1.0000   1.0000   1.0000   1.0000
     1.0000   1.0000   1.0000   1.0000   1.0000   1.0000   1.0000   1.0000
     1.0000   1.0000   1.0000   1.0000   1.0000   1.0000   1.0000   1.0000
     1.0000   1.0000   1.0000   1.0000   1.0000   1.0000   1.0000   1.0000
     1.0000   1.0000   1.0000   1.0000   1.0000   1.0000   1.0000   1.0000
     1.0000   1.0000   1.0000   1.0000   1.0000   1.0000   1.0000   1.0000
     1.0000   1.0000   1.0000   1.0000   1.0000   1.0000   1.0000   1.0000
     1.0000   1.0000   1.0000   1.0000   1.0000   1.0000   1.0000   1.0000
     1.0000   1.0000   1.0000   1.0000   1.0000   1.0000   1.0000   1.0000
     1.0000   1.0000   1.0000   1.0000   1.0000   1.0000   1.0000   1.0000
     1.0000   1.0000   1.0000   1.0000   1.0000   1.0000   0.9999   0.9999
     0.9999   0.9998   0.9993   0.9987   0.9985   0.9982   0.9982   0.9978
     0.9976   0.9970   0.9966   0.9964   0.9959   0.9950   0.9947   0.9937
     0.9931   0.9918   0.9885   0.9878   0.9867   0.9852   0.9832   0.9807
     0.9773   0.9666   0.9524   0.9480   0.9400   0.9367   0.9241   0.9143
     0.9077   0.9018   0.8964   0.8663   0.8538   0.8200   0.7790   0.7436
     0.7409   0.7342   0.7293   0.7241   0.7147   0.7137   0.7045   0.6989
     0.6925   0.6870   0.6808   0.6756   0.6717   0.6539   0.6484   0.6439
     0.6251   0.4541   0.4070   0.3677   0.3315   0.3196   0.2181   0.1727
     0.0741   0.0400   0.0189   0.0069   0.0028   0.0003   0.0002   0.0001
     0.0001   0.0001   0.0000   0.0000   0.0000   0.0000   0.0000   0.0000
     0.0000   0.0000   0.0000   0.0000   0.0000   0.0000   0.0000   0.0000
     0.0000   0.0000   0.0000   0.0000   0.0000   0.0000   0.0000   0.0000

          k =-0.5000 0.2500 0.0000 ( 65138 PWs)   bands (ev):

   -92.7363 -92.6831 -92.5912 -92.5422 -92.4855 -92.4431 -92.4255 -92.3036
   -56.0897 -56.0682 -55.9481 -55.9371 -55.9301 -55.9239 -55.8873 -55.8601
   -55.8440 -55.8426 -55.8349 -55.7928 -55.7732 -55.7366 -55.7179 -55.6854
   -55.6776 -55.6312 -55.6310 -55.6282 -55.6198 -55.5783 -55.5558 -55.4690
   -31.3082 -31.2959 -31.1766 -31.1503 -31.0642 -31.0594 -30.9036 -30.6472
   -29.8824 -29.8424 -29.8152 -29.7076 -15.0169 -14.9700 -14.8926 -14.7956
   -14.7530 -14.6274 -14.5376 -14.4120 -14.1018 -14.0715 -14.0596 -14.0129
   -13.9931 -13.9670 -13.9311 -13.9241 -13.9005 -13.8647 -13.8539 -13.7485
   -13.6726 -13.6234 -13.6170 -13.5977 -13.5174 -13.5026 -13.4038 -13.3599
   -13.2342 -13.1998 -13.1137 -13.0948 -13.0603 -13.0499 -13.0267 -12.9986
   -12.9788 -12.9703 -12.9529 -12.8975 -12.8303 -12.7422 -12.7244 -12.6572
   -12.6499 -12.5941 -12.5730 -12.4379 -12.3558 -12.3291 -12.1827 -12.1511
   -11.8077 -11.7947 -11.7807 -11.7690 -11.7471 -11.7171 -11.6368 -11.6276
   -11.6052 -11.5679 -11.5404 -11.5316  -2.4744  -2.4328  -2.2844  -2.2428
    -2.0813  -2.0036  -1.8629  -1.7279  -1.6690  -1.6429  -1.6040  -1.5666
    -1.4857  -1.3706  -1.3133  -1.2907  -1.2642  -1.1861  -1.1598  -1.1206
    -1.1037  -1.0427  -1.0122  -0.9748  -0.9398  -0.9109  -0.8525  -0.8262
    -0.7851  -0.7488  -0.6439  -0.6188  -0.5233  -0.4712  -0.4340  -0.3734
    -0.2964  -0.2640  -0.1607  -0.1248  -0.0643  -0.0172   0.0204   0.0838
     0.1092   0.1414   0.1963   0.2343   0.5519   0.6102   0.6621   0.6806
     0.9783   1.0402   1.1119   1.1414   1.3155   1.3508   1.3881   1.4000
     1.4178   1.4353   1.5062   1.5504   1.5908   1.6231   1.7357   1.7798
     1.8079   1.8169   1.8489   1.8824   1.8964   1.9059   1.9267   1.9516
     1.9918   2.0154   2.0478   2.0723   2.1032   2.1623   2.2818   2.3819
     2.4119   2.4785   2.5175   2.5784   2.6089   2.6217   2.6629   2.6875
     2.7170   2.7792   2.8056   2.8476   2.8611   2.8723   2.8844   2.9067
     2.9179   2.9362   2.9460   2.9698   2.9813   2.9908   2.9988   3.0076
     3.0198   3.5522   3.5878   3.7402   3.7588   4.0327   4.1154   4.1667
     4.3625   4.7527   4.8480   5.0156   5.0447   5.3797   5.3988   5.5638
     5.6220   5.7149   5.7675   6.1433   6.3730   6.4837   6.6951   7.0283
     7.4805   7.5185   7.6896   7.7640   7.7764   7.8628   7.9968   8.1201
     8.3119   8.3993   8.4648   8.4927   8.5486   8.6389   8.6562   8.7228

     occupation numbers 
     1.0000   1.0000   1.0000   1.0000   1.0000   1.0000   1.0000   1.0000
     1.0000   1.0000   1.0000   1.0000   1.0000   1.0000   1.0000   1.0000
     1.0000   1.0000   1.0000   1.0000   1.0000   1.0000   1.0000   1.0000
     1.0000   1.0000   1.0000   1.0000   1.0000   1.0000   1.0000   1.0000
     1.0000   1.0000   1.0000   1.0000   1.0000   1.0000   1.0000   1.0000
     1.0000   1.0000   1.0000   1.0000   1.0000   1.0000   1.0000   1.0000
     1.0000   1.0000   1.0000   1.0000   1.0000   1.0000   1.0000   1.0000
     1.0000   1.0000   1.0000   1.0000   1.0000   1.0000   1.0000   1.0000
     1.0000   1.0000   1.0000   1.0000   1.0000   1.0000   1.0000   1.0000
     1.0000   1.0000   1.0000   1.0000   1.0000   1.0000   1.0000   1.0000
     1.0000   1.0000   1.0000   1.0000   1.0000   1.0000   1.0000   1.0000
     1.0000   1.0000   1.0000   1.0000   1.0000   1.0000   1.0000   1.0000
     1.0000   1.0000   1.0000   1.0000   1.0000   1.0000   1.0000   1.0000
     1.0000   1.0000   1.0000   1.0000   1.0000   1.0000   1.0000   1.0000
     1.0000   1.0000   1.0000   1.0000   1.0000   1.0000   1.0000   1.0000
     1.0000   1.0000   1.0000   1.0000   1.0000   1.0000   1.0000   1.0000
     1.0000   1.0000   1.0000   1.0000   1.0000   1.0000   1.0000   1.0000
     1.0000   1.0000   1.0000   1.0000   1.0000   1.0000   1.0000   1.0000
     1.0000   1.0000   1.0000   1.0000   1.0000   1.0000   1.0000   1.0000
     1.0000   1.0000   1.0000   1.0000   1.0000   1.0000   1.0000   0.9999
     0.9997   0.9996   0.9994   0.9993   0.9983   0.9980   0.9976   0.9975
     0.9973   0.9971   0.9960   0.9951   0.9942   0.9934   0.9895   0.9876
     0.9862   0.9857   0.9839   0.9818   0.9808   0.9802   0.9786   0.9767
     0.9732   0.9709   0.9676   0.9648   0.9611   0.9532   0.9330   0.9115
     0.9042   0.8862   0.8747   0.8551   0.8445   0.8399   0.8246   0.8150
     0.8031   0.7764   0.7646   0.7449   0.7385   0.7330   0.7271   0.7160
     0.7103   0.7010   0.6959   0.6834   0.6773   0.6722   0.6679   0.6632
     0.6565   0.3492   0.3298   0.2524   0.2437   0.1354   0.1105   0.0968
     0.0558   0.0150   0.0104   0.0052   0.0046   0.0010   0.0009   0.0004
     0.0003   0.0002   0.0001   0.0000   0.0000   0.0000   0.0000   0.0000
     0.0000   0.0000   0.0000   0.0000   0.0000   0.0000   0.0000   0.0000
     0.0000   0.0000   0.0000   0.0000   0.0000   0.0000   0.0000   0.0000

     the Fermi energy is     3.2912 ev

!    total energy              =   -4399.91925129 Ry
     estimated scf accuracy    <          7.5E-09 Ry
     smearing contrib. (-TS)   =      -1.14704370 Ry
     internal energy E=F+TS    =   -4398.77220759 Ry

     The total energy is F=E-TS. E is the sum of the following terms:
     one-electron contribution =  -21252.29423915 Ry
     hartree contribution      =   10753.74463658 Ry
     xc contribution           =    -686.72674891 Ry
     ewald contribution        =    7053.14935523 Ry
     one-center paw contrib.   =    -266.64521136 Ry
      -> PAW hartree energy AE =      25.15338271 Ry
      -> PAW hartree energy PS =     -25.03739586 Ry
      -> PAW xc energy AE      =     -16.51611217 Ry
      -> PAW xc energy PS      =       6.87551843 Ry
      -> total E_H with PAW    =   10753.86062343 Ry
      -> total E_XC with PAW   =    -696.36734265 Ry

     convergence has been achieved in  48 iterations

     Writing all to output data dir /bsuhome/zayahcortright/scratch/pwscf.save/
 
     init_run     :      7.85s CPU      8.21s WALL (       1 calls)
     electrons    :    680.38s CPU    692.15s WALL (       1 calls)

     Called by init_run:
     wfcinit      :      6.16s CPU      6.28s WALL (       1 calls)
     wfcinit:atom :      0.06s CPU      0.07s WALL (       5 calls)
     wfcinit:wfcr :      5.81s CPU      5.89s WALL (       5 calls)
     potinit      :      0.17s CPU      0.20s WALL (       1 calls)
     hinit0       :      0.64s CPU      0.78s WALL (       1 calls)

     Called by electrons:
     c_bands      :    539.06s CPU    543.61s WALL (      48 calls)
     sum_band     :    105.64s CPU    109.87s WALL (      48 calls)
     v_of_rho     :      5.28s CPU      5.54s WALL (      49 calls)
     v_h          :      0.47s CPU      0.48s WALL (      49 calls)
     v_xc         :      4.81s CPU      5.06s WALL (      49 calls)
     newd         :     16.51s CPU     18.87s WALL (      49 calls)
     PAW_pot      :      1.55s CPU      1.57s WALL (      49 calls)
     mix_rho      :     12.02s CPU     12.28s WALL (      48 calls)

     Called by c_bands:
     init_us_2    :      6.71s CPU      6.77s WALL (     485 calls)
     init_us_2:cp :      6.71s CPU      6.77s WALL (     485 calls)
     cegterg      :    510.44s CPU    514.82s WALL (     240 calls)

     Called by sum_band:
     sum_band:wei :      0.33s CPU      0.33s WALL (      48 calls)
     sum_band:loo :     86.49s CPU     87.11s WALL (      48 calls)
     sum_band:buf :      1.52s CPU      1.54s WALL (     240 calls)
     sum_band:ini :      3.22s CPU      3.23s WALL (     240 calls)
     sum_band:cal :     18.13s CPU     18.18s WALL (     240 calls)
     sum_band:bec :      0.55s CPU      0.56s WALL (     240 calls)
     addusdens    :     17.90s CPU     21.47s WALL (      48 calls)
                                        0.00s GPU  (      48 calls)
     addusd:skk   :      0.34s CPU      0.66s WALL (     192 calls)
                                        0.00s GPU  (     192 calls)

     Called by *egterg:
     cdiaghg      :     55.93s CPU     56.15s WALL (    1361 calls)
     cegterg:over :     37.25s CPU     37.39s WALL (    1121 calls)
     cegterg:upda :     27.40s CPU     27.71s WALL (    1121 calls)
     cegterg:last :     55.92s CPU     56.08s WALL (     437 calls)
     cdiaghg:chol :      3.15s CPU      3.17s WALL (    1361 calls)
     cdiaghg:inve :      3.32s CPU      3.33s WALL (    1361 calls)
     cdiaghg:para :      7.08s CPU      7.11s WALL (    2722 calls)
     h_psi        :    281.26s CPU    283.76s WALL (    1366 calls)
     s_psi        :     38.46s CPU     38.57s WALL (    1366 calls)
     g_psi        :      1.09s CPU      1.10s WALL (    1121 calls)

     Called by h_psi:
     h_psi:calbec :     41.85s CPU     41.98s WALL (    1366 calls)
     vloc_psi     :    198.02s CPU    199.89s WALL (    1366 calls)
     add_vuspsi   :     38.18s CPU     38.30s WALL (    1366 calls)

     General routines
     calbec       :     59.96s CPU     60.15s WALL (    1606 calls)
     fft          :      3.46s CPU      3.52s WALL (     635 calls)
     ffts         :      4.47s CPU      4.51s WALL (    5096 calls)
     fftw         :    170.26s CPU    171.63s WALL (  321772 calls)
     interpolate  :      0.40s CPU      0.40s WALL (      49 calls)
 
     Parallel routines

     PAW routines
     PAW_pot      :      1.55s CPU      1.57s WALL (      49 calls)
 
     PWSCF        :  11m29.61s CPU  11m45.13s WALL

 
   This run was terminated on:  14:22:43  21Jun2024            

=------------------------------------------------------------------------------=
   JOB DONE.
=------------------------------------------------------------------------------=
