
     Program PWSCF v.7.2 starts on 18Jun2024 at 18:10:52 

     This program is part of the open-source Quantum ESPRESSO suite
     for quantum simulation of materials; please cite
         "P. Giannozzi et al., J. Phys.:Condens. Matter 21 395502 (2009);
         "P. Giannozzi et al., J. Phys.:Condens. Matter 29 465901 (2017);
         "P. Giannozzi et al., J. Chem. Phys. 152 154105 (2020);
          URL http://www.quantum-espresso.org", 
     in publications or presentations arising from this work. More details at
     http://www.quantum-espresso.org/quote

     Parallel version (MPI & OpenMP), running on      48 processor cores
     Number of MPI processes:                48
     Threads/MPI process:                     1

     MPI processes distributed on     1 nodes
     15740 MiB available memory on the printing compute node when the environment starts
 
     Reading input from espresso.pwi
Warning: card &CELL ignored
Warning: card / ignored
Warning: card &FCP ignored
Warning: card / ignored
Warning: card &RISM ignored
Warning: card / ignored

     Current dimensions of program PWSCF are:
     Max number of different atomic species (ntypx) = 10
     Max number of k-points (npk) =  40000
     Max angular momentum in pseudopotentials (lmaxx) =  4
     file O.pbe-n-kjpaw_psl.0.1.UPF: wavefunction(s)  2P renormalized
     signal trapping enabled: kill the code with -SIGUSR1 to stop cleanly the simulation 
 
     K-points division:     npool     =       2
     R & G space division:  proc/nbgrp/npool/nimage =      24
     Subspace diagonalization in iterative solution of the eigenvalue problem:
     one sub-group per band group will be used
     scalapack distributed-memory algorithm (size of sub-group:  3*  3 procs)

 
     Parallelization info
     --------------------
     sticks:   dense  smooth     PW     G-vecs:    dense   smooth      PW
     Min         350     175     47                61430    21716    3036
     Max         351     177     48                61449    21727    3041
     Sum        8421    4205   1137              1474595   521381   72913
 
     Using Slab Decomposition
 


     bravais-lattice index     =            0
     lattice parameter (alat)  =      14.8599  a.u.
     unit-cell volume          =    8305.1283 (a.u.)^3
     number of atoms/cell      =           51
     number of atomic types    =            4
     number of electrons       =       437.00
     number of Kohn-Sham states=          263
     kinetic-energy cutoff     =      60.0000  Ry
     charge density cutoff     =     480.0000  Ry
     scf convergence threshold =      1.0E-08
     mixing beta               =       0.1500
     number of iterations used =            8  local-TF  mixing
     Exchange-correlation= PBE
                           (   1   4   3   4   0   0   0)

     celldm(1)=  14.859904  celldm(2)=   0.000000  celldm(3)=   0.000000
     celldm(4)=   0.000000  celldm(5)=   0.000000  celldm(6)=   0.000000

     crystal axes: (cart. coord. in units of alat)
               a(1) = (   1.000000   0.000000   0.000000 )  
               a(2) = (   0.000000   1.000000   0.000000 )  
               a(3) = (   0.000000   0.000000   2.531036 )  

     reciprocal axes: (cart. coord. in units 2 pi/alat)
               b(1) = (  1.000000  0.000000  0.000000 )  
               b(2) = (  0.000000  1.000000  0.000000 )  
               b(3) = (  0.000000  0.000000  0.395095 )  


     PseudoPot. # 1 for Sr read from file:
     /bsuhome/zayahcortright/q-e/pseudo/Sr_pbe_v1.uspp.F.UPF
     MD5 check sum: 6b418c05fbe9db5448babca5e47b7a5b
     Pseudo is Ultrasoft + core correction, Zval = 10.0
     Generated by new atomic code, or converted to UPF format
     Using radial grid of  883 points,  6 beta functions with: 
                l(1) =   0
                l(2) =   0
                l(3) =   1
                l(4) =   1
                l(5) =   2
                l(6) =   2
     Q(r) pseudized with  6 coefficients,  rinner =    1.400   1.400   1.400
                                                       1.400   1.400

     PseudoPot. # 2 for O  read from file:
     /bsuhome/zayahcortright/q-e/pseudo/O.pbe-n-kjpaw_psl.0.1.UPF
     MD5 check sum: 0234752ac141de4415c5fc33072bef88
     Pseudo is Projector augmented-wave + core cor, Zval =  6.0
     Generated using "atomic" code by A. Dal Corso  v.5.0.99 svn rev. 10869
     Shape of augmentation charge: BESSEL
     Using radial grid of 1095 points,  4 beta functions with: 
                l(1) =   0
                l(2) =   0
                l(3) =   1
                l(4) =   1
     Q(r) pseudized with 0 coefficients 


     PseudoPot. # 3 for Co read from file:
     /bsuhome/zayahcortright/q-e/pseudo/Co_pbe_v1.2.uspp.F.UPF
     MD5 check sum: 5f91765df6ddd3222702df6e7b74a16d
     Pseudo is Ultrasoft + core correction, Zval = 17.0
     Generated by new atomic code, or converted to UPF format
     Using radial grid of  863 points,  6 beta functions with: 
                l(1) =   0
                l(2) =   0
                l(3) =   1
                l(4) =   1
                l(5) =   2
                l(6) =   2
     Q(r) pseudized with  8 coefficients,  rinner =    1.200   1.200   1.200
                                                       1.200   1.200

     PseudoPot. # 4 for H  read from file:
     /bsuhome/zayahcortright/q-e/pseudo/H.pbe-rrkjus_psl.1.0.0.UPF
     MD5 check sum: f52b6d4d1c606e5624b1dc7b2218f220
     Pseudo is Ultrasoft, Zval =  1.0
     Generated using "atomic" code by A. Dal Corso  v.5.1
     Using radial grid of  929 points,  2 beta functions with: 
                l(1) =   0
                l(2) =   0
     Q(r) pseudized with 0 coefficients 


     atomic species   valence    mass     pseudopotential
        Sr            10.00    87.62000     Sr( 1.00)
        O              6.00    15.99900     O ( 1.00)
        Co            17.00    58.93319     Co( 1.00)
        H              1.00     1.00800     H ( 1.00)

     No symmetry found


                                    s                        frac. trans.

      isym =  1     identity                                     

 cryst.   s( 1) = (     1          0          0      )
                  (     0          1          0      )
                  (     0          0          1      )

 cart.    s( 1) = (  1.0000000  0.0000000  0.0000000 )
                  (  0.0000000  1.0000000  0.0000000 )
                  (  0.0000000  0.0000000  1.0000000 )


   Cartesian axes

     site n.     atom                  positions (alat units)
         1           Sr  tau(   1) = (   0.2508693   0.7491307   1.7574407  )
         2           O   tau(   2) = (   0.4985141   0.5014859   1.7715967  )
         3           Sr  tau(   3) = (   0.7482398   0.7454518   1.7648669  )
         4           Sr  tau(   4) = (   0.7441748   0.2558252   1.7667843  )
         5           Sr  tau(   5) = (   0.2508693   0.7491307   1.2696799  )
         6           Sr  tau(   6) = (   0.2508693   0.7491307   0.7632319  )
         7           Co  tau(   7) = (   0.4998914   0.5001086   1.0164559  )
         8           Co  tau(   8) = (   0.4936915   0.5063085   1.5135603  )
         9           O   tau(   9) = (   0.4988895   0.7610401   1.0164559  )
        10           O   tau(  10) = (   0.2389599   0.5011105   1.0164559  )
        11           O   tau(  11) = (   0.0070918   0.7374880   1.0164559  )
        12           O   tau(  12) = (   0.0088340   0.7405089   1.5135603  )
        13           O   tau(  13) = (   0.5066944   0.7415376   1.5135603  )
        14           O   tau(  14) = (   0.2584624   0.4933056   1.5135603  )
        15           O   tau(  15) = (   0.4985141   0.5014859   0.7773880  )
        16           O   tau(  16) = (   0.4985141   0.5014859   1.2555238  )
        17           Sr  tau(  17) = (   0.7482398   0.7454518   0.7706582  )
        18           Sr  tau(  18) = (   0.7482398   0.7454518   1.2622536  )
        19           Sr  tau(  19) = (   0.7441748   0.2558252   0.7725755  )
        20           Sr  tau(  20) = (   0.7441748   0.2558252   1.2603363  )
        21           O   tau(  21) = (   0.7322655   0.0078049   1.5135603  )
        22           O   tau(  22) = (   0.7558175   0.4996027   1.5135603  )
        23           O   tau(  23) = (   0.5003973   0.2441825   1.5135603  )
        24           O   tau(  24) = (   0.7527966   0.4978604   1.0164559  )
        25           O   tau(  25) = (   0.5021396   0.2472034   1.0164559  )
        26           O   tau(  26) = (   0.7517679   0.0000000   1.0164559  )
        27           O   tau(  27) = (   0.0114961   0.4948124   1.7455321  )
        28           O   tau(  28) = (   0.0048226   0.0077944   1.7715967  )
        29           Sr  tau(  29) = (   0.2545482   0.2517602   1.7648669  )
        30           O   tau(  30) = (   0.5048017   0.0015068   1.7786929  )
        31           Co  tau(  31) = (   0.0056869   0.5006215   1.0164559  )
        32           Co  tau(  32) = (   0.0065315   0.4997770   1.5135603  )
        33           Co  tau(  33) = (   0.0061999   0.0064171   1.0164559  )
        34           Co  tau(  34) = (   0.0000000   0.0126169   1.5135603  )
        35           O   tau(  35) = (   0.0114961   0.4948124   1.2815885  )
        36           O   tau(  36) = (   0.0114961   0.4948124   0.7513233  )
        37           O   tau(  37) = (   0.0051979   0.2673486   1.0164559  )
        38           O   tau(  38) = (   0.0130029   0.2478461   1.5135603  )
        39           O   tau(  39) = (   0.0048226   0.0077944   0.7773880  )
        40           O   tau(  40) = (   0.0048226   0.0077944   1.2555238  )
        41           Sr  tau(  41) = (   0.2545482   0.2517602   0.7706582  )
        42           Sr  tau(  42) = (   0.2545482   0.2517602   1.2622536  )
        43           Co  tau(  43) = (   0.4989925   0.0073160   1.5135603  )
        44           Co  tau(  44) = (   0.4998370   0.0064714   1.0164559  )
        45           O   tau(  45) = (   0.5048017   0.0015068   0.7844841  )
        46           O   tau(  46) = (   0.5048017   0.0015068   1.2484277  )
        47           O   tau(  47) = (   0.2621260   0.0059111   1.5135603  )
        48           O   tau(  48) = (   0.2591051   0.0041689   1.0164559  )
        49           O   tau(  49) = (   0.0000000   0.4264937   2.1602013  )
        50           O   tau(  50) = (   0.0000000   0.4264937   2.3186489  )
        51           H   tau(  51) = (   0.0000000   0.4264937   2.4431567  )

   Crystallographic axes

     site n.     atom                  positions (cryst. coord.)
         1           Sr  tau(   1) = (  0.2508693  0.7491307  0.6943562  )
         2           O   tau(   2) = (  0.4985141  0.5014859  0.6999492  )
         3           Sr  tau(   3) = (  0.7482398  0.7454518  0.6972903  )
         4           Sr  tau(   4) = (  0.7441748  0.2558252  0.6980478  )
         5           Sr  tau(   5) = (  0.2508693  0.7491307  0.5016443  )
         6           Sr  tau(   6) = (  0.2508693  0.7491307  0.3015492  )
         7           Co  tau(   7) = (  0.4998914  0.5001086  0.4015968  )
         8           Co  tau(   8) = (  0.4936915  0.5063085  0.5980003  )
         9           O   tau(   9) = (  0.4988895  0.7610401  0.4015968  )
        10           O   tau(  10) = (  0.2389599  0.5011105  0.4015968  )
        11           O   tau(  11) = (  0.0070918  0.7374880  0.4015968  )
        12           O   tau(  12) = (  0.0088340  0.7405089  0.5980003  )
        13           O   tau(  13) = (  0.5066944  0.7415376  0.5980003  )
        14           O   tau(  14) = (  0.2584624  0.4933056  0.5980003  )
        15           O   tau(  15) = (  0.4985141  0.5014859  0.3071422  )
        16           O   tau(  16) = (  0.4985141  0.5014859  0.4960513  )
        17           Sr  tau(  17) = (  0.7482398  0.7454518  0.3044833  )
        18           Sr  tau(  18) = (  0.7482398  0.7454518  0.4987103  )
        19           Sr  tau(  19) = (  0.7441748  0.2558252  0.3052408  )
        20           Sr  tau(  20) = (  0.7441748  0.2558252  0.4979527  )
        21           O   tau(  21) = (  0.7322655  0.0078049  0.5980003  )
        22           O   tau(  22) = (  0.7558175  0.4996027  0.5980003  )
        23           O   tau(  23) = (  0.5003973  0.2441825  0.5980003  )
        24           O   tau(  24) = (  0.7527966  0.4978604  0.4015968  )
        25           O   tau(  25) = (  0.5021396  0.2472034  0.4015968  )
        26           O   tau(  26) = (  0.7517679  0.0000000  0.4015968  )
        27           O   tau(  27) = (  0.0114961  0.4948124  0.6896512  )
        28           O   tau(  28) = (  0.0048226  0.0077944  0.6999492  )
        29           Sr  tau(  29) = (  0.2545482  0.2517602  0.6972903  )
        30           O   tau(  30) = (  0.5048017  0.0015068  0.7027529  )
        31           Co  tau(  31) = (  0.0056869  0.5006215  0.4015968  )
        32           Co  tau(  32) = (  0.0065315  0.4997770  0.5980003  )
        33           Co  tau(  33) = (  0.0061999  0.0064171  0.4015968  )
        34           Co  tau(  34) = (  0.0000000  0.0126169  0.5980003  )
        35           O   tau(  35) = (  0.0114961  0.4948124  0.5063494  )
        36           O   tau(  36) = (  0.0114961  0.4948124  0.2968442  )
        37           O   tau(  37) = (  0.0051979  0.2673486  0.4015968  )
        38           O   tau(  38) = (  0.0130029  0.2478461  0.5980003  )
        39           O   tau(  39) = (  0.0048226  0.0077944  0.3071422  )
        40           O   tau(  40) = (  0.0048226  0.0077944  0.4960513  )
        41           Sr  tau(  41) = (  0.2545482  0.2517602  0.3044833  )
        42           Sr  tau(  42) = (  0.2545482  0.2517602  0.4987103  )
        43           Co  tau(  43) = (  0.4989925  0.0073160  0.5980003  )
        44           Co  tau(  44) = (  0.4998370  0.0064714  0.4015968  )
        45           O   tau(  45) = (  0.5048017  0.0015068  0.3099459  )
        46           O   tau(  46) = (  0.5048017  0.0015068  0.4932477  )
        47           O   tau(  47) = (  0.2621260  0.0059111  0.5980003  )
        48           O   tau(  48) = (  0.2591051  0.0041689  0.4015968  )
        49           O   tau(  49) = (  0.0000000  0.4264937  0.8534850  )
        50           O   tau(  50) = (  0.0000000  0.4264937  0.9160869  )
        51           H   tau(  51) = (  0.0000000  0.4264937  0.9652793  )

     number of k points=    10  Gaussian smearing, width (Ry)=  0.0700
                       cart. coord. in units 2pi/alat
        k(    1) = (   0.0000000   0.0000000   0.0000000), wk =   0.1250000
        k(    2) = (   0.0000000   0.2500000   0.0000000), wk =   0.2500000
        k(    3) = (   0.0000000  -0.5000000   0.0000000), wk =   0.1250000
        k(    4) = (   0.2500000   0.2500000   0.0000000), wk =   0.2500000
        k(    5) = (   0.2500000  -0.5000000   0.0000000), wk =   0.2500000
        k(    6) = (  -0.5000000  -0.5000000   0.0000000), wk =   0.1250000
        k(    7) = (   0.2500000   0.0000000   0.0000000), wk =   0.2500000
        k(    8) = (  -0.5000000   0.0000000   0.0000000), wk =   0.1250000
        k(    9) = (  -0.2500000   0.2500000   0.0000000), wk =   0.2500000
        k(   10) = (  -0.5000000   0.2500000   0.0000000), wk =   0.2500000

                       cryst. coord.
        k(    1) = (   0.0000000   0.0000000   0.0000000), wk =   0.1250000
        k(    2) = (   0.0000000   0.2500000   0.0000000), wk =   0.2500000
        k(    3) = (   0.0000000  -0.5000000   0.0000000), wk =   0.1250000
        k(    4) = (   0.2500000   0.2500000   0.0000000), wk =   0.2500000
        k(    5) = (   0.2500000  -0.5000000   0.0000000), wk =   0.2500000
        k(    6) = (  -0.5000000  -0.5000000   0.0000000), wk =   0.1250000
        k(    7) = (   0.2500000   0.0000000   0.0000000), wk =   0.2500000
        k(    8) = (  -0.5000000   0.0000000   0.0000000), wk =   0.1250000
        k(    9) = (  -0.2500000   0.2500000   0.0000000), wk =   0.2500000
        k(   10) = (  -0.5000000   0.2500000   0.0000000), wk =   0.2500000

     Dense  grid:  1474595 G-vectors     FFT dimensions: ( 108, 108, 270)

     Smooth grid:   521381 G-vectors     FFT dimensions: (  75,  75, 192)

     Dynamical RAM for                 wfc:      10.90 MB

     Dynamical RAM for     wfc (w. buffer):      65.37 MB

     Dynamical RAM for           str. fact:       3.75 MB

     Dynamical RAM for           local pot:       0.00 MB

     Dynamical RAM for          nlocal pot:      24.94 MB

     Dynamical RAM for                qrad:       7.03 MB

     Dynamical RAM for          rho,v,vnew:       6.02 MB

     Dynamical RAM for               rhoin:       2.01 MB

     Dynamical RAM for            rho*nmix:      15.00 MB

     Dynamical RAM for           G-vectors:       3.68 MB

     Dynamical RAM for          h,s,v(r/c):       1.40 MB

     Dynamical RAM for          <psi|beta>:       2.42 MB

     Dynamical RAM for                 psi:      21.79 MB

     Dynamical RAM for                hpsi:      21.79 MB

     Dynamical RAM for                spsi:      21.79 MB

     Dynamical RAM for      wfcinit/wfcrot:      34.89 MB

     Dynamical RAM for           addusdens:     101.73 MB

     Estimated static dynamical RAM per process >     122.82 MB

     Estimated max dynamical RAM per process >     239.55 MB

     Estimated total dynamical RAM >      10.88 GB

     Check: negative core charge=   -0.000004

     Initial potential from superposition of free atoms

     starting charge     428.5961, renormalised to     437.0000

     negative rho (up, down):  7.814E-01 0.000E+00
     Starting wfcs are  381 randomized atomic wfcs
     Checking if some PAW data can be deallocated... 
       PAW data deallocated on   18 nodes for type:  2

     total cpu time spent up to now is        9.6 secs

     Self-consistent Calculation

     iteration #  1     ecut=    60.00 Ry     beta= 0.15
     Davidson diagonalization with overlap

---- Real-time Memory Report at c_bands before calling an iterative solver
             0 MiB given to the printing process from OS
             0 MiB allocation reported by mallinfo(arena+hblkhd)
          6217 MiB available memory on the node where the printing process lives
------------------
     ethr =  1.00E-02,  avg # of iterations =  2.0

     negative rho (up, down):  7.717E-01 0.000E+00

     total cpu time spent up to now is       25.4 secs

     total energy              =   -4489.34205792 Ry
     estimated scf accuracy    <      49.83489693 Ry

     iteration #  2     ecut=    60.00 Ry     beta= 0.15
     Davidson diagonalization with overlap

---- Real-time Memory Report at c_bands before calling an iterative solver
             0 MiB given to the printing process from OS
             0 MiB allocation reported by mallinfo(arena+hblkhd)
          6527 MiB available memory on the node where the printing process lives
------------------
     ethr =  1.00E-02,  avg # of iterations =  1.0

     negative rho (up, down):  7.615E-01 0.000E+00

     total cpu time spent up to now is       38.4 secs

     total energy              =   -4486.83457466 Ry
     estimated scf accuracy    <      35.48900863 Ry

     iteration #  3     ecut=    60.00 Ry     beta= 0.15
     Davidson diagonalization with overlap

---- Real-time Memory Report at c_bands before calling an iterative solver
             0 MiB given to the printing process from OS
             0 MiB allocation reported by mallinfo(arena+hblkhd)
          5725 MiB available memory on the node where the printing process lives
------------------
     ethr =  8.12E-03,  avg # of iterations =  1.0

     negative rho (up, down):  7.562E-01 0.000E+00

     total cpu time spent up to now is       51.4 secs

     total energy              =   -4486.74647453 Ry
     estimated scf accuracy    <      34.92709055 Ry

     iteration #  4     ecut=    60.00 Ry     beta= 0.15
     Davidson diagonalization with overlap

---- Real-time Memory Report at c_bands before calling an iterative solver
             0 MiB given to the printing process from OS
             0 MiB allocation reported by mallinfo(arena+hblkhd)
          5701 MiB available memory on the node where the printing process lives
------------------
     ethr =  7.99E-03,  avg # of iterations =  1.0

     negative rho (up, down):  7.570E-01 0.000E+00

     total cpu time spent up to now is       64.4 secs

     total energy              =   -4486.74166991 Ry
     estimated scf accuracy    <      34.41345557 Ry

     iteration #  5     ecut=    60.00 Ry     beta= 0.15
     Davidson diagonalization with overlap

---- Real-time Memory Report at c_bands before calling an iterative solver
             0 MiB given to the printing process from OS
             0 MiB allocation reported by mallinfo(arena+hblkhd)
          5683 MiB available memory on the node where the printing process lives
------------------
     ethr =  7.87E-03,  avg # of iterations =  1.0

     negative rho (up, down):  7.348E-01 0.000E+00

     total cpu time spent up to now is       77.6 secs

     total energy              =   -4483.38348070 Ry
     estimated scf accuracy    <      25.81740553 Ry

     iteration #  6     ecut=    60.00 Ry     beta= 0.15
     Davidson diagonalization with overlap

---- Real-time Memory Report at c_bands before calling an iterative solver
             0 MiB given to the printing process from OS
             0 MiB allocation reported by mallinfo(arena+hblkhd)
          5661 MiB available memory on the node where the printing process lives
------------------
     ethr =  5.91E-03,  avg # of iterations =  2.0

     negative rho (up, down):  7.466E-01 0.000E+00

     total cpu time spent up to now is       91.9 secs

     total energy              =   -4484.54547921 Ry
     estimated scf accuracy    <      48.10736300 Ry

     iteration #  7     ecut=    60.00 Ry     beta= 0.15
     Davidson diagonalization with overlap

---- Real-time Memory Report at c_bands before calling an iterative solver
             0 MiB given to the printing process from OS
             0 MiB allocation reported by mallinfo(arena+hblkhd)
          5645 MiB available memory on the node where the printing process lives
------------------
     ethr =  5.91E-03,  avg # of iterations =  1.0

     negative rho (up, down):  7.526E-01 0.000E+00

     total cpu time spent up to now is      104.7 secs

     total energy              =   -4483.39089152 Ry
     estimated scf accuracy    <      48.93974583 Ry

     iteration #  8     ecut=    60.00 Ry     beta= 0.15
     Davidson diagonalization with overlap

---- Real-time Memory Report at c_bands before calling an iterative solver
             0 MiB given to the printing process from OS
             0 MiB allocation reported by mallinfo(arena+hblkhd)
          5627 MiB available memory on the node where the printing process lives
------------------
     ethr =  5.91E-03,  avg # of iterations =  1.0

     negative rho (up, down):  7.506E-01 0.000E+00

     total cpu time spent up to now is      117.5 secs

     total energy              =   -4483.86725041 Ry
     estimated scf accuracy    <       6.22729185 Ry

     iteration #  9     ecut=    60.00 Ry     beta= 0.15
     Davidson diagonalization with overlap

---- Real-time Memory Report at c_bands before calling an iterative solver
             0 MiB given to the printing process from OS
             0 MiB allocation reported by mallinfo(arena+hblkhd)
          5607 MiB available memory on the node where the printing process lives
------------------
     ethr =  1.43E-03,  avg # of iterations =  3.4

     negative rho (up, down):  7.624E-01 0.000E+00

     total cpu time spent up to now is      132.2 secs

     total energy              =   -4483.66783877 Ry
     estimated scf accuracy    <       3.72026347 Ry

     iteration # 10     ecut=    60.00 Ry     beta= 0.15
     Davidson diagonalization with overlap

---- Real-time Memory Report at c_bands before calling an iterative solver
             0 MiB given to the printing process from OS
             0 MiB allocation reported by mallinfo(arena+hblkhd)
          5555 MiB available memory on the node where the printing process lives
------------------
     ethr =  8.51E-04,  avg # of iterations = 10.2

     negative rho (up, down):  7.722E-01 0.000E+00

     total cpu time spent up to now is      150.6 secs

     total energy              =   -4483.52744264 Ry
     estimated scf accuracy    <       3.65910946 Ry

     iteration # 11     ecut=    60.00 Ry     beta= 0.15
     Davidson diagonalization with overlap

---- Real-time Memory Report at c_bands before calling an iterative solver
             0 MiB given to the printing process from OS
             0 MiB allocation reported by mallinfo(arena+hblkhd)
          5301 MiB available memory on the node where the printing process lives
------------------
     ethr =  8.37E-04,  avg # of iterations =  5.3

     negative rho (up, down):  7.868E-01 0.000E+00

     total cpu time spent up to now is      167.0 secs

     total energy              =   -4483.39930779 Ry
     estimated scf accuracy    <       2.92939230 Ry

     iteration # 12     ecut=    60.00 Ry     beta= 0.15
     Davidson diagonalization with overlap

---- Real-time Memory Report at c_bands before calling an iterative solver
             0 MiB given to the printing process from OS
             0 MiB allocation reported by mallinfo(arena+hblkhd)
          5247 MiB available memory on the node where the printing process lives
------------------
     ethr =  6.70E-04,  avg # of iterations = 10.2

     negative rho (up, down):  7.991E-01 0.000E+00

     total cpu time spent up to now is      185.9 secs

     total energy              =   -4483.20284372 Ry
     estimated scf accuracy    <       1.94301393 Ry

     iteration # 13     ecut=    60.00 Ry     beta= 0.15
     Davidson diagonalization with overlap

---- Real-time Memory Report at c_bands before calling an iterative solver
             0 MiB given to the printing process from OS
             0 MiB allocation reported by mallinfo(arena+hblkhd)
          5114 MiB available memory on the node where the printing process lives
------------------
     ethr =  4.45E-04,  avg # of iterations =  2.4

     negative rho (up, down):  7.964E-01 0.000E+00

     total cpu time spent up to now is      200.4 secs

     total energy              =   -4483.36765661 Ry
     estimated scf accuracy    <       2.63699534 Ry

     iteration # 14     ecut=    60.00 Ry     beta= 0.15
     Davidson diagonalization with overlap

---- Real-time Memory Report at c_bands before calling an iterative solver
             0 MiB given to the printing process from OS
             0 MiB allocation reported by mallinfo(arena+hblkhd)
          5122 MiB available memory on the node where the printing process lives
------------------
     ethr =  4.45E-04,  avg # of iterations =  1.0

     negative rho (up, down):  7.980E-01 0.000E+00

     total cpu time spent up to now is      213.2 secs

     total energy              =   -4483.26516246 Ry
     estimated scf accuracy    <       1.98678432 Ry

     iteration # 15     ecut=    60.00 Ry     beta= 0.15
     Davidson diagonalization with overlap

---- Real-time Memory Report at c_bands before calling an iterative solver
             0 MiB given to the printing process from OS
             0 MiB allocation reported by mallinfo(arena+hblkhd)
          5136 MiB available memory on the node where the printing process lives
------------------
     ethr =  4.45E-04,  avg # of iterations =  3.6

     negative rho (up, down):  8.089E-01 0.000E+00

     total cpu time spent up to now is      227.7 secs

     total energy              =   -4483.17516096 Ry
     estimated scf accuracy    <       0.76470612 Ry

     iteration # 16     ecut=    60.00 Ry     beta= 0.15
     Davidson diagonalization with overlap

---- Real-time Memory Report at c_bands before calling an iterative solver
             0 MiB given to the printing process from OS
             0 MiB allocation reported by mallinfo(arena+hblkhd)
          5144 MiB available memory on the node where the printing process lives
------------------
     ethr =  1.75E-04,  avg # of iterations =  7.0

     negative rho (up, down):  8.048E-01 0.000E+00

     total cpu time spent up to now is      244.9 secs

     total energy              =   -4483.14416000 Ry
     estimated scf accuracy    <       2.20060800 Ry

     iteration # 17     ecut=    60.00 Ry     beta= 0.15
     Davidson diagonalization with overlap

---- Real-time Memory Report at c_bands before calling an iterative solver
             0 MiB given to the printing process from OS
             0 MiB allocation reported by mallinfo(arena+hblkhd)
          5140 MiB available memory on the node where the printing process lives
------------------
     ethr =  1.75E-04,  avg # of iterations =  2.0

     negative rho (up, down):  8.110E-01 0.000E+00

     total cpu time spent up to now is      259.3 secs

     total energy              =   -4483.14588322 Ry
     estimated scf accuracy    <       0.61252938 Ry

     iteration # 18     ecut=    60.00 Ry     beta= 0.15
     Davidson diagonalization with overlap

---- Real-time Memory Report at c_bands before calling an iterative solver
             0 MiB given to the printing process from OS
             0 MiB allocation reported by mallinfo(arena+hblkhd)
          5153 MiB available memory on the node where the printing process lives
------------------
     ethr =  1.40E-04,  avg # of iterations =  3.2

     negative rho (up, down):  8.193E-01 0.000E+00

     total cpu time spent up to now is      274.1 secs

     total energy              =   -4483.09782404 Ry
     estimated scf accuracy    <       1.03424778 Ry

     iteration # 19     ecut=    60.00 Ry     beta= 0.15
     Davidson diagonalization with overlap

---- Real-time Memory Report at c_bands before calling an iterative solver
             0 MiB given to the printing process from OS
             0 MiB allocation reported by mallinfo(arena+hblkhd)
          5155 MiB available memory on the node where the printing process lives
------------------
     ethr =  1.40E-04,  avg # of iterations =  7.5

     negative rho (up, down):  8.221E-01 0.000E+00

     total cpu time spent up to now is      290.8 secs

     total energy              =   -4483.02416014 Ry
     estimated scf accuracy    <       1.07438297 Ry

     iteration # 20     ecut=    60.00 Ry     beta= 0.15
     Davidson diagonalization with overlap

---- Real-time Memory Report at c_bands before calling an iterative solver
             0 MiB given to the printing process from OS
             0 MiB allocation reported by mallinfo(arena+hblkhd)
          5134 MiB available memory on the node where the printing process lives
------------------
     ethr =  1.40E-04,  avg # of iterations =  8.7

     negative rho (up, down):  8.249E-01 0.000E+00

     total cpu time spent up to now is      308.6 secs

     total energy              =   -4483.02787464 Ry
     estimated scf accuracy    <       0.37093887 Ry

     iteration # 21     ecut=    60.00 Ry     beta= 0.15
     Davidson diagonalization with overlap

---- Real-time Memory Report at c_bands before calling an iterative solver
             0 MiB given to the printing process from OS
             0 MiB allocation reported by mallinfo(arena+hblkhd)
          5126 MiB available memory on the node where the printing process lives
------------------
     ethr =  8.49E-05,  avg # of iterations =  6.1

     negative rho (up, down):  8.262E-01 0.000E+00

     total cpu time spent up to now is      325.8 secs

     total energy              =   -4483.01616017 Ry
     estimated scf accuracy    <       0.19193773 Ry

     iteration # 22     ecut=    60.00 Ry     beta= 0.15
     Davidson diagonalization with overlap

---- Real-time Memory Report at c_bands before calling an iterative solver
             0 MiB given to the printing process from OS
             0 MiB allocation reported by mallinfo(arena+hblkhd)
          5176 MiB available memory on the node where the printing process lives
------------------
     ethr =  4.39E-05,  avg # of iterations =  8.7

     negative rho (up, down):  8.239E-01 0.000E+00

     total cpu time spent up to now is      343.8 secs

     total energy              =   -4482.99584407 Ry
     estimated scf accuracy    <       0.14741704 Ry

     iteration # 23     ecut=    60.00 Ry     beta= 0.15
     Davidson diagonalization with overlap

---- Real-time Memory Report at c_bands before calling an iterative solver
             0 MiB given to the printing process from OS
             0 MiB allocation reported by mallinfo(arena+hblkhd)
          5130 MiB available memory on the node where the printing process lives
------------------
     ethr =  3.37E-05,  avg # of iterations =  5.1

     negative rho (up, down):  8.273E-01 0.000E+00

     total cpu time spent up to now is      360.0 secs

     total energy              =   -4482.98362696 Ry
     estimated scf accuracy    <       0.09051409 Ry

     iteration # 24     ecut=    60.00 Ry     beta= 0.15
     Davidson diagonalization with overlap

---- Real-time Memory Report at c_bands before calling an iterative solver
             0 MiB given to the printing process from OS
             0 MiB allocation reported by mallinfo(arena+hblkhd)
          5121 MiB available memory on the node where the printing process lives
------------------
     ethr =  2.07E-05,  avg # of iterations = 10.9

     negative rho (up, down):  8.406E-01 0.000E+00

     total cpu time spent up to now is      379.3 secs

     total energy              =   -4482.97574501 Ry
     estimated scf accuracy    <       0.05758062 Ry

     iteration # 25     ecut=    60.00 Ry     beta= 0.15
     Davidson diagonalization with overlap

---- Real-time Memory Report at c_bands before calling an iterative solver
             0 MiB given to the printing process from OS
             0 MiB allocation reported by mallinfo(arena+hblkhd)
          5050 MiB available memory on the node where the printing process lives
------------------
     ethr =  1.32E-05,  avg # of iterations = 10.2

     negative rho (up, down):  8.333E-01 0.000E+00

     total cpu time spent up to now is      398.8 secs

     total energy              =   -4482.97745986 Ry
     estimated scf accuracy    <       0.04040070 Ry

     iteration # 26     ecut=    60.00 Ry     beta= 0.15
     Davidson diagonalization with overlap

---- Real-time Memory Report at c_bands before calling an iterative solver
             0 MiB given to the printing process from OS
             0 MiB allocation reported by mallinfo(arena+hblkhd)
          4995 MiB available memory on the node where the printing process lives
------------------
     ethr =  9.25E-06,  avg # of iterations =  2.0

     negative rho (up, down):  8.178E-01 0.000E+00

     total cpu time spent up to now is      413.2 secs

     total energy              =   -4482.97723307 Ry
     estimated scf accuracy    <       0.01674201 Ry

     iteration # 27     ecut=    60.00 Ry     beta= 0.15
     Davidson diagonalization with overlap

---- Real-time Memory Report at c_bands before calling an iterative solver
             0 MiB given to the printing process from OS
             0 MiB allocation reported by mallinfo(arena+hblkhd)
          4999 MiB available memory on the node where the printing process lives
------------------
     c_bands:  2 eigenvalues not converged
     ethr =  3.83E-06,  avg # of iterations = 10.8

     negative rho (up, down):  8.028E-01 0.000E+00

     total cpu time spent up to now is      432.5 secs

     total energy              =   -4482.97661151 Ry
     estimated scf accuracy    <       0.01135662 Ry

     iteration # 28     ecut=    60.00 Ry     beta= 0.15
     Davidson diagonalization with overlap

---- Real-time Memory Report at c_bands before calling an iterative solver
             0 MiB given to the printing process from OS
             0 MiB allocation reported by mallinfo(arena+hblkhd)
          4966 MiB available memory on the node where the printing process lives
------------------
     ethr =  2.60E-06,  avg # of iterations =  6.7

     negative rho (up, down):  7.935E-01 0.000E+00

     total cpu time spent up to now is      450.0 secs

     total energy              =   -4482.97473539 Ry
     estimated scf accuracy    <       0.00765509 Ry

     iteration # 29     ecut=    60.00 Ry     beta= 0.15
     Davidson diagonalization with overlap

---- Real-time Memory Report at c_bands before calling an iterative solver
             0 MiB given to the printing process from OS
             0 MiB allocation reported by mallinfo(arena+hblkhd)
          4950 MiB available memory on the node where the printing process lives
------------------
     ethr =  1.75E-06,  avg # of iterations =  8.3

     negative rho (up, down):  7.956E-01 0.000E+00

     total cpu time spent up to now is      468.8 secs

     total energy              =   -4482.97480245 Ry
     estimated scf accuracy    <       0.00257490 Ry

     iteration # 30     ecut=    60.00 Ry     beta= 0.15
     Davidson diagonalization with overlap

---- Real-time Memory Report at c_bands before calling an iterative solver
             0 MiB given to the printing process from OS
             0 MiB allocation reported by mallinfo(arena+hblkhd)
          4854 MiB available memory on the node where the printing process lives
------------------
     ethr =  5.89E-07,  avg # of iterations =  5.3

     negative rho (up, down):  7.955E-01 0.000E+00

     total cpu time spent up to now is      485.3 secs

     total energy              =   -4482.97492809 Ry
     estimated scf accuracy    <       0.00083111 Ry

     iteration # 31     ecut=    60.00 Ry     beta= 0.15
     Davidson diagonalization with overlap

---- Real-time Memory Report at c_bands before calling an iterative solver
             0 MiB given to the printing process from OS
             0 MiB allocation reported by mallinfo(arena+hblkhd)
          4833 MiB available memory on the node where the printing process lives
------------------
     ethr =  1.90E-07,  avg # of iterations =  3.4

     negative rho (up, down):  7.944E-01 0.000E+00

     total cpu time spent up to now is      500.6 secs

     total energy              =   -4482.97492347 Ry
     estimated scf accuracy    <       0.00045829 Ry

     iteration # 32     ecut=    60.00 Ry     beta= 0.15
     Davidson diagonalization with overlap

---- Real-time Memory Report at c_bands before calling an iterative solver
             0 MiB given to the printing process from OS
             0 MiB allocation reported by mallinfo(arena+hblkhd)
          4852 MiB available memory on the node where the printing process lives
------------------
     ethr =  1.05E-07,  avg # of iterations =  8.6

     negative rho (up, down):  7.935E-01 0.000E+00

     total cpu time spent up to now is      518.0 secs

     total energy              =   -4482.97492197 Ry
     estimated scf accuracy    <       0.00023866 Ry

     iteration # 33     ecut=    60.00 Ry     beta= 0.15
     Davidson diagonalization with overlap

---- Real-time Memory Report at c_bands before calling an iterative solver
             0 MiB given to the printing process from OS
             0 MiB allocation reported by mallinfo(arena+hblkhd)
          4905 MiB available memory on the node where the printing process lives
------------------
     ethr =  5.46E-08,  avg # of iterations =  3.5

     negative rho (up, down):  7.930E-01 0.000E+00

     total cpu time spent up to now is      533.2 secs

     total energy              =   -4482.97490786 Ry
     estimated scf accuracy    <       0.00017935 Ry

     iteration # 34     ecut=    60.00 Ry     beta= 0.15
     Davidson diagonalization with overlap

---- Real-time Memory Report at c_bands before calling an iterative solver
             0 MiB given to the printing process from OS
             0 MiB allocation reported by mallinfo(arena+hblkhd)
          4891 MiB available memory on the node where the printing process lives
------------------
     ethr =  4.10E-08,  avg # of iterations =  3.0

     negative rho (up, down):  7.922E-01 0.000E+00

     total cpu time spent up to now is      548.2 secs

     total energy              =   -4482.97486797 Ry
     estimated scf accuracy    <       0.00012446 Ry

     iteration # 35     ecut=    60.00 Ry     beta= 0.15
     Davidson diagonalization with overlap

---- Real-time Memory Report at c_bands before calling an iterative solver
             0 MiB given to the printing process from OS
             0 MiB allocation reported by mallinfo(arena+hblkhd)
          4941 MiB available memory on the node where the printing process lives
------------------
     ethr =  2.85E-08,  avg # of iterations =  6.7

     negative rho (up, down):  7.922E-01 0.000E+00

     total cpu time spent up to now is      566.8 secs

     total energy              =   -4482.97487600 Ry
     estimated scf accuracy    <       0.00002772 Ry

     iteration # 36     ecut=    60.00 Ry     beta= 0.15
     Davidson diagonalization with overlap

---- Real-time Memory Report at c_bands before calling an iterative solver
             0 MiB given to the printing process from OS
             0 MiB allocation reported by mallinfo(arena+hblkhd)
          4947 MiB available memory on the node where the printing process lives
------------------
     ethr =  6.34E-09,  avg # of iterations =  3.1

     negative rho (up, down):  7.922E-01 0.000E+00

     total cpu time spent up to now is      582.6 secs

     total energy              =   -4482.97488068 Ry
     estimated scf accuracy    <       0.00001876 Ry

     iteration # 37     ecut=    60.00 Ry     beta= 0.15
     Davidson diagonalization with overlap

---- Real-time Memory Report at c_bands before calling an iterative solver
             0 MiB given to the printing process from OS
             0 MiB allocation reported by mallinfo(arena+hblkhd)
          4949 MiB available memory on the node where the printing process lives
------------------
     ethr =  4.29E-09,  avg # of iterations =  2.0

     negative rho (up, down):  7.922E-01 0.000E+00

     total cpu time spent up to now is      597.0 secs

     total energy              =   -4482.97489467 Ry
     estimated scf accuracy    <       0.00001279 Ry

     iteration # 38     ecut=    60.00 Ry     beta= 0.15
     Davidson diagonalization with overlap

---- Real-time Memory Report at c_bands before calling an iterative solver
             0 MiB given to the printing process from OS
             0 MiB allocation reported by mallinfo(arena+hblkhd)
          4967 MiB available memory on the node where the printing process lives
------------------
     ethr =  2.93E-09,  avg # of iterations =  4.2

     negative rho (up, down):  7.922E-01 0.000E+00

     total cpu time spent up to now is      612.7 secs

     total energy              =   -4482.97490036 Ry
     estimated scf accuracy    <       0.00000740 Ry

     iteration # 39     ecut=    60.00 Ry     beta= 0.15
     Davidson diagonalization with overlap

---- Real-time Memory Report at c_bands before calling an iterative solver
             0 MiB given to the printing process from OS
             0 MiB allocation reported by mallinfo(arena+hblkhd)
          4948 MiB available memory on the node where the printing process lives
------------------
     ethr =  1.69E-09,  avg # of iterations =  3.6

     negative rho (up, down):  7.922E-01 0.000E+00

     total cpu time spent up to now is      627.8 secs

     total energy              =   -4482.97490179 Ry
     estimated scf accuracy    <       0.00000464 Ry

     iteration # 40     ecut=    60.00 Ry     beta= 0.15
     Davidson diagonalization with overlap

---- Real-time Memory Report at c_bands before calling an iterative solver
             0 MiB given to the printing process from OS
             0 MiB allocation reported by mallinfo(arena+hblkhd)
          4980 MiB available memory on the node where the printing process lives
------------------
     ethr =  1.06E-09,  avg # of iterations =  2.6

     negative rho (up, down):  7.923E-01 0.000E+00

     total cpu time spent up to now is      642.7 secs

     total energy              =   -4482.97490382 Ry
     estimated scf accuracy    <       0.00000394 Ry

     iteration # 41     ecut=    60.00 Ry     beta= 0.15
     Davidson diagonalization with overlap

---- Real-time Memory Report at c_bands before calling an iterative solver
             0 MiB given to the printing process from OS
             0 MiB allocation reported by mallinfo(arena+hblkhd)
          4962 MiB available memory on the node where the printing process lives
------------------
     ethr =  9.01E-10,  avg # of iterations =  4.6

     negative rho (up, down):  7.923E-01 0.000E+00

     total cpu time spent up to now is      658.3 secs

     total energy              =   -4482.97490401 Ry
     estimated scf accuracy    <       0.00000281 Ry

     iteration # 42     ecut=    60.00 Ry     beta= 0.15
     Davidson diagonalization with overlap

---- Real-time Memory Report at c_bands before calling an iterative solver
             0 MiB given to the printing process from OS
             0 MiB allocation reported by mallinfo(arena+hblkhd)
          4976 MiB available memory on the node where the printing process lives
------------------
     ethr =  6.44E-10,  avg # of iterations =  3.7

     negative rho (up, down):  7.924E-01 0.000E+00

     total cpu time spent up to now is      674.0 secs

     total energy              =   -4482.97490400 Ry
     estimated scf accuracy    <       0.00000215 Ry

     iteration # 43     ecut=    60.00 Ry     beta= 0.15
     Davidson diagonalization with overlap

---- Real-time Memory Report at c_bands before calling an iterative solver
             0 MiB given to the printing process from OS
             0 MiB allocation reported by mallinfo(arena+hblkhd)
          4962 MiB available memory on the node where the printing process lives
------------------
     ethr =  4.93E-10,  avg # of iterations =  2.6

     negative rho (up, down):  7.924E-01 0.000E+00

     total cpu time spent up to now is      689.2 secs

     total energy              =   -4482.97490401 Ry
     estimated scf accuracy    <       0.00000153 Ry

     iteration # 44     ecut=    60.00 Ry     beta= 0.15
     Davidson diagonalization with overlap

---- Real-time Memory Report at c_bands before calling an iterative solver
             0 MiB given to the printing process from OS
             0 MiB allocation reported by mallinfo(arena+hblkhd)
          4962 MiB available memory on the node where the printing process lives
------------------
     ethr =  3.50E-10,  avg # of iterations =  2.8

     negative rho (up, down):  7.924E-01 0.000E+00

     total cpu time spent up to now is      704.5 secs

     total energy              =   -4482.97490408 Ry
     estimated scf accuracy    <       0.00000100 Ry

     iteration # 45     ecut=    60.00 Ry     beta= 0.15
     Davidson diagonalization with overlap

---- Real-time Memory Report at c_bands before calling an iterative solver
             0 MiB given to the printing process from OS
             0 MiB allocation reported by mallinfo(arena+hblkhd)
          4963 MiB available memory on the node where the printing process lives
------------------
     ethr =  2.28E-10,  avg # of iterations =  4.6

     negative rho (up, down):  7.923E-01 0.000E+00

     total cpu time spent up to now is      720.6 secs

     total energy              =   -4482.97490394 Ry
     estimated scf accuracy    <       0.00000041 Ry

     iteration # 46     ecut=    60.00 Ry     beta= 0.15
     Davidson diagonalization with overlap

---- Real-time Memory Report at c_bands before calling an iterative solver
             0 MiB given to the printing process from OS
             0 MiB allocation reported by mallinfo(arena+hblkhd)
          4961 MiB available memory on the node where the printing process lives
------------------
     ethr =  9.28E-11,  avg # of iterations =  4.5

     negative rho (up, down):  7.923E-01 0.000E+00

     total cpu time spent up to now is      737.2 secs

     total energy              =   -4482.97490394 Ry
     estimated scf accuracy    <       0.00000013 Ry

     iteration # 47     ecut=    60.00 Ry     beta= 0.15
     Davidson diagonalization with overlap

---- Real-time Memory Report at c_bands before calling an iterative solver
             0 MiB given to the printing process from OS
             0 MiB allocation reported by mallinfo(arena+hblkhd)
          4957 MiB available memory on the node where the printing process lives
------------------
     ethr =  2.96E-11,  avg # of iterations =  2.5

     negative rho (up, down):  7.923E-01 0.000E+00

     total cpu time spent up to now is      752.6 secs

     total energy              =   -4482.97490394 Ry
     estimated scf accuracy    <       0.00000007 Ry

     iteration # 48     ecut=    60.00 Ry     beta= 0.15
     Davidson diagonalization with overlap

---- Real-time Memory Report at c_bands before calling an iterative solver
             0 MiB given to the printing process from OS
             0 MiB allocation reported by mallinfo(arena+hblkhd)
          4977 MiB available memory on the node where the printing process lives
------------------
     ethr =  1.50E-11,  avg # of iterations =  2.5

     negative rho (up, down):  7.923E-01 0.000E+00

     total cpu time spent up to now is      767.8 secs

     total energy              =   -4482.97490398 Ry
     estimated scf accuracy    <       0.00000004 Ry

     iteration # 49     ecut=    60.00 Ry     beta= 0.15
     Davidson diagonalization with overlap

---- Real-time Memory Report at c_bands before calling an iterative solver
             0 MiB given to the printing process from OS
             0 MiB allocation reported by mallinfo(arena+hblkhd)
          4972 MiB available memory on the node where the printing process lives
------------------
     ethr =  8.86E-12,  avg # of iterations =  4.4

     negative rho (up, down):  7.923E-01 0.000E+00

     total cpu time spent up to now is      784.5 secs

     total energy              =   -4482.97490403 Ry
     estimated scf accuracy    <       0.00000002 Ry

     iteration # 50     ecut=    60.00 Ry     beta= 0.15
     Davidson diagonalization with overlap

---- Real-time Memory Report at c_bands before calling an iterative solver
             0 MiB given to the printing process from OS
             0 MiB allocation reported by mallinfo(arena+hblkhd)
          4944 MiB available memory on the node where the printing process lives
------------------
     ethr =  4.89E-12,  avg # of iterations =  5.1

     negative rho (up, down):  7.923E-01 0.000E+00

     total cpu time spent up to now is      800.3 secs

     total energy              =   -4482.97490405 Ry
     estimated scf accuracy    <       0.00000001 Ry

     iteration # 51     ecut=    60.00 Ry     beta= 0.15
     Davidson diagonalization with overlap

---- Real-time Memory Report at c_bands before calling an iterative solver
             0 MiB given to the printing process from OS
             0 MiB allocation reported by mallinfo(arena+hblkhd)
          4997 MiB available memory on the node where the printing process lives
------------------
     ethr =  3.17E-12,  avg # of iterations =  5.1

     negative rho (up, down):  7.923E-01 0.000E+00

     total cpu time spent up to now is      816.4 secs

     total energy              =   -4482.97490407 Ry
     estimated scf accuracy    <       0.00000001 Ry

     iteration # 52     ecut=    60.00 Ry     beta= 0.15
     Davidson diagonalization with overlap

---- Real-time Memory Report at c_bands before calling an iterative solver
             0 MiB given to the printing process from OS
             0 MiB allocation reported by mallinfo(arena+hblkhd)
          5032 MiB available memory on the node where the printing process lives
------------------
     ethr =  2.36E-12,  avg # of iterations =  5.0

     negative rho (up, down):  7.923E-01 0.000E+00

     total cpu time spent up to now is      832.0 secs

     End of self-consistent calculation

          k = 0.0000 0.0000 0.0000 ( 65197 PWs)   bands (ev):

   -92.3426 -92.2907 -92.1970 -92.1468 -92.0894 -92.0489 -92.0316 -91.9083
   -55.6957 -55.6772 -55.5547 -55.5438 -55.5359 -55.5305 -55.4945 -55.4665
   -55.4496 -55.4479 -55.4417 -55.3976 -55.3780 -55.3412 -55.3232 -55.2892
   -55.2818 -55.2379 -55.2362 -55.2347 -55.2263 -55.1826 -55.1624 -55.0745
   -30.9303 -30.9113 -30.7999 -30.7702 -30.6836 -30.6600 -30.6032 -30.4394
   -29.4943 -29.4509 -29.4248 -29.3162 -22.2569 -14.7278 -14.6898 -14.6052
   -14.4755 -14.2886 -14.1692 -13.8681 -13.8519 -13.8195 -13.7769 -13.7738
   -13.7358 -13.7211 -13.7111 -13.6942 -13.6774 -13.6395 -13.5779 -13.4289
   -13.2512 -13.2188 -13.1855 -13.1532 -13.1383 -13.0950 -13.0556 -12.9772
   -12.9043 -12.8152 -12.8003 -12.7631 -12.7511 -12.7280 -12.7100 -12.6904
   -12.6604 -12.6469 -12.6190 -12.5965 -12.5898 -12.5738 -12.5532 -12.5356
   -12.5167 -12.4857 -12.4684 -12.3822 -12.3553 -12.3440 -11.9952 -11.8507
   -11.7271 -11.6550 -11.5081 -11.4335 -11.4222 -11.4002 -11.3824 -11.3184
   -11.3011 -11.2666 -11.2377 -11.1261 -11.0455 -11.0421  -5.8491  -3.1640
    -3.1600  -2.5879  -2.3548  -2.1255  -1.9779  -1.9152  -1.7722  -1.4649
    -1.4504  -1.4302  -1.3452  -1.3293  -1.2612  -1.2456  -1.2037  -1.1586
    -0.9788  -0.7541  -0.7242  -0.5760  -0.5622  -0.5183  -0.4991  -0.4554
    -0.4407  -0.3798  -0.3530  -0.2850  -0.2736  -0.1923  -0.0666  -0.0518
    -0.0217   0.0601   0.0728   0.1048   0.1466   0.2241   0.2473   0.3174
     0.3370   0.3893   0.4724   0.5324   0.5523   0.5603   0.8164   0.8327
     1.0038   1.0725   1.1324   1.1726   1.2698   1.2829   1.2986   1.3711
     1.3998   1.4338   1.4925   1.6279   1.6784   1.7013   1.7217   1.7312
     1.7982   1.8775   1.9717   1.9892   2.0368   2.0621   2.0999   2.1235
     2.1315   2.1835   2.2405   2.2471   2.2729   2.2992   2.3752   2.5043
     2.5843   2.6339   2.6459   2.7931   2.8065   2.8587   2.8695   2.9678
     3.0091   3.0242   3.0391   3.0531   3.0656   3.0860   3.1530   3.2596
     3.2969   3.3067   3.3136   3.3804   3.3845   3.4084   3.4171   3.4244
     3.4334   3.4440   3.4564   3.4626   3.4752   3.4838   3.4910   3.5122
     3.5335   3.5387   3.5505   3.5658   3.6911   3.7441   4.4178   4.7505
     4.7985   5.1413   5.3819   5.4734   5.7384   6.2879   6.3289   6.3488
     6.6162   6.6235   6.6699   6.7186   7.0076   7.1479   7.2964   7.4413
     7.4441   7.6474   7.8380   7.9008   7.9145   7.9519   8.0457   8.1083
     8.3092   8.3731   8.3983   8.4046   8.4818   8.5402   8.6223

     occupation numbers 
     1.0000   1.0000   1.0000   1.0000   1.0000   1.0000   1.0000   1.0000
     1.0000   1.0000   1.0000   1.0000   1.0000   1.0000   1.0000   1.0000
     1.0000   1.0000   1.0000   1.0000   1.0000   1.0000   1.0000   1.0000
     1.0000   1.0000   1.0000   1.0000   1.0000   1.0000   1.0000   1.0000
     1.0000   1.0000   1.0000   1.0000   1.0000   1.0000   1.0000   1.0000
     1.0000   1.0000   1.0000   1.0000   1.0000   1.0000   1.0000   1.0000
     1.0000   1.0000   1.0000   1.0000   1.0000   1.0000   1.0000   1.0000
     1.0000   1.0000   1.0000   1.0000   1.0000   1.0000   1.0000   1.0000
     1.0000   1.0000   1.0000   1.0000   1.0000   1.0000   1.0000   1.0000
     1.0000   1.0000   1.0000   1.0000   1.0000   1.0000   1.0000   1.0000
     1.0000   1.0000   1.0000   1.0000   1.0000   1.0000   1.0000   1.0000
     1.0000   1.0000   1.0000   1.0000   1.0000   1.0000   1.0000   1.0000
     1.0000   1.0000   1.0000   1.0000   1.0000   1.0000   1.0000   1.0000
     1.0000   1.0000   1.0000   1.0000   1.0000   1.0000   1.0000   1.0000
     1.0000   1.0000   1.0000   1.0000   1.0000   1.0000   1.0000   1.0000
     1.0000   1.0000   1.0000   1.0000   1.0000   1.0000   1.0000   1.0000
     1.0000   1.0000   1.0000   1.0000   1.0000   1.0000   1.0000   1.0000
     1.0000   1.0000   1.0000   1.0000   1.0000   1.0000   1.0000   1.0000
     1.0000   1.0000   1.0000   1.0000   1.0000   1.0000   1.0000   1.0000
     1.0000   1.0000   1.0000   1.0000   1.0000   1.0000   1.0000   1.0000
     1.0000   0.9999   0.9999   0.9999   0.9998   0.9998   0.9998   0.9997
     0.9997   0.9996   0.9994   0.9989   0.9985   0.9984   0.9982   0.9981
     0.9974   0.9963   0.9945   0.9941   0.9928   0.9920   0.9907   0.9897
     0.9894   0.9870   0.9839   0.9835   0.9819   0.9801   0.9740   0.9600
     0.9487   0.9405   0.9383   0.9070   0.9036   0.8897   0.8867   0.8561
     0.8418   0.8363   0.8307   0.8254   0.8206   0.8126   0.7846   0.7356
     0.7171   0.7121   0.7086   0.6737   0.6715   0.6586   0.6538   0.6498
     0.6449   0.6390   0.6321   0.6286   0.6215   0.6166   0.6126   0.6005
     0.5882   0.5852   0.5784   0.5695   0.4956   0.4642   0.1378   0.0566
     0.0489   0.0152   0.0058   0.0039   0.0011   0.0001   0.0000   0.0000
     0.0000   0.0000   0.0000   0.0000   0.0000   0.0000   0.0000   0.0000
     0.0000   0.0000   0.0000   0.0000   0.0000   0.0000   0.0000   0.0000
     0.0000   0.0000   0.0000   0.0000   0.0000   0.0000   0.0000

          k = 0.0000 0.2500 0.0000 ( 65257 PWs)   bands (ev):

   -92.3426 -92.2907 -92.1970 -92.1468 -92.0894 -92.0490 -92.0316 -91.9083
   -55.6957 -55.6772 -55.5547 -55.5438 -55.5359 -55.5305 -55.4945 -55.4665
   -55.4496 -55.4479 -55.4417 -55.3976 -55.3780 -55.3412 -55.3232 -55.2892
   -55.2818 -55.2379 -55.2362 -55.2347 -55.2263 -55.1826 -55.1624 -55.0745
   -30.9301 -30.9111 -30.7997 -30.7704 -30.6838 -30.6603 -30.6030 -30.4396
   -29.4937 -29.4506 -29.4255 -29.3166 -22.2569 -14.6909 -14.6634 -14.5806
   -14.4460 -14.3288 -14.1577 -14.0137 -13.8340 -13.8042 -13.7827 -13.7733
   -13.7526 -13.6963 -13.6894 -13.6735 -13.6586 -13.6211 -13.4979 -13.4599
   -13.2977 -13.2780 -13.2281 -13.1913 -13.1429 -13.1097 -13.0724 -12.9964
   -12.9637 -12.9323 -12.8694 -12.8015 -12.7826 -12.7604 -12.7409 -12.6512
   -12.6270 -12.6080 -12.5875 -12.5662 -12.5566 -12.5317 -12.5164 -12.5053
   -12.4503 -12.4346 -12.4154 -12.3771 -12.2696 -12.2018 -12.0566 -11.9020
   -11.7840 -11.7213 -11.4736 -11.4303 -11.4028 -11.3742 -11.3575 -11.3104
   -11.2990 -11.2765 -11.2427 -11.1403 -11.0873 -11.0766  -5.8491  -3.1640
    -3.1601  -2.4525  -2.2305  -2.0932  -1.9103  -1.8671  -1.7031  -1.4832
    -1.3985  -1.3853  -1.3249  -1.2261  -1.2118  -1.1770  -1.1513  -1.1077
    -0.9099  -0.7805  -0.7692  -0.6921  -0.6822  -0.5778  -0.5471  -0.4917
    -0.4661  -0.4235  -0.3608  -0.3364  -0.3016  -0.2749  -0.2571  -0.2229
    -0.1511  -0.0971  -0.0268   0.0750   0.1054   0.1426   0.2527   0.2888
     0.3480   0.4018   0.4518   0.4756   0.5091   0.5645   0.8638   0.9527
     0.9860   1.0664   1.1105   1.1297   1.2580   1.2774   1.3705   1.3962
     1.4283   1.5431   1.6307   1.6554   1.6805   1.6979   1.7255   1.7872
     1.8128   1.8401   1.8885   1.9180   1.9497   2.0289   2.0627   2.0894
     2.1521   2.1993   2.2259   2.2570   2.2953   2.3163   2.4092   2.5429
     2.6121   2.6302   2.7123   2.7532   2.7909   2.7952   2.8655   2.9092
     2.9865   3.0137   3.0305   3.0643   3.0713   3.2214   3.2415   3.2742
     3.2974   3.3134   3.3228   3.3294   3.3372   3.3680   3.3698   3.3875
     3.3925   3.4029   3.4208   3.4304   3.4411   3.4632   3.4735   3.4790
     3.5145   3.5310   3.5902   3.9384   3.9733   4.2320   4.6035   4.7421
     4.9163   5.0915   5.4042   5.4998   5.8708   5.9379   6.1725   6.2963
     6.3417   6.4524   6.5239   6.7359   6.9145   7.0846   7.2776   7.5230
     7.5532   7.7176   7.7906   7.8751   7.9484   8.0190   8.0796   8.2034
     8.2719   8.4121   8.5137   8.5445   8.5920   8.6747   8.9376

     occupation numbers 
     1.0000   1.0000   1.0000   1.0000   1.0000   1.0000   1.0000   1.0000
     1.0000   1.0000   1.0000   1.0000   1.0000   1.0000   1.0000   1.0000
     1.0000   1.0000   1.0000   1.0000   1.0000   1.0000   1.0000   1.0000
     1.0000   1.0000   1.0000   1.0000   1.0000   1.0000   1.0000   1.0000
     1.0000   1.0000   1.0000   1.0000   1.0000   1.0000   1.0000   1.0000
     1.0000   1.0000   1.0000   1.0000   1.0000   1.0000   1.0000   1.0000
     1.0000   1.0000   1.0000   1.0000   1.0000   1.0000   1.0000   1.0000
     1.0000   1.0000   1.0000   1.0000   1.0000   1.0000   1.0000   1.0000
     1.0000   1.0000   1.0000   1.0000   1.0000   1.0000   1.0000   1.0000
     1.0000   1.0000   1.0000   1.0000   1.0000   1.0000   1.0000   1.0000
     1.0000   1.0000   1.0000   1.0000   1.0000   1.0000   1.0000   1.0000
     1.0000   1.0000   1.0000   1.0000   1.0000   1.0000   1.0000   1.0000
     1.0000   1.0000   1.0000   1.0000   1.0000   1.0000   1.0000   1.0000
     1.0000   1.0000   1.0000   1.0000   1.0000   1.0000   1.0000   1.0000
     1.0000   1.0000   1.0000   1.0000   1.0000   1.0000   1.0000   1.0000
     1.0000   1.0000   1.0000   1.0000   1.0000   1.0000   1.0000   1.0000
     1.0000   1.0000   1.0000   1.0000   1.0000   1.0000   1.0000   1.0000
     1.0000   1.0000   1.0000   1.0000   1.0000   1.0000   1.0000   1.0000
     1.0000   1.0000   1.0000   1.0000   1.0000   1.0000   1.0000   1.0000
     1.0000   1.0000   1.0000   1.0000   1.0000   1.0000   1.0000   1.0000
     1.0000   0.9999   0.9999   0.9999   0.9998   0.9998   0.9997   0.9997
     0.9996   0.9993   0.9988   0.9987   0.9985   0.9984   0.9982   0.9976
     0.9973   0.9969   0.9962   0.9956   0.9950   0.9930   0.9920   0.9910
     0.9885   0.9862   0.9848   0.9829   0.9804   0.9788   0.9708   0.9549
     0.9442   0.9411   0.9254   0.9164   0.9075   0.9065   0.8878   0.8749
     0.8497   0.8401   0.8339   0.8211   0.8184   0.7538   0.7443   0.7284
     0.7169   0.7087   0.7039   0.7005   0.6965   0.6804   0.6794   0.6699
     0.6673   0.6616   0.6518   0.6465   0.6406   0.6283   0.6225   0.6194
     0.5992   0.5896   0.5552   0.3526   0.3335   0.2077   0.0860   0.0580
     0.0336   0.0183   0.0053   0.0035   0.0006   0.0004   0.0001   0.0001
     0.0000   0.0000   0.0000   0.0000   0.0000   0.0000   0.0000   0.0000
     0.0000   0.0000   0.0000   0.0000   0.0000   0.0000   0.0000   0.0000
     0.0000   0.0000   0.0000   0.0000   0.0000   0.0000   0.0000

          k = 0.0000-0.5000 0.0000 ( 65180 PWs)   bands (ev):

   -92.3426 -92.2907 -92.1970 -92.1468 -92.0894 -92.0489 -92.0316 -91.9083
   -55.6957 -55.6772 -55.5547 -55.5438 -55.5359 -55.5305 -55.4945 -55.4665
   -55.4496 -55.4479 -55.4417 -55.3976 -55.3780 -55.3412 -55.3232 -55.2892
   -55.2818 -55.2379 -55.2362 -55.2347 -55.2263 -55.1826 -55.1624 -55.0745
   -30.9299 -30.9110 -30.7995 -30.7706 -30.6839 -30.6605 -30.6028 -30.4398
   -29.4930 -29.4503 -29.4261 -29.3169 -22.2569 -14.6576 -14.6095 -14.5570
   -14.4339 -14.3433 -14.2084 -14.0573 -13.9406 -13.8042 -13.7735 -13.7432
   -13.6969 -13.6852 -13.6391 -13.6207 -13.5728 -13.5502 -13.5296 -13.4949
   -13.4705 -13.4288 -13.2310 -13.1723 -13.1489 -13.1049 -13.0816 -13.0096
   -12.9991 -12.9528 -12.9371 -12.8720 -12.7790 -12.7603 -12.7349 -12.6787
   -12.6226 -12.6103 -12.5823 -12.5625 -12.5354 -12.5260 -12.5022 -12.4173
   -12.4028 -12.3798 -12.3575 -12.3043 -12.1677 -12.1285 -11.9945 -11.9774
   -11.8881 -11.8447 -11.4273 -11.4252 -11.3980 -11.3596 -11.3256 -11.3147
   -11.2724 -11.2685 -11.2245 -11.1616 -11.1479 -11.1336  -5.8490  -3.1640
    -3.1603  -2.2371  -2.1792  -2.0271  -1.9548  -1.6722  -1.5914  -1.4620
    -1.3250  -1.2830  -1.2685  -1.1900  -1.1597  -1.0770  -1.0424  -0.9647
    -0.9246  -0.8855  -0.8588  -0.8014  -0.7649  -0.7188  -0.6823  -0.6484
    -0.6160  -0.5040  -0.4594  -0.4264  -0.4228  -0.3381  -0.3062  -0.2849
    -0.2394  -0.1483  -0.0845   0.0040   0.0450   0.1305   0.1669   0.3237
     0.3647   0.3861   0.4254   0.5357   0.6040   0.7460   0.8119   0.8202
     0.9482   0.9930   1.0717   1.2258   1.3290   1.3621   1.4002   1.4078
     1.4391   1.4626   1.4982   1.5124   1.5277   1.6342   1.6932   1.7269
     1.7508   2.0166   2.0401   2.0551   2.1370   2.1725   2.2087   2.2214
     2.2591   2.2672   2.2724   2.3030   2.3545   2.3759   2.4015   2.4199
     2.4469   2.5013   2.5855   2.6126   2.7816   2.9565   2.9671   2.9794
     3.0076   3.0201   3.0337   3.0538   3.0627   3.0885   3.1005   3.1546
     3.1741   3.2508   3.2691   3.3363   3.3375   3.3671   3.3682   3.3848
     3.3877   3.3921   3.3988   3.4008   3.4129   3.4337   3.4340   3.5001
     3.5045   3.5205   3.5751   4.4649   4.4694   4.5198   4.5913   5.0395
     5.0813   5.2427   5.2798   5.5572   5.7040   5.8338   5.8727   6.0647
     6.2415   6.3798   6.3945   6.4197   7.0319   7.0885   7.1073   7.4368
     7.5808   7.7253   7.7480   7.9108   8.0648   8.1006   8.2053   8.3483
     8.4564   8.6042   8.7025   8.7351   8.7416   8.8515   8.9645

     occupation numbers 
     1.0000   1.0000   1.0000   1.0000   1.0000   1.0000   1.0000   1.0000
     1.0000   1.0000   1.0000   1.0000   1.0000   1.0000   1.0000   1.0000
     1.0000   1.0000   1.0000   1.0000   1.0000   1.0000   1.0000   1.0000
     1.0000   1.0000   1.0000   1.0000   1.0000   1.0000   1.0000   1.0000
     1.0000   1.0000   1.0000   1.0000   1.0000   1.0000   1.0000   1.0000
     1.0000   1.0000   1.0000   1.0000   1.0000   1.0000   1.0000   1.0000
     1.0000   1.0000   1.0000   1.0000   1.0000   1.0000   1.0000   1.0000
     1.0000   1.0000   1.0000   1.0000   1.0000   1.0000   1.0000   1.0000
     1.0000   1.0000   1.0000   1.0000   1.0000   1.0000   1.0000   1.0000
     1.0000   1.0000   1.0000   1.0000   1.0000   1.0000   1.0000   1.0000
     1.0000   1.0000   1.0000   1.0000   1.0000   1.0000   1.0000   1.0000
     1.0000   1.0000   1.0000   1.0000   1.0000   1.0000   1.0000   1.0000
     1.0000   1.0000   1.0000   1.0000   1.0000   1.0000   1.0000   1.0000
     1.0000   1.0000   1.0000   1.0000   1.0000   1.0000   1.0000   1.0000
     1.0000   1.0000   1.0000   1.0000   1.0000   1.0000   1.0000   1.0000
     1.0000   1.0000   1.0000   1.0000   1.0000   1.0000   1.0000   1.0000
     1.0000   1.0000   1.0000   1.0000   1.0000   1.0000   1.0000   1.0000
     1.0000   1.0000   1.0000   1.0000   1.0000   1.0000   1.0000   1.0000
     1.0000   1.0000   1.0000   1.0000   1.0000   1.0000   1.0000   1.0000
     1.0000   1.0000   1.0000   1.0000   1.0000   1.0000   1.0000   1.0000
     1.0000   1.0000   0.9999   0.9999   0.9998   0.9997   0.9997   0.9996
     0.9996   0.9995   0.9994   0.9994   0.9993   0.9988   0.9984   0.9982
     0.9979   0.9933   0.9927   0.9922   0.9892   0.9876   0.9857   0.9850
     0.9828   0.9823   0.9819   0.9798   0.9758   0.9739   0.9715   0.9697
     0.9669   0.9604   0.9485   0.9441   0.9098   0.8599   0.8563   0.8521
     0.8423   0.8378   0.8328   0.8251   0.8217   0.8116   0.8067   0.7839
     0.7754   0.7398   0.7309   0.6970   0.6964   0.6808   0.6803   0.6714
     0.6698   0.6675   0.6638   0.6627   0.6562   0.6447   0.6446   0.6074
     0.6049   0.5957   0.5640   0.1230   0.1216   0.1072   0.0889   0.0220
     0.0190   0.0103   0.0089   0.0027   0.0014   0.0007   0.0006   0.0002
     0.0001   0.0000   0.0000   0.0000   0.0000   0.0000   0.0000   0.0000
     0.0000   0.0000   0.0000   0.0000   0.0000   0.0000   0.0000   0.0000
     0.0000   0.0000   0.0000   0.0000   0.0000   0.0000   0.0000

          k = 0.2500 0.2500 0.0000 ( 65198 PWs)   bands (ev):

   -92.3426 -92.2907 -92.1970 -92.1468 -92.0894 -92.0489 -92.0316 -91.9083
   -55.6957 -55.6772 -55.5547 -55.5438 -55.5359 -55.5305 -55.4945 -55.4665
   -55.4496 -55.4479 -55.4417 -55.3976 -55.3780 -55.3412 -55.3232 -55.2892
   -55.2818 -55.2379 -55.2362 -55.2347 -55.2263 -55.1826 -55.1624 -55.0745
   -30.9283 -30.9129 -30.7996 -30.7701 -30.6842 -30.6601 -30.6032 -30.4397
   -29.4927 -29.4516 -29.4251 -29.3170 -22.2569 -14.6627 -14.6277 -14.5527
   -14.4359 -14.3200 -14.1976 -14.1189 -13.9185 -13.7739 -13.7570 -13.7470
   -13.7118 -13.6820 -13.6593 -13.6325 -13.6054 -13.5812 -13.4899 -13.4741
   -13.3140 -13.3005 -13.2682 -13.2505 -13.1970 -13.1615 -13.1183 -13.0783
   -12.9953 -12.9586 -12.8835 -12.7970 -12.7590 -12.7378 -12.6990 -12.6730
   -12.6422 -12.6138 -12.6003 -12.5798 -12.5547 -12.5221 -12.5005 -12.4644
   -12.4009 -12.3937 -12.3748 -12.3657 -12.2110 -12.1051 -12.0925 -11.9313
   -11.8152 -11.7705 -11.4458 -11.4139 -11.4032 -11.3959 -11.3336 -11.2984
   -11.2919 -11.2567 -11.2489 -11.1568 -11.1156 -11.0980  -5.8490  -3.1642
    -3.1601  -2.3144  -2.1048  -1.9877  -1.8922  -1.7716  -1.7064  -1.5082
    -1.3637  -1.3435  -1.3124  -1.2204  -1.1869  -1.0943  -1.0670  -1.0169
    -0.8852  -0.8376  -0.7640  -0.7196  -0.6744  -0.6508  -0.6259  -0.5846
    -0.5685  -0.4787  -0.4294  -0.3633  -0.3165  -0.2882  -0.2350  -0.2253
    -0.1610  -0.1086  -0.0480  -0.0188   0.0699   0.1172   0.1485   0.1873
     0.2414   0.3023   0.3512   0.3751   0.4376   0.4779   0.7587   0.9074
     0.9431   0.9939   1.0352   1.0821   1.1373   1.2057   1.2455   1.5202
     1.5904   1.6649   1.6904   1.7366   1.7693   1.8058   1.8424   1.8599
     1.8888   1.9262   1.9391   1.9560   1.9986   2.0342   2.0765   2.1193
     2.1535   2.1746   2.1954   2.2383   2.2866   2.3165   2.4493   2.5201
     2.5609   2.5894   2.6473   2.7115   2.7454   2.7840   2.8047   2.8171
     2.9302   2.9668   3.0361   3.0484   3.0786   3.2316   3.2503   3.2552
     3.2709   3.2853   3.2988   3.3107   3.3179   3.3288   3.3426   3.3552
     3.3732   3.3792   3.3905   3.4122   3.4249   3.4347   3.4651   3.7671
     3.8565   3.8986   3.9576   3.9675   4.2059   4.3085   4.6374   4.7974
     4.9876   5.1443   5.3223   5.5407   5.9080   6.0116   6.0338   6.1394
     6.1956   6.2386   6.3428   6.4187   6.9489   7.0272   7.1005   7.1994
     7.7274   7.8058   7.8392   7.8749   8.0190   8.1324   8.2472   8.3101
     8.3765   8.4571   8.5271   8.6866   8.7186   8.7778   8.8599

     occupation numbers 
     1.0000   1.0000   1.0000   1.0000   1.0000   1.0000   1.0000   1.0000
     1.0000   1.0000   1.0000   1.0000   1.0000   1.0000   1.0000   1.0000
     1.0000   1.0000   1.0000   1.0000   1.0000   1.0000   1.0000   1.0000
     1.0000   1.0000   1.0000   1.0000   1.0000   1.0000   1.0000   1.0000
     1.0000   1.0000   1.0000   1.0000   1.0000   1.0000   1.0000   1.0000
     1.0000   1.0000   1.0000   1.0000   1.0000   1.0000   1.0000   1.0000
     1.0000   1.0000   1.0000   1.0000   1.0000   1.0000   1.0000   1.0000
     1.0000   1.0000   1.0000   1.0000   1.0000   1.0000   1.0000   1.0000
     1.0000   1.0000   1.0000   1.0000   1.0000   1.0000   1.0000   1.0000
     1.0000   1.0000   1.0000   1.0000   1.0000   1.0000   1.0000   1.0000
     1.0000   1.0000   1.0000   1.0000   1.0000   1.0000   1.0000   1.0000
     1.0000   1.0000   1.0000   1.0000   1.0000   1.0000   1.0000   1.0000
     1.0000   1.0000   1.0000   1.0000   1.0000   1.0000   1.0000   1.0000
     1.0000   1.0000   1.0000   1.0000   1.0000   1.0000   1.0000   1.0000
     1.0000   1.0000   1.0000   1.0000   1.0000   1.0000   1.0000   1.0000
     1.0000   1.0000   1.0000   1.0000   1.0000   1.0000   1.0000   1.0000
     1.0000   1.0000   1.0000   1.0000   1.0000   1.0000   1.0000   1.0000
     1.0000   1.0000   1.0000   1.0000   1.0000   1.0000   1.0000   1.0000
     1.0000   1.0000   1.0000   1.0000   1.0000   1.0000   1.0000   1.0000
     1.0000   1.0000   1.0000   1.0000   1.0000   1.0000   1.0000   1.0000
     1.0000   1.0000   1.0000   0.9999   0.9999   0.9999   0.9999   0.9993
     0.9991   0.9986   0.9985   0.9981   0.9978   0.9974   0.9969   0.9966
     0.9962   0.9955   0.9952   0.9948   0.9938   0.9928   0.9915   0.9899
     0.9885   0.9875   0.9864   0.9841   0.9810   0.9788   0.9666   0.9580
     0.9523   0.9479   0.9381   0.9256   0.9182   0.9092   0.9041   0.9009
     0.8684   0.8564   0.8318   0.8272   0.8155   0.7489   0.7400   0.7377
     0.7300   0.7229   0.7162   0.7102   0.7065   0.7009   0.6937   0.6871
     0.6776   0.6744   0.6683   0.6566   0.6496   0.6442   0.6272   0.4507
     0.3987   0.3748   0.3421   0.3367   0.2190   0.1767   0.0783   0.0491
     0.0264   0.0150   0.0075   0.0029   0.0005   0.0003   0.0002   0.0001
     0.0001   0.0001   0.0000   0.0000   0.0000   0.0000   0.0000   0.0000
     0.0000   0.0000   0.0000   0.0000   0.0000   0.0000   0.0000   0.0000
     0.0000   0.0000   0.0000   0.0000   0.0000   0.0000   0.0000

          k = 0.2500-0.5000 0.0000 ( 65138 PWs)   bands (ev):

   -92.3426 -92.2907 -92.1970 -92.1468 -92.0894 -92.0489 -92.0316 -91.9083
   -55.6957 -55.6772 -55.5547 -55.5438 -55.5359 -55.5305 -55.4945 -55.4665
   -55.4496 -55.4479 -55.4417 -55.3976 -55.3780 -55.3412 -55.3232 -55.2892
   -55.2818 -55.2379 -55.2362 -55.2347 -55.2263 -55.1826 -55.1624 -55.0745
   -30.9282 -30.9128 -30.7993 -30.7703 -30.6843 -30.6603 -30.6030 -30.4399
   -29.4921 -29.4512 -29.4257 -29.3173 -22.2569 -14.6271 -14.5826 -14.5139
   -14.4031 -14.3673 -14.2483 -14.1604 -14.0356 -13.7737 -13.7213 -13.6738
   -13.6443 -13.6233 -13.6077 -13.5918 -13.5571 -13.5380 -13.5105 -13.4702
   -13.4539 -13.4186 -13.3144 -13.2668 -13.2144 -13.1874 -13.1387 -13.1182
   -13.0502 -13.0159 -12.8596 -12.7956 -12.7791 -12.7203 -12.6825 -12.6508
   -12.6381 -12.6163 -12.5963 -12.5664 -12.5634 -12.5147 -12.5064 -12.4453
   -12.4240 -12.3853 -12.3081 -12.2766 -12.1744 -12.1013 -11.9751 -11.9628
   -11.8798 -11.8514 -11.4212 -11.4093 -11.3983 -11.3710 -11.3397 -11.3111
   -11.2704 -11.2423 -11.2204 -11.1748 -11.1489 -11.1378  -5.8490  -3.1642
    -3.1603  -2.0953  -2.0316  -1.9011  -1.8238  -1.6931  -1.6114  -1.4866
    -1.3360  -1.2798  -1.2596  -1.1985  -1.1849  -1.0877  -1.0215  -0.9357
    -0.8868  -0.8779  -0.8134  -0.7719  -0.7373  -0.6896  -0.6528  -0.6181
    -0.5779  -0.5662  -0.5218  -0.4936  -0.4503  -0.4213  -0.3528  -0.2494
    -0.2167  -0.1353  -0.0703  -0.0193   0.0219   0.0400   0.0962   0.2512
     0.2577   0.3760   0.3986   0.4105   0.4562   0.4857   0.5193   0.5551
     0.6289   0.8964   0.9847   1.0371   1.0995   1.3815   1.3972   1.4917
     1.5183   1.6881   1.7223   1.7616   1.7873   1.8029   1.8240   1.8854
     1.9343   1.9680   2.0371   2.1256   2.1595   2.1814   2.2005   2.2289
     2.2484   2.2543   2.2941   2.3102   2.3302   2.3590   2.3786   2.4109
     2.4387   2.4994   2.5411   2.6167   2.7530   2.9097   2.9248   2.9428
     2.9684   2.9951   3.0190   3.0412   3.0473   3.0563   3.0607   3.0844
     3.1803   3.2307   3.2503   3.2573   3.2681   3.2886   3.3024   3.3212
     3.3286   3.3652   3.3740   3.3873   3.3946   3.4034   3.4147   3.9203
     3.9437   4.0983   4.1480   4.4669   4.5243   4.5310   4.6562   5.0887
     5.1244   5.2909   5.3131   5.5143   5.6374   5.7676   5.8400   5.9442
     6.0641   6.1595   6.3526   6.5054   6.5585   6.6424   7.2015   7.2742
     7.4793   7.6398   7.9613   8.0659   8.1771   8.1984   8.3381   8.4771
     8.5511   8.6117   8.6425   8.7992   8.8480   8.8915   8.9334

     occupation numbers 
     1.0000   1.0000   1.0000   1.0000   1.0000   1.0000   1.0000   1.0000
     1.0000   1.0000   1.0000   1.0000   1.0000   1.0000   1.0000   1.0000
     1.0000   1.0000   1.0000   1.0000   1.0000   1.0000   1.0000   1.0000
     1.0000   1.0000   1.0000   1.0000   1.0000   1.0000   1.0000   1.0000
     1.0000   1.0000   1.0000   1.0000   1.0000   1.0000   1.0000   1.0000
     1.0000   1.0000   1.0000   1.0000   1.0000   1.0000   1.0000   1.0000
     1.0000   1.0000   1.0000   1.0000   1.0000   1.0000   1.0000   1.0000
     1.0000   1.0000   1.0000   1.0000   1.0000   1.0000   1.0000   1.0000
     1.0000   1.0000   1.0000   1.0000   1.0000   1.0000   1.0000   1.0000
     1.0000   1.0000   1.0000   1.0000   1.0000   1.0000   1.0000   1.0000
     1.0000   1.0000   1.0000   1.0000   1.0000   1.0000   1.0000   1.0000
     1.0000   1.0000   1.0000   1.0000   1.0000   1.0000   1.0000   1.0000
     1.0000   1.0000   1.0000   1.0000   1.0000   1.0000   1.0000   1.0000
     1.0000   1.0000   1.0000   1.0000   1.0000   1.0000   1.0000   1.0000
     1.0000   1.0000   1.0000   1.0000   1.0000   1.0000   1.0000   1.0000
     1.0000   1.0000   1.0000   1.0000   1.0000   1.0000   1.0000   1.0000
     1.0000   1.0000   1.0000   1.0000   1.0000   1.0000   1.0000   1.0000
     1.0000   1.0000   1.0000   1.0000   1.0000   1.0000   1.0000   1.0000
     1.0000   1.0000   1.0000   1.0000   1.0000   1.0000   1.0000   1.0000
     1.0000   1.0000   1.0000   1.0000   1.0000   1.0000   1.0000   1.0000
     1.0000   1.0000   1.0000   1.0000   0.9999   0.9997   0.9997   0.9994
     0.9993   0.9985   0.9982   0.9978   0.9976   0.9974   0.9971   0.9962
     0.9953   0.9946   0.9928   0.9897   0.9882   0.9871   0.9862   0.9846
     0.9835   0.9831   0.9805   0.9793   0.9778   0.9754   0.9737   0.9706
     0.9677   0.9607   0.9551   0.9434   0.9165   0.8748   0.8701   0.8643
     0.8559   0.8467   0.8382   0.8299   0.8277   0.8242   0.8225   0.8132
     0.7726   0.7494   0.7400   0.7366   0.7314   0.7213   0.7143   0.7048
     0.7010   0.6818   0.6771   0.6700   0.6661   0.6613   0.6552   0.3626
     0.3497   0.2690   0.2452   0.1224   0.1059   0.1041   0.0743   0.0185
     0.0162   0.0085   0.0078   0.0033   0.0019   0.0010   0.0007   0.0004
     0.0002   0.0001   0.0000   0.0000   0.0000   0.0000   0.0000   0.0000
     0.0000   0.0000   0.0000   0.0000   0.0000   0.0000   0.0000   0.0000
     0.0000   0.0000   0.0000   0.0000   0.0000   0.0000   0.0000

          k =-0.5000-0.5000 0.0000 ( 65132 PWs)   bands (ev):

   -92.3426 -92.2907 -92.1970 -92.1468 -92.0894 -92.0489 -92.0316 -91.9083
   -55.6957 -55.6772 -55.5547 -55.5438 -55.5359 -55.5305 -55.4945 -55.4665
   -55.4496 -55.4479 -55.4417 -55.3976 -55.3780 -55.3412 -55.3232 -55.2892
   -55.2818 -55.2379 -55.2362 -55.2347 -55.2263 -55.1826 -55.1624 -55.0745
   -30.9259 -30.9150 -30.7992 -30.7699 -30.6847 -30.6602 -30.6031 -30.4401
   -29.4910 -29.4523 -29.4253 -29.3177 -22.2569 -14.5808 -14.5549 -14.4388
   -14.4261 -14.3334 -14.2952 -14.2662 -14.1337 -13.7736 -13.6332 -13.6245
   -13.5871 -13.5697 -13.5507 -13.5339 -13.5077 -13.4997 -13.4838 -13.4785
   -13.4627 -13.3834 -13.3779 -13.3505 -13.3151 -13.3093 -13.2162 -13.2079
   -13.0991 -13.0674 -12.8114 -12.7756 -12.7030 -12.6878 -12.6777 -12.6457
   -12.6374 -12.6282 -12.6095 -12.5878 -12.5446 -12.5179 -12.5046 -12.4798
   -12.4400 -12.3987 -12.2579 -12.2502 -12.1908 -12.0767 -11.9716 -11.9275
   -11.8730 -11.8618 -11.4175 -11.4054 -11.3877 -11.3708 -11.3363 -11.3185
   -11.2834 -11.2226 -11.2025 -11.1971 -11.1467 -11.1436  -5.8490  -3.1644
    -3.1603  -1.8703  -1.7960  -1.7887  -1.7148  -1.6751  -1.5969  -1.5291
    -1.4026  -1.2859  -1.2570  -1.2141  -1.1602  -1.0884  -1.0742  -1.0031
    -0.9606  -0.8444  -0.8159  -0.7674  -0.7364  -0.6724  -0.6284  -0.6098
    -0.5986  -0.5438  -0.4974  -0.4836  -0.3707  -0.3139  -0.2669  -0.2186
    -0.1925  -0.1754  -0.1441  -0.1072  -0.0665  -0.0577   0.0289   0.0941
     0.1440   0.1648   0.2410   0.2932   0.2984   0.3607   0.3932   0.3988
     0.4125   0.8659   0.9016   0.9826   1.0003   1.4078   1.4217   1.4583
     1.4968   1.7716   1.7891   1.7968   1.8390   1.9696   2.0645   2.0908
     2.1261   2.1404   2.1605   2.1739   2.2059   2.2113   2.2214   2.2329
     2.2952   2.3014   2.3233   2.3265   2.3525   2.3658   2.4088   2.4336
     2.4499   2.4835   2.5088   2.5843   2.6514   2.9216   2.9544   2.9735
     2.9921   2.9981   3.0247   3.0331   3.0473   3.0491   3.0551   3.0675
     3.0840   3.1071   3.1176   3.1820   3.1861   3.2068   3.2200   3.2347
     3.2562   3.2579   3.2652   3.3711   3.3763   3.3979   3.4097   4.3439
     4.3784   4.3823   4.4138   4.6749   4.7451   4.7752   5.0140   5.1369
     5.2195   5.2273   5.3382   5.3922   5.4095   5.5619   5.5641   5.8202
[...]
     0.0000   0.0000   0.0000   0.0000   0.0000   0.0000   0.0000   0.0000
     0.0000   0.0000   0.0000   0.0000   0.0000   0.0000   0.0000

          k =-0.5000 0.0000 0.0000 ( 65180 PWs)   bands (ev):

   -92.3426 -92.2907 -92.1970 -92.1468 -92.0894 -92.0489 -92.0316 -91.9083
   -55.6957 -55.6772 -55.5547 -55.5438 -55.5359 -55.5305 -55.4945 -55.4665
   -55.4496 -55.4479 -55.4417 -55.3976 -55.3780 -55.3412 -55.3232 -55.2892
   -55.2818 -55.2379 -55.2362 -55.2347 -55.2263 -55.1826 -55.1624 -55.0745
   -30.9263 -30.9153 -30.7996 -30.7695 -30.6844 -30.6598 -30.6035 -30.4397
   -29.4923 -29.4529 -29.4240 -29.3171 -22.2569 -14.6623 -14.6120 -14.5512
   -14.4442 -14.3375 -14.1931 -14.0549 -13.9118 -13.7820 -13.7758 -13.7726
   -13.7546 -13.7053 -13.6437 -13.6101 -13.5612 -13.5549 -13.5403 -13.4882
   -13.4780 -13.3865 -13.2028 -13.1716 -13.1428 -13.1344 -13.0971 -13.0142
   -13.0005 -12.9220 -12.9078 -12.8987 -12.7746 -12.7069 -12.6969 -12.6810
   -12.6731 -12.6627 -12.5991 -12.5824 -12.5740 -12.5489 -12.4938 -12.3902
   -12.3839 -12.3708 -12.2926 -12.2836 -12.1938 -12.1467 -12.0138 -11.9813
   -11.8790 -11.8405 -11.4245 -11.4035 -11.3965 -11.3817 -11.3638 -11.3227
   -11.2592 -11.2417 -11.2094 -11.1642 -11.1550 -11.1390  -5.8490  -3.1644
    -3.1599  -2.2278  -2.1890  -2.0245  -1.9857  -1.6727  -1.5957  -1.4494
    -1.3313  -1.2911  -1.2448  -1.1979  -1.1726  -1.0513  -1.0060  -0.9916
    -0.9085  -0.8735  -0.8594  -0.8261  -0.7699  -0.7007  -0.6710  -0.6425
    -0.5507  -0.5008  -0.4516  -0.4200  -0.3988  -0.3674  -0.3202  -0.2963
    -0.2596  -0.1557  -0.0940  -0.0193   0.0405   0.1849   0.2326   0.2958
     0.3345   0.3760   0.4072   0.5324   0.5714   0.6107   0.7938   0.8923
     0.9382   1.0133   1.0656   1.2054   1.2172   1.3475   1.3810   1.4356
     1.4629   1.4975   1.5113   1.5588   1.5833   1.6468   1.6942   1.7409
     1.7528   2.0397   2.0507   2.0583   2.0912   2.2026   2.2115   2.2176
     2.2323   2.2672   2.2785   2.3109   2.3425   2.3618   2.4315   2.4349
     2.4944   2.5052   2.5728   2.6730   2.7683   2.8531   2.8686   2.9485
     2.9827   3.0094   3.0362   3.0459   3.0819   3.0894   3.0995   3.1269
     3.1900   3.2346   3.2882   3.3075   3.3551   3.3596   3.3609   3.3722
     3.3870   3.3997   3.4131   3.4169   3.4368   3.4427   3.4646   3.4853
     3.4896   3.6154   3.6226   4.4052   4.4670   4.5286   4.6368   5.0258
     5.1399   5.1919   5.3113   5.4593   5.7200   5.8760   5.9422   5.9841
     6.2646   6.3772   6.3847   6.4121   6.9775   7.1130   7.1460   7.4748
     7.5191   7.7042   7.7431   7.9959   8.0846   8.1075   8.1853   8.3035
     8.4344   8.6033   8.7107   8.7461   8.7579   8.8581   8.9190

     occupation numbers 
     1.0000   1.0000   1.0000   1.0000   1.0000   1.0000   1.0000   1.0000
     1.0000   1.0000   1.0000   1.0000   1.0000   1.0000   1.0000   1.0000
     1.0000   1.0000   1.0000   1.0000   1.0000   1.0000   1.0000   1.0000
     1.0000   1.0000   1.0000   1.0000   1.0000   1.0000   1.0000   1.0000
     1.0000   1.0000   1.0000   1.0000   1.0000   1.0000   1.0000   1.0000
     1.0000   1.0000   1.0000   1.0000   1.0000   1.0000   1.0000   1.0000
     1.0000   1.0000   1.0000   1.0000   1.0000   1.0000   1.0000   1.0000
     1.0000   1.0000   1.0000   1.0000   1.0000   1.0000   1.0000   1.0000
     1.0000   1.0000   1.0000   1.0000   1.0000   1.0000   1.0000   1.0000
     1.0000   1.0000   1.0000   1.0000   1.0000   1.0000   1.0000   1.0000
     1.0000   1.0000   1.0000   1.0000   1.0000   1.0000   1.0000   1.0000
     1.0000   1.0000   1.0000   1.0000   1.0000   1.0000   1.0000   1.0000
     1.0000   1.0000   1.0000   1.0000   1.0000   1.0000   1.0000   1.0000
     1.0000   1.0000   1.0000   1.0000   1.0000   1.0000   1.0000   1.0000
     1.0000   1.0000   1.0000   1.0000   1.0000   1.0000   1.0000   1.0000
     1.0000   1.0000   1.0000   1.0000   1.0000   1.0000   1.0000   1.0000
     1.0000   1.0000   1.0000   1.0000   1.0000   1.0000   1.0000   1.0000
     1.0000   1.0000   1.0000   1.0000   1.0000   1.0000   1.0000   1.0000
     1.0000   1.0000   1.0000   1.0000   1.0000   1.0000   1.0000   1.0000
     1.0000   1.0000   1.0000   1.0000   1.0000   1.0000   1.0000   1.0000
     1.0000   1.0000   0.9999   0.9999   0.9999   0.9997   0.9997   0.9996
     0.9995   0.9994   0.9994   0.9992   0.9991   0.9988   0.9984   0.9980
     0.9979   0.9927   0.9923   0.9921   0.9910   0.9861   0.9856   0.9853
     0.9844   0.9823   0.9815   0.9792   0.9768   0.9752   0.9685   0.9681
     0.9613   0.9599   0.9505   0.9333   0.9130   0.8912   0.8869   0.8625
     0.8510   0.8416   0.8318   0.8282   0.8142   0.8112   0.8071   0.7958
     0.7682   0.7475   0.7215   0.7118   0.6872   0.6848   0.6841   0.6781
     0.6702   0.6633   0.6560   0.6539   0.6430   0.6397   0.6275   0.6158
     0.6133   0.5404   0.5361   0.1420   0.1224   0.1048   0.0785   0.0231
     0.0153   0.0126   0.0078   0.0042   0.0012   0.0006   0.0004   0.0003
     0.0001   0.0000   0.0000   0.0000   0.0000   0.0000   0.0000   0.0000
     0.0000   0.0000   0.0000   0.0000   0.0000   0.0000   0.0000   0.0000
     0.0000   0.0000   0.0000   0.0000   0.0000   0.0000   0.0000

          k =-0.2500 0.2500 0.0000 ( 65198 PWs)   bands (ev):

   -92.3426 -92.2907 -92.1970 -92.1468 -92.0894 -92.0489 -92.0316 -91.9083
   -55.6957 -55.6772 -55.5547 -55.5438 -55.5359 -55.5305 -55.4945 -55.4665
   -55.4496 -55.4479 -55.4417 -55.3976 -55.3780 -55.3412 -55.3232 -55.2892
   -55.2818 -55.2379 -55.2362 -55.2347 -55.2263 -55.1826 -55.1624 -55.0745
   -30.9283 -30.9129 -30.7996 -30.7701 -30.6842 -30.6601 -30.6032 -30.4397
   -29.4927 -29.4515 -29.4251 -29.3170 -22.2569 -14.6641 -14.6266 -14.5514
   -14.4338 -14.3264 -14.2026 -14.1106 -13.9095 -13.7742 -13.7649 -13.7358
   -13.7247 -13.6771 -13.6524 -13.6337 -13.6212 -13.5843 -13.4862 -13.4746
   -13.3235 -13.2956 -13.2664 -13.2463 -13.1994 -13.1474 -13.1093 -13.0881
   -13.0029 -12.9598 -12.8769 -12.8005 -12.7612 -12.7287 -12.6933 -12.6631
   -12.6427 -12.6112 -12.6039 -12.5830 -12.5784 -12.5239 -12.5090 -12.4612
   -12.4233 -12.3845 -12.3782 -12.3442 -12.1862 -12.1152 -12.0948 -11.9370
   -11.8190 -11.7656 -11.4450 -11.4233 -11.3962 -11.3838 -11.3433 -11.3081
   -11.2854 -11.2636 -11.2412 -11.1566 -11.1108 -11.1014  -5.8491  -3.1642
    -3.1601  -2.3127  -2.1037  -1.9834  -1.8940  -1.7760  -1.7090  -1.5057
    -1.3605  -1.3411  -1.3104  -1.2210  -1.1858  -1.0941  -1.0603  -1.0343
    -0.8908  -0.8359  -0.7669  -0.7388  -0.6782  -0.6570  -0.6160  -0.5872
    -0.5472  -0.4853  -0.4383  -0.3741  -0.3082  -0.2849  -0.2314  -0.2033
    -0.1582  -0.0983  -0.0506  -0.0138   0.0875   0.1183   0.1291   0.1771
     0.2378   0.3018   0.3498   0.3828   0.4409   0.4764   0.7396   0.9095
     0.9510   0.9869   1.0405   1.0797   1.1415   1.2115   1.2434   1.5274
     1.6418   1.6804   1.7152   1.7204   1.7623   1.7798   1.8243   1.8556
     1.8708   1.8974   1.9375   1.9513   1.9956   2.0152   2.0583   2.1281
     2.1479   2.1732   2.1985   2.2366   2.2735   2.3167   2.4374   2.5528
     2.5858   2.6278   2.6490   2.7103   2.7572   2.7853   2.8060   2.8286
     2.9310   2.9654   3.0376   3.0477   3.0776   3.2397   3.2464   3.2610
     3.2702   3.2812   3.2944   3.3020   3.3194   3.3281   3.3427   3.3529
     3.3649   3.3744   3.3809   3.4139   3.4246   3.4338   3.4670   3.7602
     3.8401   3.9008   3.9545   3.9834   4.1900   4.3169   4.6365   4.7972
     4.9840   5.1473   5.3319   5.5400   5.9116   6.0100   6.0327   6.1435
     6.1921   6.2388   6.3501   6.4078   6.9720   7.0289   7.0755   7.1937
     7.7381   7.8286   7.8355   7.8719   7.9761   8.1693   8.2346   8.2869
     8.4075   8.4453   8.5551   8.6826   8.7140   8.7578   8.8570

     occupation numbers 
     1.0000   1.0000   1.0000   1.0000   1.0000   1.0000   1.0000   1.0000
     1.0000   1.0000   1.0000   1.0000   1.0000   1.0000   1.0000   1.0000
     1.0000   1.0000   1.0000   1.0000   1.0000   1.0000   1.0000   1.0000
     1.0000   1.0000   1.0000   1.0000   1.0000   1.0000   1.0000   1.0000
     1.0000   1.0000   1.0000   1.0000   1.0000   1.0000   1.0000   1.0000
     1.0000   1.0000   1.0000   1.0000   1.0000   1.0000   1.0000   1.0000
     1.0000   1.0000   1.0000   1.0000   1.0000   1.0000   1.0000   1.0000
     1.0000   1.0000   1.0000   1.0000   1.0000   1.0000   1.0000   1.0000
     1.0000   1.0000   1.0000   1.0000   1.0000   1.0000   1.0000   1.0000
     1.0000   1.0000   1.0000   1.0000   1.0000   1.0000   1.0000   1.0000
     1.0000   1.0000   1.0000   1.0000   1.0000   1.0000   1.0000   1.0000
     1.0000   1.0000   1.0000   1.0000   1.0000   1.0000   1.0000   1.0000
     1.0000   1.0000   1.0000   1.0000   1.0000   1.0000   1.0000   1.0000
     1.0000   1.0000   1.0000   1.0000   1.0000   1.0000   1.0000   1.0000
     1.0000   1.0000   1.0000   1.0000   1.0000   1.0000   1.0000   1.0000
     1.0000   1.0000   1.0000   1.0000   1.0000   1.0000   1.0000   1.0000
     1.0000   1.0000   1.0000   1.0000   1.0000   1.0000   1.0000   1.0000
     1.0000   1.0000   1.0000   1.0000   1.0000   1.0000   1.0000   1.0000
     1.0000   1.0000   1.0000   1.0000   1.0000   1.0000   1.0000   1.0000
     1.0000   1.0000   1.0000   1.0000   1.0000   1.0000   1.0000   1.0000
     1.0000   1.0000   1.0000   0.9999   0.9999   0.9999   0.9999   0.9993
     0.9988   0.9985   0.9983   0.9982   0.9978   0.9977   0.9971   0.9967
     0.9964   0.9960   0.9952   0.9950   0.9939   0.9934   0.9921   0.9896
     0.9887   0.9875   0.9863   0.9842   0.9819   0.9788   0.9679   0.9534
     0.9485   0.9415   0.9378   0.9258   0.9155   0.9089   0.9037   0.8979
     0.8681   0.8569   0.8313   0.8275   0.8159   0.7451   0.7419   0.7348
     0.7303   0.7250   0.7184   0.7145   0.7057   0.7012   0.6936   0.6883
     0.6820   0.6769   0.6735   0.6556   0.6497   0.6447   0.6261   0.4548
     0.4082   0.3735   0.3438   0.3281   0.2261   0.1735   0.0785   0.0491
     0.0267   0.0149   0.0072   0.0029   0.0005   0.0003   0.0002   0.0001
     0.0001   0.0001   0.0000   0.0000   0.0000   0.0000   0.0000   0.0000
     0.0000   0.0000   0.0000   0.0000   0.0000   0.0000   0.0000   0.0000
     0.0000   0.0000   0.0000   0.0000   0.0000   0.0000   0.0000

          k =-0.5000 0.2500 0.0000 ( 65138 PWs)   bands (ev):

   -92.3426 -92.2907 -92.1970 -92.1468 -92.0894 -92.0489 -92.0316 -91.9083
   -55.6957 -55.6772 -55.5547 -55.5438 -55.5359 -55.5305 -55.4945 -55.4665
   -55.4496 -55.4479 -55.4417 -55.3976 -55.3780 -55.3412 -55.3232 -55.2892
   -55.2818 -55.2379 -55.2362 -55.2347 -55.2263 -55.1826 -55.1624 -55.0745
   -30.9261 -30.9152 -30.7994 -30.7697 -30.6846 -30.6600 -30.6033 -30.4399
   -29.4917 -29.4526 -29.4247 -29.3174 -22.2569 -14.6297 -14.5853 -14.5083
   -14.4102 -14.3664 -14.2399 -14.1581 -14.0280 -13.7737 -13.7152 -13.6861
   -13.6738 -13.6303 -13.6108 -13.5823 -13.5461 -13.5409 -13.5180 -13.4797
   -13.4681 -13.3730 -13.2869 -13.2371 -13.2337 -13.2217 -13.1553 -13.1208
   -13.0470 -12.9939 -12.8537 -12.8176 -12.7344 -12.7129 -12.6798 -12.6683
   -12.6420 -12.6245 -12.6083 -12.5942 -12.5780 -12.5197 -12.5060 -12.4360
   -12.4070 -12.3824 -12.2749 -12.2674 -12.1921 -12.1090 -11.9770 -11.9728
   -11.8738 -11.8493 -11.4174 -11.4047 -11.3907 -11.3788 -11.3576 -11.3274
   -11.2465 -11.2378 -11.2147 -11.1786 -11.1506 -11.1414  -5.8490  -3.1644
    -3.1601  -2.0856  -2.0434  -1.8944  -1.8527  -1.6926  -1.6146  -1.4736
    -1.3373  -1.2790  -1.2524  -1.2139  -1.1755  -1.0955  -0.9806  -0.9238
    -0.9006  -0.8746  -0.7995  -0.7696  -0.7329  -0.7138  -0.6533  -0.6242
    -0.5851  -0.5503  -0.5216  -0.4640  -0.4380  -0.3965  -0.3612  -0.2566
    -0.2330  -0.1384  -0.0856  -0.0490   0.0112   0.0886   0.1191   0.2263
     0.2518   0.3182   0.3573   0.4021   0.4674   0.4938   0.5251   0.5849
     0.6220   0.9330   0.9799   1.0353   1.0532   1.3569   1.4194   1.4941
     1.5218   1.7005   1.7354   1.7733   1.7876   1.8053   1.8229   1.8920
     1.9365   1.9719   2.0056   2.1049   2.1526   2.1872   2.1967   2.2245
     2.2603   2.2751   2.2857   2.3072   2.3334   2.3745   2.4028   2.4320
     2.4569   2.4831   2.5491   2.6674   2.7671   2.7977   2.8669   2.9095
     2.9655   3.0064   3.0134   3.0348   3.0405   3.0660   3.0867   3.1094
     3.1899   3.2328   3.2487   3.2539   3.2751   3.2964   3.3089   3.3239
     3.3369   3.3582   3.3715   3.3811   3.3890   3.3974   3.4097   3.9334
     3.9647   4.1293   4.1493   4.4160   4.4854   4.5410   4.7352   5.0915
     5.1500   5.2169   5.3368   5.4527   5.7256   5.7800   5.8354   5.9059
     6.0377   6.1733   6.3661   6.4940   6.5612   6.6435   7.1910   7.2946
     7.4619   7.6551   7.9639   8.0553   8.1836   8.2161   8.3125   8.4559
     8.5561   8.6146   8.6867   8.7975   8.8420   8.8801   8.9253

     occupation numbers 
     1.0000   1.0000   1.0000   1.0000   1.0000   1.0000   1.0000   1.0000
     1.0000   1.0000   1.0000   1.0000   1.0000   1.0000   1.0000   1.0000
     1.0000   1.0000   1.0000   1.0000   1.0000   1.0000   1.0000   1.0000
     1.0000   1.0000   1.0000   1.0000   1.0000   1.0000   1.0000   1.0000
     1.0000   1.0000   1.0000   1.0000   1.0000   1.0000   1.0000   1.0000
     1.0000   1.0000   1.0000   1.0000   1.0000   1.0000   1.0000   1.0000
     1.0000   1.0000   1.0000   1.0000   1.0000   1.0000   1.0000   1.0000
     1.0000   1.0000   1.0000   1.0000   1.0000   1.0000   1.0000   1.0000
     1.0000   1.0000   1.0000   1.0000   1.0000   1.0000   1.0000   1.0000
     1.0000   1.0000   1.0000   1.0000   1.0000   1.0000   1.0000   1.0000
     1.0000   1.0000   1.0000   1.0000   1.0000   1.0000   1.0000   1.0000
     1.0000   1.0000   1.0000   1.0000   1.0000   1.0000   1.0000   1.0000
     1.0000   1.0000   1.0000   1.0000   1.0000   1.0000   1.0000   1.0000
     1.0000   1.0000   1.0000   1.0000   1.0000   1.0000   1.0000   1.0000
     1.0000   1.0000   1.0000   1.0000   1.0000   1.0000   1.0000   1.0000
     1.0000   1.0000   1.0000   1.0000   1.0000   1.0000   1.0000   1.0000
     1.0000   1.0000   1.0000   1.0000   1.0000   1.0000   1.0000   1.0000
     1.0000   1.0000   1.0000   1.0000   1.0000   1.0000   1.0000   1.0000
     1.0000   1.0000   1.0000   1.0000   1.0000   1.0000   1.0000   1.0000
     1.0000   1.0000   1.0000   1.0000   1.0000   1.0000   1.0000   1.0000
     1.0000   1.0000   1.0000   1.0000   1.0000   0.9997   0.9996   0.9994
     0.9993   0.9984   0.9981   0.9977   0.9976   0.9974   0.9971   0.9961
     0.9953   0.9945   0.9936   0.9905   0.9885   0.9869   0.9864   0.9849
     0.9827   0.9818   0.9810   0.9795   0.9775   0.9740   0.9714   0.9685
     0.9657   0.9627   0.9540   0.9344   0.9132   0.9058   0.8874   0.8748
     0.8569   0.8427   0.8402   0.8324   0.8302   0.8205   0.8123   0.8031
     0.7683   0.7484   0.7408   0.7383   0.7280   0.7173   0.7111   0.7034
     0.6967   0.6855   0.6785   0.6734   0.6691   0.6646   0.6579   0.3554
     0.3382   0.2541   0.2446   0.1384   0.1169   0.1015   0.0592   0.0183
     0.0147   0.0114   0.0070   0.0043   0.0012   0.0009   0.0007   0.0005
     0.0002   0.0001   0.0000   0.0000   0.0000   0.0000   0.0000   0.0000
     0.0000   0.0000   0.0000   0.0000   0.0000   0.0000   0.0000   0.0000
     0.0000   0.0000   0.0000   0.0000   0.0000   0.0000   0.0000

     the Fermi energy is     3.6836 ev

!    total energy              =   -4482.97490407 Ry
     estimated scf accuracy    <          7.8E-09 Ry
     smearing contrib. (-TS)   =      -1.17186659 Ry
     internal energy E=F+TS    =   -4481.80303749 Ry

     The total energy is F=E-TS. E is the sum of the following terms:
     one-electron contribution =  -20251.60788437 Ry
     hartree contribution      =   10265.40634310 Ry
     xc contribution           =    -701.58165091 Ry
     ewald contribution        =    6491.63667784 Ry
     one-center paw contrib.   =    -285.65652315 Ry
      -> PAW hartree energy AE =      25.18080933 Ry
      -> PAW hartree energy PS =     -25.06454502 Ry
      -> PAW xc energy AE      =     -16.51998474 Ry
      -> PAW xc energy PS      =       6.87958728 Ry
      -> total E_H with PAW    =   10265.52260741 Ry
      -> total E_XC with PAW   =    -711.22204836 Ry

     convergence has been achieved in  52 iterations

     Writing all to output data dir /bsuhome/zayahcortright/scratch/pwscf.save/
 
     init_run     :      7.59s CPU      8.68s WALL (       1 calls)
     electrons    :    788.38s CPU    822.62s WALL (       1 calls)

     Called by init_run:
     wfcinit      :      6.19s CPU      6.43s WALL (       1 calls)
     wfcinit:atom :      0.06s CPU      0.09s WALL (       5 calls)
     wfcinit:wfcr :      5.86s CPU      6.01s WALL (       5 calls)
     potinit      :      0.20s CPU      0.22s WALL (       1 calls)
     hinit0       :      0.29s CPU      0.90s WALL (       1 calls)

     Called by electrons:
     c_bands      :    631.63s CPU    638.67s WALL (      52 calls)
     sum_band     :    118.13s CPU    133.83s WALL (      52 calls)
     v_of_rho     :      5.73s CPU      6.09s WALL (      53 calls)
     v_h          :      0.49s CPU      0.49s WALL (      53 calls)
     v_xc         :      5.24s CPU      5.60s WALL (      53 calls)
     newd         :     17.64s CPU     28.37s WALL (      53 calls)
     PAW_pot      :      1.71s CPU      1.75s WALL (      53 calls)
     mix_rho      :     13.12s CPU     13.51s WALL (      52 calls)

     Called by c_bands:
     init_us_2    :      7.32s CPU      7.41s WALL (     525 calls)
     init_us_2:cp :      7.31s CPU      7.41s WALL (     525 calls)
     cegterg      :    595.92s CPU    602.66s WALL (     260 calls)

     Called by sum_band:
     sum_band:wei :      0.36s CPU      0.36s WALL (      52 calls)
     sum_band:loo :     99.82s CPU    100.63s WALL (      52 calls)
     sum_band:buf :      1.55s CPU      1.63s WALL (     260 calls)
     sum_band:ini :      3.33s CPU      3.36s WALL (     260 calls)
     sum_band:cal :     22.07s CPU     22.13s WALL (     260 calls)
     sum_band:bec :      0.67s CPU      0.70s WALL (     260 calls)
     addusdens    :     16.65s CPU     31.49s WALL (      52 calls)
                                        0.00s GPU  (      52 calls)
     addusd:skk   :      0.32s CPU      1.02s WALL (     208 calls)
                                        0.00s GPU  (     208 calls)

     Called by *egterg:
     cdiaghg      :     62.84s CPU     63.10s WALL (    1443 calls)
     cegterg:over :     44.46s CPU     44.65s WALL (    1183 calls)
     cegterg:upda :     33.03s CPU     33.62s WALL (    1183 calls)
     cegterg:last :     68.15s CPU     68.39s WALL (     481 calls)
     cdiaghg:chol :      3.66s CPU      3.69s WALL (    1443 calls)
     cdiaghg:inve :      3.88s CPU      3.89s WALL (    1443 calls)
     cdiaghg:para :      8.16s CPU      8.20s WALL (    2886 calls)
     h_psi        :    324.96s CPU    328.32s WALL (    1448 calls)
     s_psi        :     44.24s CPU     44.37s WALL (    1448 calls)
     g_psi        :      1.14s CPU      1.15s WALL (    1183 calls)

     Called by h_psi:
     h_psi:calbec :     50.97s CPU     51.23s WALL (    1448 calls)
     vloc_psi     :    226.72s CPU    228.86s WALL (    1448 calls)
     add_vuspsi   :     44.24s CPU     44.46s WALL (    1448 calls)

     General routines
     calbec       :     73.03s CPU     73.35s WALL (    1708 calls)
     fft          :      3.91s CPU      3.96s WALL (     687 calls)
     ffts         :      4.83s CPU      4.87s WALL (    5392 calls)
     fftw         :    195.38s CPU    196.91s WALL (  358614 calls)
     interpolate  :      0.46s CPU      0.46s WALL (      53 calls)
 
     Parallel routines

     PAW routines
     PAW_pot      :      1.71s CPU      1.75s WALL (      53 calls)
 
     PWSCF        :  13m18.26s CPU  13m57.70s WALL

 
   This run was terminated on:  18:24:50  18Jun2024            

=------------------------------------------------------------------------------=
   JOB DONE.
=------------------------------------------------------------------------------=
