
     Program PWSCF v.7.2 starts on 21Jun2024 at 15:49:16 

     This program is part of the open-source Quantum ESPRESSO suite
     for quantum simulation of materials; please cite
         "P. Giannozzi et al., J. Phys.:Condens. Matter 21 395502 (2009);
         "P. Giannozzi et al., J. Phys.:Condens. Matter 29 465901 (2017);
         "P. Giannozzi et al., J. Chem. Phys. 152 154105 (2020);
          URL http://www.quantum-espresso.org", 
     in publications or presentations arising from this work. More details at
     http://www.quantum-espresso.org/quote

     Parallel version (MPI & OpenMP), running on      48 processor cores
     Number of MPI processes:                48
     Threads/MPI process:                     1

     MPI processes distributed on     1 nodes
     180169 MiB available memory on the printing compute node when the environment starts
 
     Reading input from espresso.pwi
Warning: card &CELL ignored
Warning: card / ignored
Warning: card &FCP ignored
Warning: card / ignored
Warning: card &RISM ignored
Warning: card / ignored

     Current dimensions of program PWSCF are:
     Max number of different atomic species (ntypx) = 10
     Max number of k-points (npk) =  40000
     Max angular momentum in pseudopotentials (lmaxx) =  4
     file O.pbe-n-kjpaw_psl.0.1.UPF: wavefunction(s)  2P renormalized
     signal trapping enabled: kill the code with -SIGUSR1 to stop cleanly the simulation 
 
     K-points division:     npool     =       2
     R & G space division:  proc/nbgrp/npool/nimage =      24
     Subspace diagonalization in iterative solution of the eigenvalue problem:
     one sub-group per band group will be used
     scalapack distributed-memory algorithm (size of sub-group:  3*  3 procs)

 
     Parallelization info
     --------------------
     sticks:   dense  smooth     PW     G-vecs:    dense   smooth      PW
     Min         350     175     47                61430    21716    3036
     Max         351     177     48                61449    21727    3041
     Sum        8421    4205   1137              1474595   521381   72913
 
     Using Slab Decomposition
 


     bravais-lattice index     =            0
     lattice parameter (alat)  =      14.8599  a.u.
     unit-cell volume          =    8305.1283 (a.u.)^3
     number of atoms/cell      =           49
     number of atomic types    =            4
     number of electrons       =       425.00
     number of Kohn-Sham states=          256
     kinetic-energy cutoff     =      60.0000  Ry
     charge density cutoff     =     480.0000  Ry
     scf convergence threshold =      1.0E-08
     mixing beta               =       0.1500
     number of iterations used =            8  local-TF  mixing
     Exchange-correlation= PBE
                           (   1   4   3   4   0   0   0)

     celldm(1)=  14.859904  celldm(2)=   0.000000  celldm(3)=   0.000000
     celldm(4)=   0.000000  celldm(5)=   0.000000  celldm(6)=   0.000000

     crystal axes: (cart. coord. in units of alat)
               a(1) = (   1.000000   0.000000   0.000000 )  
               a(2) = (   0.000000   1.000000   0.000000 )  
               a(3) = (   0.000000   0.000000   2.531036 )  

     reciprocal axes: (cart. coord. in units 2 pi/alat)
               b(1) = (  1.000000  0.000000  0.000000 )  
               b(2) = (  0.000000  1.000000  0.000000 )  
               b(3) = (  0.000000  0.000000  0.395095 )  


     PseudoPot. # 1 for Sr read from file:
     /bsuhome/zayahcortright/q-e/pseudo/Sr_pbe_v1.uspp.F.UPF
     MD5 check sum: 6b418c05fbe9db5448babca5e47b7a5b
     Pseudo is Ultrasoft + core correction, Zval = 10.0
     Generated by new atomic code, or converted to UPF format
     Using radial grid of  883 points,  6 beta functions with: 
                l(1) =   0
                l(2) =   0
                l(3) =   1
                l(4) =   1
                l(5) =   2
                l(6) =   2
     Q(r) pseudized with  6 coefficients,  rinner =    1.400   1.400   1.400
                                                       1.400   1.400

     PseudoPot. # 2 for O  read from file:
     /bsuhome/zayahcortright/q-e/pseudo/O.pbe-n-kjpaw_psl.0.1.UPF
     MD5 check sum: 0234752ac141de4415c5fc33072bef88
     Pseudo is Projector augmented-wave + core cor, Zval =  6.0
     Generated using "atomic" code by A. Dal Corso  v.5.0.99 svn rev. 10869
     Shape of augmentation charge: BESSEL
     Using radial grid of 1095 points,  4 beta functions with: 
                l(1) =   0
                l(2) =   0
                l(3) =   1
                l(4) =   1
     Q(r) pseudized with 0 coefficients 


     PseudoPot. # 3 for Co read from file:
     /bsuhome/zayahcortright/q-e/pseudo/Co_pbe_v1.2.uspp.F.UPF
     MD5 check sum: 5f91765df6ddd3222702df6e7b74a16d
     Pseudo is Ultrasoft + core correction, Zval = 17.0
     Generated by new atomic code, or converted to UPF format
     Using radial grid of  863 points,  6 beta functions with: 
                l(1) =   0
                l(2) =   0
                l(3) =   1
                l(4) =   1
                l(5) =   2
                l(6) =   2
     Q(r) pseudized with  8 coefficients,  rinner =    1.200   1.200   1.200
                                                       1.200   1.200

     PseudoPot. # 4 for H  read from file:
     /bsuhome/zayahcortright/q-e/pseudo/H.pbe-rrkjus_psl.1.0.0.UPF
     MD5 check sum: f52b6d4d1c606e5624b1dc7b2218f220
     Pseudo is Ultrasoft, Zval =  1.0
     Generated using "atomic" code by A. Dal Corso  v.5.1
     Using radial grid of  929 points,  2 beta functions with: 
                l(1) =   0
                l(2) =   0
     Q(r) pseudized with 0 coefficients 


     atomic species   valence    mass     pseudopotential
        Sr            10.00    87.62000     Sr( 1.00)
        O              6.00    15.99900     O ( 1.00)
        Co            17.00    58.93319     Co( 1.00)
        H              1.00     1.00800     H ( 1.00)

     No symmetry found


                                    s                        frac. trans.

      isym =  1     identity                                     

 cryst.   s( 1) = (     1          0          0      )
                  (     0          1          0      )
                  (     0          0          1      )

 cart.    s( 1) = (  1.0000000  0.0000000  0.0000000 )
                  (  0.0000000  1.0000000  0.0000000 )
                  (  0.0000000  0.0000000  1.0000000 )


   Cartesian axes

     site n.     atom                  positions (alat units)
         1           Sr  tau(   1) = (   0.2508693   0.7491307   1.7574407  )
         2           O   tau(   2) = (   0.4985141   0.5014859   1.7715967  )
         3           Sr  tau(   3) = (   0.7482398   0.7454518   1.7648669  )
         4           Sr  tau(   4) = (   0.7441748   0.2558252   1.7667843  )
         5           Sr  tau(   5) = (   0.2508693   0.7491307   1.2696799  )
         6           Sr  tau(   6) = (   0.2508693   0.7491307   0.7632319  )
         7           Co  tau(   7) = (   0.4998914   0.5001086   1.0164559  )
         8           Co  tau(   8) = (   0.4936915   0.5063085   1.5135603  )
         9           O   tau(   9) = (   0.4988895   0.7610401   1.0164559  )
        10           O   tau(  10) = (   0.2389599   0.5011105   1.0164559  )
        11           O   tau(  11) = (   0.0070918   0.7374880   1.0164559  )
        12           O   tau(  12) = (   0.0088340   0.7405089   1.5135603  )
        13           O   tau(  13) = (   0.5066944   0.7415376   1.5135603  )
        14           O   tau(  14) = (   0.2584624   0.4933056   1.5135603  )
        15           O   tau(  15) = (   0.4985141   0.5014859   0.7773880  )
        16           O   tau(  16) = (   0.4985141   0.5014859   1.2555238  )
        17           Sr  tau(  17) = (   0.7482398   0.7454518   0.7706582  )
        18           Sr  tau(  18) = (   0.7482398   0.7454518   1.2622536  )
        19           Sr  tau(  19) = (   0.7441748   0.2558252   0.7725755  )
        20           Sr  tau(  20) = (   0.7441748   0.2558252   1.2603363  )
        21           O   tau(  21) = (   0.7322655   0.0078049   1.5135603  )
        22           O   tau(  22) = (   0.7558175   0.4996027   1.5135603  )
        23           O   tau(  23) = (   0.5003973   0.2441825   1.5135603  )
        24           O   tau(  24) = (   0.7527966   0.4978604   1.0164559  )
        25           O   tau(  25) = (   0.5021396   0.2472034   1.0164559  )
        26           O   tau(  26) = (   0.7517679   0.0000000   1.0164559  )
        27           O   tau(  27) = (   0.0114961   0.4948124   1.7455321  )
        28           O   tau(  28) = (   0.0048226   0.0077944   1.7715967  )
        29           Sr  tau(  29) = (   0.2545482   0.2517602   1.7648669  )
        30           O   tau(  30) = (   0.5048017   0.0015068   1.7786929  )
        31           Co  tau(  31) = (   0.0056869   0.5006215   1.0164559  )
        32           Co  tau(  32) = (   0.0065315   0.4997770   1.5135603  )
        33           Co  tau(  33) = (   0.0061999   0.0064171   1.0164559  )
        34           Co  tau(  34) = (   0.0000000   0.0126169   1.5135603  )
        35           O   tau(  35) = (   0.0114961   0.4948124   1.2815885  )
        36           O   tau(  36) = (   0.0114961   0.4948124   0.7513233  )
        37           O   tau(  37) = (   0.0051979   0.2673486   1.0164559  )
        38           O   tau(  38) = (   0.0130029   0.2478461   1.5135603  )
        39           O   tau(  39) = (   0.0048226   0.0077944   0.7773880  )
        40           O   tau(  40) = (   0.0048226   0.0077944   1.2555238  )
        41           Sr  tau(  41) = (   0.2545482   0.2517602   0.7706582  )
        42           Sr  tau(  42) = (   0.2545482   0.2517602   1.2622536  )
        43           Co  tau(  43) = (   0.4989925   0.0073160   1.5135603  )
        44           Co  tau(  44) = (   0.4998370   0.0064714   1.0164559  )
        45           O   tau(  45) = (   0.5048017   0.0015068   0.7844841  )
        46           O   tau(  46) = (   0.5048017   0.0015068   1.2484277  )
        47           O   tau(  47) = (   0.2621260   0.0059111   1.5135603  )
        48           O   tau(  48) = (   0.2591051   0.0041689   1.0164559  )
        49           H   tau(  49) = (   0.2843291   0.4264937   2.1602013  )

   Crystallographic axes

     site n.     atom                  positions (cryst. coord.)
         1           Sr  tau(   1) = (  0.2508693  0.7491307  0.6943562  )
         2           O   tau(   2) = (  0.4985141  0.5014859  0.6999492  )
         3           Sr  tau(   3) = (  0.7482398  0.7454518  0.6972903  )
         4           Sr  tau(   4) = (  0.7441748  0.2558252  0.6980478  )
         5           Sr  tau(   5) = (  0.2508693  0.7491307  0.5016443  )
         6           Sr  tau(   6) = (  0.2508693  0.7491307  0.3015492  )
         7           Co  tau(   7) = (  0.4998914  0.5001086  0.4015968  )
         8           Co  tau(   8) = (  0.4936915  0.5063085  0.5980003  )
         9           O   tau(   9) = (  0.4988895  0.7610401  0.4015968  )
        10           O   tau(  10) = (  0.2389599  0.5011105  0.4015968  )
        11           O   tau(  11) = (  0.0070918  0.7374880  0.4015968  )
        12           O   tau(  12) = (  0.0088340  0.7405089  0.5980003  )
        13           O   tau(  13) = (  0.5066944  0.7415376  0.5980003  )
        14           O   tau(  14) = (  0.2584624  0.4933056  0.5980003  )
        15           O   tau(  15) = (  0.4985141  0.5014859  0.3071422  )
        16           O   tau(  16) = (  0.4985141  0.5014859  0.4960513  )
        17           Sr  tau(  17) = (  0.7482398  0.7454518  0.3044833  )
        18           Sr  tau(  18) = (  0.7482398  0.7454518  0.4987103  )
        19           Sr  tau(  19) = (  0.7441748  0.2558252  0.3052408  )
        20           Sr  tau(  20) = (  0.7441748  0.2558252  0.4979527  )
        21           O   tau(  21) = (  0.7322655  0.0078049  0.5980003  )
        22           O   tau(  22) = (  0.7558175  0.4996027  0.5980003  )
        23           O   tau(  23) = (  0.5003973  0.2441825  0.5980003  )
        24           O   tau(  24) = (  0.7527966  0.4978604  0.4015968  )
        25           O   tau(  25) = (  0.5021396  0.2472034  0.4015968  )
        26           O   tau(  26) = (  0.7517679  0.0000000  0.4015968  )
        27           O   tau(  27) = (  0.0114961  0.4948124  0.6896512  )
        28           O   tau(  28) = (  0.0048226  0.0077944  0.6999492  )
        29           Sr  tau(  29) = (  0.2545482  0.2517602  0.6972903  )
        30           O   tau(  30) = (  0.5048017  0.0015068  0.7027529  )
        31           Co  tau(  31) = (  0.0056869  0.5006215  0.4015968  )
        32           Co  tau(  32) = (  0.0065315  0.4997770  0.5980003  )
        33           Co  tau(  33) = (  0.0061999  0.0064171  0.4015968  )
        34           Co  tau(  34) = (  0.0000000  0.0126169  0.5980003  )
        35           O   tau(  35) = (  0.0114961  0.4948124  0.5063494  )
        36           O   tau(  36) = (  0.0114961  0.4948124  0.2968442  )
        37           O   tau(  37) = (  0.0051979  0.2673486  0.4015968  )
        38           O   tau(  38) = (  0.0130029  0.2478461  0.5980003  )
        39           O   tau(  39) = (  0.0048226  0.0077944  0.3071422  )
        40           O   tau(  40) = (  0.0048226  0.0077944  0.4960513  )
        41           Sr  tau(  41) = (  0.2545482  0.2517602  0.3044833  )
        42           Sr  tau(  42) = (  0.2545482  0.2517602  0.4987103  )
        43           Co  tau(  43) = (  0.4989925  0.0073160  0.5980003  )
        44           Co  tau(  44) = (  0.4998370  0.0064714  0.4015968  )
        45           O   tau(  45) = (  0.5048017  0.0015068  0.3099459  )
        46           O   tau(  46) = (  0.5048017  0.0015068  0.4932477  )
        47           O   tau(  47) = (  0.2621260  0.0059111  0.5980003  )
        48           O   tau(  48) = (  0.2591051  0.0041689  0.4015968  )
        49           H   tau(  49) = (  0.2843291  0.4264937  0.8534850  )

     number of k points=    10  Gaussian smearing, width (Ry)=  0.0700
                       cart. coord. in units 2pi/alat
        k(    1) = (   0.0000000   0.0000000   0.0000000), wk =   0.1250000
        k(    2) = (   0.0000000   0.2500000   0.0000000), wk =   0.2500000
        k(    3) = (   0.0000000  -0.5000000   0.0000000), wk =   0.1250000
        k(    4) = (   0.2500000   0.2500000   0.0000000), wk =   0.2500000
        k(    5) = (   0.2500000  -0.5000000   0.0000000), wk =   0.2500000
        k(    6) = (  -0.5000000  -0.5000000   0.0000000), wk =   0.1250000
        k(    7) = (   0.2500000   0.0000000   0.0000000), wk =   0.2500000
        k(    8) = (  -0.5000000   0.0000000   0.0000000), wk =   0.1250000
        k(    9) = (  -0.2500000   0.2500000   0.0000000), wk =   0.2500000
        k(   10) = (  -0.5000000   0.2500000   0.0000000), wk =   0.2500000

                       cryst. coord.
        k(    1) = (   0.0000000   0.0000000   0.0000000), wk =   0.1250000
        k(    2) = (   0.0000000   0.2500000   0.0000000), wk =   0.2500000
        k(    3) = (   0.0000000  -0.5000000   0.0000000), wk =   0.1250000
        k(    4) = (   0.2500000   0.2500000   0.0000000), wk =   0.2500000
        k(    5) = (   0.2500000  -0.5000000   0.0000000), wk =   0.2500000
        k(    6) = (  -0.5000000  -0.5000000   0.0000000), wk =   0.1250000
        k(    7) = (   0.2500000   0.0000000   0.0000000), wk =   0.2500000
        k(    8) = (  -0.5000000   0.0000000   0.0000000), wk =   0.1250000
        k(    9) = (  -0.2500000   0.2500000   0.0000000), wk =   0.2500000
        k(   10) = (  -0.5000000   0.2500000   0.0000000), wk =   0.2500000

     Dense  grid:  1474595 G-vectors     FFT dimensions: ( 108, 108, 270)

     Smooth grid:   521381 G-vectors     FFT dimensions: (  75,  75, 192)

     Dynamical RAM for                 wfc:      10.61 MB

     Dynamical RAM for     wfc (w. buffer):      63.63 MB

     Dynamical RAM for           str. fact:       3.75 MB

     Dynamical RAM for           local pot:       0.00 MB

     Dynamical RAM for          nlocal pot:      24.28 MB

     Dynamical RAM for                qrad:       7.03 MB

     Dynamical RAM for          rho,v,vnew:       6.02 MB

     Dynamical RAM for               rhoin:       2.01 MB

     Dynamical RAM for            rho*nmix:      15.00 MB

     Dynamical RAM for           G-vectors:       3.68 MB

     Dynamical RAM for          h,s,v(r/c):       1.32 MB

     Dynamical RAM for          <psi|beta>:       2.29 MB

     Dynamical RAM for                 psi:      21.21 MB

     Dynamical RAM for                hpsi:      21.21 MB

     Dynamical RAM for                spsi:      21.21 MB

     Dynamical RAM for      wfcinit/wfcrot:      34.09 MB

     Dynamical RAM for           addusdens:     100.79 MB

     Estimated static dynamical RAM per process >     120.42 MB

     Estimated max dynamical RAM per process >     236.21 MB

     Estimated total dynamical RAM >      10.72 GB

     Check: negative core charge=   -0.000004

     Initial potential from superposition of free atoms

     starting charge     416.5961, renormalised to     425.0000

     negative rho (up, down):  7.826E-01 0.000E+00
     Starting wfcs are  373 randomized atomic wfcs
     Checking if some PAW data can be deallocated... 
       PAW data deallocated on   20 nodes for type:  2

     total cpu time spent up to now is        8.3 secs

     Self-consistent Calculation

     iteration #  1     ecut=    60.00 Ry     beta= 0.15
     Davidson diagonalization with overlap

---- Real-time Memory Report at c_bands before calling an iterative solver
             0 MiB given to the printing process from OS
             0 MiB allocation reported by mallinfo(arena+hblkhd)
        170488 MiB available memory on the node where the printing process lives
------------------
     ethr =  1.00E-02,  avg # of iterations =  2.0

     negative rho (up, down):  7.720E-01 0.000E+00

     total cpu time spent up to now is       22.4 secs

     total energy              =   -4404.81725398 Ry
     estimated scf accuracy    <      42.20424415 Ry

     iteration #  2     ecut=    60.00 Ry     beta= 0.15
     Davidson diagonalization with overlap

---- Real-time Memory Report at c_bands before calling an iterative solver
             0 MiB given to the printing process from OS
             0 MiB allocation reported by mallinfo(arena+hblkhd)
        170745 MiB available memory on the node where the printing process lives
------------------
     ethr =  9.93E-03,  avg # of iterations =  1.0

     negative rho (up, down):  7.535E-01 0.000E+00

     total cpu time spent up to now is       34.4 secs

     total energy              =   -4400.00837000 Ry
     estimated scf accuracy    <      26.87432641 Ry

     iteration #  3     ecut=    60.00 Ry     beta= 0.15
     Davidson diagonalization with overlap

---- Real-time Memory Report at c_bands before calling an iterative solver
             0 MiB given to the printing process from OS
             0 MiB allocation reported by mallinfo(arena+hblkhd)
        169983 MiB available memory on the node where the printing process lives
------------------
     ethr =  6.32E-03,  avg # of iterations =  2.0

     negative rho (up, down):  7.546E-01 0.000E+00

     total cpu time spent up to now is       48.1 secs

     total energy              =   -4402.38863058 Ry
     estimated scf accuracy    <      49.41678356 Ry

     iteration #  4     ecut=    60.00 Ry     beta= 0.15
     Davidson diagonalization with overlap

---- Real-time Memory Report at c_bands before calling an iterative solver
             0 MiB given to the printing process from OS
             0 MiB allocation reported by mallinfo(arena+hblkhd)
        169850 MiB available memory on the node where the printing process lives
------------------
     ethr =  6.32E-03,  avg # of iterations =  1.0

     negative rho (up, down):  7.412E-01 0.000E+00

     total cpu time spent up to now is       60.0 secs

     total energy              =   -4401.66017655 Ry
     estimated scf accuracy    <      29.32161885 Ry

     iteration #  5     ecut=    60.00 Ry     beta= 0.15
     Davidson diagonalization with overlap

---- Real-time Memory Report at c_bands before calling an iterative solver
             0 MiB given to the printing process from OS
             0 MiB allocation reported by mallinfo(arena+hblkhd)
        169832 MiB available memory on the node where the printing process lives
------------------
     ethr =  6.32E-03,  avg # of iterations =  1.0

     negative rho (up, down):  7.471E-01 0.000E+00

     total cpu time spent up to now is       71.7 secs

     total energy              =   -4399.77788127 Ry
     estimated scf accuracy    <      44.53217666 Ry

     iteration #  6     ecut=    60.00 Ry     beta= 0.15
     Davidson diagonalization with overlap

---- Real-time Memory Report at c_bands before calling an iterative solver
             0 MiB given to the printing process from OS
             0 MiB allocation reported by mallinfo(arena+hblkhd)
        169812 MiB available memory on the node where the printing process lives
------------------
     ethr =  6.32E-03,  avg # of iterations =  1.0

     negative rho (up, down):  7.419E-01 0.000E+00

     total cpu time spent up to now is       83.6 secs

     total energy              =   -4400.64336671 Ry
     estimated scf accuracy    <      12.22058529 Ry

     iteration #  7     ecut=    60.00 Ry     beta= 0.15
     Davidson diagonalization with overlap

---- Real-time Memory Report at c_bands before calling an iterative solver
             0 MiB given to the printing process from OS
             0 MiB allocation reported by mallinfo(arena+hblkhd)
        169785 MiB available memory on the node where the printing process lives
------------------
     ethr =  2.88E-03,  avg # of iterations =  1.1

     negative rho (up, down):  7.442E-01 0.000E+00

     total cpu time spent up to now is       95.7 secs

     total energy              =   -4400.81616021 Ry
     estimated scf accuracy    <       4.08842367 Ry

     iteration #  8     ecut=    60.00 Ry     beta= 0.15
     Davidson diagonalization with overlap

---- Real-time Memory Report at c_bands before calling an iterative solver
             0 MiB given to the printing process from OS
             0 MiB allocation reported by mallinfo(arena+hblkhd)
        169772 MiB available memory on the node where the printing process lives
------------------
     ethr =  9.62E-04,  avg # of iterations =  1.6

     negative rho (up, down):  7.543E-01 0.000E+00

     total cpu time spent up to now is      108.1 secs

     total energy              =   -4400.29124404 Ry
     estimated scf accuracy    <       3.38624558 Ry

     iteration #  9     ecut=    60.00 Ry     beta= 0.15
     Davidson diagonalization with overlap

---- Real-time Memory Report at c_bands before calling an iterative solver
             0 MiB given to the printing process from OS
             0 MiB allocation reported by mallinfo(arena+hblkhd)
        169751 MiB available memory on the node where the printing process lives
------------------
     ethr =  7.97E-04,  avg # of iterations =  4.7

     negative rho (up, down):  7.758E-01 0.000E+00

     total cpu time spent up to now is      123.3 secs

     total energy              =   -4399.82731675 Ry
     estimated scf accuracy    <      43.88571869 Ry

     iteration # 10     ecut=    60.00 Ry     beta= 0.15
     Davidson diagonalization with overlap

---- Real-time Memory Report at c_bands before calling an iterative solver
             0 MiB given to the printing process from OS
             0 MiB allocation reported by mallinfo(arena+hblkhd)
        169614 MiB available memory on the node where the printing process lives
------------------
     ethr =  7.97E-04,  avg # of iterations =  9.8

     negative rho (up, down):  7.783E-01 0.000E+00

     total cpu time spent up to now is      141.0 secs

     total energy              =   -4399.81413825 Ry
     estimated scf accuracy    <      11.81750158 Ry

     iteration # 11     ecut=    60.00 Ry     beta= 0.15
     Davidson diagonalization with overlap

---- Real-time Memory Report at c_bands before calling an iterative solver
             0 MiB given to the printing process from OS
             0 MiB allocation reported by mallinfo(arena+hblkhd)
        169230 MiB available memory on the node where the printing process lives
------------------
     ethr =  7.97E-04,  avg # of iterations =  1.1

     negative rho (up, down):  7.812E-01 0.000E+00

     total cpu time spent up to now is      153.4 secs

     total energy              =   -4400.11997161 Ry
     estimated scf accuracy    <       1.28285741 Ry

     iteration # 12     ecut=    60.00 Ry     beta= 0.15
     Davidson diagonalization with overlap

---- Real-time Memory Report at c_bands before calling an iterative solver
             0 MiB given to the printing process from OS
             0 MiB allocation reported by mallinfo(arena+hblkhd)
        169228 MiB available memory on the node where the printing process lives
------------------
     ethr =  3.02E-04,  avg # of iterations =  3.1

     negative rho (up, down):  7.899E-01 0.000E+00

     total cpu time spent up to now is      167.6 secs

     total energy              =   -4400.09265189 Ry
     estimated scf accuracy    <       0.71661114 Ry

     iteration # 13     ecut=    60.00 Ry     beta= 0.15
     Davidson diagonalization with overlap

---- Real-time Memory Report at c_bands before calling an iterative solver
             0 MiB given to the printing process from OS
             0 MiB allocation reported by mallinfo(arena+hblkhd)
        169252 MiB available memory on the node where the printing process lives
------------------
     ethr =  1.69E-04,  avg # of iterations =  5.7

     negative rho (up, down):  8.006E-01 0.000E+00

     total cpu time spent up to now is      182.8 secs

     total energy              =   -4400.09594260 Ry
     estimated scf accuracy    <       1.35296491 Ry

     iteration # 14     ecut=    60.00 Ry     beta= 0.15
     Davidson diagonalization with overlap

---- Real-time Memory Report at c_bands before calling an iterative solver
             0 MiB given to the printing process from OS
             0 MiB allocation reported by mallinfo(arena+hblkhd)
        169244 MiB available memory on the node where the printing process lives
------------------
     ethr =  1.69E-04,  avg # of iterations =  5.9

     negative rho (up, down):  8.060E-01 0.000E+00

     total cpu time spent up to now is      198.0 secs

     total energy              =   -4400.01697088 Ry
     estimated scf accuracy    <       1.66968493 Ry

     iteration # 15     ecut=    60.00 Ry     beta= 0.15
     Davidson diagonalization with overlap

---- Real-time Memory Report at c_bands before calling an iterative solver
             0 MiB given to the printing process from OS
             0 MiB allocation reported by mallinfo(arena+hblkhd)
        169241 MiB available memory on the node where the printing process lives
------------------
     ethr =  1.69E-04,  avg # of iterations =  5.5

     negative rho (up, down):  8.084E-01 0.000E+00

     total cpu time spent up to now is      212.9 secs

     total energy              =   -4400.05024773 Ry
     estimated scf accuracy    <       0.37836701 Ry

     iteration # 16     ecut=    60.00 Ry     beta= 0.15
     Davidson diagonalization with overlap

---- Real-time Memory Report at c_bands before calling an iterative solver
             0 MiB given to the printing process from OS
             0 MiB allocation reported by mallinfo(arena+hblkhd)
        169240 MiB available memory on the node where the printing process lives
------------------
     ethr =  8.90E-05,  avg # of iterations =  3.9

     negative rho (up, down):  8.121E-01 0.000E+00

     total cpu time spent up to now is      226.8 secs

     total energy              =   -4400.01650794 Ry
     estimated scf accuracy    <       0.31170727 Ry

     iteration # 17     ecut=    60.00 Ry     beta= 0.15
     Davidson diagonalization with overlap

---- Real-time Memory Report at c_bands before calling an iterative solver
             0 MiB given to the printing process from OS
             0 MiB allocation reported by mallinfo(arena+hblkhd)
        169238 MiB available memory on the node where the printing process lives
------------------
     ethr =  7.33E-05,  avg # of iterations =  8.5

     negative rho (up, down):  8.178E-01 0.000E+00

     total cpu time spent up to now is      243.0 secs

     total energy              =   -4399.95298785 Ry
     estimated scf accuracy    <       0.25946223 Ry

     iteration # 18     ecut=    60.00 Ry     beta= 0.15
     Davidson diagonalization with overlap

---- Real-time Memory Report at c_bands before calling an iterative solver
             0 MiB given to the printing process from OS
             0 MiB allocation reported by mallinfo(arena+hblkhd)
        169237 MiB available memory on the node where the printing process lives
------------------
     ethr =  6.10E-05,  avg # of iterations = 11.5

     negative rho (up, down):  8.203E-01 0.000E+00

     total cpu time spent up to now is      261.7 secs

     total energy              =   -4399.95238880 Ry
     estimated scf accuracy    <       0.11838158 Ry

     iteration # 19     ecut=    60.00 Ry     beta= 0.15
     Davidson diagonalization with overlap

---- Real-time Memory Report at c_bands before calling an iterative solver
             0 MiB given to the printing process from OS
             0 MiB allocation reported by mallinfo(arena+hblkhd)
        169186 MiB available memory on the node where the printing process lives
------------------
     c_bands:  1 eigenvalues not converged
     ethr =  2.79E-05,  avg # of iterations =  7.5

     negative rho (up, down):  8.181E-01 0.000E+00

     total cpu time spent up to now is      277.9 secs

     total energy              =   -4399.93789595 Ry
     estimated scf accuracy    <       0.10369628 Ry

     iteration # 20     ecut=    60.00 Ry     beta= 0.15
     Davidson diagonalization with overlap

---- Real-time Memory Report at c_bands before calling an iterative solver
             0 MiB given to the printing process from OS
             0 MiB allocation reported by mallinfo(arena+hblkhd)
        169161 MiB available memory on the node where the printing process lives
------------------
     ethr =  2.44E-05,  avg # of iterations =  6.9

     negative rho (up, down):  8.171E-01 0.000E+00

     total cpu time spent up to now is      294.5 secs

     total energy              =   -4399.92682129 Ry
     estimated scf accuracy    <       0.07208489 Ry

     iteration # 21     ecut=    60.00 Ry     beta= 0.15
     Davidson diagonalization with overlap

---- Real-time Memory Report at c_bands before calling an iterative solver
             0 MiB given to the printing process from OS
             0 MiB allocation reported by mallinfo(arena+hblkhd)
        169172 MiB available memory on the node where the printing process lives
------------------
     ethr =  1.70E-05,  avg # of iterations = 10.3

     negative rho (up, down):  8.135E-01 0.000E+00

     total cpu time spent up to now is      312.3 secs

     total energy              =   -4399.92780252 Ry
     estimated scf accuracy    <       0.04101893 Ry

     iteration # 22     ecut=    60.00 Ry     beta= 0.15
     Davidson diagonalization with overlap

---- Real-time Memory Report at c_bands before calling an iterative solver
             0 MiB given to the printing process from OS
             0 MiB allocation reported by mallinfo(arena+hblkhd)
        169127 MiB available memory on the node where the printing process lives
------------------
     ethr =  9.65E-06,  avg # of iterations =  1.8

     negative rho (up, down):  8.002E-01 0.000E+00

     total cpu time spent up to now is      325.6 secs

     total energy              =   -4399.92252097 Ry
     estimated scf accuracy    <       0.03303447 Ry

     iteration # 23     ecut=    60.00 Ry     beta= 0.15
     Davidson diagonalization with overlap

---- Real-time Memory Report at c_bands before calling an iterative solver
             0 MiB given to the printing process from OS
             0 MiB allocation reported by mallinfo(arena+hblkhd)
        169109 MiB available memory on the node where the printing process lives
------------------
     ethr =  7.77E-06,  avg # of iterations = 11.1

     negative rho (up, down):  7.999E-01 0.000E+00

     total cpu time spent up to now is      343.2 secs

     total energy              =   -4399.92109520 Ry
     estimated scf accuracy    <       0.01911898 Ry

     iteration # 24     ecut=    60.00 Ry     beta= 0.15
     Davidson diagonalization with overlap

---- Real-time Memory Report at c_bands before calling an iterative solver
             0 MiB given to the printing process from OS
             0 MiB allocation reported by mallinfo(arena+hblkhd)
        169118 MiB available memory on the node where the printing process lives
------------------
     c_bands:  1 eigenvalues not converged
     ethr =  4.50E-06,  avg # of iterations = 12.6

     negative rho (up, down):  7.935E-01 0.000E+00

     total cpu time spent up to now is      362.0 secs

     total energy              =   -4399.92083905 Ry
     estimated scf accuracy    <       0.01106744 Ry

     iteration # 25     ecut=    60.00 Ry     beta= 0.15
     Davidson diagonalization with overlap

---- Real-time Memory Report at c_bands before calling an iterative solver
             0 MiB given to the printing process from OS
             0 MiB allocation reported by mallinfo(arena+hblkhd)
        169071 MiB available memory on the node where the printing process lives
------------------
     ethr =  2.60E-06,  avg # of iterations =  2.6

     negative rho (up, down):  7.912E-01 0.000E+00

     total cpu time spent up to now is      375.7 secs

     total energy              =   -4399.92047633 Ry
     estimated scf accuracy    <       0.00788851 Ry

     iteration # 26     ecut=    60.00 Ry     beta= 0.15
     Davidson diagonalization with overlap

---- Real-time Memory Report at c_bands before calling an iterative solver
             0 MiB given to the printing process from OS
             0 MiB allocation reported by mallinfo(arena+hblkhd)
        169008 MiB available memory on the node where the printing process lives
------------------
     ethr =  1.86E-06,  avg # of iterations =  5.1

     negative rho (up, down):  7.905E-01 0.000E+00

     total cpu time spent up to now is      390.6 secs

     total energy              =   -4399.92027545 Ry
     estimated scf accuracy    <       0.00452190 Ry

     iteration # 27     ecut=    60.00 Ry     beta= 0.15
     Davidson diagonalization with overlap

---- Real-time Memory Report at c_bands before calling an iterative solver
             0 MiB given to the printing process from OS
             0 MiB allocation reported by mallinfo(arena+hblkhd)
        169040 MiB available memory on the node where the printing process lives
------------------
     ethr =  1.06E-06,  avg # of iterations =  5.9

     negative rho (up, down):  7.923E-01 0.000E+00

     total cpu time spent up to now is      406.4 secs

     total energy              =   -4399.91972200 Ry
     estimated scf accuracy    <       0.00305005 Ry

     iteration # 28     ecut=    60.00 Ry     beta= 0.15
     Davidson diagonalization with overlap

---- Real-time Memory Report at c_bands before calling an iterative solver
             0 MiB given to the printing process from OS
             0 MiB allocation reported by mallinfo(arena+hblkhd)
        169084 MiB available memory on the node where the printing process lives
------------------
     ethr =  7.18E-07,  avg # of iterations =  9.9

     negative rho (up, down):  7.956E-01 0.000E+00

     total cpu time spent up to now is      424.9 secs

     total energy              =   -4399.91994117 Ry
     estimated scf accuracy    <       0.00064713 Ry

     iteration # 29     ecut=    60.00 Ry     beta= 0.15
     Davidson diagonalization with overlap

---- Real-time Memory Report at c_bands before calling an iterative solver
             0 MiB given to the printing process from OS
             0 MiB allocation reported by mallinfo(arena+hblkhd)
        169019 MiB available memory on the node where the printing process lives
------------------
     c_bands:  1 eigenvalues not converged
     ethr =  1.52E-07,  avg # of iterations = 10.3

     negative rho (up, down):  7.968E-01 0.000E+00

     total cpu time spent up to now is      444.5 secs

     total energy              =   -4399.92000054 Ry
     estimated scf accuracy    <       0.00021636 Ry

     iteration # 30     ecut=    60.00 Ry     beta= 0.15
     Davidson diagonalization with overlap

---- Real-time Memory Report at c_bands before calling an iterative solver
             0 MiB given to the printing process from OS
             0 MiB allocation reported by mallinfo(arena+hblkhd)
        168845 MiB available memory on the node where the printing process lives
------------------
     ethr =  5.09E-08,  avg # of iterations =  4.7

     negative rho (up, down):  7.947E-01 0.000E+00

     total cpu time spent up to now is      459.0 secs

     total energy              =   -4399.91998088 Ry
     estimated scf accuracy    <       0.00011902 Ry

     iteration # 31     ecut=    60.00 Ry     beta= 0.15
     Davidson diagonalization with overlap

---- Real-time Memory Report at c_bands before calling an iterative solver
             0 MiB given to the printing process from OS
             0 MiB allocation reported by mallinfo(arena+hblkhd)
        168831 MiB available memory on the node where the printing process lives
------------------
     ethr =  2.80E-08,  avg # of iterations =  2.3

     negative rho (up, down):  7.934E-01 0.000E+00

     total cpu time spent up to now is      472.6 secs

     total energy              =   -4399.91998091 Ry
     estimated scf accuracy    <       0.00006932 Ry

     iteration # 32     ecut=    60.00 Ry     beta= 0.15
     Davidson diagonalization with overlap

---- Real-time Memory Report at c_bands before calling an iterative solver
             0 MiB given to the printing process from OS
             0 MiB allocation reported by mallinfo(arena+hblkhd)
        168854 MiB available memory on the node where the printing process lives
------------------
     ethr =  1.63E-08,  avg # of iterations =  4.1

     negative rho (up, down):  7.932E-01 0.000E+00

     total cpu time spent up to now is      487.1 secs

     total energy              =   -4399.91998716 Ry
     estimated scf accuracy    <       0.00003914 Ry

     iteration # 33     ecut=    60.00 Ry     beta= 0.15
     Davidson diagonalization with overlap

---- Real-time Memory Report at c_bands before calling an iterative solver
             0 MiB given to the printing process from OS
             0 MiB allocation reported by mallinfo(arena+hblkhd)
        168878 MiB available memory on the node where the printing process lives
------------------
     ethr =  9.21E-09,  avg # of iterations =  2.3

     negative rho (up, down):  7.926E-01 0.000E+00

     total cpu time spent up to now is      501.1 secs

     total energy              =   -4399.91999456 Ry
     estimated scf accuracy    <       0.00001708 Ry

     iteration # 34     ecut=    60.00 Ry     beta= 0.15
     Davidson diagonalization with overlap

---- Real-time Memory Report at c_bands before calling an iterative solver
             0 MiB given to the printing process from OS
             0 MiB allocation reported by mallinfo(arena+hblkhd)
        168942 MiB available memory on the node where the printing process lives
------------------
     ethr =  4.02E-09,  avg # of iterations =  3.3

     negative rho (up, down):  7.924E-01 0.000E+00

     total cpu time spent up to now is      515.5 secs

     total energy              =   -4399.91999730 Ry
     estimated scf accuracy    <       0.00000947 Ry

     iteration # 35     ecut=    60.00 Ry     beta= 0.15
     Davidson diagonalization with overlap

---- Real-time Memory Report at c_bands before calling an iterative solver
             0 MiB given to the printing process from OS
             0 MiB allocation reported by mallinfo(arena+hblkhd)
        168964 MiB available memory on the node where the printing process lives
------------------
     ethr =  2.23E-09,  avg # of iterations =  2.2

     negative rho (up, down):  7.923E-01 0.000E+00

     total cpu time spent up to now is      529.3 secs

     total energy              =   -4399.91999802 Ry
     estimated scf accuracy    <       0.00000750 Ry

     iteration # 36     ecut=    60.00 Ry     beta= 0.15
     Davidson diagonalization with overlap

---- Real-time Memory Report at c_bands before calling an iterative solver
             0 MiB given to the printing process from OS
             0 MiB allocation reported by mallinfo(arena+hblkhd)
        168966 MiB available memory on the node where the printing process lives
------------------
     ethr =  1.77E-09,  avg # of iterations =  3.5

     negative rho (up, down):  7.924E-01 0.000E+00

     total cpu time spent up to now is      543.3 secs

     total energy              =   -4399.91999790 Ry
     estimated scf accuracy    <       0.00000469 Ry

     iteration # 37     ecut=    60.00 Ry     beta= 0.15
     Davidson diagonalization with overlap

---- Real-time Memory Report at c_bands before calling an iterative solver
             0 MiB given to the printing process from OS
             0 MiB allocation reported by mallinfo(arena+hblkhd)
        168986 MiB available memory on the node where the printing process lives
------------------
     ethr =  1.10E-09,  avg # of iterations =  2.7

     negative rho (up, down):  7.925E-01 0.000E+00

     total cpu time spent up to now is      557.4 secs

     total energy              =   -4399.91999858 Ry
     estimated scf accuracy    <       0.00000270 Ry

     iteration # 38     ecut=    60.00 Ry     beta= 0.15
     Davidson diagonalization with overlap

---- Real-time Memory Report at c_bands before calling an iterative solver
             0 MiB given to the printing process from OS
             0 MiB allocation reported by mallinfo(arena+hblkhd)
        169004 MiB available memory on the node where the printing process lives
------------------
     ethr =  6.35E-10,  avg # of iterations =  2.2

     negative rho (up, down):  7.925E-01 0.000E+00

     total cpu time spent up to now is      570.9 secs

     total energy              =   -4399.91999877 Ry
     estimated scf accuracy    <       0.00000169 Ry

     iteration # 39     ecut=    60.00 Ry     beta= 0.15
     Davidson diagonalization with overlap

---- Real-time Memory Report at c_bands before calling an iterative solver
             0 MiB given to the printing process from OS
             0 MiB allocation reported by mallinfo(arena+hblkhd)
        169007 MiB available memory on the node where the printing process lives
------------------
     ethr =  3.98E-10,  avg # of iterations =  2.2

     negative rho (up, down):  7.925E-01 0.000E+00

     total cpu time spent up to now is      584.6 secs

     total energy              =   -4399.91999887 Ry
     estimated scf accuracy    <       0.00000117 Ry

     iteration # 40     ecut=    60.00 Ry     beta= 0.15
     Davidson diagonalization with overlap

---- Real-time Memory Report at c_bands before calling an iterative solver
             0 MiB given to the printing process from OS
             0 MiB allocation reported by mallinfo(arena+hblkhd)
        169011 MiB available memory on the node where the printing process lives
------------------
     ethr =  2.75E-10,  avg # of iterations =  1.8

     negative rho (up, down):  7.925E-01 0.000E+00

     total cpu time spent up to now is      597.7 secs

     total energy              =   -4399.91999879 Ry
     estimated scf accuracy    <       0.00000092 Ry

     iteration # 41     ecut=    60.00 Ry     beta= 0.15
     Davidson diagonalization with overlap

---- Real-time Memory Report at c_bands before calling an iterative solver
             0 MiB given to the printing process from OS
             0 MiB allocation reported by mallinfo(arena+hblkhd)
        169015 MiB available memory on the node where the printing process lives
------------------
     ethr =  2.17E-10,  avg # of iterations =  2.1

     negative rho (up, down):  7.925E-01 0.000E+00

     total cpu time spent up to now is      611.9 secs

     total energy              =   -4399.91999888 Ry
     estimated scf accuracy    <       0.00000041 Ry

     iteration # 42     ecut=    60.00 Ry     beta= 0.15
     Davidson diagonalization with overlap

---- Real-time Memory Report at c_bands before calling an iterative solver
             0 MiB given to the printing process from OS
             0 MiB allocation reported by mallinfo(arena+hblkhd)
        169017 MiB available memory on the node where the printing process lives
------------------
     ethr =  9.66E-11,  avg # of iterations =  2.8

     negative rho (up, down):  7.924E-01 0.000E+00

     total cpu time spent up to now is      627.1 secs

     total energy              =   -4399.91999893 Ry
     estimated scf accuracy    <       0.00000010 Ry

     iteration # 43     ecut=    60.00 Ry     beta= 0.15
     Davidson diagonalization with overlap

---- Real-time Memory Report at c_bands before calling an iterative solver
             0 MiB given to the printing process from OS
             0 MiB allocation reported by mallinfo(arena+hblkhd)
        169004 MiB available memory on the node where the printing process lives
------------------
     ethr =  2.45E-11,  avg # of iterations =  2.1

     negative rho (up, down):  7.924E-01 0.000E+00

     total cpu time spent up to now is      640.6 secs

     total energy              =   -4399.91999894 Ry
     estimated scf accuracy    <       0.00000005 Ry

     iteration # 44     ecut=    60.00 Ry     beta= 0.15
     Davidson diagonalization with overlap

---- Real-time Memory Report at c_bands before calling an iterative solver
             0 MiB given to the printing process from OS
             0 MiB allocation reported by mallinfo(arena+hblkhd)
        169005 MiB available memory on the node where the printing process lives
------------------
     ethr =  1.29E-11,  avg # of iterations =  2.2

     negative rho (up, down):  7.924E-01 0.000E+00

     total cpu time spent up to now is      654.5 secs

     total energy              =   -4399.91999894 Ry
     estimated scf accuracy    <       0.00000004 Ry

     iteration # 45     ecut=    60.00 Ry     beta= 0.15
     Davidson diagonalization with overlap

---- Real-time Memory Report at c_bands before calling an iterative solver
             0 MiB given to the printing process from OS
             0 MiB allocation reported by mallinfo(arena+hblkhd)
        169003 MiB available memory on the node where the printing process lives
------------------
     ethr =  9.22E-12,  avg # of iterations =  2.1

     negative rho (up, down):  7.924E-01 0.000E+00

     total cpu time spent up to now is      668.1 secs

     total energy              =   -4399.91999894 Ry
     estimated scf accuracy    <       0.00000003 Ry

     iteration # 46     ecut=    60.00 Ry     beta= 0.15
     Davidson diagonalization with overlap

---- Real-time Memory Report at c_bands before calling an iterative solver
             0 MiB given to the printing process from OS
             0 MiB allocation reported by mallinfo(arena+hblkhd)
        169008 MiB available memory on the node where the printing process lives
------------------
     ethr =  6.07E-12,  avg # of iterations =  2.7

     negative rho (up, down):  7.924E-01 0.000E+00

     total cpu time spent up to now is      681.9 secs

     total energy              =   -4399.91999894 Ry
     estimated scf accuracy    <       0.00000002 Ry

     iteration # 47     ecut=    60.00 Ry     beta= 0.15
     Davidson diagonalization with overlap

---- Real-time Memory Report at c_bands before calling an iterative solver
             0 MiB given to the printing process from OS
             0 MiB allocation reported by mallinfo(arena+hblkhd)
        169008 MiB available memory on the node where the printing process lives
------------------
     ethr =  4.10E-12,  avg # of iterations =  2.2

     negative rho (up, down):  7.924E-01 0.000E+00

     total cpu time spent up to now is      695.8 secs

     total energy              =   -4399.91999894 Ry
     estimated scf accuracy    <       0.00000001 Ry

     iteration # 48     ecut=    60.00 Ry     beta= 0.15
     Davidson diagonalization with overlap

---- Real-time Memory Report at c_bands before calling an iterative solver
             0 MiB given to the printing process from OS
             0 MiB allocation reported by mallinfo(arena+hblkhd)
        169023 MiB available memory on the node where the printing process lives
------------------
     ethr =  3.09E-12,  avg # of iterations =  2.8

     negative rho (up, down):  7.924E-01 0.000E+00

     total cpu time spent up to now is      709.3 secs

     End of self-consistent calculation

          k = 0.0000 0.0000 0.0000 ( 65197 PWs)   bands (ev):

   -92.7326 -92.6801 -92.5870 -92.5390 -92.4809 -92.4395 -92.4216 -92.2990
   -56.0860 -56.0665 -55.9441 -55.9333 -55.9263 -55.9202 -55.8835 -55.8561
   -55.8401 -55.8392 -55.8316 -55.7885 -55.7703 -55.7324 -55.7136 -55.6799
   -55.6745 -55.6274 -55.6264 -55.6246 -55.6162 -55.5735 -55.5520 -55.4650
   -31.3087 -31.2888 -31.1829 -31.1474 -31.0728 -31.0598 -30.8903 -30.6086
   -29.8812 -29.8366 -29.8114 -29.7023 -15.1128 -15.0680 -14.9889 -14.8582
   -14.6660 -14.5421 -14.2517 -14.2322 -14.2022 -14.1595 -14.1108 -14.0993
   -14.0916 -14.0711 -14.0528 -14.0237 -13.9634 -13.8122 -13.6315 -13.5997
   -13.5690 -13.5368 -13.5200 -13.4674 -13.4333 -13.3528 -13.2814 -13.1869
   -13.1732 -13.1412 -13.1270 -13.1061 -13.0885 -13.0598 -13.0382 -13.0218
   -12.9968 -12.9769 -12.9670 -12.9526 -12.9320 -12.9238 -12.8451 -12.8191
   -12.8045 -12.6068 -12.5956 -12.5504 -12.3730 -12.2272 -12.0413 -11.9666
   -11.8937 -11.8201 -11.8089 -11.7853 -11.7678 -11.7043 -11.6871 -11.6524
   -11.6242 -11.5109 -11.4318 -11.4281  -2.9736  -2.7412  -2.5116  -2.3645
    -2.3016  -2.1594  -1.8519  -1.8376  -1.8183  -1.7330  -1.7147  -1.6465
    -1.6299  -1.5886  -1.5457  -1.3635  -1.1393  -1.1083  -0.9627  -0.9484
    -0.9020  -0.8840  -0.8387  -0.8225  -0.7661  -0.7393  -0.6659  -0.6555
    -0.5790  -0.4472  -0.4346  -0.4056  -0.3249  -0.2996  -0.2865  -0.2333
    -0.1603  -0.1159  -0.0650  -0.0403   0.0267   0.0938   0.1485   0.1673
     0.1817   0.4386   0.4533   0.6237   0.6930   0.7564   0.8014   0.8898
     0.9026   0.9180   0.9895   1.0172   1.0506   1.1097   1.2414   1.2982
     1.3197   1.3415   1.3539   1.4157   1.4895   1.5960   1.6085   1.6681
     1.6827   1.7253   1.7426   1.7530   1.8078   1.8636   1.8714   1.9057
     1.9389   1.9924   2.1247   2.2102   2.2529   2.2643   2.4171   2.4287
     2.4804   2.4827   2.5858   2.6248   2.6512   2.6703   2.6861   2.7520
     2.7823   2.8754   2.9086   2.9201   2.9260   2.9938   2.9992   3.0211
     3.0295   3.0380   3.0474   3.0583   3.0713   3.0771   3.0879   3.0977
     3.1068   3.1253   3.1464   3.1510   3.1635   3.1930   3.3049   3.4025
     4.0777   4.3940   4.7374   4.8545   5.0111   5.8586   5.9044   5.9549
     5.9716   6.2820   6.3295   6.4669   6.4764   6.7422   6.9890   7.0802
     7.1645   7.2853   7.4373   7.6073   7.6151   7.6457   7.6648   7.8745
     7.9520   8.0936   8.1247   8.1889   8.4559   8.5945   8.8231   8.8656

     occupation numbers 
     1.0000   1.0000   1.0000   1.0000   1.0000   1.0000   1.0000   1.0000
     1.0000   1.0000   1.0000   1.0000   1.0000   1.0000   1.0000   1.0000
     1.0000   1.0000   1.0000   1.0000   1.0000   1.0000   1.0000   1.0000
     1.0000   1.0000   1.0000   1.0000   1.0000   1.0000   1.0000   1.0000
     1.0000   1.0000   1.0000   1.0000   1.0000   1.0000   1.0000   1.0000
     1.0000   1.0000   1.0000   1.0000   1.0000   1.0000   1.0000   1.0000
     1.0000   1.0000   1.0000   1.0000   1.0000   1.0000   1.0000   1.0000
     1.0000   1.0000   1.0000   1.0000   1.0000   1.0000   1.0000   1.0000
     1.0000   1.0000   1.0000   1.0000   1.0000   1.0000   1.0000   1.0000
     1.0000   1.0000   1.0000   1.0000   1.0000   1.0000   1.0000   1.0000
     1.0000   1.0000   1.0000   1.0000   1.0000   1.0000   1.0000   1.0000
     1.0000   1.0000   1.0000   1.0000   1.0000   1.0000   1.0000   1.0000
     1.0000   1.0000   1.0000   1.0000   1.0000   1.0000   1.0000   1.0000
     1.0000   1.0000   1.0000   1.0000   1.0000   1.0000   1.0000   1.0000
     1.0000   1.0000   1.0000   1.0000   1.0000   1.0000   1.0000   1.0000
     1.0000   1.0000   1.0000   1.0000   1.0000   1.0000   1.0000   1.0000
     1.0000   1.0000   1.0000   1.0000   1.0000   1.0000   1.0000   1.0000
     1.0000   1.0000   1.0000   1.0000   1.0000   1.0000   1.0000   1.0000
     1.0000   1.0000   1.0000   1.0000   1.0000   1.0000   1.0000   1.0000
     1.0000   1.0000   1.0000   1.0000   0.9999   0.9999   0.9999   0.9998
     0.9998   0.9998   0.9997   0.9996   0.9996   0.9994   0.9989   0.9985
     0.9983   0.9981   0.9980   0.9974   0.9963   0.9942   0.9939   0.9921
     0.9917   0.9901   0.9894   0.9890   0.9864   0.9832   0.9827   0.9804
     0.9780   0.9735   0.9589   0.9464   0.9391   0.9371   0.9038   0.9008
     0.8868   0.8861   0.8538   0.8402   0.8305   0.8232   0.8170   0.7900
     0.7768   0.7334   0.7169   0.7111   0.7081   0.6726   0.6697   0.6579
     0.6533   0.6486   0.6434   0.6374   0.6301   0.6268   0.6208   0.6152
     0.6100   0.5994   0.5873   0.5846   0.5774   0.5602   0.4941   0.4366
     0.1225   0.0513   0.0161   0.0103   0.0054   0.0001   0.0001   0.0000
     0.0000   0.0000   0.0000   0.0000   0.0000   0.0000   0.0000   0.0000
     0.0000   0.0000   0.0000   0.0000   0.0000   0.0000   0.0000   0.0000
     0.0000   0.0000   0.0000   0.0000   0.0000   0.0000   0.0000   0.0000

          k = 0.0000 0.2500 0.0000 ( 65257 PWs)   bands (ev):

   -92.7326 -92.6801 -92.5870 -92.5390 -92.4809 -92.4395 -92.4216 -92.2990
   -56.0860 -56.0665 -55.9441 -55.9333 -55.9263 -55.9202 -55.8835 -55.8561
   -55.8401 -55.8392 -55.8316 -55.7885 -55.7703 -55.7324 -55.7136 -55.6799
   -55.6745 -55.6274 -55.6264 -55.6246 -55.6162 -55.5735 -55.5520 -55.4650
   -31.3085 -31.2887 -31.1827 -31.1476 -31.0731 -31.0599 -30.8902 -30.6088
   -29.8806 -29.8363 -29.8121 -29.7026 -15.0763 -15.0413 -14.9637 -14.8289
   -14.7068 -14.5332 -14.3967 -14.2174 -14.1829 -14.1627 -14.1353 -14.0749
   -14.0695 -14.0523 -14.0359 -13.9951 -13.8821 -13.8429 -13.6790 -13.6574
   -13.6106 -13.5736 -13.5264 -13.4853 -13.4439 -13.3748 -13.3392 -13.2980
   -13.2353 -13.1790 -13.1568 -13.1382 -13.1149 -13.0353 -13.0073 -12.9785
   -12.9631 -12.9352 -12.9149 -12.9010 -12.8888 -12.8363 -12.8249 -12.7826
   -12.7516 -12.5560 -12.5415 -12.4863 -12.4343 -12.2784 -12.0948 -12.0281
   -11.8590 -11.8168 -11.7888 -11.7602 -11.7434 -11.6962 -11.6850 -11.6626
   -11.6287 -11.5252 -11.4733 -11.4628  -2.8382  -2.6169  -2.4791  -2.2969
    -2.2535  -2.0899  -1.8699  -1.7859  -1.7728  -1.7136  -1.6116  -1.5970
    -1.5636  -1.5359  -1.4925  -1.2947  -1.1655  -1.1541  -1.0776  -1.0676
    -0.9637  -0.9336  -0.8761  -0.8508  -0.8100  -0.7458  -0.7197  -0.6870
    -0.6563  -0.6391  -0.6061  -0.5322  -0.4812  -0.4118  -0.2997  -0.2779
    -0.2395  -0.1220  -0.0833  -0.0291   0.0230   0.0752   0.0982   0.1267
     0.1875   0.4857   0.5732   0.6077   0.6910   0.7360   0.7600   0.8754
     0.8944   0.9892   1.0165   1.0440   1.1577   1.2523   1.2740   1.2994
     1.3165   1.3417   1.4026   1.4287   1.4576   1.5045   1.5392   1.5689
     1.6562   1.6902   1.7190   1.7738   1.8296   1.8663   1.8944   1.9192
     1.9392   2.0306   2.1643   2.2327   2.2479   2.3269   2.3725   2.4134
     2.4202   2.4816   2.5226   2.6028   2.6468   2.6628   2.7691   2.8336
     2.8594   2.8896   2.9122   2.9264   2.9349   2.9430   2.9521   2.9821
     2.9841   3.0016   3.0088   3.0156   3.0334   3.0484   3.0547   3.0758
     3.0873   3.0929   3.1289   3.1437   3.2035   3.5774   3.6145   3.8471
     4.2660   4.3875   4.6842   5.0111   5.0321   5.6188   5.7766   5.9422
     5.9507   6.0628   6.0739   6.1573   6.5829   6.7855   6.9178   7.0933
     7.3111   7.4583   7.4769   7.6021   7.6306   7.7375   7.7663   7.9887
     8.0612   8.1038   8.1544   8.2726   8.3845   8.6073   8.7602   8.9205

     occupation numbers 
     1.0000   1.0000   1.0000   1.0000   1.0000   1.0000   1.0000   1.0000
     1.0000   1.0000   1.0000   1.0000   1.0000   1.0000   1.0000   1.0000
     1.0000   1.0000   1.0000   1.0000   1.0000   1.0000   1.0000   1.0000
     1.0000   1.0000   1.0000   1.0000   1.0000   1.0000   1.0000   1.0000
     1.0000   1.0000   1.0000   1.0000   1.0000   1.0000   1.0000   1.0000
     1.0000   1.0000   1.0000   1.0000   1.0000   1.0000   1.0000   1.0000
     1.0000   1.0000   1.0000   1.0000   1.0000   1.0000   1.0000   1.0000
     1.0000   1.0000   1.0000   1.0000   1.0000   1.0000   1.0000   1.0000
     1.0000   1.0000   1.0000   1.0000   1.0000   1.0000   1.0000   1.0000
     1.0000   1.0000   1.0000   1.0000   1.0000   1.0000   1.0000   1.0000
     1.0000   1.0000   1.0000   1.0000   1.0000   1.0000   1.0000   1.0000
     1.0000   1.0000   1.0000   1.0000   1.0000   1.0000   1.0000   1.0000
     1.0000   1.0000   1.0000   1.0000   1.0000   1.0000   1.0000   1.0000
     1.0000   1.0000   1.0000   1.0000   1.0000   1.0000   1.0000   1.0000
     1.0000   1.0000   1.0000   1.0000   1.0000   1.0000   1.0000   1.0000
     1.0000   1.0000   1.0000   1.0000   1.0000   1.0000   1.0000   1.0000
     1.0000   1.0000   1.0000   1.0000   1.0000   1.0000   1.0000   1.0000
     1.0000   1.0000   1.0000   1.0000   1.0000   1.0000   1.0000   1.0000
     1.0000   1.0000   1.0000   1.0000   1.0000   1.0000   1.0000   1.0000
     1.0000   1.0000   1.0000   1.0000   0.9999   0.9999   0.9999   0.9998
     0.9998   0.9997   0.9996   0.9996   0.9992   0.9988   0.9987   0.9985
     0.9983   0.9981   0.9975   0.9972   0.9968   0.9961   0.9954   0.9948
     0.9925   0.9914   0.9904   0.9880   0.9852   0.9831   0.9812   0.9795
     0.9780   0.9698   0.9534   0.9426   0.9400   0.9247   0.9146   0.9048
     0.9030   0.8864   0.8743   0.8480   0.8321   0.8261   0.7826   0.7534
     0.7411   0.7264   0.7151   0.7079   0.7035   0.6994   0.6947   0.6789
     0.6778   0.6684   0.6645   0.6609   0.6511   0.6429   0.6394   0.6276
     0.6211   0.6180   0.5974   0.5889   0.5540   0.3375   0.3176   0.2062
     0.0747   0.0524   0.0196   0.0054   0.0049   0.0003   0.0001   0.0000
     0.0000   0.0000   0.0000   0.0000   0.0000   0.0000   0.0000   0.0000
     0.0000   0.0000   0.0000   0.0000   0.0000   0.0000   0.0000   0.0000
     0.0000   0.0000   0.0000   0.0000   0.0000   0.0000   0.0000   0.0000

          k = 0.0000-0.5000 0.0000 ( 65180 PWs)   bands (ev):

   -92.7326 -92.6801 -92.5870 -92.5390 -92.4809 -92.4395 -92.4216 -92.2990
   -56.0860 -56.0665 -55.9441 -55.9333 -55.9263 -55.9202 -55.8835 -55.8561
   -55.8401 -55.8392 -55.8316 -55.7885 -55.7703 -55.7324 -55.7136 -55.6799
   -55.6745 -55.6274 -55.6264 -55.6246 -55.6162 -55.5735 -55.5520 -55.4650
   -31.3083 -31.2885 -31.1824 -31.1479 -31.0734 -31.0601 -30.8901 -30.6089
   -29.8800 -29.8360 -29.8127 -29.7029 -15.0403 -14.9926 -14.9374 -14.8129
   -14.7264 -14.5918 -14.4338 -14.3179 -14.1888 -14.1238 -14.0754 -14.0697
   -14.0182 -14.0025 -13.9547 -13.9312 -13.9088 -13.8753 -13.8403 -13.8002
   -13.6148 -13.5561 -13.5314 -13.4880 -13.4432 -13.3901 -13.3667 -13.3211
   -13.3137 -13.2483 -13.1543 -13.1379 -13.1008 -13.0625 -12.9968 -12.9824
   -12.9591 -12.9133 -12.9070 -12.8840 -12.8356 -12.7532 -12.7365 -12.7266
   -12.6828 -12.5545 -12.5448 -12.4326 -12.3534 -12.3264 -12.1847 -12.1327
   -11.8138 -11.8107 -11.7837 -11.7460 -11.7118 -11.7008 -11.6585 -11.6545
   -11.6101 -11.5470 -11.5335 -11.5197  -2.6228  -2.5650  -2.4134  -2.3418
    -2.0588  -1.9771  -1.8482  -1.7122  -1.6717  -1.6546  -1.5770  -1.5460
    -1.4627  -1.4283  -1.3494  -1.3105  -1.2722  -1.2453  -1.1845  -1.1507
    -1.1030  -1.0682  -1.0341  -1.0012  -0.8902  -0.8460  -0.8106  -0.8078
    -0.7222  -0.6914  -0.6690  -0.6218  -0.5328  -0.4617  -0.3724  -0.3434
    -0.2349  -0.2075  -0.0618  -0.0201   0.0065   0.0480   0.1678   0.2412
     0.3600   0.4280   0.4370   0.5650   0.6203   0.7005   0.8474   0.9468
     0.9803   1.0202   1.0301   1.0612   1.0812   1.1159   1.1316   1.1449
     1.2559   1.3146   1.3446   1.3676   1.6383   1.6617   1.6863   1.7721
     1.7982   1.8366   1.8559   1.8792   1.8943   1.9035   1.9284   1.9703
     1.9962   2.0237   2.0355   2.0641   2.1187   2.2065   2.2367   2.4048
     2.5709   2.5719   2.5952   2.6343   2.6432   2.6498   2.6998   2.7125
     2.7664   2.7851   2.7916   2.8657   2.8812   2.9511   2.9528   2.9782
     2.9813   2.9979   3.0013   3.0056   3.0122   3.0202   3.0344   3.0459
     3.0507   3.1133   3.1179   3.1338   3.1918   4.0890   4.1046   4.1679
     4.2328   4.6983   4.8818   4.9999   5.1428   5.3952   5.4423   5.5579
     5.7087   5.9946   6.0145   6.0849   6.5417   6.8335   6.9402   7.2013
     7.2990   7.3794   7.4413   7.6117   7.7266   7.8188   7.8815   7.9532
     8.0402   8.2374   8.4370   8.5035   8.6406   8.7236   8.7900   8.8177

     occupation numbers 
     1.0000   1.0000   1.0000   1.0000   1.0000   1.0000   1.0000   1.0000
     1.0000   1.0000   1.0000   1.0000   1.0000   1.0000   1.0000   1.0000
     1.0000   1.0000   1.0000   1.0000   1.0000   1.0000   1.0000   1.0000
     1.0000   1.0000   1.0000   1.0000   1.0000   1.0000   1.0000   1.0000
     1.0000   1.0000   1.0000   1.0000   1.0000   1.0000   1.0000   1.0000
     1.0000   1.0000   1.0000   1.0000   1.0000   1.0000   1.0000   1.0000
     1.0000   1.0000   1.0000   1.0000   1.0000   1.0000   1.0000   1.0000
     1.0000   1.0000   1.0000   1.0000   1.0000   1.0000   1.0000   1.0000
     1.0000   1.0000   1.0000   1.0000   1.0000   1.0000   1.0000   1.0000
     1.0000   1.0000   1.0000   1.0000   1.0000   1.0000   1.0000   1.0000
     1.0000   1.0000   1.0000   1.0000   1.0000   1.0000   1.0000   1.0000
     1.0000   1.0000   1.0000   1.0000   1.0000   1.0000   1.0000   1.0000
     1.0000   1.0000   1.0000   1.0000   1.0000   1.0000   1.0000   1.0000
     1.0000   1.0000   1.0000   1.0000   1.0000   1.0000   1.0000   1.0000
     1.0000   1.0000   1.0000   1.0000   1.0000   1.0000   1.0000   1.0000
     1.0000   1.0000   1.0000   1.0000   1.0000   1.0000   1.0000   1.0000
     1.0000   1.0000   1.0000   1.0000   1.0000   1.0000   1.0000   1.0000
     1.0000   1.0000   1.0000   1.0000   1.0000   1.0000   1.0000   1.0000
     1.0000   1.0000   1.0000   1.0000   1.0000   1.0000   1.0000   1.0000
     1.0000   1.0000   1.0000   1.0000   1.0000   0.9999   0.9999   0.9998
     0.9997   0.9996   0.9996   0.9995   0.9995   0.9994   0.9993   0.9993
     0.9988   0.9984   0.9981   0.9979   0.9931   0.9924   0.9915   0.9881
     0.9869   0.9848   0.9837   0.9822   0.9812   0.9806   0.9788   0.9754
     0.9731   0.9705   0.9693   0.9662   0.9597   0.9470   0.9420   0.9069
     0.8588   0.8585   0.8506   0.8367   0.8334   0.8310   0.8116   0.8065
     0.7837   0.7755   0.7726   0.7381   0.7305   0.6952   0.6943   0.6809
     0.6793   0.6704   0.6686   0.6663   0.6627   0.6584   0.6506   0.6442
     0.6416   0.6063   0.6037   0.5946   0.5609   0.1192   0.1147   0.0974
     0.0819   0.0186   0.0092   0.0057   0.0030   0.0009   0.0007   0.0004
     0.0002   0.0000   0.0000   0.0000   0.0000   0.0000   0.0000   0.0000
     0.0000   0.0000   0.0000   0.0000   0.0000   0.0000   0.0000   0.0000
     0.0000   0.0000   0.0000   0.0000   0.0000   0.0000   0.0000   0.0000

          k = 0.2500 0.2500 0.0000 ( 65198 PWs)   bands (ev):

   -92.7326 -92.6801 -92.5870 -92.5390 -92.4809 -92.4395 -92.4216 -92.2990
   -56.0860 -56.0665 -55.9441 -55.9333 -55.9263 -55.9202 -55.8835 -55.8561
   -55.8401 -55.8392 -55.8316 -55.7885 -55.7703 -55.7324 -55.7136 -55.6799
   -55.6745 -55.6274 -55.6264 -55.6246 -55.6162 -55.5735 -55.5520 -55.4650
   -31.3069 -31.2903 -31.1826 -31.1473 -31.0731 -31.0603 -30.8904 -30.6088
   -29.8797 -29.8373 -29.8117 -29.7030 -15.0475 -15.0059 -14.9358 -14.8187
   -14.6996 -14.5733 -14.5029 -14.2982 -14.1405 -14.1278 -14.0934 -14.0626
   -14.0400 -14.0080 -13.9815 -13.9587 -13.8735 -13.8572 -13.6953 -13.6821
   -13.6513 -13.6323 -13.5760 -13.5421 -13.4783 -13.4576 -13.3529 -13.3157
   -13.2606 -13.1750 -13.1376 -13.1194 -13.0789 -13.0501 -13.0297 -12.9903
   -12.9767 -12.9557 -12.9204 -12.8774 -12.8303 -12.7830 -12.7743 -12.7445
   -12.7056 -12.5576 -12.5258 -12.4827 -12.3862 -12.3074 -12.1165 -12.0780
   -11.8315 -11.7999 -11.7891 -11.7824 -11.7192 -11.6843 -11.6778 -11.6425
   -11.6354 -11.5418 -11.5014 -11.4841  -2.6998  -2.4911  -2.3731  -2.2787
    -2.1579  -2.0931  -1.8946  -1.7506  -1.7315  -1.7007  -1.6063  -1.5740
    -1.4798  -1.4511  -1.4017  -1.2708  -1.2219  -1.1494  -1.1049  -1.0595
    -1.0369  -1.0126  -0.9703  -0.9548  -0.8644  -0.8144  -0.7475  -0.6991
    -0.6695  -0.6202  -0.6074  -0.5429  -0.4927  -0.4326  -0.4008  -0.3134
    -0.2624  -0.2338  -0.1958  -0.1410  -0.0611  -0.0298  -0.0052   0.0691
     0.1022   0.3765   0.5270   0.5601   0.6193   0.6592   0.7113   0.7625
     0.8316   0.8691   1.1412   1.2081   1.2817   1.3067   1.3563   1.3858
     1.4228   1.4603   1.4770   1.5049   1.5505   1.5569   1.5727   1.6163
     1.6534   1.6949   1.7565   1.7876   1.8028   1.8290   1.8693   1.9193
     1.9449   2.0700   2.1435   2.1793   2.2027   2.2647   2.3317   2.3626
     2.3993   2.4273   2.4348   2.5458   2.5860   2.6768   2.7705   2.8461
     2.8617   2.8678   2.8882   2.9027   2.9133   2.9244   2.9314   2.9426
     2.9572   2.9697   2.9864   2.9924   3.0039   3.0255   3.0378   3.0484
     3.0783   3.3792   3.4717   3.5182   3.5827   3.6155   3.8298   3.9222
     4.2739   4.4765   4.6866   4.9509   5.1572   5.6170   5.6739   5.7368
     5.8055   5.8660   6.0175   6.1415   6.2005   6.7378   6.8827   7.0735
     7.2571   7.5306   7.5806   7.6876   7.8124   7.8459   7.9378   8.0835
     8.1348   8.1774   8.3072   8.3360   8.4210   8.4701   8.6584   8.8237

     occupation numbers 
     1.0000   1.0000   1.0000   1.0000   1.0000   1.0000   1.0000   1.0000
     1.0000   1.0000   1.0000   1.0000   1.0000   1.0000   1.0000   1.0000
     1.0000   1.0000   1.0000   1.0000   1.0000   1.0000   1.0000   1.0000
     1.0000   1.0000   1.0000   1.0000   1.0000   1.0000   1.0000   1.0000
     1.0000   1.0000   1.0000   1.0000   1.0000   1.0000   1.0000   1.0000
     1.0000   1.0000   1.0000   1.0000   1.0000   1.0000   1.0000   1.0000
     1.0000   1.0000   1.0000   1.0000   1.0000   1.0000   1.0000   1.0000
     1.0000   1.0000   1.0000   1.0000   1.0000   1.0000   1.0000   1.0000
     1.0000   1.0000   1.0000   1.0000   1.0000   1.0000   1.0000   1.0000
     1.0000   1.0000   1.0000   1.0000   1.0000   1.0000   1.0000   1.0000
     1.0000   1.0000   1.0000   1.0000   1.0000   1.0000   1.0000   1.0000
     1.0000   1.0000   1.0000   1.0000   1.0000   1.0000   1.0000   1.0000
     1.0000   1.0000   1.0000   1.0000   1.0000   1.0000   1.0000   1.0000
     1.0000   1.0000   1.0000   1.0000   1.0000   1.0000   1.0000   1.0000
     1.0000   1.0000   1.0000   1.0000   1.0000   1.0000   1.0000   1.0000
     1.0000   1.0000   1.0000   1.0000   1.0000   1.0000   1.0000   1.0000
     1.0000   1.0000   1.0000   1.0000   1.0000   1.0000   1.0000   1.0000
     1.0000   1.0000   1.0000   1.0000   1.0000   1.0000   1.0000   1.0000
     1.0000   1.0000   1.0000   1.0000   1.0000   1.0000   1.0000   1.0000
     1.0000   1.0000   1.0000   1.0000   1.0000   1.0000   0.9999   0.9999
     0.9999   0.9998   0.9993   0.9990   0.9986   0.9984   0.9980   0.9977
     0.9973   0.9968   0.9965   0.9961   0.9952   0.9951   0.9947   0.9937
     0.9926   0.9912   0.9888   0.9874   0.9866   0.9853   0.9829   0.9795
     0.9775   0.9655   0.9563   0.9512   0.9476   0.9370   0.9237   0.9169
     0.9082   0.9012   0.8993   0.8670   0.8538   0.8207   0.7820   0.7475
     0.7400   0.7371   0.7271   0.7199   0.7146   0.7089   0.7054   0.6996
     0.6920   0.6855   0.6766   0.6734   0.6672   0.6555   0.6487   0.6429
     0.6262   0.4503   0.3965   0.3701   0.3346   0.3171   0.2135   0.1758
     0.0730   0.0397   0.0194   0.0070   0.0028   0.0003   0.0002   0.0001
     0.0001   0.0001   0.0000   0.0000   0.0000   0.0000   0.0000   0.0000
     0.0000   0.0000   0.0000   0.0000   0.0000   0.0000   0.0000   0.0000
     0.0000   0.0000   0.0000   0.0000   0.0000   0.0000   0.0000   0.0000

          k = 0.2500-0.5000 0.0000 ( 65138 PWs)   bands (ev):

   -92.7326 -92.6801 -92.5870 -92.5390 -92.4809 -92.4395 -92.4216 -92.2990
   -56.0860 -56.0665 -55.9441 -55.9333 -55.9263 -55.9202 -55.8835 -55.8561
   -55.8401 -55.8392 -55.8316 -55.7885 -55.7703 -55.7324 -55.7136 -55.6799
   -55.6745 -55.6274 -55.6264 -55.6246 -55.6162 -55.5735 -55.5520 -55.4650
   -31.3067 -31.2902 -31.1823 -31.1475 -31.0733 -31.0604 -30.8902 -30.6090
   -29.8790 -29.8370 -29.8123 -29.7033 -15.0094 -14.9656 -14.8940 -14.7832
   -14.7498 -14.6320 -14.5392 -14.4137 -14.1056 -14.0543 -14.0264 -14.0027
   -13.9889 -13.9741 -13.9390 -13.9192 -13.8911 -13.8512 -13.8305 -13.7891
   -13.6971 -13.6491 -13.5932 -13.5696 -13.5013 -13.4887 -13.4111 -13.3776
   -13.2375 -13.1730 -13.1581 -13.0973 -13.0593 -13.0407 -13.0164 -12.9951
   -12.9727 -12.9421 -12.9011 -12.8751 -12.8260 -12.7791 -12.7563 -12.6868
   -12.6556 -12.5582 -12.5510 -12.4065 -12.3509 -12.2983 -12.1753 -12.1373
   -11.8074 -11.7951 -11.7842 -11.7573 -11.7258 -11.6971 -11.6563 -11.6279
   -11.6064 -11.5601 -11.5349 -11.5238  -2.4807  -2.4169  -2.2871  -2.2105
    -2.0793  -1.9970  -1.8726  -1.7233  -1.6677  -1.6463  -1.5847  -1.5718
    -1.4735  -1.4078  -1.3224  -1.2718  -1.2626  -1.2001  -1.1562  -1.1234
    -1.0758  -1.0386  -1.0036  -0.9639  -0.9515  -0.9075  -0.8782  -0.8357
    -0.8050  -0.7377  -0.6351  -0.5983  -0.5174  -0.4515  -0.3996  -0.3603
    -0.3416  -0.2813  -0.1260  -0.1159  -0.0087   0.0198   0.0278   0.0730
     0.1107   0.1421   0.1777   0.2444   0.5217   0.6210   0.6674   0.7263
     1.0080   1.0223   1.1130   1.1404   1.3050   1.3406   1.3803   1.4041
     1.4185   1.4399   1.5023   1.5517   1.5850   1.6571   1.7615   1.7928
     1.8126   1.8205   1.8590   1.8725   1.8826   1.9238   1.9337   1.9540
     1.9813   2.0007   2.0271   2.0585   2.1176   2.1609   2.2360   2.3733
     2.5224   2.5385   2.5564   2.5844   2.6053   2.6385   2.6602   2.6729
     2.6952   2.7811   2.7951   2.8499   2.8647   2.8706   2.8825   2.9021
     2.9156   2.9360   2.9463   2.9786   2.9860   3.0025   3.0083   3.0169
     3.0279   3.5397   3.5764   3.7110   3.7676   4.0917   4.1502   4.1688
     4.2904   4.7191   4.9019   5.0339   5.1111   5.2734   5.4103   5.5811
     5.6246   5.7369   5.7619   6.1928   6.3775   6.4525   6.5132   7.1025
     7.4627   7.5386   7.6800   7.7858   7.8519   7.8911   8.0148   8.1330
     8.3204   8.3874   8.4516   8.5126   8.5274   8.6572   8.6924   8.7449

     occupation numbers 
     1.0000   1.0000   1.0000   1.0000   1.0000   1.0000   1.0000   1.0000
     1.0000   1.0000   1.0000   1.0000   1.0000   1.0000   1.0000   1.0000
     1.0000   1.0000   1.0000   1.0000   1.0000   1.0000   1.0000   1.0000
     1.0000   1.0000   1.0000   1.0000   1.0000   1.0000   1.0000   1.0000
     1.0000   1.0000   1.0000   1.0000   1.0000   1.0000   1.0000   1.0000
     1.0000   1.0000   1.0000   1.0000   1.0000   1.0000   1.0000   1.0000
     1.0000   1.0000   1.0000   1.0000   1.0000   1.0000   1.0000   1.0000
     1.0000   1.0000   1.0000   1.0000   1.0000   1.0000   1.0000   1.0000
     1.0000   1.0000   1.0000   1.0000   1.0000   1.0000   1.0000   1.0000
     1.0000   1.0000   1.0000   1.0000   1.0000   1.0000   1.0000   1.0000
     1.0000   1.0000   1.0000   1.0000   1.0000   1.0000   1.0000   1.0000
     1.0000   1.0000   1.0000   1.0000   1.0000   1.0000   1.0000   1.0000
     1.0000   1.0000   1.0000   1.0000   1.0000   1.0000   1.0000   1.0000
     1.0000   1.0000   1.0000   1.0000   1.0000   1.0000   1.0000   1.0000
     1.0000   1.0000   1.0000   1.0000   1.0000   1.0000   1.0000   1.0000
     1.0000   1.0000   1.0000   1.0000   1.0000   1.0000   1.0000   1.0000
     1.0000   1.0000   1.0000   1.0000   1.0000   1.0000   1.0000   1.0000
     1.0000   1.0000   1.0000   1.0000   1.0000   1.0000   1.0000   1.0000
     1.0000   1.0000   1.0000   1.0000   1.0000   1.0000   1.0000   1.0000
     1.0000   1.0000   1.0000   1.0000   1.0000   1.0000   1.0000   0.9999
     0.9997   0.9996   0.9994   0.9993   0.9984   0.9981   0.9978   0.9975
     0.9973   0.9971   0.9961   0.9952   0.9944   0.9925   0.9886   0.9871
     0.9861   0.9857   0.9835   0.9827   0.9820   0.9791   0.9784   0.9768
     0.9745   0.9727   0.9701   0.9668   0.9598   0.9539   0.9421   0.9144
     0.8743   0.8694   0.8636   0.8543   0.8471   0.8352   0.8270   0.8222
     0.8134   0.7773   0.7710   0.7456   0.7386   0.7357   0.7299   0.7202
     0.7134   0.7030   0.6977   0.6808   0.6768   0.6679   0.6648   0.6602
     0.6542   0.3582   0.3380   0.2684   0.2414   0.1184   0.1021   0.0972
     0.0697   0.0172   0.0085   0.0049   0.0035   0.0017   0.0008   0.0003
     0.0003   0.0001   0.0001   0.0000   0.0000   0.0000   0.0000   0.0000
     0.0000   0.0000   0.0000   0.0000   0.0000   0.0000   0.0000   0.0000
     0.0000   0.0000   0.0000   0.0000   0.0000   0.0000   0.0000   0.0000

          k =-0.5000-0.5000 0.0000 ( 65132 PWs)   bands (ev):

   -92.7326 -92.6801 -92.5870 -92.5390 -92.4809 -92.4395 -92.4216 -92.2990
   -56.0860 -56.0665 -55.9441 -55.9333 -55.9263 -55.9202 -55.8835 -55.8561
   -55.8401 -55.8392 -55.8315 -55.7885 -55.7703 -55.7324 -55.7136 -55.6799
   -55.6745 -55.6274 -55.6264 -55.6246 -55.6162 -55.5735 -55.5520 -55.4650
   -31.3046 -31.2923 -31.1822 -31.1471 -31.0733 -31.0608 -30.8904 -30.6090
   -29.8781 -29.8380 -29.8119 -29.7038 -14.9616 -14.9383 -14.8212 -14.8063
   -14.7147 -14.6776 -14.6470 -14.5125 -14.0167 -14.0041 -13.9695 -13.9535
   -13.9333 -13.9152 -13.8919 -13.8810 -13.8671 -13.8597 -13.8450 -13.7661
   -13.7578 -13.7344 -13.6948 -13.6771 -13.5887 -13.5553 -13.4519 -13.4259
   -13.1881 -13.1555 -13.0820 -13.0727 -13.0564 -13.0286 -13.0146 -13.0055
   -12.9935 -12.9832 -12.8840 -12.8523 -12.8265 -12.8163 -12.7816 -12.6372
   -12.6293 -12.5687 -12.5612 -12.3827 -12.3472 -12.2704 -12.1657 -12.1432
   -11.8034 -11.7918 -11.7741 -11.7568 -11.7224 -11.7037 -11.6696 -11.6076
   -11.5888 -11.5826 -11.5328 -11.5296  -2.2559  -2.1806  -2.1731  -2.1004
    -2.0610  -1.9827  -1.9145  -1.7894  -1.6734  -1.6436  -1.6021  -1.5466
    -1.4754  -1.4603  -1.3897  -1.3478  -1.2309  -1.1998  -1.1538  -1.1242
    -1.0598  -1.0127  -0.9949  -0.9823  -0.9286  -0.8845  -0.8687  -0.7564
    -0.6984  -0.6505  -0.6025  -0.5764  -0.5622  -0.5282  -0.4870  -0.4481
    -0.4416  -0.3546  -0.2856  -0.2422  -0.2149  -0.1426  -0.0814  -0.0761
    -0.0124   0.0134   0.0192   0.0295   0.4925   0.5470   0.6135   0.6337
     1.0344   1.0478   1.0803   1.1179   1.3909   1.4084   1.4165   1.4560
     1.5858   1.6803   1.7072   1.7441   1.7704   1.7836   1.7959   1.8270
     1.8387   1.8585   1.8640   1.9117   1.9189   1.9433   1.9616   1.9780
     1.9899   2.0326   2.0563   2.0704   2.1034   2.1293   2.2004   2.2668
     2.5347   2.5673   2.5827   2.6032   2.6069   2.6430   2.6484   2.6677
     2.6810   2.6956   2.7106   2.7312   2.7874   2.7951   2.8056   2.8198
     2.8354   2.8461   2.8657   2.8762   2.9020   2.9823   2.9914   3.0127
     3.0235   3.9628   4.0152   4.0176   4.0691   4.2866   4.3588   4.3868
     4.6268   4.7494   4.8321   4.9616   5.0518   5.0658   5.1751   5.2715
     5.3870   5.8413   5.8702   5.9365   6.0254   6.3764   6.5172   6.6449
     7.7980   7.8644   7.8979   7.9189   7.9503   7.9620   7.9993   8.0591
     8.2417   8.2925   8.5206   8.5593   8.5919   8.6101   8.6337   8.7518

     occupation numbers 
     1.0000   1.0000   1.0000   1.0000   1.0000   1.0000   1.0000   1.0000
     1.0000   1.0000   1.0000   1.0000   1.0000   1.0000   1.0000   1.0000
     1.0000   1.0000   1.0000   1.0000   1.0000   1.0000   1.0000   1.0000
     1.0000   1.0000   1.0000   1.0000   1.0000   1.0000   1.0000   1.0000
     1.0000   1.0000   1.0000   1.0000   1.0000   1.0000   1.0000   1.0000
     1.0000   1.0000   1.0000   1.0000   1.0000   1.0000   1.0000   1.0000
     1.0000   1.0000   1.0000   1.0000   1.0000   1.0000   1.0000   1.0000
     1.0000   1.0000   1.0000   1.0000   1.0000   1.0000   1.0000   1.0000
     1.0000   1.0000   1.0000   1.0000   1.0000   1.0000   1.0000   1.0000
     1.0000   1.0000   1.0000   1.0000   1.0000   1.0000   1.0000   1.0000
     1.0000   1.0000   1.0000   1.0000   1.0000   1.0000   1.0000   1.0000
     1.0000   1.0000   1.0000   1.0000   1.0000   1.0000   1.0000   1.0000
     1.0000   1.0000   1.0000   1.0000   1.0000   1.0000   1.0000   1.0000
     1.0000   1.0000   1.0000   1.0000   1.0000   1.0000   1.0000   1.0000
     1.0000   1.0000   1.0000   1.0000   1.0000   1.0000   1.0000   1.0000
     1.0000   1.0000   1.0000   1.0000   1.0000   1.0000   1.0000   1.0000
     1.0000   1.0000   1.0000   1.0000   1.0000   1.0000   1.0000   1.0000
     1.0000   1.0000   1.0000   1.0000   1.0000   1.0000   1.0000   1.0000
     1.0000   1.0000   1.0000   1.0000   1.0000   1.0000   1.0000   1.0000
     1.0000   1.0000   1.0000   1.0000   1.0000   1.0000   1.0000   1.0000
     0.9996   0.9996   0.9995   0.9994   0.9977   0.9975   0.9974   0.9968
     0.9944   0.9918   0.9908   0.9894   0.9882   0.9876   0.9870   0.9854
     0.9847   0.9835   0.9832   0.9800   0.9795   0.9776   0.9761   0.9747
     0.9737   0.9696   0.9671   0.9655   0.9616   0.9583   0.9480   0.9366
     0.8705   0.8600   0.8549   0.8478   0.8466   0.8335   0.8315   0.8242
     0.8190   0.8133   0.8072   0.7988   0.7745   0.7710   0.7663   0.7598
     0.7525   0.7474   0.7381   0.7330   0.7202   0.6788   0.6739   0.6625
     0.6566   0.1607   0.1424   0.1416   0.1252   0.0705   0.0571   0.0525
     0.0240   0.0154   0.0112   0.0067   0.0045   0.0043   0.0026   0.0017
     0.0009   0.0001   0.0001   0.0000   0.0000   0.0000   0.0000   0.0000
     0.0000   0.0000   0.0000   0.0000   0.0000   0.0000   0.0000   0.0000
     0.0000   0.0000   0.0000   0.0000   0.0000   0.0000   0.0000   0.0000

          k = 0.2500 0.0000 0.0000 ( 65257 PWs)   bands (ev):

   -92.7326 -92.6801 -92.5870 -92.5390 -92.4809 -92.4395 -92.4216 -92.2990
   -56.0860 -56.0665 -55.9441 -55.9334 -55.9263 -55.9202 -55.8835 -55.8561
   -55.8401 -55.8392 -55.8316 -55.7885 -55.7703 -55.7324 -55.7136 -55.6799
   -55.6745 -55.6274 -55.6264 -55.6246 -55.6162 -55.5735 -55.5520 -55.4650
   -31.3071 -31.2905 -31.1828 -31.1471 -31.0728 -31.0602 -30.8905 -30.6087
   -29.8803 -29.8376 -29.8111 -29.7027 -15.0800 -15.0364 -14.9696 -14.8216
   -14.7167 -14.5188 -14.3892 -14.2103 -14.1914 -14.1626 -14.1293 -14.1061
   -14.0705 -14.0554 -14.0373 -13.9996 -13.8738 -13.8431 -13.6909 -13.6285
   -13.6108 -13.5480 -13.5241 -13.5111 -13.4546 -13.3778 -13.3433 -13.2731
   -13.2092 -13.1903 -13.1628 -13.0914 -13.0763 -13.0603 -13.0447 -13.0178
   -12.9942 -12.9724 -12.9667 -12.9370 -12.8505 -12.8189 -12.8011 -12.7119
   -12.6703 -12.5796 -12.5540 -12.5325 -12.4365 -12.2793 -12.0906 -12.0260
[...]
     0.7448   0.7291   0.7168   0.7146   0.7031   0.6989   0.6914   0.6797
     0.6757   0.6638   0.6566   0.6539   0.6469   0.6354   0.6217   0.6189
     0.6146   0.6110   0.6052   0.5997   0.5247   0.3577   0.3199   0.2029
     0.0782   0.0466   0.0221   0.0057   0.0046   0.0003   0.0001   0.0000
     0.0000   0.0000   0.0000   0.0000   0.0000   0.0000   0.0000   0.0000
     0.0000   0.0000   0.0000   0.0000   0.0000   0.0000   0.0000   0.0000
     0.0000   0.0000   0.0000   0.0000   0.0000   0.0000   0.0000   0.0000

          k =-0.5000 0.0000 0.0000 ( 65180 PWs)   bands (ev):

   -92.7326 -92.6801 -92.5870 -92.5390 -92.4809 -92.4395 -92.4216 -92.2990
   -56.0860 -56.0665 -55.9441 -55.9333 -55.9263 -55.9202 -55.8835 -55.8561
   -55.8401 -55.8392 -55.8315 -55.7885 -55.7703 -55.7324 -55.7136 -55.6799
   -55.6745 -55.6274 -55.6264 -55.6246 -55.6162 -55.5735 -55.5520 -55.4650
   -31.3050 -31.2925 -31.1827 -31.1467 -31.0727 -31.0605 -30.8906 -30.6088
   -29.8793 -29.8386 -29.8107 -29.7031 -15.0462 -14.9923 -14.9317 -14.8269
   -14.7191 -14.5770 -14.4264 -14.2950 -14.1641 -14.1560 -14.1398 -14.0798
   -14.0226 -13.9893 -13.9411 -13.9372 -13.9193 -13.8700 -13.8612 -13.7523
   -13.5864 -13.5533 -13.5256 -13.5191 -13.4564 -13.3954 -13.3497 -13.2986
   -13.2765 -13.2747 -13.1566 -13.0852 -13.0745 -13.0536 -13.0413 -13.0355
   -12.9785 -12.9695 -12.9612 -12.9409 -12.8133 -12.6713 -12.6642 -12.6621
   -12.6359 -12.5712 -12.5546 -12.4943 -12.3871 -12.3572 -12.1664 -12.1184
   -11.8112 -11.7893 -11.7829 -11.7671 -11.7492 -11.7081 -11.6455 -11.6284
   -11.5964 -11.5490 -11.5402 -11.5249  -2.6132  -2.5751  -2.4110  -2.3724
    -2.0581  -1.9825  -1.8346  -1.7180  -1.6781  -1.6326  -1.5842  -1.5602
    -1.4371  -1.3928  -1.3769  -1.2946  -1.2605  -1.2432  -1.2128  -1.1545
    -1.0858  -1.0573  -1.0275  -0.9344  -0.8861  -0.8363  -0.8042  -0.7834
    -0.7529  -0.7050  -0.6809  -0.6401  -0.5403  -0.4745  -0.4010  -0.3421
    -0.1782  -0.1468  -0.0882  -0.0497   0.0146   0.0234   0.1610   0.1921
     0.2308   0.4088   0.5079   0.5549   0.6322   0.7050   0.8250   0.8380
     0.9743   0.9996   1.0528   1.0810   1.1161   1.1320   1.1746   1.2005
     1.2708   1.3136   1.3609   1.3699   1.6674   1.6771   1.7009   1.7162
     1.8277   1.8393   1.8496   1.8564   1.8887   1.8998   1.9367   1.9629
     1.9830   2.0457   2.0576   2.1105   2.1285   2.1900   2.2911   2.3980
     2.4695   2.4855   2.5631   2.5947   2.6167   2.6804   2.6976   2.7064
     2.7370   2.7765   2.8088   2.8590   2.9052   2.9308   2.9688   2.9729
     2.9736   2.9856   3.0013   3.0113   3.0264   3.0332   3.0537   3.0579
     3.0771   3.0973   3.1031   3.2318   3.2399   4.0246   4.1122   4.1597
     4.2855   4.7632   4.8410   5.0133   5.0204   5.4669   5.4887   5.5789
     5.6212   5.9674   6.0041   6.0351   6.7820   6.8689   6.9883   7.2598
     7.2947   7.3617   7.3982   7.5097   7.7126   7.7191   7.7512   7.8621
     8.0897   8.2785   8.4741   8.5305   8.6137   8.7139   8.7364   8.8401

     occupation numbers 
     1.0000   1.0000   1.0000   1.0000   1.0000   1.0000   1.0000   1.0000
     1.0000   1.0000   1.0000   1.0000   1.0000   1.0000   1.0000   1.0000
     1.0000   1.0000   1.0000   1.0000   1.0000   1.0000   1.0000   1.0000
     1.0000   1.0000   1.0000   1.0000   1.0000   1.0000   1.0000   1.0000
     1.0000   1.0000   1.0000   1.0000   1.0000   1.0000   1.0000   1.0000
     1.0000   1.0000   1.0000   1.0000   1.0000   1.0000   1.0000   1.0000
     1.0000   1.0000   1.0000   1.0000   1.0000   1.0000   1.0000   1.0000
     1.0000   1.0000   1.0000   1.0000   1.0000   1.0000   1.0000   1.0000
     1.0000   1.0000   1.0000   1.0000   1.0000   1.0000   1.0000   1.0000
     1.0000   1.0000   1.0000   1.0000   1.0000   1.0000   1.0000   1.0000
     1.0000   1.0000   1.0000   1.0000   1.0000   1.0000   1.0000   1.0000
     1.0000   1.0000   1.0000   1.0000   1.0000   1.0000   1.0000   1.0000
     1.0000   1.0000   1.0000   1.0000   1.0000   1.0000   1.0000   1.0000
     1.0000   1.0000   1.0000   1.0000   1.0000   1.0000   1.0000   1.0000
     1.0000   1.0000   1.0000   1.0000   1.0000   1.0000   1.0000   1.0000
     1.0000   1.0000   1.0000   1.0000   1.0000   1.0000   1.0000   1.0000
     1.0000   1.0000   1.0000   1.0000   1.0000   1.0000   1.0000   1.0000
     1.0000   1.0000   1.0000   1.0000   1.0000   1.0000   1.0000   1.0000
     1.0000   1.0000   1.0000   1.0000   1.0000   1.0000   1.0000   1.0000
     1.0000   1.0000   1.0000   1.0000   1.0000   0.9999   0.9999   0.9999
     0.9997   0.9997   0.9996   0.9995   0.9994   0.9993   0.9992   0.9991
     0.9987   0.9984   0.9980   0.9979   0.9922   0.9919   0.9910   0.9905
     0.9853   0.9847   0.9841   0.9837   0.9816   0.9809   0.9781   0.9760
     0.9743   0.9682   0.9669   0.9607   0.9584   0.9496   0.9320   0.9086
     0.8898   0.8853   0.8614   0.8508   0.8431   0.8193   0.8125   0.8089
     0.7963   0.7793   0.7648   0.7413   0.7186   0.7057   0.6859   0.6838
     0.6834   0.6770   0.6686   0.6632   0.6550   0.6512   0.6399   0.6376
     0.6268   0.6154   0.6122   0.5374   0.5326   0.1393   0.1125   0.0996
     0.0707   0.0146   0.0108   0.0054   0.0052   0.0006   0.0006   0.0003
     0.0003   0.0000   0.0000   0.0000   0.0000   0.0000   0.0000   0.0000
     0.0000   0.0000   0.0000   0.0000   0.0000   0.0000   0.0000   0.0000
     0.0000   0.0000   0.0000   0.0000   0.0000   0.0000   0.0000   0.0000

          k =-0.2500 0.2500 0.0000 ( 65198 PWs)   bands (ev):

   -92.7326 -92.6801 -92.5870 -92.5390 -92.4809 -92.4395 -92.4216 -92.2990
   -56.0860 -56.0665 -55.9441 -55.9333 -55.9263 -55.9202 -55.8835 -55.8561
   -55.8401 -55.8392 -55.8316 -55.7885 -55.7703 -55.7324 -55.7136 -55.6799
   -55.6745 -55.6274 -55.6264 -55.6246 -55.6162 -55.5735 -55.5520 -55.4650
   -31.3069 -31.2903 -31.1826 -31.1473 -31.0731 -31.0603 -30.8904 -30.6088
   -29.8797 -29.8373 -29.8117 -29.7030 -15.0488 -15.0048 -14.9346 -14.8168
   -14.7057 -14.5786 -14.4946 -14.2884 -14.1479 -14.1180 -14.1056 -14.0575
   -14.0332 -14.0131 -13.9948 -13.9610 -13.8695 -13.8579 -13.7035 -13.6787
   -13.6484 -13.6282 -13.5785 -13.5283 -13.4683 -13.4659 -13.3598 -13.3235
   -13.2545 -13.1782 -13.1396 -13.1095 -13.0710 -13.0445 -13.0239 -12.9962
   -12.9696 -12.9579 -12.9468 -12.8952 -12.8321 -12.8013 -12.7877 -12.7229
   -12.6722 -12.5555 -12.4833 -12.4725 -12.4398 -12.3132 -12.1312 -12.0599
   -11.8307 -11.8096 -11.7819 -11.7701 -11.7289 -11.6940 -11.6710 -11.6500
   -11.6274 -11.5416 -11.4969 -11.4874  -2.6982  -2.4900  -2.3690  -2.2802
    -2.1622  -2.0958  -1.8922  -1.7474  -1.7291  -1.6987  -1.6068  -1.5729
    -1.4792  -1.4454  -1.4185  -1.2764  -1.2209  -1.1519  -1.1232  -1.0630
    -1.0431  -1.0027  -0.9739  -0.9334  -0.8708  -0.8232  -0.7587  -0.6911
    -0.6659  -0.6141  -0.5867  -0.5407  -0.4824  -0.4351  -0.3967  -0.2936
    -0.2641  -0.2513  -0.2080  -0.1433  -0.0640  -0.0294   0.0033   0.0733
     0.0992   0.3580   0.5285   0.5687   0.6083   0.6672   0.7111   0.7654
     0.8383   0.8664   1.1490   1.2587   1.2981   1.3330   1.3368   1.3805
     1.3963   1.4415   1.4729   1.4867   1.5126   1.5589   1.5738   1.6126
     1.6326   1.6766   1.7702   1.7799   1.8016   1.8322   1.8655   1.9049
     1.9482   2.0621   2.1721   2.1992   2.2466   2.2659   2.3304   2.3742
     2.4019   2.4269   2.4458   2.5471   2.5847   2.6761   2.7711   2.8541
     2.8610   2.8731   2.8840   2.8940   2.9130   2.9159   2.9331   2.9435
     2.9569   2.9661   2.9792   2.9881   2.9941   3.0275   3.0376   3.0465
     3.0800   3.3724   3.4535   3.5186   3.5868   3.6273   3.8134   3.9309
     4.2740   4.4731   4.6893   4.9598   5.1571   5.6197   5.6693   5.7343
     5.8026   5.8664   6.0220   6.1532   6.1876   6.7678   6.8819   7.0707
     7.2256   7.5434   7.5886   7.6482   7.8164   7.8623   7.9006   8.1101
     8.1528   8.2138   8.2801   8.3076   8.4231   8.4607   8.7053   8.8311

     occupation numbers 
     1.0000   1.0000   1.0000   1.0000   1.0000   1.0000   1.0000   1.0000
     1.0000   1.0000   1.0000   1.0000   1.0000   1.0000   1.0000   1.0000
     1.0000   1.0000   1.0000   1.0000   1.0000   1.0000   1.0000   1.0000
     1.0000   1.0000   1.0000   1.0000   1.0000   1.0000   1.0000   1.0000
     1.0000   1.0000   1.0000   1.0000   1.0000   1.0000   1.0000   1.0000
     1.0000   1.0000   1.0000   1.0000   1.0000   1.0000   1.0000   1.0000
     1.0000   1.0000   1.0000   1.0000   1.0000   1.0000   1.0000   1.0000
     1.0000   1.0000   1.0000   1.0000   1.0000   1.0000   1.0000   1.0000
     1.0000   1.0000   1.0000   1.0000   1.0000   1.0000   1.0000   1.0000
     1.0000   1.0000   1.0000   1.0000   1.0000   1.0000   1.0000   1.0000
     1.0000   1.0000   1.0000   1.0000   1.0000   1.0000   1.0000   1.0000
     1.0000   1.0000   1.0000   1.0000   1.0000   1.0000   1.0000   1.0000
     1.0000   1.0000   1.0000   1.0000   1.0000   1.0000   1.0000   1.0000
     1.0000   1.0000   1.0000   1.0000   1.0000   1.0000   1.0000   1.0000
     1.0000   1.0000   1.0000   1.0000   1.0000   1.0000   1.0000   1.0000
     1.0000   1.0000   1.0000   1.0000   1.0000   1.0000   1.0000   1.0000
     1.0000   1.0000   1.0000   1.0000   1.0000   1.0000   1.0000   1.0000
     1.0000   1.0000   1.0000   1.0000   1.0000   1.0000   1.0000   1.0000
     1.0000   1.0000   1.0000   1.0000   1.0000   1.0000   1.0000   1.0000
     1.0000   1.0000   1.0000   1.0000   1.0000   1.0000   0.9999   0.9999
     0.9999   0.9998   0.9993   0.9988   0.9985   0.9982   0.9982   0.9978
     0.9976   0.9970   0.9966   0.9964   0.9959   0.9950   0.9947   0.9938
     0.9932   0.9919   0.9882   0.9878   0.9867   0.9851   0.9831   0.9805
     0.9772   0.9664   0.9523   0.9481   0.9402   0.9367   0.9240   0.9142
     0.9076   0.9013   0.8963   0.8666   0.8542   0.8209   0.7817   0.7436
     0.7403   0.7345   0.7291   0.7242   0.7147   0.7132   0.7045   0.6991
     0.6921   0.6874   0.6805   0.6757   0.6725   0.6544   0.6488   0.6439
     0.6252   0.4542   0.4069   0.3699   0.3324   0.3108   0.2207   0.1725
     0.0730   0.0401   0.0192   0.0067   0.0028   0.0003   0.0002   0.0001
     0.0001   0.0001   0.0000   0.0000   0.0000   0.0000   0.0000   0.0000
     0.0000   0.0000   0.0000   0.0000   0.0000   0.0000   0.0000   0.0000
     0.0000   0.0000   0.0000   0.0000   0.0000   0.0000   0.0000   0.0000

          k =-0.5000 0.2500 0.0000 ( 65138 PWs)   bands (ev):

   -92.7326 -92.6801 -92.5870 -92.5390 -92.4809 -92.4395 -92.4216 -92.2990
   -56.0860 -56.0665 -55.9441 -55.9333 -55.9263 -55.9202 -55.8835 -55.8561
   -55.8401 -55.8392 -55.8315 -55.7885 -55.7703 -55.7324 -55.7136 -55.6799
   -55.6745 -55.6274 -55.6264 -55.6246 -55.6162 -55.5735 -55.5520 -55.4650
   -31.3048 -31.2924 -31.1825 -31.1469 -31.0730 -31.0607 -30.8905 -30.6089
   -29.8787 -29.8383 -29.8113 -29.7034 -15.0130 -14.9663 -14.8884 -14.7925
   -14.7492 -14.6237 -14.5327 -14.4093 -14.0984 -14.0679 -14.0559 -14.0082
   -13.9895 -13.9629 -13.9271 -13.9238 -13.8970 -13.8628 -13.8507 -13.7448
   -13.6689 -13.6198 -13.6149 -13.6001 -13.5073 -13.4986 -13.3986 -13.3599
   -13.2306 -13.1965 -13.1167 -13.0946 -13.0574 -13.0466 -13.0279 -12.9993
   -12.9774 -12.9684 -12.9541 -12.9026 -12.8210 -12.7328 -12.7107 -12.6535
   -12.6462 -12.5696 -12.5560 -12.4305 -12.3526 -12.3242 -12.1649 -12.1293
   -11.8038 -11.7907 -11.7768 -11.7651 -11.7429 -11.7129 -11.6329 -11.6235
   -11.6014 -11.5636 -11.5361 -11.5275  -2.4707  -2.4292  -2.2806  -2.2390
    -2.0777  -2.0011  -1.8589  -1.7243  -1.6662  -1.6401  -1.6006  -1.5626
    -1.4819  -1.3669  -1.3096  -1.2870  -1.2611  -1.1827  -1.1563  -1.1169
    -1.0999  -1.0389  -1.0091  -0.9712  -0.9361  -0.9071  -0.8489  -0.8224
    -0.7811  -0.7457  -0.6410  -0.6139  -0.5227  -0.4676  -0.4312  -0.3731
    -0.2924  -0.2590  -0.1574  -0.1165  -0.0621  -0.0091   0.0189   0.0891
     0.1115   0.1436   0.1998   0.2388   0.5519   0.6210   0.6664   0.6828
     0.9849   1.0413   1.1152   1.1431   1.3181   1.3544   1.3915   1.4034
     1.4215   1.4390   1.5103   1.5529   1.5957   1.6231   1.7475   1.7857
     1.8106   1.8197   1.8557   1.8878   1.9005   1.9110   1.9326   1.9570
     1.9962   2.0194   2.0516   2.0751   2.1067   2.1651   2.2851   2.3862
     2.4174   2.4839   2.5213   2.5801   2.6162   2.6257   2.6650   2.6855
     2.7200   2.7792   2.8069   2.8490   2.8643   2.8814   2.8883   2.9105
     2.9216   2.9409   2.9512   2.9726   2.9836   2.9946   3.0014   3.0113
     3.0227   3.5503   3.6038   3.7421   3.7638   4.0331   4.1301   4.1646
     4.3707   4.7571   4.8568   5.0103   5.0461   5.3788   5.4023   5.5735
     5.6107   5.7192   5.7590   6.1044   6.3765   6.4833   6.7411   6.9840
     7.4785   7.5191   7.6935   7.7730   7.8257   7.8689   7.9991   8.0958
     8.2815   8.4115   8.4556   8.5172   8.5521   8.6395   8.6734   8.7460

     occupation numbers 
     1.0000   1.0000   1.0000   1.0000   1.0000   1.0000   1.0000   1.0000
     1.0000   1.0000   1.0000   1.0000   1.0000   1.0000   1.0000   1.0000
     1.0000   1.0000   1.0000   1.0000   1.0000   1.0000   1.0000   1.0000
     1.0000   1.0000   1.0000   1.0000   1.0000   1.0000   1.0000   1.0000
     1.0000   1.0000   1.0000   1.0000   1.0000   1.0000   1.0000   1.0000
     1.0000   1.0000   1.0000   1.0000   1.0000   1.0000   1.0000   1.0000
     1.0000   1.0000   1.0000   1.0000   1.0000   1.0000   1.0000   1.0000
     1.0000   1.0000   1.0000   1.0000   1.0000   1.0000   1.0000   1.0000
     1.0000   1.0000   1.0000   1.0000   1.0000   1.0000   1.0000   1.0000
     1.0000   1.0000   1.0000   1.0000   1.0000   1.0000   1.0000   1.0000
     1.0000   1.0000   1.0000   1.0000   1.0000   1.0000   1.0000   1.0000
     1.0000   1.0000   1.0000   1.0000   1.0000   1.0000   1.0000   1.0000
     1.0000   1.0000   1.0000   1.0000   1.0000   1.0000   1.0000   1.0000
     1.0000   1.0000   1.0000   1.0000   1.0000   1.0000   1.0000   1.0000
     1.0000   1.0000   1.0000   1.0000   1.0000   1.0000   1.0000   1.0000
     1.0000   1.0000   1.0000   1.0000   1.0000   1.0000   1.0000   1.0000
     1.0000   1.0000   1.0000   1.0000   1.0000   1.0000   1.0000   1.0000
     1.0000   1.0000   1.0000   1.0000   1.0000   1.0000   1.0000   1.0000
     1.0000   1.0000   1.0000   1.0000   1.0000   1.0000   1.0000   1.0000
     1.0000   1.0000   1.0000   1.0000   1.0000   1.0000   1.0000   0.9999
     0.9997   0.9996   0.9994   0.9993   0.9983   0.9980   0.9976   0.9975
     0.9973   0.9971   0.9960   0.9952   0.9942   0.9935   0.9892   0.9875
     0.9862   0.9858   0.9837   0.9817   0.9808   0.9801   0.9785   0.9765
     0.9731   0.9709   0.9676   0.9650   0.9612   0.9533   0.9331   0.9114
     0.9037   0.8858   0.8747   0.8558   0.8433   0.8399   0.8252   0.8173
     0.8034   0.7781   0.7657   0.7461   0.7388   0.7304   0.7270   0.7160
     0.7104   0.7005   0.6951   0.6839   0.6781   0.6722   0.6686   0.6632
     0.6570   0.3523   0.3232   0.2534   0.2432   0.1365   0.1075   0.0983
     0.0551   0.0150   0.0102   0.0054   0.0047   0.0010   0.0009   0.0004
     0.0003   0.0002   0.0001   0.0000   0.0000   0.0000   0.0000   0.0000
     0.0000   0.0000   0.0000   0.0000   0.0000   0.0000   0.0000   0.0000
     0.0000   0.0000   0.0000   0.0000   0.0000   0.0000   0.0000   0.0000

     the Fermi energy is     3.2950 ev

!    total energy              =   -4399.91999893 Ry
     estimated scf accuracy    <          7.6E-09 Ry
     smearing contrib. (-TS)   =      -1.14669398 Ry
     internal energy E=F+TS    =   -4398.77330495 Ry

     The total energy is F=E-TS. E is the sum of the following terms:
     one-electron contribution =  -21252.53162727 Ry
     hartree contribution      =   10753.92658521 Ry
     xc contribution           =    -686.72832890 Ry
     ewald contribution        =    7053.20529362 Ry
     one-center paw contrib.   =    -266.64522761 Ry
      -> PAW hartree energy AE =      25.11330553 Ry
      -> PAW hartree energy PS =     -24.99782713 Ry
      -> PAW xc energy AE      =     -16.51035672 Ry
      -> PAW xc energy PS      =       6.86949473 Ry
      -> total E_H with PAW    =   10754.04206361 Ry
      -> total E_XC with PAW   =    -696.36919090 Ry

     convergence has been achieved in  48 iterations

     Writing all to output data dir /bsuhome/zayahcortright/scratch/pwscf.save/
 
     init_run     :      7.64s CPU      7.93s WALL (       1 calls)
     electrons    :    688.98s CPU    701.22s WALL (       1 calls)

     Called by init_run:
     wfcinit      :      5.87s CPU      6.00s WALL (       1 calls)
     wfcinit:atom :      0.06s CPU      0.07s WALL (       5 calls)
     wfcinit:wfcr :      5.53s CPU      5.61s WALL (       5 calls)
     potinit      :      0.16s CPU      0.18s WALL (       1 calls)
     hinit0       :      0.71s CPU      0.77s WALL (       1 calls)

     Called by electrons:
     c_bands      :    545.56s CPU    550.48s WALL (      48 calls)
     sum_band     :    107.41s CPU    111.65s WALL (      48 calls)
     v_of_rho     :      5.36s CPU      5.56s WALL (      49 calls)
     v_h          :      0.42s CPU      0.42s WALL (      49 calls)
     v_xc         :      4.94s CPU      5.14s WALL (      49 calls)
     newd         :     16.33s CPU     18.82s WALL (      49 calls)
     PAW_pot      :      1.60s CPU      1.62s WALL (      49 calls)
     mix_rho      :     12.37s CPU     12.63s WALL (      48 calls)

     Called by c_bands:
     init_us_2    :      6.50s CPU      6.55s WALL (     485 calls)
     init_us_2:cp :      6.50s CPU      6.55s WALL (     485 calls)
     cegterg      :    514.93s CPU    519.65s WALL (     240 calls)

     Called by sum_band:
     sum_band:wei :      0.34s CPU      0.34s WALL (      48 calls)
     sum_band:loo :     87.71s CPU     88.35s WALL (      48 calls)
     sum_band:buf :      1.28s CPU      1.29s WALL (     240 calls)
     sum_band:ini :      2.86s CPU      2.87s WALL (     240 calls)
     sum_band:cal :     17.72s CPU     17.77s WALL (     240 calls)
     sum_band:bec :      0.52s CPU      0.53s WALL (     240 calls)
     addusdens    :     17.89s CPU     21.45s WALL (      48 calls)
                                        0.00s GPU  (      48 calls)
     addusd:skk   :      0.34s CPU      0.66s WALL (     192 calls)
                                        0.00s GPU  (     192 calls)

     Called by *egterg:
     cdiaghg      :     57.10s CPU     57.34s WALL (    1311 calls)
     cegterg:over :     38.56s CPU     38.68s WALL (    1071 calls)
     cegterg:upda :     27.84s CPU     28.16s WALL (    1071 calls)
     cegterg:last :     56.31s CPU     56.64s WALL (     441 calls)
     cdiaghg:chol :      3.38s CPU      3.41s WALL (    1311 calls)
     cdiaghg:inve :      3.61s CPU      3.63s WALL (    1311 calls)
     cdiaghg:para :      7.39s CPU      7.43s WALL (    2622 calls)
     h_psi        :    283.37s CPU    286.09s WALL (    1316 calls)
     s_psi        :     36.92s CPU     37.03s WALL (    1316 calls)
     g_psi        :      1.01s CPU      1.02s WALL (    1071 calls)

     Called by h_psi:
     h_psi:calbec :     41.69s CPU     41.82s WALL (    1316 calls)
     vloc_psi     :    201.77s CPU    203.82s WALL (    1316 calls)
     add_vuspsi   :     36.97s CPU     37.13s WALL (    1316 calls)

     General routines
     calbec       :     59.41s CPU     59.59s WALL (    1556 calls)
     fft          :      3.74s CPU      3.78s WALL (     635 calls)
     ffts         :      4.58s CPU      4.62s WALL (    5082 calls)
     fftw         :    173.70s CPU    175.24s WALL (  322840 calls)
     interpolate  :      0.41s CPU      0.42s WALL (      49 calls)
 
     Parallel routines

     PAW routines
     PAW_pot      :      1.60s CPU      1.62s WALL (      49 calls)
 
     PWSCF        :  11m38.23s CPU  11m54.00s WALL

 
   This run was terminated on:  16: 1:10  21Jun2024            

=------------------------------------------------------------------------------=
   JOB DONE.
=------------------------------------------------------------------------------=
