
     Program PWSCF v.7.2 starts on 22Jun2024 at  4:31:35 

     This program is part of the open-source Quantum ESPRESSO suite
     for quantum simulation of materials; please cite
         "P. Giannozzi et al., J. Phys.:Condens. Matter 21 395502 (2009);
         "P. Giannozzi et al., J. Phys.:Condens. Matter 29 465901 (2017);
         "P. Giannozzi et al., J. Chem. Phys. 152 154105 (2020);
          URL http://www.quantum-espresso.org", 
     in publications or presentations arising from this work. More details at
     http://www.quantum-espresso.org/quote

     Parallel version (MPI & OpenMP), running on      48 processor cores
     Number of MPI processes:                48
     Threads/MPI process:                     1

     MPI processes distributed on     1 nodes
     33232 MiB available memory on the printing compute node when the environment starts
 
     Reading input from espresso.pwi
Warning: card &CELL ignored
Warning: card / ignored
Warning: card &FCP ignored
Warning: card / ignored
Warning: card &RISM ignored
Warning: card / ignored

     Current dimensions of program PWSCF are:
     Max number of different atomic species (ntypx) = 10
     Max number of k-points (npk) =  40000
     Max angular momentum in pseudopotentials (lmaxx) =  4
     file O.pbe-n-kjpaw_psl.0.1.UPF: wavefunction(s)  2P renormalized
     signal trapping enabled: kill the code with -SIGUSR1 to stop cleanly the simulation 
 
     K-points division:     npool     =       2
     R & G space division:  proc/nbgrp/npool/nimage =      24
     Subspace diagonalization in iterative solution of the eigenvalue problem:
     one sub-group per band group will be used
     scalapack distributed-memory algorithm (size of sub-group:  3*  3 procs)

 
     Parallelization info
     --------------------
     sticks:   dense  smooth     PW     G-vecs:    dense   smooth      PW
     Min         350     175     47                61430    21716    3036
     Max         351     177     48                61449    21727    3041
     Sum        8421    4205   1137              1474595   521381   72913
 
     Using Slab Decomposition
 


     bravais-lattice index     =            0
     lattice parameter (alat)  =      14.8599  a.u.
     unit-cell volume          =    8305.1283 (a.u.)^3
     number of atoms/cell      =           50
     number of atomic types    =            4
     number of electrons       =       431.00
     number of Kohn-Sham states=          259
     kinetic-energy cutoff     =      60.0000  Ry
     charge density cutoff     =     480.0000  Ry
     scf convergence threshold =      1.0E-08
     mixing beta               =       0.1500
     number of iterations used =            8  local-TF  mixing
     Exchange-correlation= PBE
                           (   1   4   3   4   0   0   0)

     celldm(1)=  14.859904  celldm(2)=   0.000000  celldm(3)=   0.000000
     celldm(4)=   0.000000  celldm(5)=   0.000000  celldm(6)=   0.000000

     crystal axes: (cart. coord. in units of alat)
               a(1) = (   1.000000   0.000000   0.000000 )  
               a(2) = (   0.000000   1.000000   0.000000 )  
               a(3) = (   0.000000   0.000000   2.531036 )  

     reciprocal axes: (cart. coord. in units 2 pi/alat)
               b(1) = (  1.000000  0.000000  0.000000 )  
               b(2) = (  0.000000  1.000000  0.000000 )  
               b(3) = (  0.000000  0.000000  0.395095 )  


     PseudoPot. # 1 for Sr read from file:
     /bsuhome/zayahcortright/q-e/pseudo/Sr_pbe_v1.uspp.F.UPF
     MD5 check sum: 6b418c05fbe9db5448babca5e47b7a5b
     Pseudo is Ultrasoft + core correction, Zval = 10.0
     Generated by new atomic code, or converted to UPF format
     Using radial grid of  883 points,  6 beta functions with: 
                l(1) =   0
                l(2) =   0
                l(3) =   1
                l(4) =   1
                l(5) =   2
                l(6) =   2
     Q(r) pseudized with  6 coefficients,  rinner =    1.400   1.400   1.400
                                                       1.400   1.400

     PseudoPot. # 2 for O  read from file:
     /bsuhome/zayahcortright/q-e/pseudo/O.pbe-n-kjpaw_psl.0.1.UPF
     MD5 check sum: 0234752ac141de4415c5fc33072bef88
     Pseudo is Projector augmented-wave + core cor, Zval =  6.0
     Generated using "atomic" code by A. Dal Corso  v.5.0.99 svn rev. 10869
     Shape of augmentation charge: BESSEL
     Using radial grid of 1095 points,  4 beta functions with: 
                l(1) =   0
                l(2) =   0
                l(3) =   1
                l(4) =   1
     Q(r) pseudized with 0 coefficients 


     PseudoPot. # 3 for Co read from file:
     /bsuhome/zayahcortright/q-e/pseudo/Co_pbe_v1.2.uspp.F.UPF
     MD5 check sum: 5f91765df6ddd3222702df6e7b74a16d
     Pseudo is Ultrasoft + core correction, Zval = 17.0
     Generated by new atomic code, or converted to UPF format
     Using radial grid of  863 points,  6 beta functions with: 
                l(1) =   0
                l(2) =   0
                l(3) =   1
                l(4) =   1
                l(5) =   2
                l(6) =   2
     Q(r) pseudized with  8 coefficients,  rinner =    1.200   1.200   1.200
                                                       1.200   1.200

     PseudoPot. # 4 for H  read from file:
     /bsuhome/zayahcortright/q-e/pseudo/H.pbe-rrkjus_psl.1.0.0.UPF
     MD5 check sum: f52b6d4d1c606e5624b1dc7b2218f220
     Pseudo is Ultrasoft, Zval =  1.0
     Generated using "atomic" code by A. Dal Corso  v.5.1
     Using radial grid of  929 points,  2 beta functions with: 
                l(1) =   0
                l(2) =   0
     Q(r) pseudized with 0 coefficients 


     atomic species   valence    mass     pseudopotential
        Sr            10.00    87.62000     Sr( 1.00)
        O              6.00    15.99900     O ( 1.00)
        Co            17.00    58.93319     Co( 1.00)
        H              1.00     1.00800     H ( 1.00)

     No symmetry found


                                    s                        frac. trans.

      isym =  1     identity                                     

 cryst.   s( 1) = (     1          0          0      )
                  (     0          1          0      )
                  (     0          0          1      )

 cart.    s( 1) = (  1.0000000  0.0000000  0.0000000 )
                  (  0.0000000  1.0000000  0.0000000 )
                  (  0.0000000  0.0000000  1.0000000 )


   Cartesian axes

     site n.     atom                  positions (alat units)
         1           Sr  tau(   1) = (   0.2508693   0.7491307   1.7574407  )
         2           O   tau(   2) = (   0.4985141   0.5014859   1.7715967  )
         3           Sr  tau(   3) = (   0.7482398   0.7454518   1.7648669  )
         4           Sr  tau(   4) = (   0.7441748   0.2558252   1.7667843  )
         5           Sr  tau(   5) = (   0.2508693   0.7491307   1.2696799  )
         6           Sr  tau(   6) = (   0.2508693   0.7491307   0.7632319  )
         7           Co  tau(   7) = (   0.4998914   0.5001086   1.0164559  )
         8           Co  tau(   8) = (   0.4936915   0.5063085   1.5135603  )
         9           O   tau(   9) = (   0.4988895   0.7610401   1.0164559  )
        10           O   tau(  10) = (   0.2389599   0.5011105   1.0164559  )
        11           O   tau(  11) = (   0.0070918   0.7374880   1.0164559  )
        12           O   tau(  12) = (   0.0088340   0.7405089   1.5135603  )
        13           O   tau(  13) = (   0.5066944   0.7415376   1.5135603  )
        14           O   tau(  14) = (   0.2584624   0.4933056   1.5135603  )
        15           O   tau(  15) = (   0.4985141   0.5014859   0.7773880  )
        16           O   tau(  16) = (   0.4985141   0.5014859   1.2555238  )
        17           Sr  tau(  17) = (   0.7482398   0.7454518   0.7706582  )
        18           Sr  tau(  18) = (   0.7482398   0.7454518   1.2622536  )
        19           Sr  tau(  19) = (   0.7441748   0.2558252   0.7725755  )
        20           Sr  tau(  20) = (   0.7441748   0.2558252   1.2603363  )
        21           O   tau(  21) = (   0.7322655   0.0078049   1.5135603  )
        22           O   tau(  22) = (   0.7558175   0.4996027   1.5135603  )
        23           O   tau(  23) = (   0.5003973   0.2441825   1.5135603  )
        24           O   tau(  24) = (   0.7527966   0.4978604   1.0164559  )
        25           O   tau(  25) = (   0.5021396   0.2472034   1.0164559  )
        26           O   tau(  26) = (   0.7517679   0.0000000   1.0164559  )
        27           O   tau(  27) = (   0.0114961   0.4948124   1.7455321  )
        28           O   tau(  28) = (   0.0048226   0.0077944   1.7715967  )
        29           Sr  tau(  29) = (   0.2545482   0.2517602   1.7648669  )
        30           O   tau(  30) = (   0.5048017   0.0015068   1.7786929  )
        31           Co  tau(  31) = (   0.0056869   0.5006215   1.0164559  )
        32           Co  tau(  32) = (   0.0065315   0.4997770   1.5135603  )
        33           Co  tau(  33) = (   0.0061999   0.0064171   1.0164559  )
        34           Co  tau(  34) = (   0.0000000   0.0126169   1.5135603  )
        35           O   tau(  35) = (   0.0114961   0.4948124   1.2815885  )
        36           O   tau(  36) = (   0.0114961   0.4948124   0.7513233  )
        37           O   tau(  37) = (   0.0051979   0.2673486   1.0164559  )
        38           O   tau(  38) = (   0.0130029   0.2478461   1.5135603  )
        39           O   tau(  39) = (   0.0048226   0.0077944   0.7773880  )
        40           O   tau(  40) = (   0.0048226   0.0077944   1.2555238  )
        41           Sr  tau(  41) = (   0.2545482   0.2517602   0.7706582  )
        42           Sr  tau(  42) = (   0.2545482   0.2517602   1.2622536  )
        43           Co  tau(  43) = (   0.4989925   0.0073160   1.5135603  )
        44           Co  tau(  44) = (   0.4998370   0.0064714   1.0164559  )
        45           O   tau(  45) = (   0.5048017   0.0015068   0.7844841  )
        46           O   tau(  46) = (   0.5048017   0.0015068   1.2484277  )
        47           O   tau(  47) = (   0.2621260   0.0059111   1.5135603  )
        48           O   tau(  48) = (   0.2591051   0.0041689   1.0164559  )
        49           O   tau(  49) = (   0.9951520   0.4264937   2.1602013  )
        50           H   tau(  50) = (   0.9951520   0.4264937   2.2847091  )

   Crystallographic axes

     site n.     atom                  positions (cryst. coord.)
         1           Sr  tau(   1) = (  0.2508693  0.7491307  0.6943562  )
         2           O   tau(   2) = (  0.4985141  0.5014859  0.6999492  )
         3           Sr  tau(   3) = (  0.7482398  0.7454518  0.6972903  )
         4           Sr  tau(   4) = (  0.7441748  0.2558252  0.6980478  )
         5           Sr  tau(   5) = (  0.2508693  0.7491307  0.5016443  )
         6           Sr  tau(   6) = (  0.2508693  0.7491307  0.3015492  )
         7           Co  tau(   7) = (  0.4998914  0.5001086  0.4015968  )
         8           Co  tau(   8) = (  0.4936915  0.5063085  0.5980003  )
         9           O   tau(   9) = (  0.4988895  0.7610401  0.4015968  )
        10           O   tau(  10) = (  0.2389599  0.5011105  0.4015968  )
        11           O   tau(  11) = (  0.0070918  0.7374880  0.4015968  )
        12           O   tau(  12) = (  0.0088340  0.7405089  0.5980003  )
        13           O   tau(  13) = (  0.5066944  0.7415376  0.5980003  )
        14           O   tau(  14) = (  0.2584624  0.4933056  0.5980003  )
        15           O   tau(  15) = (  0.4985141  0.5014859  0.3071422  )
        16           O   tau(  16) = (  0.4985141  0.5014859  0.4960513  )
        17           Sr  tau(  17) = (  0.7482398  0.7454518  0.3044833  )
        18           Sr  tau(  18) = (  0.7482398  0.7454518  0.4987103  )
        19           Sr  tau(  19) = (  0.7441748  0.2558252  0.3052408  )
        20           Sr  tau(  20) = (  0.7441748  0.2558252  0.4979527  )
        21           O   tau(  21) = (  0.7322655  0.0078049  0.5980003  )
        22           O   tau(  22) = (  0.7558175  0.4996027  0.5980003  )
        23           O   tau(  23) = (  0.5003973  0.2441825  0.5980003  )
        24           O   tau(  24) = (  0.7527966  0.4978604  0.4015968  )
        25           O   tau(  25) = (  0.5021396  0.2472034  0.4015968  )
        26           O   tau(  26) = (  0.7517679  0.0000000  0.4015968  )
        27           O   tau(  27) = (  0.0114961  0.4948124  0.6896512  )
        28           O   tau(  28) = (  0.0048226  0.0077944  0.6999492  )
        29           Sr  tau(  29) = (  0.2545482  0.2517602  0.6972903  )
        30           O   tau(  30) = (  0.5048017  0.0015068  0.7027529  )
        31           Co  tau(  31) = (  0.0056869  0.5006215  0.4015968  )
        32           Co  tau(  32) = (  0.0065315  0.4997770  0.5980003  )
        33           Co  tau(  33) = (  0.0061999  0.0064171  0.4015968  )
        34           Co  tau(  34) = (  0.0000000  0.0126169  0.5980003  )
        35           O   tau(  35) = (  0.0114961  0.4948124  0.5063494  )
        36           O   tau(  36) = (  0.0114961  0.4948124  0.2968442  )
        37           O   tau(  37) = (  0.0051979  0.2673486  0.4015968  )
        38           O   tau(  38) = (  0.0130029  0.2478461  0.5980003  )
        39           O   tau(  39) = (  0.0048226  0.0077944  0.3071422  )
        40           O   tau(  40) = (  0.0048226  0.0077944  0.4960513  )
        41           Sr  tau(  41) = (  0.2545482  0.2517602  0.3044833  )
        42           Sr  tau(  42) = (  0.2545482  0.2517602  0.4987103  )
        43           Co  tau(  43) = (  0.4989925  0.0073160  0.5980003  )
        44           Co  tau(  44) = (  0.4998370  0.0064714  0.4015968  )
        45           O   tau(  45) = (  0.5048017  0.0015068  0.3099459  )
        46           O   tau(  46) = (  0.5048017  0.0015068  0.4932477  )
        47           O   tau(  47) = (  0.2621260  0.0059111  0.5980003  )
        48           O   tau(  48) = (  0.2591051  0.0041689  0.4015968  )
        49           O   tau(  49) = (  0.9951520  0.4264937  0.8534850  )
        50           H   tau(  50) = (  0.9951520  0.4264937  0.9026774  )

     number of k points=    10  Gaussian smearing, width (Ry)=  0.0700
                       cart. coord. in units 2pi/alat
        k(    1) = (   0.0000000   0.0000000   0.0000000), wk =   0.1250000
        k(    2) = (   0.0000000   0.2500000   0.0000000), wk =   0.2500000
        k(    3) = (   0.0000000  -0.5000000   0.0000000), wk =   0.1250000
        k(    4) = (   0.2500000   0.2500000   0.0000000), wk =   0.2500000
        k(    5) = (   0.2500000  -0.5000000   0.0000000), wk =   0.2500000
        k(    6) = (  -0.5000000  -0.5000000   0.0000000), wk =   0.1250000
        k(    7) = (   0.2500000   0.0000000   0.0000000), wk =   0.2500000
        k(    8) = (  -0.5000000   0.0000000   0.0000000), wk =   0.1250000
        k(    9) = (  -0.2500000   0.2500000   0.0000000), wk =   0.2500000
        k(   10) = (  -0.5000000   0.2500000   0.0000000), wk =   0.2500000

                       cryst. coord.
        k(    1) = (   0.0000000   0.0000000   0.0000000), wk =   0.1250000
        k(    2) = (   0.0000000   0.2500000   0.0000000), wk =   0.2500000
        k(    3) = (   0.0000000  -0.5000000   0.0000000), wk =   0.1250000
        k(    4) = (   0.2500000   0.2500000   0.0000000), wk =   0.2500000
        k(    5) = (   0.2500000  -0.5000000   0.0000000), wk =   0.2500000
        k(    6) = (  -0.5000000  -0.5000000   0.0000000), wk =   0.1250000
        k(    7) = (   0.2500000   0.0000000   0.0000000), wk =   0.2500000
        k(    8) = (  -0.5000000   0.0000000   0.0000000), wk =   0.1250000
        k(    9) = (  -0.2500000   0.2500000   0.0000000), wk =   0.2500000
        k(   10) = (  -0.5000000   0.2500000   0.0000000), wk =   0.2500000

     Dense  grid:  1474595 G-vectors     FFT dimensions: ( 108, 108, 270)

     Smooth grid:   521381 G-vectors     FFT dimensions: (  75,  75, 192)

     Dynamical RAM for                 wfc:      10.73 MB

     Dynamical RAM for     wfc (w. buffer):      64.38 MB

     Dynamical RAM for           str. fact:       3.75 MB

     Dynamical RAM for           local pot:       0.00 MB

     Dynamical RAM for          nlocal pot:      24.61 MB

     Dynamical RAM for                qrad:       7.03 MB

     Dynamical RAM for          rho,v,vnew:       6.02 MB

     Dynamical RAM for               rhoin:       2.01 MB

     Dynamical RAM for            rho*nmix:      15.00 MB

     Dynamical RAM for           G-vectors:       3.68 MB

     Dynamical RAM for          h,s,v(r/c):       1.35 MB

     Dynamical RAM for          <psi|beta>:       2.35 MB

     Dynamical RAM for                 psi:      21.46 MB

     Dynamical RAM for                hpsi:      21.46 MB

     Dynamical RAM for                spsi:      21.46 MB

     Dynamical RAM for      wfcinit/wfcrot:      34.49 MB

     Dynamical RAM for           addusdens:     101.26 MB

     Estimated static dynamical RAM per process >     121.50 MB

     Estimated max dynamical RAM per process >     237.76 MB

     Estimated total dynamical RAM >      10.79 GB

     Check: negative core charge=   -0.000004

     Initial potential from superposition of free atoms

     starting charge     422.5961, renormalised to     431.0000

     negative rho (up, down):  7.820E-01 0.000E+00
     Starting wfcs are  377 randomized atomic wfcs
     Checking if some PAW data can be deallocated... 
       PAW data deallocated on   19 nodes for type:  2

     total cpu time spent up to now is        9.3 secs

     Self-consistent Calculation

     iteration #  1     ecut=    60.00 Ry     beta= 0.15
     Davidson diagonalization with overlap

---- Real-time Memory Report at c_bands before calling an iterative solver
             0 MiB given to the printing process from OS
             0 MiB allocation reported by mallinfo(arena+hblkhd)
         23977 MiB available memory on the node where the printing process lives
------------------
     ethr =  1.00E-02,  avg # of iterations =  2.0

     negative rho (up, down):  7.717E-01 0.000E+00

     total cpu time spent up to now is       25.6 secs

     total energy              =   -4446.65217485 Ry
     estimated scf accuracy    <      44.90396236 Ry

     iteration #  2     ecut=    60.00 Ry     beta= 0.15
     Davidson diagonalization with overlap

---- Real-time Memory Report at c_bands before calling an iterative solver
             0 MiB given to the printing process from OS
             0 MiB allocation reported by mallinfo(arena+hblkhd)
         24255 MiB available memory on the node where the printing process lives
------------------
     ethr =  1.00E-02,  avg # of iterations =  1.0

     negative rho (up, down):  7.583E-01 0.000E+00

     total cpu time spent up to now is       39.9 secs

     total energy              =   -4443.29583014 Ry
     estimated scf accuracy    <      29.79785755 Ry

     iteration #  3     ecut=    60.00 Ry     beta= 0.15
     Davidson diagonalization with overlap

---- Real-time Memory Report at c_bands before calling an iterative solver
             0 MiB given to the printing process from OS
             0 MiB allocation reported by mallinfo(arena+hblkhd)
         23412 MiB available memory on the node where the printing process lives
------------------
     ethr =  6.91E-03,  avg # of iterations =  1.0

     negative rho (up, down):  7.553E-01 0.000E+00

     total cpu time spent up to now is       54.1 secs

     total energy              =   -4444.25923411 Ry
     estimated scf accuracy    <      28.37535134 Ry

     iteration #  4     ecut=    60.00 Ry     beta= 0.15
     Davidson diagonalization with overlap

---- Real-time Memory Report at c_bands before calling an iterative solver
             0 MiB given to the printing process from OS
             0 MiB allocation reported by mallinfo(arena+hblkhd)
         23387 MiB available memory on the node where the printing process lives
------------------
     ethr =  6.58E-03,  avg # of iterations =  1.0

     negative rho (up, down):  7.502E-01 0.000E+00

     total cpu time spent up to now is       68.3 secs

     total energy              =   -4443.05020891 Ry
     estimated scf accuracy    <      20.98346567 Ry

     iteration #  5     ecut=    60.00 Ry     beta= 0.15
     Davidson diagonalization with overlap

---- Real-time Memory Report at c_bands before calling an iterative solver
             0 MiB given to the printing process from OS
             0 MiB allocation reported by mallinfo(arena+hblkhd)
         23371 MiB available memory on the node where the printing process lives
------------------
     ethr =  4.87E-03,  avg # of iterations =  1.0

     negative rho (up, down):  7.398E-01 0.000E+00

     total cpu time spent up to now is       82.4 secs

     total energy              =   -4442.48498434 Ry
     estimated scf accuracy    <      11.87319457 Ry

     iteration #  6     ecut=    60.00 Ry     beta= 0.15
     Davidson diagonalization with overlap

---- Real-time Memory Report at c_bands before calling an iterative solver
             0 MiB given to the printing process from OS
             0 MiB allocation reported by mallinfo(arena+hblkhd)
         23355 MiB available memory on the node where the printing process lives
------------------
     ethr =  2.75E-03,  avg # of iterations =  1.1

     negative rho (up, down):  7.425E-01 0.000E+00

     total cpu time spent up to now is       96.7 secs

     total energy              =   -4442.81542865 Ry
     estimated scf accuracy    <       5.04673127 Ry

     iteration #  7     ecut=    60.00 Ry     beta= 0.15
     Davidson diagonalization with overlap

---- Real-time Memory Report at c_bands before calling an iterative solver
             0 MiB given to the printing process from OS
             0 MiB allocation reported by mallinfo(arena+hblkhd)
         23338 MiB available memory on the node where the printing process lives
------------------
     ethr =  1.17E-03,  avg # of iterations =  1.5

     negative rho (up, down):  7.647E-01 0.000E+00

     total cpu time spent up to now is      111.2 secs

     total energy              =   -4441.67916495 Ry
     estimated scf accuracy    <       3.98798301 Ry

     iteration #  8     ecut=    60.00 Ry     beta= 0.15
     Davidson diagonalization with overlap

---- Real-time Memory Report at c_bands before calling an iterative solver
             0 MiB given to the printing process from OS
             0 MiB allocation reported by mallinfo(arena+hblkhd)
         23318 MiB available memory on the node where the printing process lives
------------------
     ethr =  9.25E-04,  avg # of iterations =  3.6

     negative rho (up, down):  7.731E-01 0.000E+00

     total cpu time spent up to now is      129.2 secs

     total energy              =   -4441.26376033 Ry
     estimated scf accuracy    <      22.57666306 Ry

     iteration #  9     ecut=    60.00 Ry     beta= 0.15
     Davidson diagonalization with overlap

---- Real-time Memory Report at c_bands before calling an iterative solver
             0 MiB given to the printing process from OS
             0 MiB allocation reported by mallinfo(arena+hblkhd)
         23170 MiB available memory on the node where the printing process lives
------------------
     ethr =  9.25E-04,  avg # of iterations =  9.7

     negative rho (up, down):  7.702E-01 0.000E+00

     total cpu time spent up to now is      150.5 secs

     total energy              =   -4441.72124375 Ry
     estimated scf accuracy    <       3.81294490 Ry

     iteration # 10     ecut=    60.00 Ry     beta= 0.15
     Davidson diagonalization with overlap

---- Real-time Memory Report at c_bands before calling an iterative solver
             0 MiB given to the printing process from OS
             0 MiB allocation reported by mallinfo(arena+hblkhd)
         22814 MiB available memory on the node where the printing process lives
------------------
     ethr =  8.85E-04,  avg # of iterations =  1.0

     negative rho (up, down):  7.743E-01 0.000E+00

     total cpu time spent up to now is      164.9 secs

     total energy              =   -4441.88156265 Ry
     estimated scf accuracy    <       1.62084063 Ry

     iteration # 11     ecut=    60.00 Ry     beta= 0.15
     Davidson diagonalization with overlap

---- Real-time Memory Report at c_bands before calling an iterative solver
             0 MiB given to the printing process from OS
             0 MiB allocation reported by mallinfo(arena+hblkhd)
         22797 MiB available memory on the node where the printing process lives
------------------
     ethr =  3.76E-04,  avg # of iterations =  1.4

     negative rho (up, down):  8.025E-01 0.000E+00

     total cpu time spent up to now is      180.1 secs

     total energy              =   -4441.74930698 Ry
     estimated scf accuracy    <       1.04534976 Ry

     iteration # 12     ecut=    60.00 Ry     beta= 0.15
     Davidson diagonalization with overlap

---- Real-time Memory Report at c_bands before calling an iterative solver
             0 MiB given to the printing process from OS
             0 MiB allocation reported by mallinfo(arena+hblkhd)
         22800 MiB available memory on the node where the printing process lives
------------------
     ethr =  2.43E-04,  avg # of iterations =  4.4

     negative rho (up, down):  8.174E-01 0.000E+00

     total cpu time spent up to now is      198.1 secs

     total energy              =   -4441.88638570 Ry
     estimated scf accuracy    <       1.66154833 Ry

     iteration # 13     ecut=    60.00 Ry     beta= 0.15
     Davidson diagonalization with overlap

---- Real-time Memory Report at c_bands before calling an iterative solver
             0 MiB given to the printing process from OS
             0 MiB allocation reported by mallinfo(arena+hblkhd)
         22804 MiB available memory on the node where the printing process lives
------------------
     ethr =  2.43E-04,  avg # of iterations =  9.5

     negative rho (up, down):  8.184E-01 0.000E+00

     total cpu time spent up to now is      218.8 secs

     total energy              =   -4441.79111556 Ry
     estimated scf accuracy    <       1.26013268 Ry

     iteration # 14     ecut=    60.00 Ry     beta= 0.15
     Davidson diagonalization with overlap

---- Real-time Memory Report at c_bands before calling an iterative solver
             0 MiB given to the printing process from OS
             0 MiB allocation reported by mallinfo(arena+hblkhd)
         22750 MiB available memory on the node where the printing process lives
------------------
     ethr =  2.43E-04,  avg # of iterations =  2.0

     negative rho (up, down):  8.153E-01 0.000E+00

     total cpu time spent up to now is      234.9 secs

     total energy              =   -4441.75427559 Ry
     estimated scf accuracy    <       0.43518856 Ry

     iteration # 15     ecut=    60.00 Ry     beta= 0.15
     Davidson diagonalization with overlap

---- Real-time Memory Report at c_bands before calling an iterative solver
             0 MiB given to the printing process from OS
             0 MiB allocation reported by mallinfo(arena+hblkhd)
         22756 MiB available memory on the node where the printing process lives
------------------
     ethr =  1.01E-04,  avg # of iterations =  7.3

     negative rho (up, down):  8.257E-01 0.000E+00

     total cpu time spent up to now is      254.3 secs

     total energy              =   -4441.72963590 Ry
     estimated scf accuracy    <       0.29393615 Ry

     iteration # 16     ecut=    60.00 Ry     beta= 0.15
     Davidson diagonalization with overlap

---- Real-time Memory Report at c_bands before calling an iterative solver
             0 MiB given to the printing process from OS
             0 MiB allocation reported by mallinfo(arena+hblkhd)
         22731 MiB available memory on the node where the printing process lives
------------------
     ethr =  6.82E-05,  avg # of iterations = 13.0

     negative rho (up, down):  8.298E-01 0.000E+00

     total cpu time spent up to now is      277.0 secs

     total energy              =   -4441.72529599 Ry
     estimated scf accuracy    <       0.29797286 Ry

     iteration # 17     ecut=    60.00 Ry     beta= 0.15
     Davidson diagonalization with overlap

---- Real-time Memory Report at c_bands before calling an iterative solver
             0 MiB given to the printing process from OS
             0 MiB allocation reported by mallinfo(arena+hblkhd)
         22747 MiB available memory on the node where the printing process lives
------------------
     ethr =  6.82E-05,  avg # of iterations =  2.1

     negative rho (up, down):  8.235E-01 0.000E+00

     total cpu time spent up to now is      292.5 secs

     total energy              =   -4441.70708078 Ry
     estimated scf accuracy    <       0.23403655 Ry

     iteration # 18     ecut=    60.00 Ry     beta= 0.15
     Davidson diagonalization with overlap

---- Real-time Memory Report at c_bands before calling an iterative solver
             0 MiB given to the printing process from OS
             0 MiB allocation reported by mallinfo(arena+hblkhd)
         22710 MiB available memory on the node where the printing process lives
------------------
     ethr =  5.43E-05,  avg # of iterations =  3.8

     negative rho (up, down):  8.138E-01 0.000E+00

     total cpu time spent up to now is      310.1 secs

     total energy              =   -4441.68208140 Ry
     estimated scf accuracy    <       0.15254970 Ry

     iteration # 19     ecut=    60.00 Ry     beta= 0.15
     Davidson diagonalization with overlap

---- Real-time Memory Report at c_bands before calling an iterative solver
             0 MiB given to the printing process from OS
             0 MiB allocation reported by mallinfo(arena+hblkhd)
         22717 MiB available memory on the node where the printing process lives
------------------
     ethr =  3.54E-05,  avg # of iterations = 10.2

     negative rho (up, down):  8.318E-01 0.000E+00

     total cpu time spent up to now is      331.6 secs

     total energy              =   -4441.66685798 Ry
     estimated scf accuracy    <       0.11575138 Ry

     iteration # 20     ecut=    60.00 Ry     beta= 0.15
     Davidson diagonalization with overlap

---- Real-time Memory Report at c_bands before calling an iterative solver
             0 MiB given to the printing process from OS
             0 MiB allocation reported by mallinfo(arena+hblkhd)
         22683 MiB available memory on the node where the printing process lives
------------------
     ethr =  2.69E-05,  avg # of iterations =  6.5

     negative rho (up, down):  8.209E-01 0.000E+00

     total cpu time spent up to now is      350.6 secs

     total energy              =   -4441.66849634 Ry
     estimated scf accuracy    <       0.04509701 Ry

     iteration # 21     ecut=    60.00 Ry     beta= 0.15
     Davidson diagonalization with overlap

---- Real-time Memory Report at c_bands before calling an iterative solver
             0 MiB given to the printing process from OS
             0 MiB allocation reported by mallinfo(arena+hblkhd)
         22681 MiB available memory on the node where the printing process lives
------------------
     ethr =  1.05E-05,  avg # of iterations =  9.7

     negative rho (up, down):  8.115E-01 0.000E+00

     total cpu time spent up to now is      371.3 secs

     total energy              =   -4441.66630733 Ry
     estimated scf accuracy    <       0.03215903 Ry

     iteration # 22     ecut=    60.00 Ry     beta= 0.15
     Davidson diagonalization with overlap

---- Real-time Memory Report at c_bands before calling an iterative solver
             0 MiB given to the printing process from OS
             0 MiB allocation reported by mallinfo(arena+hblkhd)
         22661 MiB available memory on the node where the printing process lives
------------------
     ethr =  7.46E-06,  avg # of iterations =  4.7

     negative rho (up, down):  8.034E-01 0.000E+00

     total cpu time spent up to now is      389.7 secs

     total energy              =   -4441.66494449 Ry
     estimated scf accuracy    <       0.02194188 Ry

     iteration # 23     ecut=    60.00 Ry     beta= 0.15
     Davidson diagonalization with overlap

---- Real-time Memory Report at c_bands before calling an iterative solver
             0 MiB given to the printing process from OS
             0 MiB allocation reported by mallinfo(arena+hblkhd)
         22657 MiB available memory on the node where the printing process lives
------------------
     ethr =  5.09E-06,  avg # of iterations =  4.7

     negative rho (up, down):  7.916E-01 0.000E+00

     total cpu time spent up to now is      407.6 secs

     total energy              =   -4441.66231780 Ry
     estimated scf accuracy    <       0.01621078 Ry

     iteration # 24     ecut=    60.00 Ry     beta= 0.15
     Davidson diagonalization with overlap

---- Real-time Memory Report at c_bands before calling an iterative solver
             0 MiB given to the printing process from OS
             0 MiB allocation reported by mallinfo(arena+hblkhd)
         22701 MiB available memory on the node where the printing process lives
------------------
     ethr =  3.76E-06,  avg # of iterations = 10.7

     negative rho (up, down):  8.007E-01 0.000E+00

     total cpu time spent up to now is      429.9 secs

     total energy              =   -4441.66113915 Ry
     estimated scf accuracy    <       0.01124859 Ry

     iteration # 25     ecut=    60.00 Ry     beta= 0.15
     Davidson diagonalization with overlap

---- Real-time Memory Report at c_bands before calling an iterative solver
             0 MiB given to the printing process from OS
             0 MiB allocation reported by mallinfo(arena+hblkhd)
         22688 MiB available memory on the node where the printing process lives
------------------
     ethr =  2.61E-06,  avg # of iterations =  9.9

     negative rho (up, down):  7.996E-01 0.000E+00

     total cpu time spent up to now is      451.6 secs

     total energy              =   -4441.66118051 Ry
     estimated scf accuracy    <       0.00338223 Ry

     iteration # 26     ecut=    60.00 Ry     beta= 0.15
     Davidson diagonalization with overlap

---- Real-time Memory Report at c_bands before calling an iterative solver
             0 MiB given to the printing process from OS
             0 MiB allocation reported by mallinfo(arena+hblkhd)
         22694 MiB available memory on the node where the printing process lives
------------------
     c_bands:  1 eigenvalues not converged
     ethr =  7.85E-07,  avg # of iterations =  4.7

     negative rho (up, down):  7.990E-01 0.000E+00

     total cpu time spent up to now is      469.5 secs

     total energy              =   -4441.66116105 Ry
     estimated scf accuracy    <       0.00195735 Ry

     iteration # 27     ecut=    60.00 Ry     beta= 0.15
     Davidson diagonalization with overlap

---- Real-time Memory Report at c_bands before calling an iterative solver
             0 MiB given to the printing process from OS
             0 MiB allocation reported by mallinfo(arena+hblkhd)
         22694 MiB available memory on the node where the printing process lives
------------------
     ethr =  4.54E-07,  avg # of iterations =  6.6

     negative rho (up, down):  7.946E-01 0.000E+00

     total cpu time spent up to now is      488.6 secs

     total energy              =   -4441.66106460 Ry
     estimated scf accuracy    <       0.00076270 Ry

     iteration # 28     ecut=    60.00 Ry     beta= 0.15
     Davidson diagonalization with overlap

---- Real-time Memory Report at c_bands before calling an iterative solver
             0 MiB given to the printing process from OS
             0 MiB allocation reported by mallinfo(arena+hblkhd)
         22700 MiB available memory on the node where the printing process lives
------------------
     c_bands:  1 eigenvalues not converged
     ethr =  1.77E-07,  avg # of iterations = 10.0

     negative rho (up, down):  7.943E-01 0.000E+00

     total cpu time spent up to now is      513.2 secs

     total energy              =   -4441.66115910 Ry
     estimated scf accuracy    <       0.00020231 Ry

     iteration # 29     ecut=    60.00 Ry     beta= 0.15
     Davidson diagonalization with overlap

---- Real-time Memory Report at c_bands before calling an iterative solver
             0 MiB given to the printing process from OS
             0 MiB allocation reported by mallinfo(arena+hblkhd)
         22574 MiB available memory on the node where the printing process lives
------------------
     ethr =  4.69E-08,  avg # of iterations =  2.0

     negative rho (up, down):  7.932E-01 0.000E+00

     total cpu time spent up to now is      529.7 secs

     total energy              =   -4441.66115251 Ry
     estimated scf accuracy    <       0.00014450 Ry

     iteration # 30     ecut=    60.00 Ry     beta= 0.15
     Davidson diagonalization with overlap

---- Real-time Memory Report at c_bands before calling an iterative solver
             0 MiB given to the printing process from OS
             0 MiB allocation reported by mallinfo(arena+hblkhd)
         22576 MiB available memory on the node where the printing process lives
------------------
     ethr =  3.35E-08,  avg # of iterations =  2.2

     negative rho (up, down):  7.927E-01 0.000E+00

     total cpu time spent up to now is      546.4 secs

     total energy              =   -4441.66115808 Ry
     estimated scf accuracy    <       0.00006190 Ry

     iteration # 31     ecut=    60.00 Ry     beta= 0.15
     Davidson diagonalization with overlap

---- Real-time Memory Report at c_bands before calling an iterative solver
             0 MiB given to the printing process from OS
             0 MiB allocation reported by mallinfo(arena+hblkhd)
         22572 MiB available memory on the node where the printing process lives
------------------
     ethr =  1.44E-08,  avg # of iterations =  3.3

     negative rho (up, down):  7.926E-01 0.000E+00

     total cpu time spent up to now is      564.3 secs

     total energy              =   -4441.66116270 Ry
     estimated scf accuracy    <       0.00002278 Ry

     iteration # 32     ecut=    60.00 Ry     beta= 0.15
     Davidson diagonalization with overlap

---- Real-time Memory Report at c_bands before calling an iterative solver
             0 MiB given to the printing process from OS
             0 MiB allocation reported by mallinfo(arena+hblkhd)
         22584 MiB available memory on the node where the printing process lives
------------------
     ethr =  5.29E-09,  avg # of iterations =  2.2

     negative rho (up, down):  7.924E-01 0.000E+00

     total cpu time spent up to now is      580.9 secs

     total energy              =   -4441.66116544 Ry
     estimated scf accuracy    <       0.00001218 Ry

     iteration # 33     ecut=    60.00 Ry     beta= 0.15
     Davidson diagonalization with overlap

---- Real-time Memory Report at c_bands before calling an iterative solver
             0 MiB given to the printing process from OS
             0 MiB allocation reported by mallinfo(arena+hblkhd)
         22596 MiB available memory on the node where the printing process lives
------------------
     ethr =  2.83E-09,  avg # of iterations =  2.7

     negative rho (up, down):  7.923E-01 0.000E+00

     total cpu time spent up to now is      597.6 secs

     total energy              =   -4441.66117022 Ry
     estimated scf accuracy    <       0.00000779 Ry

     iteration # 34     ecut=    60.00 Ry     beta= 0.15
     Davidson diagonalization with overlap

---- Real-time Memory Report at c_bands before calling an iterative solver
             0 MiB given to the printing process from OS
             0 MiB allocation reported by mallinfo(arena+hblkhd)
         22596 MiB available memory on the node where the printing process lives
------------------
     ethr =  1.81E-09,  avg # of iterations =  2.2

     negative rho (up, down):  7.924E-01 0.000E+00

     total cpu time spent up to now is      614.4 secs

     total energy              =   -4441.66117304 Ry
     estimated scf accuracy    <       0.00000317 Ry

     iteration # 35     ecut=    60.00 Ry     beta= 0.15
     Davidson diagonalization with overlap

---- Real-time Memory Report at c_bands before calling an iterative solver
             0 MiB given to the printing process from OS
             0 MiB allocation reported by mallinfo(arena+hblkhd)
         22598 MiB available memory on the node where the printing process lives
------------------
     ethr =  7.36E-10,  avg # of iterations =  3.2

     negative rho (up, down):  7.925E-01 0.000E+00

     total cpu time spent up to now is      632.0 secs

     total energy              =   -4441.66117402 Ry
     estimated scf accuracy    <       0.00000137 Ry

     iteration # 36     ecut=    60.00 Ry     beta= 0.15
     Davidson diagonalization with overlap

---- Real-time Memory Report at c_bands before calling an iterative solver
             0 MiB given to the printing process from OS
             0 MiB allocation reported by mallinfo(arena+hblkhd)
         22592 MiB available memory on the node where the printing process lives
------------------
     ethr =  3.19E-10,  avg # of iterations =  4.1

     negative rho (up, down):  7.925E-01 0.000E+00

     total cpu time spent up to now is      649.8 secs

     total energy              =   -4441.66117417 Ry
     estimated scf accuracy    <       0.00000061 Ry

     iteration # 37     ecut=    60.00 Ry     beta= 0.15
     Davidson diagonalization with overlap

---- Real-time Memory Report at c_bands before calling an iterative solver
             0 MiB given to the printing process from OS
             0 MiB allocation reported by mallinfo(arena+hblkhd)
         22594 MiB available memory on the node where the printing process lives
------------------
     ethr =  1.42E-10,  avg # of iterations =  2.3

     negative rho (up, down):  7.925E-01 0.000E+00

     total cpu time spent up to now is      666.5 secs

     total energy              =   -4441.66117438 Ry
     estimated scf accuracy    <       0.00000049 Ry

     iteration # 38     ecut=    60.00 Ry     beta= 0.15
     Davidson diagonalization with overlap

---- Real-time Memory Report at c_bands before calling an iterative solver
             0 MiB given to the printing process from OS
             0 MiB allocation reported by mallinfo(arena+hblkhd)
         22594 MiB available memory on the node where the printing process lives
------------------
     ethr =  1.13E-10,  avg # of iterations =  2.2

     negative rho (up, down):  7.925E-01 0.000E+00

     total cpu time spent up to now is      683.1 secs

     total energy              =   -4441.66117446 Ry
     estimated scf accuracy    <       0.00000032 Ry

     iteration # 39     ecut=    60.00 Ry     beta= 0.15
     Davidson diagonalization with overlap

---- Real-time Memory Report at c_bands before calling an iterative solver
             0 MiB given to the printing process from OS
             0 MiB allocation reported by mallinfo(arena+hblkhd)
         22594 MiB available memory on the node where the printing process lives
------------------
     ethr =  7.31E-11,  avg # of iterations =  2.2

     negative rho (up, down):  7.925E-01 0.000E+00

     total cpu time spent up to now is      699.7 secs

     total energy              =   -4441.66117450 Ry
     estimated scf accuracy    <       0.00000026 Ry

     iteration # 40     ecut=    60.00 Ry     beta= 0.15
     Davidson diagonalization with overlap

---- Real-time Memory Report at c_bands before calling an iterative solver
             0 MiB given to the printing process from OS
             0 MiB allocation reported by mallinfo(arena+hblkhd)
         22597 MiB available memory on the node where the printing process lives
------------------
     ethr =  6.10E-11,  avg # of iterations =  2.1

     negative rho (up, down):  7.925E-01 0.000E+00

     total cpu time spent up to now is      716.2 secs

     total energy              =   -4441.66117454 Ry
     estimated scf accuracy    <       0.00000019 Ry

     iteration # 41     ecut=    60.00 Ry     beta= 0.15
     Davidson diagonalization with overlap

---- Real-time Memory Report at c_bands before calling an iterative solver
             0 MiB given to the printing process from OS
             0 MiB allocation reported by mallinfo(arena+hblkhd)
         22597 MiB available memory on the node where the printing process lives
------------------
     ethr =  4.49E-11,  avg # of iterations =  1.9

     negative rho (up, down):  7.925E-01 0.000E+00

     total cpu time spent up to now is      732.5 secs

     total energy              =   -4441.66117453 Ry
     estimated scf accuracy    <       0.00000015 Ry

     iteration # 42     ecut=    60.00 Ry     beta= 0.15
     Davidson diagonalization with overlap

---- Real-time Memory Report at c_bands before calling an iterative solver
             0 MiB given to the printing process from OS
             0 MiB allocation reported by mallinfo(arena+hblkhd)
         22601 MiB available memory on the node where the printing process lives
------------------
     ethr =  3.43E-11,  avg # of iterations =  1.1

     negative rho (up, down):  7.925E-01 0.000E+00

     total cpu time spent up to now is      747.5 secs

     total energy              =   -4441.66117453 Ry
     estimated scf accuracy    <       0.00000012 Ry

     iteration # 43     ecut=    60.00 Ry     beta= 0.15
     Davidson diagonalization with overlap

---- Real-time Memory Report at c_bands before calling an iterative solver
             0 MiB given to the printing process from OS
             0 MiB allocation reported by mallinfo(arena+hblkhd)
         22601 MiB available memory on the node where the printing process lives
------------------
     ethr =  2.69E-11,  avg # of iterations =  1.8

     negative rho (up, down):  7.925E-01 0.000E+00

     total cpu time spent up to now is      763.7 secs

     total energy              =   -4441.66117452 Ry
     estimated scf accuracy    <       0.00000007 Ry

     iteration # 44     ecut=    60.00 Ry     beta= 0.15
     Davidson diagonalization with overlap

---- Real-time Memory Report at c_bands before calling an iterative solver
             0 MiB given to the printing process from OS
             0 MiB allocation reported by mallinfo(arena+hblkhd)
         22603 MiB available memory on the node where the printing process lives
------------------
     ethr =  1.69E-11,  avg # of iterations =  2.0

     negative rho (up, down):  7.925E-01 0.000E+00

     total cpu time spent up to now is      780.3 secs

     total energy              =   -4441.66117452 Ry
     estimated scf accuracy    <       0.00000005 Ry

     iteration # 45     ecut=    60.00 Ry     beta= 0.15
     Davidson diagonalization with overlap

---- Real-time Memory Report at c_bands before calling an iterative solver
             0 MiB given to the printing process from OS
             0 MiB allocation reported by mallinfo(arena+hblkhd)
         22604 MiB available memory on the node where the printing process lives
------------------
     ethr =  1.07E-11,  avg # of iterations =  2.0

     negative rho (up, down):  7.925E-01 0.000E+00

     total cpu time spent up to now is      796.9 secs

     total energy              =   -4441.66117454 Ry
     estimated scf accuracy    <       0.00000002 Ry

     iteration # 46     ecut=    60.00 Ry     beta= 0.15
     Davidson diagonalization with overlap

---- Real-time Memory Report at c_bands before calling an iterative solver
             0 MiB given to the printing process from OS
             0 MiB allocation reported by mallinfo(arena+hblkhd)
         22605 MiB available memory on the node where the printing process lives
------------------
     ethr =  5.74E-12,  avg # of iterations =  3.4

     negative rho (up, down):  7.925E-01 0.000E+00

     total cpu time spent up to now is      813.9 secs

     End of self-consistent calculation

          k = 0.0000 0.0000 0.0000 ( 65197 PWs)   bands (ev):

   -92.7074 -92.6601 -92.5626 -92.5143 -92.4575 -92.4141 -92.3966 -92.2765
   -56.0608 -56.0465 -55.9194 -55.9082 -55.9021 -55.8950 -55.8624 -55.8314
   -55.8152 -55.8136 -55.8105 -55.7645 -55.7451 -55.7084 -55.6896 -55.6578
   -55.6497 -55.6032 -55.6023 -55.5993 -55.5909 -55.5516 -55.5269 -55.4415
   -31.2841 -31.2647 -31.1229 -31.0743 -31.0361 -30.8982 -30.8874 -30.6898
   -29.8547 -29.8114 -29.7854 -29.6770 -15.0877 -15.0397 -14.9614 -14.8327
   -14.6323 -14.5154 -14.2245 -14.2035 -14.1760 -14.1291 -14.0828 -14.0652
   -14.0612 -14.0404 -14.0240 -13.9821 -13.9593 -13.9368 -13.7830 -13.5949
   -13.5717 -13.5413 -13.5015 -13.4826 -13.4375 -13.4040 -13.3286 -13.2561
   -13.1288 -13.1159 -13.1070 -13.0811 -13.0644 -13.0587 -13.0082 -13.0009
   -12.9876 -12.9590 -12.9292 -12.9080 -12.8829 -12.8633 -12.8092 -12.7913
   -12.7603 -12.7541 -12.6371 -12.6203 -12.6060 -12.3488 -12.2026 -12.0177
   -11.9461 -11.8679 -11.7940 -11.7827 -11.7599 -11.7422 -11.6787 -11.6613
   -11.6268 -11.5977 -11.4855 -11.4060 -11.4026  -2.9469  -2.7155  -2.4862
    -2.3367  -2.2761  -2.1341  -1.8258  -1.8109  -1.7927  -1.7041  -1.6879
    -1.6199  -1.6032  -1.5630  -1.5191  -1.3375  -1.1111  -1.1068  -1.0750
    -0.9373  -0.9224  -0.8748  -0.8546  -0.8084  -0.7937  -0.7403  -0.7126
    -0.6384  -0.6270  -0.5532  -0.4213  -0.4091  -0.3779  -0.2981  -0.2767
    -0.2154  -0.1738  -0.1312  -0.0853  -0.0293  -0.0122   0.0538   0.1257
     0.1741   0.1990   0.2084   0.4679   0.4842   0.6634   0.7203   0.7830
     0.8358   0.9203   0.9314   0.9494   1.0179   1.0453   1.0785   1.1358
     1.2674   1.3246   1.3469   1.3754   1.3849   1.4444   1.5146   1.6264
     1.6470   1.6978   1.7078   1.7517   1.7745   1.7855   1.8365   1.9015
     1.9163   1.9431   1.9684   2.0219   2.1532   2.2385   2.2803   2.3019
     2.4336   2.4396   2.4625   2.4684   2.5061   2.5084   2.6204   2.6525
     2.6812   2.7004   2.7204   2.8010   2.9025   2.9392   2.9456   2.9512
     3.0188   3.0253   3.0467   3.0545   3.0634   3.0749   3.0842   3.0980
     3.1048   3.1144   3.1226   3.1297   3.1503   3.1715   3.1765   3.1888
     3.2101   3.3287   3.4129   4.0991   4.4227   4.7653   4.8652   5.0349
     5.8168   5.9540   5.9884   6.0079   6.3077   6.3545   6.4790   6.4891
     6.7707   7.0059   7.1033   7.3125   7.5829   7.6167   7.6499   7.6647
     7.6977   7.9154   7.9496   8.0531   8.1094   8.1673   8.4118   8.4592
     8.7194   8.8375   8.9094

     occupation numbers 
     1.0000   1.0000   1.0000   1.0000   1.0000   1.0000   1.0000   1.0000
     1.0000   1.0000   1.0000   1.0000   1.0000   1.0000   1.0000   1.0000
     1.0000   1.0000   1.0000   1.0000   1.0000   1.0000   1.0000   1.0000
     1.0000   1.0000   1.0000   1.0000   1.0000   1.0000   1.0000   1.0000
     1.0000   1.0000   1.0000   1.0000   1.0000   1.0000   1.0000   1.0000
     1.0000   1.0000   1.0000   1.0000   1.0000   1.0000   1.0000   1.0000
     1.0000   1.0000   1.0000   1.0000   1.0000   1.0000   1.0000   1.0000
     1.0000   1.0000   1.0000   1.0000   1.0000   1.0000   1.0000   1.0000
     1.0000   1.0000   1.0000   1.0000   1.0000   1.0000   1.0000   1.0000
     1.0000   1.0000   1.0000   1.0000   1.0000   1.0000   1.0000   1.0000
     1.0000   1.0000   1.0000   1.0000   1.0000   1.0000   1.0000   1.0000
     1.0000   1.0000   1.0000   1.0000   1.0000   1.0000   1.0000   1.0000
     1.0000   1.0000   1.0000   1.0000   1.0000   1.0000   1.0000   1.0000
     1.0000   1.0000   1.0000   1.0000   1.0000   1.0000   1.0000   1.0000
     1.0000   1.0000   1.0000   1.0000   1.0000   1.0000   1.0000   1.0000
     1.0000   1.0000   1.0000   1.0000   1.0000   1.0000   1.0000   1.0000
     1.0000   1.0000   1.0000   1.0000   1.0000   1.0000   1.0000   1.0000
     1.0000   1.0000   1.0000   1.0000   1.0000   1.0000   1.0000   1.0000
     1.0000   1.0000   1.0000   1.0000   1.0000   1.0000   1.0000   1.0000
     1.0000   1.0000   1.0000   1.0000   1.0000   1.0000   0.9999   0.9999
     0.9999   0.9998   0.9998   0.9998   0.9997   0.9996   0.9996   0.9994
     0.9988   0.9985   0.9983   0.9981   0.9980   0.9973   0.9963   0.9940
     0.9935   0.9920   0.9917   0.9901   0.9891   0.9887   0.9862   0.9824
     0.9814   0.9796   0.9776   0.9731   0.9584   0.9459   0.9387   0.9347
     0.9060   0.9045   0.8986   0.8970   0.8866   0.8859   0.8506   0.8392
     0.8286   0.8213   0.8134   0.7796   0.7324   0.7142   0.7109   0.7081
     0.6727   0.6692   0.6576   0.6533   0.6485   0.6421   0.6370   0.6292
     0.6254   0.6200   0.6153   0.6113   0.5995   0.5873   0.5844   0.5773
     0.5649   0.4949   0.4452   0.1237   0.0508   0.0159   0.0109   0.0054
     0.0001   0.0000   0.0000   0.0000   0.0000   0.0000   0.0000   0.0000
     0.0000   0.0000   0.0000   0.0000   0.0000   0.0000   0.0000   0.0000
     0.0000   0.0000   0.0000   0.0000   0.0000   0.0000   0.0000   0.0000
     0.0000   0.0000   0.0000

          k = 0.0000 0.2500 0.0000 ( 65257 PWs)   bands (ev):

   -92.7074 -92.6601 -92.5626 -92.5143 -92.4575 -92.4141 -92.3966 -92.2765
   -56.0608 -56.0465 -55.9194 -55.9082 -55.9021 -55.8950 -55.8624 -55.8314
   -55.8152 -55.8136 -55.8105 -55.7645 -55.7451 -55.7084 -55.6896 -55.6578
   -55.6497 -55.6032 -55.6023 -55.5993 -55.5909 -55.5516 -55.5269 -55.4415
   -31.2839 -31.2646 -31.1231 -31.0741 -31.0362 -30.8984 -30.8872 -30.6900
   -29.8541 -29.8111 -29.7860 -29.6773 -15.0512 -15.0130 -14.9367 -14.8029
   -14.6764 -14.5032 -14.3700 -14.1908 -14.1528 -14.1350 -14.1047 -14.0472
   -14.0388 -14.0235 -14.0032 -13.9617 -13.9480 -13.8551 -13.8140 -13.6535
   -13.6203 -13.5834 -13.5450 -13.4792 -13.4579 -13.4071 -13.3487 -13.3140
   -13.2423 -13.1742 -13.1537 -13.1152 -13.0997 -13.0430 -12.9914 -12.9671
   -12.9405 -12.9093 -12.8889 -12.8725 -12.8469 -12.8158 -12.8027 -12.7809
   -12.6961 -12.6738 -12.6310 -12.5505 -12.4911 -12.4101 -12.2538 -12.0743
   -12.0113 -11.8333 -11.7908 -11.7626 -11.7344 -11.7178 -11.6705 -11.6592
   -11.6366 -11.6027 -11.4998 -11.4476 -11.4371  -2.8114  -2.5913  -2.4532
    -2.2704  -2.2272  -2.0644  -1.8421  -1.7606  -1.7475  -1.6841  -1.5865
    -1.5708  -1.5371  -1.5093  -1.4655  -1.2686  -1.1410  -1.1277  -1.1012
    -1.0492  -1.0397  -0.9369  -0.9077  -0.8477  -0.8207  -0.7832  -0.7178
    -0.6914  -0.6582  -0.6292  -0.6118  -0.5792  -0.5066  -0.4549  -0.3698
    -0.2741  -0.2373  -0.1783  -0.0963  -0.0558   0.0142   0.0566   0.1121
     0.1267   0.1535   0.2115   0.5178   0.6040   0.6429   0.7222   0.7689
     0.7934   0.9040   0.9224   1.0191   1.0448   1.0712   1.1857   1.2830
     1.3007   1.3281   1.3497   1.3692   1.4292   1.4575   1.4853   1.5314
     1.5674   1.6023   1.6901   1.7269   1.7500   1.8084   1.8585   1.8952
     1.9250   1.9543   1.9662   2.0733   2.1915   2.2632   2.2863   2.3539
     2.3979   2.4338   2.4394   2.4487   2.4624   2.5130   2.5484   2.6341
     2.6850   2.7000   2.8601   2.8803   2.9146   2.9392   2.9532   2.9624
     2.9677   2.9765   3.0070   3.0091   3.0267   3.0369   3.0412   3.0617
     3.0726   3.0806   3.1013   3.1118   3.1179   3.1529   3.1692   3.2282
     3.5936   3.6344   3.8753   4.2895   4.4161   4.7125   5.0177   5.0587
     5.6414   5.8275   5.9578   6.0116   6.0814   6.1021   6.1782   6.5960
     6.8924   7.0989   7.1425   7.3272   7.4819   7.4959   7.6415   7.6939
     7.8531   7.9495   8.0612   8.1899   8.2616   8.3662   8.3964   8.4121
     8.5618   8.8139   8.9471

     occupation numbers 
     1.0000   1.0000   1.0000   1.0000   1.0000   1.0000   1.0000   1.0000
     1.0000   1.0000   1.0000   1.0000   1.0000   1.0000   1.0000   1.0000
     1.0000   1.0000   1.0000   1.0000   1.0000   1.0000   1.0000   1.0000
     1.0000   1.0000   1.0000   1.0000   1.0000   1.0000   1.0000   1.0000
     1.0000   1.0000   1.0000   1.0000   1.0000   1.0000   1.0000   1.0000
     1.0000   1.0000   1.0000   1.0000   1.0000   1.0000   1.0000   1.0000
     1.0000   1.0000   1.0000   1.0000   1.0000   1.0000   1.0000   1.0000
     1.0000   1.0000   1.0000   1.0000   1.0000   1.0000   1.0000   1.0000
     1.0000   1.0000   1.0000   1.0000   1.0000   1.0000   1.0000   1.0000
     1.0000   1.0000   1.0000   1.0000   1.0000   1.0000   1.0000   1.0000
     1.0000   1.0000   1.0000   1.0000   1.0000   1.0000   1.0000   1.0000
     1.0000   1.0000   1.0000   1.0000   1.0000   1.0000   1.0000   1.0000
     1.0000   1.0000   1.0000   1.0000   1.0000   1.0000   1.0000   1.0000
     1.0000   1.0000   1.0000   1.0000   1.0000   1.0000   1.0000   1.0000
     1.0000   1.0000   1.0000   1.0000   1.0000   1.0000   1.0000   1.0000
     1.0000   1.0000   1.0000   1.0000   1.0000   1.0000   1.0000   1.0000
     1.0000   1.0000   1.0000   1.0000   1.0000   1.0000   1.0000   1.0000
     1.0000   1.0000   1.0000   1.0000   1.0000   1.0000   1.0000   1.0000
     1.0000   1.0000   1.0000   1.0000   1.0000   1.0000   1.0000   1.0000
     1.0000   1.0000   1.0000   1.0000   1.0000   1.0000   0.9999   0.9999
     0.9999   0.9998   0.9998   0.9997   0.9996   0.9996   0.9992   0.9988
     0.9986   0.9985   0.9983   0.9981   0.9975   0.9972   0.9968   0.9960
     0.9954   0.9946   0.9922   0.9910   0.9901   0.9876   0.9850   0.9828
     0.9808   0.9787   0.9778   0.9679   0.9531   0.9417   0.9376   0.9243
     0.9145   0.9059   0.9045   0.9022   0.8986   0.8846   0.8741   0.8458
     0.8272   0.8214   0.7527   0.7431   0.7265   0.7141   0.7071   0.7023
     0.6996   0.6950   0.6790   0.6779   0.6685   0.6629   0.6606   0.6494
     0.6434   0.6389   0.6274   0.6214   0.6180   0.5980   0.5886   0.5543
     0.3423   0.3203   0.2048   0.0750   0.0518   0.0193   0.0059   0.0049
     0.0003   0.0001   0.0000   0.0000   0.0000   0.0000   0.0000   0.0000
     0.0000   0.0000   0.0000   0.0000   0.0000   0.0000   0.0000   0.0000
     0.0000   0.0000   0.0000   0.0000   0.0000   0.0000   0.0000   0.0000
     0.0000   0.0000   0.0000

          k = 0.0000-0.5000 0.0000 ( 65180 PWs)   bands (ev):

   -92.7074 -92.6601 -92.5626 -92.5143 -92.4575 -92.4141 -92.3966 -92.2765
   -56.0608 -56.0465 -55.9194 -55.9082 -55.9021 -55.8950 -55.8624 -55.8314
   -55.8152 -55.8136 -55.8105 -55.7645 -55.7451 -55.7084 -55.6896 -55.6578
   -55.6497 -55.6032 -55.6023 -55.5993 -55.5909 -55.5516 -55.5269 -55.4415
   -31.2837 -31.2644 -31.1233 -31.0739 -31.0363 -30.8986 -30.8871 -30.6902
   -29.8535 -29.8108 -29.7867 -29.6776 -15.0139 -14.9662 -14.9107 -14.7838
   -14.6993 -14.5646 -14.4027 -14.2880 -14.1637 -14.0877 -14.0468 -14.0404
   -13.9912 -13.9771 -13.9612 -13.9259 -13.8944 -13.8816 -13.8471 -13.7980
   -13.7617 -13.5896 -13.5301 -13.4780 -13.4629 -13.3981 -13.3644 -13.3163
   -13.2895 -13.2699 -13.2241 -13.1162 -13.1012 -13.0319 -12.9749 -12.9647
   -12.9356 -12.9267 -12.8882 -12.8438 -12.8112 -12.7747 -12.7119 -12.6767
   -12.6606 -12.6582 -12.6301 -12.5211 -12.4160 -12.3288 -12.2957 -12.1758
   -12.1293 -11.7878 -11.7849 -11.7575 -11.7203 -11.6858 -11.6747 -11.6325
   -11.6287 -11.5843 -11.5213 -11.5082 -11.4942  -2.5958  -2.5386  -2.3879
    -2.3164  -2.0308  -1.9507  -1.8222  -1.6870  -1.6418  -1.6290  -1.5513
    -1.5198  -1.4367  -1.4022  -1.3220  -1.2845  -1.2471  -1.2197  -1.1571
    -1.1270  -1.1017  -1.0747  -1.0394  -1.0073  -0.9748  -0.8636  -0.8201
    -0.7826  -0.7764  -0.6921  -0.6632  -0.6422  -0.5945  -0.5009  -0.4364
    -0.3428  -0.2721  -0.2126  -0.1814  -0.0362   0.0323   0.0461   0.0822
     0.2002   0.2660   0.3853   0.4560   0.4677   0.5906   0.6625   0.7428
     0.8709   0.9742   1.0079   1.0486   1.0632   1.0935   1.1088   1.1429
     1.1592   1.1748   1.2807   1.3417   1.3802   1.4086   1.6812   1.6971
     1.7134   1.8032   1.8294   1.8652   1.8802   1.9054   1.9261   1.9292
     1.9541   2.0009   2.0277   2.0600   2.0631   2.0926   2.1454   2.2401
     2.2714   2.4333   2.4405   2.4537   2.5978   2.6098   2.6250   2.6654
     2.6754   2.6822   2.7279   2.7388   2.7929   2.8134   2.8919   2.9137
     2.9774   2.9813   3.0073   3.0107   3.0240   3.0272   3.0322   3.0391
     3.0413   3.0534   3.0714   3.0729   3.1384   3.1420   3.1586   3.2135
     4.1191   4.1322   4.1787   4.2637   4.7322   4.8992   5.0201   5.1815
     5.4109   5.4594   5.5811   5.7434   6.0350   6.0400   6.3697   6.5075
     6.8496   6.9520   7.2169   7.3107   7.4276   7.4944   7.7485   7.8004
     7.9044   8.0740   8.1212   8.2627   8.2910   8.4795   8.4908   8.6672
     8.8075   8.8526   8.8561

     occupation numbers 
     1.0000   1.0000   1.0000   1.0000   1.0000   1.0000   1.0000   1.0000
     1.0000   1.0000   1.0000   1.0000   1.0000   1.0000   1.0000   1.0000
     1.0000   1.0000   1.0000   1.0000   1.0000   1.0000   1.0000   1.0000
     1.0000   1.0000   1.0000   1.0000   1.0000   1.0000   1.0000   1.0000
     1.0000   1.0000   1.0000   1.0000   1.0000   1.0000   1.0000   1.0000
     1.0000   1.0000   1.0000   1.0000   1.0000   1.0000   1.0000   1.0000
     1.0000   1.0000   1.0000   1.0000   1.0000   1.0000   1.0000   1.0000
     1.0000   1.0000   1.0000   1.0000   1.0000   1.0000   1.0000   1.0000
     1.0000   1.0000   1.0000   1.0000   1.0000   1.0000   1.0000   1.0000
     1.0000   1.0000   1.0000   1.0000   1.0000   1.0000   1.0000   1.0000
     1.0000   1.0000   1.0000   1.0000   1.0000   1.0000   1.0000   1.0000
     1.0000   1.0000   1.0000   1.0000   1.0000   1.0000   1.0000   1.0000
     1.0000   1.0000   1.0000   1.0000   1.0000   1.0000   1.0000   1.0000
     1.0000   1.0000   1.0000   1.0000   1.0000   1.0000   1.0000   1.0000
     1.0000   1.0000   1.0000   1.0000   1.0000   1.0000   1.0000   1.0000
     1.0000   1.0000   1.0000   1.0000   1.0000   1.0000   1.0000   1.0000
     1.0000   1.0000   1.0000   1.0000   1.0000   1.0000   1.0000   1.0000
     1.0000   1.0000   1.0000   1.0000   1.0000   1.0000   1.0000   1.0000
     1.0000   1.0000   1.0000   1.0000   1.0000   1.0000   1.0000   1.0000
     1.0000   1.0000   1.0000   1.0000   1.0000   1.0000   1.0000   0.9999
     0.9999   0.9998   0.9997   0.9996   0.9996   0.9995   0.9995   0.9994
     0.9993   0.9993   0.9988   0.9983   0.9980   0.9977   0.9925   0.9920
     0.9915   0.9879   0.9866   0.9846   0.9837   0.9822   0.9808   0.9806
     0.9787   0.9749   0.9725   0.9693   0.9690   0.9658   0.9594   0.9456
     0.9403   0.9060   0.9042   0.9009   0.8583   0.8542   0.8490   0.8345
     0.8308   0.8282   0.8104   0.8060   0.7831   0.7741   0.7376   0.7269
     0.6946   0.6925   0.6788   0.6770   0.6699   0.6682   0.6655   0.6617
     0.6606   0.6539   0.6440   0.6432   0.6063   0.6043   0.5948   0.5629
     0.1177   0.1139   0.1012   0.0806   0.0180   0.0095   0.0058   0.0029
     0.0010   0.0007   0.0004   0.0002   0.0000   0.0000   0.0000   0.0000
     0.0000   0.0000   0.0000   0.0000   0.0000   0.0000   0.0000   0.0000
     0.0000   0.0000   0.0000   0.0000   0.0000   0.0000   0.0000   0.0000
     0.0000   0.0000   0.0000

          k = 0.2500 0.2500 0.0000 ( 65198 PWs)   bands (ev):

   -92.7074 -92.6601 -92.5626 -92.5143 -92.4575 -92.4141 -92.3966 -92.2765
   -56.0608 -56.0465 -55.9194 -55.9082 -55.9021 -55.8950 -55.8624 -55.8314
   -55.8152 -55.8136 -55.8105 -55.7645 -55.7451 -55.7084 -55.6896 -55.6578
   -55.6497 -55.6032 -55.6023 -55.5993 -55.5909 -55.5516 -55.5269 -55.4415
   -31.2822 -31.2663 -31.1228 -31.0739 -31.0366 -30.8983 -30.8874 -30.6902
   -29.8531 -29.8121 -29.7856 -29.6777 -15.0222 -14.9782 -14.9086 -14.7927
   -14.6683 -14.5453 -14.4758 -14.2665 -14.1139 -14.1010 -14.0637 -14.0351
   -14.0111 -13.9807 -13.9624 -13.9458 -13.9112 -13.8451 -13.8273 -13.6690
   -13.6540 -13.6221 -13.6059 -13.5229 -13.5116 -13.4379 -13.4313 -13.3017
   -13.2630 -13.2343 -13.1486 -13.1081 -13.0577 -13.0257 -13.0117 -12.9786
   -12.9528 -12.9232 -12.8879 -12.8363 -12.7999 -12.7742 -12.7502 -12.7433
   -12.7201 -12.6652 -12.6273 -12.4930 -12.4586 -12.3773 -12.2829 -12.1056
   -12.0603 -11.8056 -11.7742 -11.7631 -11.7560 -11.6936 -11.6585 -11.6522
   -11.6168 -11.6088 -11.5165 -11.4760 -11.4584  -2.6730  -2.4654  -2.3475
    -2.2508  -2.1322  -2.0678  -1.8666  -1.7250  -1.7062  -1.6721  -1.5809
    -1.5476  -1.4531  -1.4249  -1.3749  -1.2450  -1.1962  -1.1242  -1.1020
    -1.0770  -1.0304  -1.0093  -0.9861  -0.9431  -0.9282  -0.8370  -0.7875
    -0.7152  -0.6705  -0.6422  -0.5938  -0.5801  -0.5152  -0.4644  -0.3948
    -0.3698  -0.2735  -0.2338  -0.1959  -0.1645  -0.1104  -0.0368   0.0019
     0.0405   0.1021   0.1386   0.4065   0.5609   0.5885   0.6528   0.6877
     0.7517   0.7945   0.8633   0.9008   1.1738   1.2359   1.3100   1.3332
     1.3886   1.4132   1.4510   1.4883   1.5041   1.5318   1.5781   1.5870
     1.6049   1.6518   1.6850   1.7247   1.7809   1.8177   1.8346   1.8608
     1.8970   1.9529   1.9798   2.1106   2.1715   2.2067   2.2288   2.3028
     2.3589   2.3888   2.4246   2.4338   2.4514   2.4602   2.4665   2.5766
     2.6231   2.7130   2.8705   2.8890   2.8930   2.9096   2.9251   2.9387
     2.9504   2.9563   2.9689   2.9821   2.9983   3.0119   3.0185   3.0303
     3.0559   3.0640   3.0730   3.1042   3.4047   3.4965   3.5467   3.6113
     3.6230   3.8586   3.9473   4.2985   4.5031   4.7182   4.9748   5.1662
     5.6431   5.7019   5.7954   5.8336   5.8917   6.1425   6.1588   6.2085
     6.8926   7.0243   7.1557   7.2793   7.5490   7.6022   7.7087   7.8623
     7.8793   8.0271   8.1669   8.2318   8.3326   8.3802   8.4404   8.4500
     8.5653   8.7348   8.8983

     occupation numbers 
     1.0000   1.0000   1.0000   1.0000   1.0000   1.0000   1.0000   1.0000
     1.0000   1.0000   1.0000   1.0000   1.0000   1.0000   1.0000   1.0000
     1.0000   1.0000   1.0000   1.0000   1.0000   1.0000   1.0000   1.0000
     1.0000   1.0000   1.0000   1.0000   1.0000   1.0000   1.0000   1.0000
     1.0000   1.0000   1.0000   1.0000   1.0000   1.0000   1.0000   1.0000
     1.0000   1.0000   1.0000   1.0000   1.0000   1.0000   1.0000   1.0000
     1.0000   1.0000   1.0000   1.0000   1.0000   1.0000   1.0000   1.0000
     1.0000   1.0000   1.0000   1.0000   1.0000   1.0000   1.0000   1.0000
     1.0000   1.0000   1.0000   1.0000   1.0000   1.0000   1.0000   1.0000
     1.0000   1.0000   1.0000   1.0000   1.0000   1.0000   1.0000   1.0000
     1.0000   1.0000   1.0000   1.0000   1.0000   1.0000   1.0000   1.0000
     1.0000   1.0000   1.0000   1.0000   1.0000   1.0000   1.0000   1.0000
     1.0000   1.0000   1.0000   1.0000   1.0000   1.0000   1.0000   1.0000
     1.0000   1.0000   1.0000   1.0000   1.0000   1.0000   1.0000   1.0000
     1.0000   1.0000   1.0000   1.0000   1.0000   1.0000   1.0000   1.0000
     1.0000   1.0000   1.0000   1.0000   1.0000   1.0000   1.0000   1.0000
     1.0000   1.0000   1.0000   1.0000   1.0000   1.0000   1.0000   1.0000
     1.0000   1.0000   1.0000   1.0000   1.0000   1.0000   1.0000   1.0000
     1.0000   1.0000   1.0000   1.0000   1.0000   1.0000   1.0000   1.0000
     1.0000   1.0000   1.0000   1.0000   1.0000   1.0000   1.0000   1.0000
     0.9999   0.9999   0.9999   0.9998   0.9993   0.9990   0.9986   0.9984
     0.9979   0.9977   0.9972   0.9967   0.9965   0.9960   0.9952   0.9950
     0.9946   0.9934   0.9924   0.9911   0.9889   0.9872   0.9863   0.9849
     0.9827   0.9788   0.9767   0.9637   0.9560   0.9509   0.9474   0.9345
     0.9232   0.9166   0.9082   0.9059   0.9015   0.8992   0.8975   0.8652
     0.8496   0.8163   0.7478   0.7390   0.7370   0.7289   0.7213   0.7144
     0.7085   0.7055   0.6990   0.6921   0.6836   0.6764   0.6729   0.6665
     0.6526   0.6481   0.6432   0.6258   0.4500   0.3967   0.3683   0.3327
     0.3264   0.2120   0.1758   0.0731   0.0395   0.0189   0.0070   0.0031
     0.0003   0.0002   0.0001   0.0001   0.0001   0.0000   0.0000   0.0000
     0.0000   0.0000   0.0000   0.0000   0.0000   0.0000   0.0000   0.0000
     0.0000   0.0000   0.0000   0.0000   0.0000   0.0000   0.0000   0.0000
     0.0000   0.0000   0.0000

          k = 0.2500-0.5000 0.0000 ( 65138 PWs)   bands (ev):

   -92.7074 -92.6601 -92.5626 -92.5143 -92.4575 -92.4141 -92.3966 -92.2765
   -56.0608 -56.0465 -55.9194 -55.9082 -55.9021 -55.8950 -55.8624 -55.8314
   -55.8152 -55.8136 -55.8105 -55.7645 -55.7451 -55.7084 -55.6896 -55.6578
   -55.6497 -55.6032 -55.6023 -55.5993 -55.5909 -55.5516 -55.5269 -55.4415
   -31.2820 -31.2661 -31.1230 -31.0738 -31.0367 -30.8984 -30.8872 -30.6903
   -29.8525 -29.8118 -29.7863 -29.6780 -14.9831 -14.9393 -14.8677 -14.7551
   -14.7214 -14.6052 -14.5077 -14.3840 -14.0789 -14.0232 -13.9989 -13.9755
   -13.9618 -13.9592 -13.9485 -13.9094 -13.8827 -13.8598 -13.8255 -13.7941
   -13.7480 -13.6714 -13.6238 -13.5454 -13.5342 -13.4748 -13.4460 -13.3578
   -13.3210 -13.2132 -13.1484 -13.1274 -13.0419 -12.9981 -12.9946 -12.9801
   -12.9497 -12.9179 -12.8859 -12.8475 -12.7961 -12.7836 -12.7076 -12.6974
   -12.6630 -12.6389 -12.6257 -12.5277 -12.3825 -12.3262 -12.2588 -12.1678
   -12.1376 -11.7814 -11.7692 -11.7583 -11.7311 -11.6998 -11.6710 -11.6302
   -11.6025 -11.5806 -11.5346 -11.5093 -11.4983  -2.4533  -2.3904  -2.2616
    -2.1851  -2.0514  -1.9704  -1.8465  -1.6975  -1.6396  -1.6196  -1.5590
    -1.5460  -1.4474  -1.3815  -1.2972  -1.2450  -1.2357  -1.1741  -1.1296
    -1.1040  -1.0971  -1.0477  -1.0106  -0.9765  -0.9380  -0.9236  -0.8807
    -0.8513  -0.8054  -0.7775  -0.7095  -0.6008  -0.5708  -0.4882  -0.4218
    -0.3640  -0.3264  -0.3126  -0.2400  -0.1001  -0.0906   0.0447   0.0499
     0.0599   0.1033   0.1413   0.1716   0.2069   0.2714   0.5641   0.6547
     0.7087   0.7608   1.0410   1.0513   1.1444   1.1717   1.3341   1.3739
     1.4082   1.4324   1.4447   1.4675   1.5333   1.5860   1.6187   1.6881
     1.7885   1.8198   1.8404   1.8509   1.8872   1.9026   1.9067   1.9524
     1.9632   1.9826   2.0203   2.0304   2.0550   2.0878   2.1453   2.1943
     2.2722   2.3996   2.4359   2.4558   2.5494   2.5667   2.5845   2.6209
     2.6393   2.6665   2.6865   2.7007   2.7240   2.8193   2.8717   2.8893
     2.9000   2.9070   2.9269   2.9405   2.9598   2.9675   3.0106   3.0178
     3.0275   3.0342   3.0443   3.0536   3.5700   3.5957   3.7361   3.7892
     4.1204   4.1801   4.1874   4.3168   4.7519   4.9208   5.0560   5.1440
     5.2989   5.4323   5.6053   5.6627   5.7653   5.7918   6.3943   6.4698
     6.4964   6.6435   7.3412   7.4168   7.5685   7.6998   7.7602   7.8149
     7.8777   8.0367   8.3448   8.4291   8.4597   8.4861   8.5374   8.5618
     8.7108   8.7703   8.7857

     occupation numbers 
     1.0000   1.0000   1.0000   1.0000   1.0000   1.0000   1.0000   1.0000
     1.0000   1.0000   1.0000   1.0000   1.0000   1.0000   1.0000   1.0000
     1.0000   1.0000   1.0000   1.0000   1.0000   1.0000   1.0000   1.0000
     1.0000   1.0000   1.0000   1.0000   1.0000   1.0000   1.0000   1.0000
     1.0000   1.0000   1.0000   1.0000   1.0000   1.0000   1.0000   1.0000
     1.0000   1.0000   1.0000   1.0000   1.0000   1.0000   1.0000   1.0000
     1.0000   1.0000   1.0000   1.0000   1.0000   1.0000   1.0000   1.0000
     1.0000   1.0000   1.0000   1.0000   1.0000   1.0000   1.0000   1.0000
     1.0000   1.0000   1.0000   1.0000   1.0000   1.0000   1.0000   1.0000
     1.0000   1.0000   1.0000   1.0000   1.0000   1.0000   1.0000   1.0000
     1.0000   1.0000   1.0000   1.0000   1.0000   1.0000   1.0000   1.0000
     1.0000   1.0000   1.0000   1.0000   1.0000   1.0000   1.0000   1.0000
     1.0000   1.0000   1.0000   1.0000   1.0000   1.0000   1.0000   1.0000
     1.0000   1.0000   1.0000   1.0000   1.0000   1.0000   1.0000   1.0000
     1.0000   1.0000   1.0000   1.0000   1.0000   1.0000   1.0000   1.0000
     1.0000   1.0000   1.0000   1.0000   1.0000   1.0000   1.0000   1.0000
     1.0000   1.0000   1.0000   1.0000   1.0000   1.0000   1.0000   1.0000
     1.0000   1.0000   1.0000   1.0000   1.0000   1.0000   1.0000   1.0000
     1.0000   1.0000   1.0000   1.0000   1.0000   1.0000   1.0000   1.0000
     1.0000   1.0000   1.0000   1.0000   1.0000   1.0000   1.0000   1.0000
     0.9999   0.9999   0.9996   0.9996   0.9994   0.9993   0.9984   0.9981
     0.9977   0.9975   0.9973   0.9970   0.9960   0.9950   0.9942   0.9923
     0.9885   0.9871   0.9860   0.9854   0.9833   0.9823   0.9821   0.9789
     0.9780   0.9765   0.9732   0.9723   0.9698   0.9664   0.9595   0.9527
     0.9401   0.9142   0.9054   0.9003   0.8738   0.8684   0.8626   0.8504
     0.8440   0.8341   0.8266   0.8212   0.8119   0.7714   0.7473   0.7388
     0.7336   0.7302   0.7203   0.7135   0.7037   0.6997   0.6771   0.6732
     0.6680   0.6644   0.6589   0.6538   0.3553   0.3412   0.2684   0.2430
     0.1173   0.1008   0.0989   0.0694   0.0167   0.0087   0.0050   0.0034
     0.0016   0.0009   0.0003   0.0003   0.0001   0.0001   0.0000   0.0000
     0.0000   0.0000   0.0000   0.0000   0.0000   0.0000   0.0000   0.0000
     0.0000   0.0000   0.0000   0.0000   0.0000   0.0000   0.0000   0.0000
     0.0000   0.0000   0.0000

          k =-0.5000-0.5000 0.0000 ( 65132 PWs)   bands (ev):

   -92.7074 -92.6601 -92.5626 -92.5143 -92.4575 -92.4141 -92.3966 -92.2765
   -56.0608 -56.0465 -55.9194 -55.9082 -55.9021 -55.8950 -55.8624 -55.8314
   -55.8152 -55.8136 -55.8105 -55.7645 -55.7451 -55.7084 -55.6896 -55.6578
   -55.6497 -55.6032 -55.6023 -55.5993 -55.5909 -55.5516 -55.5269 -55.4415
   -31.2799 -31.2683 -31.1226 -31.0736 -31.0371 -30.8983 -30.8874 -30.6905
   -29.8515 -29.8128 -29.7859 -29.6785 -14.9357 -14.9119 -14.7957 -14.7803
   -14.6834 -14.6524 -14.6140 -14.4826 -13.9887 -13.9783 -13.9616 -13.9435
   -13.9250 -13.9065 -13.8794 -13.8656 -13.8540 -13.8353 -13.8303 -13.8131
   -13.7381 -13.7326 -13.6942 -13.6687 -13.6179 -13.5618 -13.5091 -13.3976
   -13.3632 -13.1641 -13.1247 -13.0556 -13.0316 -12.9961 -12.9904 -12.9811
   -12.9718 -12.9608 -12.8423 -12.8272 -12.7990 -12.7876 -12.7515 -12.7233
   -12.6478 -12.6105 -12.6027 -12.5440 -12.3533 -12.3225 -12.2190 -12.1585
   -12.1531 -11.7778 -11.7656 -11.7477 -11.7308 -11.6960 -11.6785 -11.6432
   -11.5826 -11.5628 -11.5572 -11.5072 -11.5041  -2.2268  -2.1543  -2.1474
    -2.0734  -2.0350  -1.9568  -1.8887  -1.7620  -1.6474  -1.6182  -1.5742
    -1.5214  -1.4493  -1.4339  -1.3647  -1.3217  -1.2037  -1.1719  -1.1266
    -1.1046  -1.0958  -1.0340  -0.9862  -0.9688  -0.9559  -0.8987  -0.8590
    -0.8381  -0.7280  -0.6719  -0.6253  -0.5772  -0.5467  -0.5239  -0.4955
    -0.4603  -0.4163  -0.4054  -0.3253  -0.2601  -0.2166  -0.1871  -0.1167
    -0.0537  -0.0494   0.0123   0.0448   0.0559   0.0971   0.5429   0.5765
     0.6508   0.6759   1.0629   1.0775   1.1166   1.1537   1.4216   1.4384
     1.4467   1.4934   1.6130   1.7061   1.7341   1.7703   1.7990   1.8134
     1.8237   1.8543   1.8676   1.8833   1.8910   1.9429   1.9453   1.9734
     1.9865   2.0078   2.0243   2.0613   2.0877   2.1037   2.1312   2.1669
     2.2280   2.2969   2.4328   2.4543   2.5615   2.5939   2.6156   2.6317
     2.6444   2.6740   2.6771   2.6954   2.7067   2.7230   2.7448   2.7558
     2.8212   2.8245   2.8462   2.8593   2.8758   2.8976   2.8996   2.9059
     3.0167   3.0222   3.0387   3.0523   4.0025   4.0404   4.0448   4.0793
     4.3127   4.3868   4.4121   4.6515   4.7749   4.8573   4.9869   5.0787
     5.0862   5.2030   5.2919   5.4684   5.8562   5.8876   5.9545   6.0248
     6.7440   6.8932   6.9767   7.0976   7.8813   7.9241   7.9583   7.9660
     7.9829   8.0190   8.0853   8.2663   8.5128   8.5839   8.6162   8.6416
     8.6632   8.6797   8.7397

     occupation numbers 
     1.0000   1.0000   1.0000   1.0000   1.0000   1.0000   1.0000   1.0000
     1.0000   1.0000   1.0000   1.0000   1.0000   1.0000   1.0000   1.0000
     1.0000   1.0000   1.0000   1.0000   1.0000   1.0000   1.0000   1.0000
     1.0000   1.0000   1.0000   1.0000   1.0000   1.0000   1.0000   1.0000
     1.0000   1.0000   1.0000   1.0000   1.0000   1.0000   1.0000   1.0000
     1.0000   1.0000   1.0000   1.0000   1.0000   1.0000   1.0000   1.0000
     1.0000   1.0000   1.0000   1.0000   1.0000   1.0000   1.0000   1.0000
     1.0000   1.0000   1.0000   1.0000   1.0000   1.0000   1.0000   1.0000
     1.0000   1.0000   1.0000   1.0000   1.0000   1.0000   1.0000   1.0000
     1.0000   1.0000   1.0000   1.0000   1.0000   1.0000   1.0000   1.0000
     1.0000   1.0000   1.0000   1.0000   1.0000   1.0000   1.0000   1.0000
     1.0000   1.0000   1.0000   1.0000   1.0000   1.0000   1.0000   1.0000
     1.0000   1.0000   1.0000   1.0000   1.0000   1.0000   1.0000   1.0000
     1.0000   1.0000   1.0000   1.0000   1.0000   1.0000   1.0000   1.0000
     1.0000   1.0000   1.0000   1.0000   1.0000   1.0000   1.0000   1.0000
     1.0000   1.0000   1.0000   1.0000   1.0000   1.0000   1.0000   1.0000
     1.0000   1.0000   1.0000   1.0000   1.0000   1.0000   1.0000   1.0000
     1.0000   1.0000   1.0000   1.0000   1.0000   1.0000   1.0000   1.0000
     1.0000   1.0000   1.0000   1.0000   1.0000   1.0000   1.0000   1.0000
     1.0000   1.0000   1.0000   1.0000   1.0000   1.0000   1.0000   1.0000
     1.0000   1.0000   0.9996   0.9996   0.9995   0.9994   0.9976   0.9974
     0.9973   0.9967   0.9944   0.9917   0.9907   0.9893   0.9880   0.9874
     0.9869   0.9852   0.9845   0.9836   0.9831   0.9796   0.9794   0.9772
     0.9762   0.9743   0.9728   0.9692   0.9664   0.9646   0.9612   0.9566
     0.9476   0.9357   0.9062   0.9007   0.8700   0.8596   0.8522   0.8466
     0.8422   0.8313   0.8302   0.8232   0.8188   0.8124   0.8035   0.7990
     0.7706   0.7691   0.7592   0.7531   0.7453   0.7348   0.7338   0.7307
     0.6738   0.6709   0.6620   0.6546   0.1555   0.1424   0.1409   0.1298
     0.0702   0.0566   0.0525   0.0240   0.0154   0.0112   0.0067   0.0045
     0.0044   0.0026   0.0017   0.0007   0.0001   0.0001   0.0000   0.0000
     0.0000   0.0000   0.0000   0.0000   0.0000   0.0000   0.0000   0.0000
     0.0000   0.0000   0.0000   0.0000   0.0000   0.0000   0.0000   0.0000
     0.0000   0.0000   0.0000

          k = 0.2500 0.0000 0.0000 ( 65257 PWs)   bands (ev):

   -92.7074 -92.6601 -92.5626 -92.5143 -92.4575 -92.4141 -92.3966 -92.2765
   -56.0608 -56.0465 -55.9194 -55.9082 -55.9021 -55.8950 -55.8624 -55.8314
   -55.8152 -55.8136 -55.8105 -55.7645 -55.7451 -55.7084 -55.6896 -55.6578
   -55.6497 -55.6032 -55.6023 -55.5993 -55.5909 -55.5516 -55.5269 -55.4415
   -31.2824 -31.2664 -31.1225 -31.0741 -31.0364 -30.8981 -30.8875 -30.6900
   -29.8537 -29.8124 -29.7850 -29.6774 -15.0550 -15.0084 -14.9420 -14.7961
   -14.6841 -14.4931 -14.3607 -14.1802 -14.1641 -14.1336 -14.1004 -14.0770
   -14.0429 -14.0256 -14.0030 -13.9637 -13.9520 -13.8456 -13.8123 -13.6656
   -13.5951 -13.5781 -13.5061 -13.4952 -13.4803 -13.4197 -13.3514 -13.3190
   -13.2280 -13.1666 -13.1599 -13.0674 -13.0587 -13.0465 -13.0298 -13.0128
   -12.9772 -12.9406 -12.8995 -12.8428 -12.8262 -12.8176 -12.7856 -12.7743
   -12.6848 -12.6674 -12.6312 -12.5592 -12.4937 -12.4123 -12.2548 -12.0734
   -12.0118 -11.8327 -11.7808 -11.7637 -11.7503 -11.7235 -11.6729 -11.6498
   -11.6415 -11.5909 -11.5015 -11.4460 -11.4400  -2.8110  -2.5903  -2.4601
    -2.2866  -2.2228  -2.0543  -1.8428  -1.7696  -1.7258  -1.6861  -1.5889
    -1.5752  -1.5394  -1.5206  -1.4510  -1.2717  -1.1597  -1.1269  -1.1014
    -1.0257  -1.0084  -0.9357  -0.9088  -0.8559  -0.8166  -0.7643  -0.7278
    -0.6837  -0.6593  -0.6402  -0.5860  -0.5722  -0.4811  -0.4708  -0.3946
    -0.2993  -0.2129  -0.1390  -0.1226  -0.0430  -0.0100   0.0390   0.0612
     0.1057   0.1642   0.2108   0.4986   0.6253   0.6676   0.7431   0.7702
     0.8066   0.8203   0.9015   1.0135   1.0607   1.0865   1.1231   1.2784
     1.3043   1.3417   1.3477   1.3856   1.4348   1.4809   1.5097   1.5682
     1.6108   1.6256   1.6830   1.7293   1.7670   1.7950   1.8773   1.8792
     1.9198   1.9428   1.9736   2.0883   2.1556   2.2251   2.2973   2.3091
[...]
     0.3549   0.3251   0.2038   0.0791   0.0462   0.0215   0.0058   0.0048
     0.0003   0.0001   0.0000   0.0000   0.0000   0.0000   0.0000   0.0000
     0.0000   0.0000   0.0000   0.0000   0.0000   0.0000   0.0000   0.0000
     0.0000   0.0000   0.0000   0.0000   0.0000   0.0000   0.0000   0.0000
     0.0000   0.0000   0.0000

          k =-0.5000 0.0000 0.0000 ( 65180 PWs)   bands (ev):

   -92.7074 -92.6601 -92.5626 -92.5143 -92.4575 -92.4141 -92.3966 -92.2765
   -56.0608 -56.0465 -55.9194 -55.9082 -55.9021 -55.8950 -55.8624 -55.8314
   -55.8152 -55.8136 -55.8105 -55.7645 -55.7451 -55.7084 -55.6896 -55.6578
   -55.6497 -55.6032 -55.6023 -55.5993 -55.5909 -55.5516 -55.5269 -55.4415
   -31.2803 -31.2686 -31.1222 -31.0740 -31.0368 -30.8979 -30.8877 -30.6901
   -29.8527 -29.8134 -29.7846 -29.6778 -15.0208 -14.9654 -14.9058 -14.7932
   -14.6945 -14.5495 -14.4038 -14.2544 -14.1385 -14.1217 -14.1146 -14.0516
   -13.9981 -13.9652 -13.9615 -13.9135 -13.8976 -13.8856 -13.8417 -13.8142
   -13.7158 -13.5615 -13.5107 -13.4979 -13.4866 -13.4172 -13.3702 -13.3133
   -13.2741 -13.2504 -13.2321 -13.0607 -13.0521 -13.0388 -13.0210 -13.0078
   -12.9571 -12.9394 -12.9286 -12.8404 -12.8185 -12.7723 -12.6664 -12.6539
   -12.6467 -12.6392 -12.6310 -12.5472 -12.4228 -12.3327 -12.3012 -12.1712
   -12.1301 -11.7848 -11.7632 -11.7566 -11.7420 -11.7239 -11.6827 -11.6196
   -11.6018 -11.5690 -11.5241 -11.5153 -11.4995  -2.5867  -2.5486  -2.3855
    -2.3464  -2.0311  -1.9537  -1.8100  -1.6919  -1.6517  -1.6046  -1.5589
    -1.5349  -1.4110  -1.3673  -1.3499  -1.2686  -1.2341  -1.2156  -1.1875
    -1.1267  -1.1045  -1.0592  -1.0320  -0.9946  -0.9059  -0.8601  -0.8094
    -0.7777  -0.7575  -0.7222  -0.6776  -0.6535  -0.6147  -0.5009  -0.4463
    -0.3613  -0.2996  -0.1539  -0.1093  -0.0630   0.0071   0.0357   0.0618
     0.1911   0.2233   0.2702   0.4336   0.5336   0.5819   0.6844   0.7317
     0.8559   0.8674   0.9978   1.0260   1.0815   1.1196   1.1472   1.1570
     1.2067   1.2280   1.2960   1.3444   1.3902   1.4086   1.6974   1.7107
     1.7259   1.7582   1.8523   1.8668   1.8809   1.8878   1.9207   1.9304
     1.9665   1.9914   2.0133   2.0713   2.0874   2.1409   2.1602   2.2185
     2.3299   2.4182   2.4354   2.4649   2.4958   2.5104   2.5958   2.6200
     2.6534   2.7200   2.7284   2.7375   2.7691   2.8304   2.8753   2.9352
     2.9481   2.9944   2.9993   3.0031   3.0108   3.0284   3.0392   3.0513
     3.0579   3.0770   3.0810   3.1027   3.1227   3.1275   3.2559   3.2628
     4.0611   4.1296   4.1893   4.3073   4.7858   4.8601   5.0396   5.0637
     5.4820   5.5082   5.6063   5.6496   6.0280   6.0541   6.4099   6.4752
     6.7949   7.0018   7.2782   7.2954   7.3930   7.4580   7.7710   7.7875
     7.8831   8.1101   8.1665   8.2311   8.3093   8.4747   8.5145   8.6242
     8.7584   8.8206   8.8961

     occupation numbers 
     1.0000   1.0000   1.0000   1.0000   1.0000   1.0000   1.0000   1.0000
     1.0000   1.0000   1.0000   1.0000   1.0000   1.0000   1.0000   1.0000
     1.0000   1.0000   1.0000   1.0000   1.0000   1.0000   1.0000   1.0000
     1.0000   1.0000   1.0000   1.0000   1.0000   1.0000   1.0000   1.0000
     1.0000   1.0000   1.0000   1.0000   1.0000   1.0000   1.0000   1.0000
     1.0000   1.0000   1.0000   1.0000   1.0000   1.0000   1.0000   1.0000
     1.0000   1.0000   1.0000   1.0000   1.0000   1.0000   1.0000   1.0000
     1.0000   1.0000   1.0000   1.0000   1.0000   1.0000   1.0000   1.0000
     1.0000   1.0000   1.0000   1.0000   1.0000   1.0000   1.0000   1.0000
     1.0000   1.0000   1.0000   1.0000   1.0000   1.0000   1.0000   1.0000
     1.0000   1.0000   1.0000   1.0000   1.0000   1.0000   1.0000   1.0000
     1.0000   1.0000   1.0000   1.0000   1.0000   1.0000   1.0000   1.0000
     1.0000   1.0000   1.0000   1.0000   1.0000   1.0000   1.0000   1.0000
     1.0000   1.0000   1.0000   1.0000   1.0000   1.0000   1.0000   1.0000
     1.0000   1.0000   1.0000   1.0000   1.0000   1.0000   1.0000   1.0000
     1.0000   1.0000   1.0000   1.0000   1.0000   1.0000   1.0000   1.0000
     1.0000   1.0000   1.0000   1.0000   1.0000   1.0000   1.0000   1.0000
     1.0000   1.0000   1.0000   1.0000   1.0000   1.0000   1.0000   1.0000
     1.0000   1.0000   1.0000   1.0000   1.0000   1.0000   1.0000   1.0000
     1.0000   1.0000   1.0000   1.0000   1.0000   1.0000   1.0000   0.9999
     0.9999   0.9999   0.9997   0.9997   0.9996   0.9995   0.9994   0.9993
     0.9991   0.9991   0.9987   0.9983   0.9979   0.9977   0.9920   0.9916
     0.9910   0.9898   0.9854   0.9845   0.9837   0.9833   0.9811   0.9805
     0.9778   0.9757   0.9738   0.9681   0.9664   0.9600   0.9575   0.9490
     0.9293   0.9098   0.9055   0.8979   0.8895   0.8854   0.8589   0.8507
     0.8389   0.8136   0.8102   0.8065   0.7934   0.7664   0.7455   0.7162
     0.7097   0.6857   0.6831   0.6811   0.6770   0.6676   0.6617   0.6551
     0.6515   0.6410   0.6387   0.6266   0.6153   0.6125   0.5380   0.5339
     0.1356   0.1147   0.0984   0.0713   0.0148   0.0111   0.0053   0.0048
     0.0007   0.0006   0.0003   0.0003   0.0000   0.0000   0.0000   0.0000
     0.0000   0.0000   0.0000   0.0000   0.0000   0.0000   0.0000   0.0000
     0.0000   0.0000   0.0000   0.0000   0.0000   0.0000   0.0000   0.0000
     0.0000   0.0000   0.0000

          k =-0.2500 0.2500 0.0000 ( 65198 PWs)   bands (ev):

   -92.7074 -92.6601 -92.5626 -92.5143 -92.4575 -92.4141 -92.3966 -92.2765
   -56.0608 -56.0465 -55.9194 -55.9082 -55.9021 -55.8950 -55.8624 -55.8314
   -55.8152 -55.8136 -55.8105 -55.7645 -55.7451 -55.7084 -55.6896 -55.6578
   -55.6497 -55.6032 -55.6023 -55.5993 -55.5909 -55.5516 -55.5269 -55.4415
   -31.2822 -31.2663 -31.1228 -31.0739 -31.0366 -30.8983 -30.8874 -30.6902
   -29.8531 -29.8121 -29.7856 -29.6777 -15.0235 -14.9771 -14.9073 -14.7911
   -14.6738 -14.5511 -14.4675 -14.2569 -14.1205 -14.0922 -14.0768 -14.0300
   -14.0054 -13.9825 -13.9677 -13.9495 -13.9202 -13.8405 -13.8277 -13.6784
   -13.6505 -13.6184 -13.6008 -13.5216 -13.5029 -13.4415 -13.4298 -13.3091
   -13.2606 -13.2285 -13.1528 -13.1099 -13.0465 -13.0207 -13.0017 -12.9887
   -12.9523 -12.9327 -12.8811 -12.8541 -12.8047 -12.7803 -12.7752 -12.7422
   -12.6987 -12.6492 -12.6334 -12.4646 -12.4484 -12.4027 -12.2886 -12.1102
   -12.0548 -11.8048 -11.7835 -11.7562 -11.7440 -11.7032 -11.6683 -11.6455
   -11.6237 -11.6013 -11.5163 -11.4712 -11.4619  -2.6713  -2.4644  -2.3434
    -2.2522  -2.1366  -2.0705  -1.8641  -1.7220  -1.7038  -1.6701  -1.5816
    -1.5465  -1.4531  -1.4182  -1.3920  -1.2511  -1.1944  -1.1247  -1.1042
    -1.0960  -1.0335  -1.0163  -0.9756  -0.9472  -0.9067  -0.8434  -0.7954
    -0.7253  -0.6628  -0.6388  -0.5883  -0.5597  -0.5136  -0.4534  -0.3954
    -0.3667  -0.2594  -0.2364  -0.2114  -0.1689  -0.1145  -0.0413  -0.0002
     0.0503   0.1061   0.1375   0.3861   0.5647   0.5955   0.6411   0.6957
     0.7503   0.8004   0.8675   0.8995   1.1814   1.2865   1.3265   1.3605
     1.3699   1.4077   1.4231   1.4696   1.5009   1.5132   1.5392   1.5878
     1.6044   1.6425   1.6691   1.7104   1.7935   1.8094   1.8347   1.8623
     1.8952   1.9391   1.9823   2.0970   2.2055   2.2301   2.2765   2.2979
     2.3576   2.4000   2.4266   2.4352   2.4511   2.4628   2.4750   2.5765
     2.6221   2.7121   2.8789   2.8851   2.8999   2.9083   2.9201   2.9336
     2.9420   2.9597   2.9702   2.9815   2.9932   3.0035   3.0130   3.0213
     3.0561   3.0655   3.0723   3.1062   3.3980   3.4788   3.5485   3.6136
     3.6345   3.8429   3.9558   4.2978   4.5003   4.7198   4.9846   5.1663
     5.6445   5.6999   5.7997   5.8288   5.8922   6.1451   6.1697   6.1949
     6.8901   7.0205   7.1760   7.2618   7.5630   7.6098   7.6694   7.8718
     7.9028   8.0219   8.1525   8.2246   8.3364   8.3811   8.4420   8.4774
     8.5709   8.7076   8.9007

     occupation numbers 
     1.0000   1.0000   1.0000   1.0000   1.0000   1.0000   1.0000   1.0000
     1.0000   1.0000   1.0000   1.0000   1.0000   1.0000   1.0000   1.0000
     1.0000   1.0000   1.0000   1.0000   1.0000   1.0000   1.0000   1.0000
     1.0000   1.0000   1.0000   1.0000   1.0000   1.0000   1.0000   1.0000
     1.0000   1.0000   1.0000   1.0000   1.0000   1.0000   1.0000   1.0000
     1.0000   1.0000   1.0000   1.0000   1.0000   1.0000   1.0000   1.0000
     1.0000   1.0000   1.0000   1.0000   1.0000   1.0000   1.0000   1.0000
     1.0000   1.0000   1.0000   1.0000   1.0000   1.0000   1.0000   1.0000
     1.0000   1.0000   1.0000   1.0000   1.0000   1.0000   1.0000   1.0000
     1.0000   1.0000   1.0000   1.0000   1.0000   1.0000   1.0000   1.0000
     1.0000   1.0000   1.0000   1.0000   1.0000   1.0000   1.0000   1.0000
     1.0000   1.0000   1.0000   1.0000   1.0000   1.0000   1.0000   1.0000
     1.0000   1.0000   1.0000   1.0000   1.0000   1.0000   1.0000   1.0000
     1.0000   1.0000   1.0000   1.0000   1.0000   1.0000   1.0000   1.0000
     1.0000   1.0000   1.0000   1.0000   1.0000   1.0000   1.0000   1.0000
     1.0000   1.0000   1.0000   1.0000   1.0000   1.0000   1.0000   1.0000
     1.0000   1.0000   1.0000   1.0000   1.0000   1.0000   1.0000   1.0000
     1.0000   1.0000   1.0000   1.0000   1.0000   1.0000   1.0000   1.0000
     1.0000   1.0000   1.0000   1.0000   1.0000   1.0000   1.0000   1.0000
     1.0000   1.0000   1.0000   1.0000   1.0000   1.0000   1.0000   1.0000
     0.9999   0.9999   0.9999   0.9998   0.9993   0.9987   0.9985   0.9982
     0.9981   0.9977   0.9976   0.9970   0.9965   0.9964   0.9959   0.9949
     0.9946   0.9936   0.9929   0.9916   0.9883   0.9876   0.9863   0.9848
     0.9828   0.9798   0.9765   0.9653   0.9510   0.9472   0.9394   0.9355
     0.9235   0.9141   0.9077   0.9056   0.9015   0.8985   0.8952   0.8652
     0.8500   0.8167   0.7438   0.7409   0.7337   0.7296   0.7237   0.7170
     0.7127   0.7037   0.6983   0.6924   0.6863   0.6809   0.6758   0.6713
     0.6525   0.6473   0.6436   0.6246   0.4539   0.4069   0.3672   0.3315
     0.3203   0.2188   0.1726   0.0733   0.0399   0.0188   0.0067   0.0031
     0.0003   0.0002   0.0001   0.0001   0.0001   0.0000   0.0000   0.0000
     0.0000   0.0000   0.0000   0.0000   0.0000   0.0000   0.0000   0.0000
     0.0000   0.0000   0.0000   0.0000   0.0000   0.0000   0.0000   0.0000
     0.0000   0.0000   0.0000

          k =-0.5000 0.2500 0.0000 ( 65138 PWs)   bands (ev):

   -92.7074 -92.6601 -92.5626 -92.5143 -92.4575 -92.4141 -92.3966 -92.2765
   -56.0608 -56.0465 -55.9194 -55.9082 -55.9021 -55.8950 -55.8624 -55.8314
   -55.8152 -55.8136 -55.8105 -55.7645 -55.7451 -55.7084 -55.6896 -55.6578
   -55.6497 -55.6032 -55.6023 -55.5993 -55.5909 -55.5516 -55.5269 -55.4415
   -31.2801 -31.2684 -31.1224 -31.0738 -31.0370 -30.8981 -30.8876 -30.6903
   -29.8521 -29.8131 -29.7852 -29.6781 -14.9875 -14.9393 -14.8628 -14.7612
   -14.7212 -14.5971 -14.5074 -14.3744 -14.0708 -14.0403 -14.0284 -13.9842
   -13.9641 -13.9574 -13.9368 -13.9001 -13.8810 -13.8664 -13.8282 -13.8143
   -13.7089 -13.6436 -13.5944 -13.5865 -13.5462 -13.4754 -13.4637 -13.3525
   -13.3027 -13.2065 -13.1706 -13.0739 -13.0338 -13.0222 -13.0057 -12.9828
   -12.9541 -12.9448 -12.8958 -12.8472 -12.7984 -12.7811 -12.7085 -12.6899
   -12.6390 -12.6269 -12.6186 -12.5454 -12.3854 -12.3279 -12.2616 -12.1650
   -12.1383 -11.7776 -11.7648 -11.7508 -11.7387 -11.7175 -11.6874 -11.6064
   -11.5980 -11.5748 -11.5386 -11.5110 -11.5019  -2.4439  -2.4025  -2.2551
    -2.2130  -2.0510  -1.9724  -1.8341  -1.6978  -1.6393  -1.6129  -1.5749
    -1.5376  -1.4562  -1.3407  -1.2836  -1.2608  -1.2333  -1.1556  -1.1300
    -1.1060  -1.0879  -1.0735  -1.0127  -0.9786  -0.9438  -0.9099  -0.8809
    -0.8219  -0.7947  -0.7538  -0.7164  -0.6109  -0.5883  -0.4823  -0.4385
    -0.3993  -0.3293  -0.2653  -0.2319  -0.1268  -0.0931  -0.0279   0.0153
     0.0806   0.1155   0.1446   0.1770   0.2266   0.2654   0.6026   0.6455
     0.6998   0.7247   1.0104   1.0780   1.1471   1.1780   1.3491   1.3823
     1.4205   1.4310   1.4490   1.4664   1.5364   1.5847   1.6227   1.6618
     1.7688   1.8153   1.8419   1.8518   1.8839   1.9154   1.9325   1.9443
     1.9600   1.9856   2.0274   2.0461   2.0810   2.1074   2.1392   2.1948
     2.3215   2.4100   2.4315   2.4467   2.4594   2.5089   2.5477   2.6109
     2.6489   2.6544   2.6964   2.7260   2.7499   2.8300   2.8740   2.8882
     2.8941   2.9155   2.9349   2.9471   2.9629   2.9758   3.0005   3.0132
     3.0214   3.0308   3.0379   3.0503   3.5816   3.6164   3.7696   3.7884
     4.0704   4.1423   4.1994   4.3945   4.7801   4.8777   5.0441   5.0770
     5.4107   5.4283   5.5881   5.6315   5.7407   5.8119   6.3914   6.4858
     6.5181   6.6121   7.3595   7.3939   7.5763   7.7116   7.7637   7.7976
     7.8874   8.0220   8.3181   8.4335   8.4672   8.5221   8.5605   8.5855
     8.6666   8.7484   8.7547

     occupation numbers 
     1.0000   1.0000   1.0000   1.0000   1.0000   1.0000   1.0000   1.0000
     1.0000   1.0000   1.0000   1.0000   1.0000   1.0000   1.0000   1.0000
     1.0000   1.0000   1.0000   1.0000   1.0000   1.0000   1.0000   1.0000
     1.0000   1.0000   1.0000   1.0000   1.0000   1.0000   1.0000   1.0000
     1.0000   1.0000   1.0000   1.0000   1.0000   1.0000   1.0000   1.0000
     1.0000   1.0000   1.0000   1.0000   1.0000   1.0000   1.0000   1.0000
     1.0000   1.0000   1.0000   1.0000   1.0000   1.0000   1.0000   1.0000
     1.0000   1.0000   1.0000   1.0000   1.0000   1.0000   1.0000   1.0000
     1.0000   1.0000   1.0000   1.0000   1.0000   1.0000   1.0000   1.0000
     1.0000   1.0000   1.0000   1.0000   1.0000   1.0000   1.0000   1.0000
     1.0000   1.0000   1.0000   1.0000   1.0000   1.0000   1.0000   1.0000
     1.0000   1.0000   1.0000   1.0000   1.0000   1.0000   1.0000   1.0000
     1.0000   1.0000   1.0000   1.0000   1.0000   1.0000   1.0000   1.0000
     1.0000   1.0000   1.0000   1.0000   1.0000   1.0000   1.0000   1.0000
     1.0000   1.0000   1.0000   1.0000   1.0000   1.0000   1.0000   1.0000
     1.0000   1.0000   1.0000   1.0000   1.0000   1.0000   1.0000   1.0000
     1.0000   1.0000   1.0000   1.0000   1.0000   1.0000   1.0000   1.0000
     1.0000   1.0000   1.0000   1.0000   1.0000   1.0000   1.0000   1.0000
     1.0000   1.0000   1.0000   1.0000   1.0000   1.0000   1.0000   1.0000
     1.0000   1.0000   1.0000   1.0000   1.0000   1.0000   1.0000   1.0000
     1.0000   0.9999   0.9997   0.9996   0.9994   0.9993   0.9983   0.9980
     0.9976   0.9975   0.9973   0.9970   0.9960   0.9950   0.9941   0.9931
     0.9894   0.9873   0.9859   0.9854   0.9835   0.9815   0.9803   0.9795
     0.9783   0.9762   0.9725   0.9707   0.9671   0.9641   0.9602   0.9526
     0.9309   0.9117   0.9065   0.9027   0.8994   0.8858   0.8743   0.8538
     0.8405   0.8385   0.8228   0.8111   0.8014   0.7666   0.7461   0.7393
     0.7365   0.7260   0.7163   0.7102   0.7021   0.6954   0.6825   0.6757
     0.6713   0.6663   0.6624   0.6556   0.3489   0.3300   0.2522   0.2434
     0.1326   0.1111   0.0958   0.0553   0.0151   0.0104   0.0052   0.0045
     0.0010   0.0009   0.0004   0.0003   0.0002   0.0001   0.0000   0.0000
     0.0000   0.0000   0.0000   0.0000   0.0000   0.0000   0.0000   0.0000
     0.0000   0.0000   0.0000   0.0000   0.0000   0.0000   0.0000   0.0000
     0.0000   0.0000   0.0000

     the Fermi energy is     3.3201 ev

!    total energy              =   -4441.66117455 Ry
     estimated scf accuracy    <          9.6E-09 Ry
     smearing contrib. (-TS)   =      -1.15490349 Ry
     internal energy E=F+TS    =   -4440.50627106 Ry

     The total energy is F=E-TS. E is the sum of the following terms:
     one-electron contribution =  -20803.14069090 Ry
     hartree contribution      =   10533.45314190 Ry
     xc contribution           =    -694.18033134 Ry
     ewald contribution        =    6799.53185038 Ry
     one-center paw contrib.   =    -276.17024110 Ry
      -> PAW hartree energy AE =      25.16117907 Ry
      -> PAW hartree energy PS =     -25.04508455 Ry
      -> PAW xc energy AE      =     -16.51728672 Ry
      -> PAW xc energy PS      =       6.87672536 Ry
      -> total E_H with PAW    =   10533.56923643 Ry
      -> total E_XC with PAW   =    -703.82089270 Ry

     convergence has been achieved in  46 iterations

     Writing all to output data dir /bsuhome/zayahcortright/scratch/pwscf.save/
 
     init_run     :      8.10s CPU      8.63s WALL (       1 calls)
     electrons    :    740.93s CPU    804.72s WALL (       1 calls)

     Called by init_run:
     wfcinit      :      6.22s CPU      6.40s WALL (       1 calls)
     wfcinit:atom :      0.05s CPU      0.07s WALL (       5 calls)
     wfcinit:wfcr :      5.89s CPU      6.00s WALL (       5 calls)
     potinit      :      0.24s CPU      0.26s WALL (       1 calls)
     hinit0       :      0.68s CPU      0.79s WALL (       1 calls)

     Called by electrons:
     c_bands      :    590.89s CPU    599.53s WALL (      46 calls)
     sum_band     :    113.19s CPU    140.19s WALL (      46 calls)
     v_of_rho     :      5.03s CPU      5.40s WALL (      47 calls)
     v_h          :      0.42s CPU      0.42s WALL (      47 calls)
     v_xc         :      4.62s CPU      4.98s WALL (      47 calls)
     newd         :     18.07s CPU     45.47s WALL (      47 calls)
     PAW_pot      :      1.52s CPU      1.55s WALL (      47 calls)
     mix_rho      :     12.05s CPU     12.41s WALL (      46 calls)

     Called by c_bands:
     init_us_2    :      6.23s CPU      6.31s WALL (     465 calls)
     init_us_2:cp :      6.22s CPU      6.30s WALL (     465 calls)
     cegterg      :    556.18s CPU    564.37s WALL (     230 calls)

     Called by sum_band:
     sum_band:wei :      0.33s CPU      0.33s WALL (      46 calls)
     sum_band:loo :     83.82s CPU     84.49s WALL (      46 calls)
     sum_band:buf :      1.16s CPU      1.21s WALL (     230 calls)
     sum_band:ini :      2.74s CPU      2.75s WALL (     230 calls)
     sum_band:cal :     18.21s CPU     18.26s WALL (     230 calls)
     sum_band:bec :      0.54s CPU      0.55s WALL (     230 calls)
     addusdens    :     23.65s CPU     49.92s WALL (      46 calls)
                                        0.00s GPU  (      46 calls)
     addusd:skk   :      0.27s CPU      1.54s WALL (     184 calls)
                                        0.00s GPU  (     184 calls)

     Called by *egterg:
     cdiaghg      :     55.26s CPU     55.54s WALL (    1193 calls)
     cegterg:over :     45.46s CPU     45.69s WALL (     963 calls)
     cegterg:upda :     46.02s CPU     46.77s WALL (     963 calls)
     cegterg:last :     65.03s CPU     65.33s WALL (     411 calls)
     cdiaghg:chol :      3.07s CPU      3.10s WALL (    1193 calls)
     cdiaghg:inve :      3.48s CPU      3.50s WALL (    1193 calls)
     cdiaghg:para :      7.24s CPU      7.28s WALL (    2386 calls)
     h_psi        :    282.54s CPU    286.11s WALL (    1198 calls)
     s_psi        :     36.87s CPU     36.99s WALL (    1198 calls)
     g_psi        :      2.45s CPU      2.46s WALL (     963 calls)

     Called by h_psi:
     h_psi:calbec :     42.58s CPU     42.82s WALL (    1198 calls)
     vloc_psi     :    198.20s CPU    200.11s WALL (    1198 calls)
     add_vuspsi   :     36.38s CPU     36.56s WALL (    1198 calls)

     General routines
     calbec       :     60.79s CPU     61.07s WALL (    1428 calls)
     fft          :      7.08s CPU      7.14s WALL (     609 calls)
     ffts         :      4.55s CPU      4.59s WALL (    4924 calls)
     fftw         :    181.34s CPU    182.90s WALL (  312100 calls)
     interpolate  :      0.38s CPU      0.39s WALL (      47 calls)
 
     Parallel routines

     PAW routines
     PAW_pot      :      1.52s CPU      1.55s WALL (      47 calls)
 
     PWSCF        :  12m30.99s CPU  13m38.70s WALL

 
   This run was terminated on:   4:45:14  22Jun2024            

=------------------------------------------------------------------------------=
   JOB DONE.
=------------------------------------------------------------------------------=
